
     Program PWSCF v.7.1 starts on 20Nov2023 at 22:25:38 

     This program is part of the open-source Quantum ESPRESSO suite
     for quantum simulation of materials; please cite
         "P. Giannozzi et al., J. Phys.:Condens. Matter 21 395502 (2009);
         "P. Giannozzi et al., J. Phys.:Condens. Matter 29 465901 (2017);
         "P. Giannozzi et al., J. Chem. Phys. 152 154105 (2020);
          URL http://www.quantum-espresso.org", 
     in publications or presentations arising from this work. More details at
     http://www.quantum-espresso.org/quote

     Parallel version (MPI), running on    24 processors

     MPI processes distributed on     1 nodes
     123414 MiB available memory on the printing compute node when the environment starts
 
     Reading input from pw_mp-611517_nscf_k350_E60.in
Warning: card &IONS ignored
Warning: card / ignored
Warning: card &CELL ignored
Warning: card / ignored

     Current dimensions of program PWSCF are:
     Max number of different atomic species (ntypx) = 10
     Max number of k-points (npk) =  40000
     Max angular momentum in pseudopotentials (lmaxx) =  4

     Atomic positions and unit cell read from directory:
     out/mp-611517.save/
 
 
     K-points division:     npool     =       2
     R & G space division:  proc/nbgrp/npool/nimage =      12
     Subspace diagonalization in iterative solution of the eigenvalue problem:
     one sub-group per band group will be used
     scalapack distributed-memory algorithm (size of sub-group:  3*  3 procs)

 
     Parallelization info
     --------------------
     sticks:   dense  smooth     PW     G-vecs:    dense   smooth      PW
     Min         104     104     30                 2416     2416     386
     Max         106     106     31                 2419     2419     389
     Sum        1261    1261    367                29003    29003    4645
 
     Using Slab Decomposition
 


     bravais-lattice index     =            2
     lattice parameter (alat)  =      12.2699  a.u.
     unit-cell volume          =     461.8062 (a.u.)^3
     number of atoms/cell      =            1
     number of atomic types    =            1
     number of electrons       =        18.00
     number of Kohn-Sham states=         1200
     kinetic-energy cutoff     =      60.0000  Ry
     charge density cutoff     =     240.0000  Ry
     Exchange-correlation= PBE
                           (   1   4   3   4   0   0   0)

     celldm(1)=  12.269869  celldm(2)=   0.000000  celldm(3)=   0.000000
     celldm(4)=   0.000000  celldm(5)=   0.000000  celldm(6)=   0.000000

     crystal axes: (cart. coord. in units of alat)
               a(1) = (  -0.500000   0.000000   0.500000 )  
               a(2) = (   0.000000   0.500000   0.500000 )  
               a(3) = (  -0.500000   0.500000   0.000000 )  

     reciprocal axes: (cart. coord. in units 2 pi/alat)
               b(1) = ( -1.000000 -1.000000  1.000000 )  
               b(2) = (  1.000000  1.000000  1.000000 )  
               b(3) = ( -1.000000  1.000000 -1.000000 )  


     PseudoPot. # 1 for Xe read from file:
     /usr/scratch4/magr4985/MG/HTDF/pseudo/SG15/Xe.upf
     MD5 check sum: cc9f462402d923a4ee0779e880a8f0fc
     Pseudo is Norm-conserving, Zval = 18.0
     Generated using ONCVPSP code by D. R. Hamann
     Using radial grid of  602 points,  6 beta functions with: 
                l(1) =   0
                l(2) =   0
                l(3) =   1
                l(4) =   1
                l(5) =   2
                l(6) =   2

     atomic species   valence    mass     pseudopotential
        Xe            18.00   131.29300     Xe( 1.00)

     48 Sym. Ops., with inversion, found



   Cartesian axes

     site n.     atom                  positions (alat units)
         1           Xe  tau(   1) = (   0.0000000   0.0000000   0.0000000  )

     number of k points=    29  Gaussian smearing, width (Ry)=  0.0005
                       cart. coord. in units 2pi/alat
        k(    1) = (   0.0000000   0.0000000   0.0000000), wk =   0.0039062
        k(    2) = (  -0.1250000   0.1250000  -0.1250000), wk =   0.0312500
        k(    3) = (  -0.2500000   0.2500000  -0.2500000), wk =   0.0312500
        k(    4) = (  -0.3750000   0.3750000  -0.3750000), wk =   0.0312500
        k(    5) = (   0.5000000  -0.5000000   0.5000000), wk =   0.0156250
        k(    6) = (   0.0000000   0.2500000   0.0000000), wk =   0.0234375
        k(    7) = (  -0.1250000   0.3750000  -0.1250000), wk =   0.0937500
        k(    8) = (  -0.2500000   0.5000000  -0.2500000), wk =   0.0937500
        k(    9) = (   0.6250000  -0.3750000   0.6250000), wk =   0.0937500
        k(   10) = (   0.5000000  -0.2500000   0.5000000), wk =   0.0937500
        k(   11) = (   0.3750000  -0.1250000   0.3750000), wk =   0.0937500
        k(   12) = (   0.2500000   0.0000000   0.2500000), wk =   0.0468750
        k(   13) = (   0.0000000   0.5000000   0.0000000), wk =   0.0234375
        k(   14) = (  -0.1250000   0.6250000  -0.1250000), wk =   0.0937500
        k(   15) = (   0.7500000  -0.2500000   0.7500000), wk =   0.0937500
        k(   16) = (   0.6250000  -0.1250000   0.6250000), wk =   0.0937500
        k(   17) = (   0.5000000   0.0000000   0.5000000), wk =   0.0468750
        k(   18) = (   0.0000000   0.7500000   0.0000000), wk =   0.0234375
        k(   19) = (   0.8750000  -0.1250000   0.8750000), wk =   0.0937500
        k(   20) = (   0.7500000   0.0000000   0.7500000), wk =   0.0468750
        k(   21) = (   0.0000000  -1.0000000   0.0000000), wk =   0.0117188
        k(   22) = (  -0.2500000   0.5000000   0.0000000), wk =   0.0937500
        k(   23) = (   0.6250000  -0.3750000   0.8750000), wk =   0.1875000
        k(   24) = (   0.5000000  -0.2500000   0.7500000), wk =   0.0937500
        k(   25) = (   0.7500000  -0.2500000   1.0000000), wk =   0.0937500
        k(   26) = (   0.6250000  -0.1250000   0.8750000), wk =   0.1875000
        k(   27) = (   0.5000000   0.0000000   0.7500000), wk =   0.0937500
        k(   28) = (  -0.2500000  -1.0000000   0.0000000), wk =   0.0468750
        k(   29) = (  -0.5000000  -1.0000000   0.0000000), wk =   0.0234375

     Dense  grid:    29003 G-vectors     FFT dimensions: (  45,  45,  45)

     Estimated max dynamical RAM per process >     142.42 MB

     Estimated total dynamical RAM >       3.34 GB

     The potential is recalculated from file :
     out/mp-611517.save/charge-density

     Starting wfcs are random

     Band Structure Calculation
     Davidson diagonalization with overlap

     ethr =  5.00E-06,  avg # of iterations = 11.7

     total cpu time spent up to now is     1276.9 secs

     End of band structure calculation

          k = 0.0000 0.0000 0.0000 (  3695 PWs)   bands (ev):

   -52.1558 -52.1558 -52.1558 -52.1558 -52.1558 -12.6523  -0.5305  -0.5305
    -0.5305   5.6733  10.1689  10.1689  10.1689  12.0901  12.0901  13.0735
    15.0535  15.0535  15.0535  16.9034  24.1095  24.1095  24.1095  24.9185
    24.9185  24.9185  25.7713  25.7713  25.7713  26.7923  26.7923  29.0821
    33.9220  33.9220  33.9220  34.1844  34.7666  34.7666  36.8175  36.8175
    36.8175  37.1851  37.1851  37.1851  38.2046  38.2046  38.2046  38.4677
    38.4677  38.4677  40.5284  40.5293  40.5293  40.5293  41.2009  41.2009
    43.5006  43.6091  43.6091  43.6091  44.2192  44.2192  44.2192  44.5139
    55.1055  55.1055  55.1055  55.9475  55.9475  56.6893  57.3687  57.3687
    57.3687  61.6360  61.6360  62.5671  62.5671  62.5671  63.0830  63.7185
    63.7185  63.7185  66.4641  66.4641  66.4641  66.6805  66.6805  66.6805
    67.4229  67.4229  67.4229  68.2668  68.2668  69.2630  69.2630  69.2630
    69.2971  69.2971  69.2971  70.0862  70.0862  70.0862  70.0887  70.2411
    70.2411  71.2342  72.4937  72.4937  72.4937  72.5002  72.5002  72.5002
    72.6822  72.6822  72.6822  72.9444  72.9444  75.3395  80.2415  82.4859
    82.4859  82.4859  83.1077  83.1077  83.1077  83.5877  83.5877  83.5877
    83.7912  83.7912  83.7912  84.0174  84.0174  85.1459  85.1459  85.1459
    85.8211  85.8211  85.9181  85.9181  85.9181  87.4605  91.0972  91.0972
    91.0972  93.2630  93.2630  93.8556  95.0858  95.0858  95.0858  95.1232
    95.1232  95.1232  95.1359  95.1359  95.1359  95.1549  95.1549  95.1549
    95.3769  96.9900  96.9900  96.9900  97.0740  97.0740  97.0740  98.2224
    98.2224  98.2907  98.2907  98.2907  98.3304  99.8853 104.9810 104.9810
   104.9810 108.8440 108.8440 111.6938 111.6938 111.6938 112.2233 112.2233
   112.2233 116.2466 116.4443 117.3063 117.3063 117.3063 118.5410 118.5410
   118.5410 119.5846 119.5846 119.5846 120.2495 120.2495 120.2495 121.3305
   121.3305 121.3413 121.3413 121.4946 121.4946 121.4946 121.5984 121.9758
   121.9758 121.9758 122.4133 122.4133 122.4133 123.7929 123.7929 123.8225
   124.1451 124.1451 124.1451 125.1241 125.1241 125.1241 125.3144 125.3144
   125.5610 125.5610 125.5610 125.8894 125.8894 125.8894 126.0513 126.2998
   126.2998 126.2998 126.6417 126.6417 126.6417 127.3375 128.6200 128.6934
   128.6934 128.6934 128.7654 128.7654 128.9374 128.9374 128.9374 129.2395
   129.2395 129.2395 129.4902 129.4902 129.4902 129.5304 129.5304 129.5304
   129.5377 129.5377 129.5445 129.5445 129.5445 129.7212 129.7212 134.8193
   139.6281 139.6281 139.6281 140.0037 140.0037 140.0037 140.0679 140.0679
   140.0679 141.4044 141.4044 141.4044 141.8558 141.8558 141.8558 142.3164
   142.3803 142.3803 142.4166 142.4166 142.4166 142.6791 144.6878 144.6878
   146.7135 149.2604 149.2604 149.2604 149.5790 149.5790 149.5790 149.8192
   149.8192 150.1249 150.1249 150.1249 150.1525 150.1525 150.1525 150.2154
   151.1897 151.1897 151.1897 153.4409 153.4409 154.2461 154.2461 154.2461
   156.4272 156.4558 156.4976 156.4976 156.4976 156.6692 156.6692 156.6692
   156.6702 156.6702 156.6702 156.6964 156.6964 156.6964 156.8387 156.8387
   156.9219 156.9219 156.9219 157.2211 157.2211 157.2211 158.8231 158.8231
   168.4662 168.5791 168.5791 168.5791 169.3399 169.5930 169.5930 169.5930
   169.7961 169.7961 169.7961 170.5872 170.6051 170.6051 171.4254 171.4254
   171.4254 173.1223 173.5493 173.5493 173.5493 178.3602 178.3602 178.3602
   179.3320 179.3320 179.3320 179.7375 179.7375 179.7375 179.8251 179.8251
   179.8251 180.4093 180.6014 180.6014 180.6014 180.6581 180.6581 180.7249
   180.7249 180.7249 180.7701 180.7701 180.7701 181.1622 181.1622 182.4315
   182.7985 182.7985 182.7985 182.8568 182.8568 182.8568 183.0456 183.0456
   183.0456 183.6501 183.6501 183.6594 183.6594 183.6594 183.6851 184.6986
   184.6986 184.6986 185.8181 185.8181 186.2512 186.2512 186.2512 186.3396
   186.4131 186.4131 186.4131 187.0331 187.0331 187.0331 189.1195 189.1195
   192.8786 192.9706 193.5018 193.5018 193.5018 194.6914 194.6914 194.6914
   194.8888 194.8888 194.9841 194.9841 194.9841 195.0241 195.0241 195.0241
   195.1883 195.1883 195.1883 197.6605 197.6605 197.7321 197.7321 197.7321
   197.7774 197.7774 197.7774 197.8313 197.8313 197.8313 197.9081 197.9081
   197.9081 197.9963 197.9963 198.6376 198.8428 198.8428 198.8428 198.9638
   198.9638 198.9638 199.0236 201.3852 201.3852 204.6561 204.6561 204.6561
   204.7994 205.2041 205.2041 205.2041 206.1134 206.1134 206.1134 206.3262
   206.3262 206.3262 206.3518 206.3518 206.3518 206.4539 206.4539 206.4539
   207.5128 207.5162 207.5862 207.5862 207.5862 207.6052 207.6052 207.8898
   208.0063 208.0063 208.0063 209.9773 209.9773 209.9773 210.0104 210.0104
   210.0751 210.0751 210.0784 210.0784 210.0784 210.1020 210.1020 210.1020
   210.1621 210.1621 210.1621 210.3787 210.3787 210.3787 210.3788 210.3788
   210.4456 211.2039 211.2039 211.2039 211.2074 211.2074 211.2074 211.2530
   211.2530 211.2530 211.2743 211.2743 211.2743 211.6109 211.7147 211.7147
   211.7147 211.7582 211.7582 217.4792 217.4792 220.8181 220.8181 220.8181
   223.7654 223.7654 223.7654 223.7887 228.9085 228.9085 232.8732 232.8732
   232.8732 232.8849 233.0574 234.1287 234.1287 234.1287 234.1605 234.1605
   234.1605 234.2106 234.2106 234.2106 234.2773 234.2773 234.2773 234.4692
   234.4692 237.5704 237.5704 238.1553 238.4144 238.4144 238.4144 239.1428
   239.1428 239.1428 239.4486 239.4486 239.4486 239.8029 239.8029 239.8029
   239.8231 239.8231 239.8231 239.9740 239.9740 239.9740 240.5731 240.8808
   241.0790 241.0790 241.0790 241.7878 241.7878 241.9591 241.9591 241.9591
   241.9641 242.3097 242.3097 242.3097 242.6746 242.6746 242.7510 242.7510
   242.7646 242.7646 242.7646 242.7955 242.7955 242.7955 242.8020 242.8020
   242.8020 243.0976 243.0976 243.0976 244.1895 244.1895 246.6440 246.6440
   246.6440 246.8229 246.8229 246.8229 246.9739 253.3522 253.3522 254.6569
   254.6569 254.6569 255.0409 255.0409 255.0409 255.0836 255.0836 255.0836
   255.0911 255.0911 255.0911 255.0979 255.1028 255.1028 255.1028 255.1197
   255.1197 255.3287 255.3287 255.3287 255.4006 259.5084 259.5084 259.5084
   260.9074 260.9074 262.0277 262.1308 262.1308 262.1308 262.2143 262.2531
   262.2531 262.2531 262.2869 262.2869 262.2869 262.4126 262.4126 262.4126
   262.4441 262.4441 262.5685 262.5685 262.5851 262.5851 262.5851 262.5966
   262.5966 262.5966 262.6965 262.7138 262.7138 262.7138 262.7515 262.7515
   262.7515 265.4465 265.6072 265.6072 265.6072 265.6515 265.6515 265.6515
   265.8473 267.9121 267.9379 267.9379 267.9379 267.9389 267.9389 267.9389
   267.9603 267.9603 267.9603 267.9883 267.9883 270.8583 270.8583 270.8583
   270.8680 270.8680 270.8790 270.8790 270.8790 271.0065 271.0065 271.0065
   271.0144 271.8210 271.8210 271.8210 271.8238 271.8238 271.8816 271.8816
   271.8816 271.8944 271.8944 271.8944 271.9839 274.9451 274.9451 279.0104
   279.0104 279.0104 281.7489 281.7489 281.7489 281.8518 282.3795 282.3795
   282.3795 282.4166 282.4166 282.4166 282.4694 282.4694 282.4694 282.6255
   282.7796 282.7796 282.7796 282.7860 282.7860 285.5383 285.5383 285.5383
   285.9572 285.9572 286.9796 286.9796 286.9796 286.9962 288.1676 288.6798
   288.6798 288.6798 288.9571 289.6497 289.6497 289.6596 289.6596 289.6617
   289.6617 289.6617 289.9229 289.9229 289.9229 290.0674 290.0674 290.0674
   290.1869 290.1869 290.1869 293.0402 293.0402 293.0592 293.0592 293.0592
   293.1368 293.1368 293.1368 293.1954 293.1954 293.1954 293.2610 293.2610
   293.2610 293.3729 293.3729 294.2157 294.2462 294.2462 294.2462 294.2606
   294.2606 294.2606 294.2975 294.2975 294.2975 294.3176 294.3176 294.3176
   294.3858 294.4260 294.4260 294.4260 294.4330 294.4330 294.4330 297.3268
   297.5036 297.5036 297.5036 297.5984 297.5984 298.2923 298.3686 298.3686
   298.3686 298.4290 298.4290 298.4290 298.4353 298.4353 298.5396 298.8210
   298.8210 298.8210 298.8269 298.8269 298.8269 298.8417 298.8417 298.8417
   298.8554 298.8554 298.8554 298.9352 298.9352 299.7358 299.7358 299.7402
   299.7402 299.7402 299.7529 299.7749 299.7749 299.7749 299.7981 299.7981
   299.7981 299.8177 299.8177 299.8177 299.8213 299.8228 299.8228 299.8542
   299.8542 299.8542 299.8544 299.8544 299.8544 308.8418 308.8418 308.8418
   310.1124 310.1401 310.1664 310.1664 310.1664 312.8784 312.8784 313.0734
   313.0734 313.0734 313.1181 313.1181 313.1181 313.1220 313.1220 313.1311
   313.1311 313.1311 313.1382 313.1382 313.1382 315.0569 315.0569 318.2687
   318.2687 318.2687 318.5801 318.5957 318.5957 318.5957 319.4646 319.4646
   319.4646 319.4821 319.4821 319.4821 319.4971 319.4971 319.4971 321.0143
   321.0549 321.0549 321.0549 321.0549 321.0549 323.9510 323.9617 323.9617
   323.9617 323.9991 323.9991 325.0374 325.0374 325.0374 325.0725 325.0725
   325.0725 325.0811 325.0811 325.0811 325.0869 325.0869 325.0869 325.6455
   325.6725 325.6725 325.6725 325.6846 325.6846 331.6403 331.6403 331.6403
   335.0235 335.0235 337.2439 337.4988 337.4988 337.4988 337.8049 337.9764
   337.9764 337.9764 338.1249 338.1249 338.1249 338.1961 338.1961 338.1961
   338.2463 338.2463 338.2463 338.2486 338.2486 339.3096 339.3096 339.3396
   339.3396 339.3396 339.6108 339.6108 339.6108 339.9628 339.9628 339.9628
   340.0106 348.5120 348.5120 348.7526 348.7526 348.7526 349.0503 349.1051
   349.1520 349.1520 349.1520 350.6471 350.6471 350.6471 350.8442 351.0000
   351.0000 351.0000 351.2088 351.2088 351.2088 351.2623 351.2623 351.2623
   351.3356 351.3356 351.3356 351.3476 351.3798 351.3798 351.3798 351.4056
   351.4056 351.5233 351.5233 351.5456 351.5456 351.5456 351.7571 351.7571
   351.7571 352.0056 352.0056 352.0056 352.2102 352.2547 352.2547 352.4931
   352.4931 352.4931 352.5278 352.5278 352.5278 352.5612 352.5612 352.5738
   352.6026 352.6026 352.6026 352.6031 352.6031 352.6031 352.6453 352.6453
   352.6453 352.6909 352.6909 353.2762 353.3786 353.3786 353.3786 353.5259
   353.5259 353.5259 353.5879 353.5879 353.6219 353.6219 353.6219 357.3561
   357.3561 357.3561 357.3689 357.3689 357.4345 357.4345 357.4345 357.4964
   357.5007 357.5007 357.5007 364.4518 364.4518 364.6448 364.6448 364.6448
   366.1021 366.1021 366.1186 366.1186 366.1186 366.1262 366.1262 366.1262
   366.1524 366.2054 366.2054 366.2054 366.2641 366.2641 366.2641 366.3347
   366.3433 366.3433 366.3433 366.4770 366.4770 366.6457 366.6457 366.6457
   366.7920 367.5752 367.5752 367.5752 367.7043 367.7043 367.7043 367.7543
   367.7543 367.7543 367.8954 367.8954 367.8954 368.3460 368.5620 368.5620
   368.5984 368.5984 368.5984 368.7545 368.7545 368.7545 368.7813 368.7813
   368.7813 368.8466 368.8643 368.8643 368.8643 368.8768 368.8768 368.8768
   368.9008 368.9008 368.9008 368.9149 368.9149 370.3400 370.3400 370.3696
   370.3696 370.3696 370.4220 377.0813 377.0813 377.3134 377.3134 377.3134
   377.4442 377.5283 377.5283 377.5283 377.5794 377.5794 377.5794 377.6753
   377.6753 377.7208 377.7208 377.7208 377.7437 377.7437 377.7437 377.7531
   377.7531 377.7531 377.7564 379.5972 379.5972 379.5972 379.9596 380.1399
   380.1399 380.1399 380.1735 380.4144 380.4144 380.4242 380.4242 380.4242
   380.4392 380.4392 380.4392 380.4812 380.4812 380.4812 380.4944 380.4944
   380.5874 380.5874 380.5874 381.9023 381.9023 381.9023 381.9181 381.9181
   381.9249 382.0622 382.0622 382.0622 382.0653 382.0653 382.0653 382.0782

          k =-0.1250 0.1250-0.1250 (  3629 PWs)   bands (ev):

   -52.1558 -52.1558 -52.1558 -52.1558 -52.1558 -12.6338  -0.7356  -0.5519
    -0.5519   6.0250   9.7827  10.3023  10.3023  11.7949  11.7949  13.7145
    14.4926  15.8288  15.8288  18.0905  21.6586  22.1797  22.1797  24.7338
    24.7338  25.8669  25.9470  25.9470  26.4765  29.1522  29.1522  30.1900
    31.6713  31.6713  32.1948  33.6791  34.7298  34.7298  35.0601  36.0381
    36.1697  36.1697  36.8528  36.8528  38.3055  38.3055  39.0595  39.5996
    39.5996  39.7030  40.5466  40.5466  40.8233  41.0243  42.0345  42.6924
    42.6924  43.3046  44.2245  44.2245  45.9519  46.0035  46.0035  49.1053
    52.2664  52.2664  52.5902  54.7713  54.7713  57.2808  58.8574  58.8574
    58.9267  59.4170  60.5589  61.6066  61.6066  62.2193  62.2193  62.4100
    62.4100  64.2982  64.3299  64.3299  64.8407  66.3843  66.3843  66.6180
    67.1904  67.1904  67.6568  67.7088  67.7088  67.9711  67.9711  68.0255
    68.2317  68.9501  68.9501  69.6419  69.7612  69.7612  71.4149  72.2090
    72.9814  72.9814  73.2111  73.3825  73.3825  73.5306  73.5306  74.8743
    74.8743  75.3048  75.8403  76.6755  77.2840  77.2840  78.2078  78.2078
    78.3191  80.3248  80.5602  80.5602  80.7902  81.2362  81.2362  83.4312
    84.1478  84.1478  84.5962  84.5962  85.3361  85.8703  86.4831  86.4831
    87.4200  88.2382  88.3455  88.3455  88.4844  88.4844  90.2456  90.9681
    91.1934  91.1934  91.3287  91.3287  91.3777  91.6132  91.6132  92.2391
    93.5227  93.5227  93.6644  94.5502  94.5502  94.5803  96.5464  96.5464
    97.1109  98.7266  98.7266  99.4214  99.4214  99.6168  99.7894 100.2821
   100.2821 100.9539 102.0812 102.0812 103.3171 103.3643 103.3643 104.6579
   105.0331 106.4661 109.0514 109.0514 110.7562 110.7562 111.8089 112.6146
   112.6146 113.4143 113.9054 113.9054 115.0460 115.4625 115.4625 116.1881
   117.2709 117.2709 117.9316 117.9316 117.9597 118.0067 119.1353 119.5230
   119.5230 119.6273 120.1678 120.1678 120.3878 120.3878 120.4497 120.4574
   120.8373 120.8373 121.3313 121.3313 121.8176 122.1929 122.7244 122.7244
   122.9939 123.3857 123.3857 123.5324 124.4702 124.4702 124.5448 124.6527
   124.6527 125.6816 125.8039 125.8039 126.7110 126.7340 126.7340 127.3645
   127.3645 127.6946 127.8006 128.0422 128.0422 128.3142 128.3142 128.3327
   129.3418 129.3418 129.4512 129.9151 129.9151 130.2738 130.6525 130.6525
   131.1312 131.2070 131.2070 131.4463 132.6724 132.6724 132.7400 132.7400
   133.4413 133.9795 134.0501 134.4690 134.4690 134.7332 134.7332 134.8036
   135.6964 135.6964 136.2720 137.4166 138.1280 138.1280 138.1608 138.3857
   138.3857 138.5751 138.7781 138.7781 141.2254 141.2254 142.1950 144.2745
   144.5807 144.6559 144.6559 145.0046 145.0046 145.6126 145.7312 146.0836
   146.0836 147.2785 147.2785 147.7346 147.7346 147.9515 148.4804 148.4804
   148.7238 148.8149 149.2462 149.3036 149.3036 150.4147 150.4147 151.1809
   151.4357 151.4357 151.7896 152.0003 152.0003 152.0844 152.9073 152.9073
   153.5470 154.9957 155.2129 155.2129 155.7975 155.7975 156.1205 156.7398
   156.7398 158.1659 158.5076 158.5076 159.0156 159.9937 159.9937 160.2936
   161.7765 161.7765 161.9429 161.9532 162.2872 162.2872 164.1242 164.1242
   164.3052 165.5771 166.1220 166.1220 166.5951 166.5951 166.6592 167.1773
   168.5305 169.9749 169.9749 171.2231 171.2231 171.5462 172.3007 172.3007
   172.8086 173.0584 173.0584 173.2308 173.4562 173.4562 173.9417 174.0667
   174.0667 175.0133 175.0356 175.0356 175.0653 176.5905 176.5905 177.6308
   177.6308 177.7369 178.0344 178.0344 178.0466 178.8500 180.0762 180.0762
   180.4751 180.6995 180.8037 180.8037 180.8078 181.5009 181.9830 181.9830
   182.0723 182.2653 182.2653 182.3954 183.7818 183.7818 184.2942 184.2942
   185.8207 185.8207 185.8746 186.0483 186.4559 186.4559 186.7841 186.7841
   187.2567 187.3419 187.4240 187.4240 187.4800 187.4800 187.5371 188.2652
   188.2652 188.4332 188.4884 189.5974 189.5974 189.7157 190.4252 190.4252
   190.6245 190.7967 190.7967 191.0637 191.5242 191.5242 191.5801 193.0912
   193.0912 193.5156 193.5217 193.7168 193.7168 193.9870 193.9870 195.2995
   195.3902 195.3902 195.4959 195.6796 195.8612 195.8612 196.8228 197.0574
   197.0574 197.4006 197.7219 197.7219 198.1437 198.1437 198.1477 198.3289
   198.3289 198.4003 198.9495 198.9495 199.0584 199.5511 199.5511 200.0271
   200.7115 201.3905 201.3905 201.8615 202.0950 202.0950 202.2439 202.2439
   202.3649 202.8535 202.8535 202.9553 203.1804 203.1804 203.2109 203.4008
   203.7870 203.7870 203.8127 204.6684 204.6684 205.2749 205.3639 205.3639
   206.3629 206.3629 206.3817 207.0592 207.0592 207.4950 207.5647 207.5647
   207.6757 207.8002 207.8002 208.4420 208.4554 208.4554 208.5774 208.5774
   208.7463 209.6049 210.2019 210.2019 210.3579 210.3579 210.4544 210.5483
   212.2171 212.2171 212.8911 212.8911 212.9556 213.9338 214.4512 214.4512
   214.7370 214.8965 214.9007 214.9007 215.6637 215.6637 215.8934 215.9192
   215.9192 216.0706 216.0706 216.1049 216.3934 216.8623 219.2996 219.7889
   219.7889 219.9203 219.9203 220.2840 220.8128 220.8537 220.8537 221.8298
   221.8298 222.0222 222.0222 224.6622 224.6622 226.7484 228.1727 228.3766
   228.5264 229.1475 229.1475 230.1880 230.1880 230.7108 230.7108 230.9357
   231.0154 231.0242 231.0242 231.8674 231.8674 232.0535 233.0651 233.0651
   233.1686 233.9454 233.9454 234.9311 234.9923 234.9923 235.0178 235.7534
   235.7534 235.9747 236.2932 236.4087 236.4087 237.3470 237.3470 237.4285
   237.7434 237.7434 238.7954 238.7954 239.0190 240.3897 240.6473 241.2829
   241.2829 241.3031 242.3670 242.3670 243.3107 243.3919 243.3919 244.1343
   244.1343 244.6068 244.7091 244.7091 244.7692 245.2803 245.2803 245.9211
   245.9764 245.9884 245.9884 246.6806 246.7467 246.7467 247.3049 247.4599
   247.4599 247.8920 247.8920 248.1291 248.1771 248.1771 248.3138 248.3974
   248.3974 248.4299 248.5347 248.7390 248.7390 249.9835 250.0911 250.0911
   250.2684 251.0202 251.0202 251.4615 251.4615 251.5719 251.7347 251.7347
   251.7812 252.1995 252.1995 252.7529 252.8525 253.2085 254.9653 254.9653
   255.5285 255.5285 256.3481 257.5363 257.5363 257.5464 258.0665 258.0665
   258.7645 259.2553 259.2553 259.4134 259.7382 259.7382 260.1550 260.4159
   260.4159 260.9811 261.2190 261.2190 261.3346 261.7732 261.7732 262.1762
   262.1762 262.2082 262.2361 262.3136 262.3136 262.4123 262.4306 262.4306
   262.4431 262.8598 262.8598 262.8871 263.6923 263.7252 263.7252 264.1113
   264.1237 264.1237 265.5923 265.5923 265.8930 267.9866 267.9866 268.1855
   268.1908 268.1908 268.1990 268.9995 268.9995 269.3449 269.5483 269.5483
   270.3406 270.3625 270.3625 270.4543 270.5181 270.5181 270.5538 271.7722
   271.7722 272.0190 272.5888 272.5888 272.7667 272.7775 272.7775 272.8230
   272.9804 273.2702 273.2900 273.2900 273.4146 273.4146 273.4570 274.1657
   274.1657 275.0463 275.3739 275.3739 277.0644 277.0644 277.5475 278.1312
   278.1312 278.8305 278.9254 278.9553 278.9553 279.1839 279.7836 279.9035
   279.9035 280.2411 280.2411 280.4597 280.4597 280.8245 280.8245 280.8282
   281.3235 281.8131 282.9142 282.9142 283.4085 283.7735 283.7735 283.8816
   284.2533 284.2533 284.8301 285.4203 285.6353 285.6353 285.9788 285.9788
   286.2605 286.4426 286.4426 286.5766 286.7667 286.8168 286.8168 287.1403
   287.1403 287.2371 287.3736 287.3759 287.3759 287.8756 287.8756 287.9589
   288.6856 288.8724 288.8724 289.7909 289.7909 289.9003 290.2804 290.2804
   290.2973 290.4252 290.4252 290.6483 290.6483 290.7267 290.8482 291.0545
   291.0545 292.3609 292.7178 292.7178 293.0640 293.1071 293.1071 293.1940
   293.4297 293.4297 293.4971 294.3691 294.3758 294.3758 294.4618 294.4618
   294.4779 294.8007 294.8007 294.9139 294.9443 294.9443 295.0542 295.8382
   295.8702 295.8702 295.9947 297.9453 297.9453 297.9492 298.9889 298.9889
   299.0137 299.0414 299.0414 299.6053 299.7781 299.7781 299.8343 299.8343
   299.9695 300.4849 301.3155 301.3155 301.3424 301.5268 301.5268 301.5280
   302.1637 302.1637 302.3616 302.3616 302.5031 302.6068 303.1179 303.1179
   304.1344 304.1344 304.2728 304.3051 304.3051 304.4974 304.5915 304.5915
   304.6315 306.3141 306.3141 306.4253 306.6253 306.6253 307.1043 307.1043
   307.5279 307.8795 308.1024 308.1024 308.1183 308.2632 308.2632 308.3146
   308.3514 308.3514 308.3923 309.5076 309.5076 309.7048 309.7234 309.7234
   309.7718 311.0818 311.6088 311.6088 312.6045 312.6045 312.7046 312.7092
   312.7092 313.0503 313.6746 313.6746 314.1188 314.2424 314.2424 314.2595
   314.7318 314.7318 314.7954 315.5289 315.5289 315.5369 316.8181 316.8181
   316.8580 319.3007 319.3093 319.3093 319.7180 319.7180 319.8446 320.5078
   320.5078 320.5240 321.1372 322.5745 322.5745 323.5186 323.5186 324.0779
   324.4004 324.8395 324.8395 325.7395 325.8856 325.8856 326.7695 327.5172
   327.5172 328.8426 328.8426 329.2668 329.8070 329.8070 330.1293 330.4176
   330.4176 330.6172 330.7206 330.7206 330.9670 331.0873 331.0873 331.2514
   331.5539 331.5638 331.5638 334.0440 335.0024 335.0024 335.2470 335.3693
   335.3693 336.0152 336.5321 336.5595 336.5595 337.3873 337.3873 337.8942
   337.8942 337.9358 337.9358 338.1484 338.1806 338.9099 338.9099 339.3100
   339.3797 339.3797 339.3933 339.5372 339.7547 339.7547 340.9462 340.9488
   340.9488 341.8467 341.8467 342.5689 343.2346 343.2346 343.5458 343.6062
   343.6062 343.6165 344.0887 344.0887 344.4425 344.7304 344.7304 345.1708
   345.1843 345.1843 345.1924 345.4279 345.4279 345.5475 346.3711 346.3711
   346.3896 348.9568 348.9991 348.9991 349.4248 349.4872 349.4872 349.7436
   350.4530 350.4530 351.7390 351.7390 351.8142 351.8475 351.8475 351.8692
   352.1553 352.1553 352.2270 352.7238 352.7238 352.9209 352.9517 352.9517
   353.1304 353.1607 353.1607 353.1619 353.4847 353.4847 353.5207 354.1043
   354.1043 354.1658 354.6446 354.6446 354.6853 355.3148 355.3148 355.6146
   356.2616 356.2616 356.6817 357.4079 357.4085 357.4085 357.7370 357.8298
   357.8298 357.9765 357.9765 358.0129 358.0573 358.0842 358.0842 358.3183
   358.3183 358.4888 358.7901 358.7901 358.8548 359.0758 359.0758 359.4520
   359.5664 359.5664 359.6452 360.1190 360.1190 360.1895 360.9443 360.9443
   361.1027 362.3324 362.3324 362.4142 363.4658 363.5230 363.5230 363.8320
   363.8320 363.8878 363.9634 364.3370 364.3370 364.3888 364.5799 364.7487
   364.7487 364.8769 364.8769 365.2312 365.2312 365.2693 365.3206 365.6472
   365.8587 365.8587 365.9505 366.1446 366.1446 366.7684 366.7684 367.0366
   367.0604 367.1256 367.1256 367.7095 367.7909 367.7909 367.9506 367.9506
   368.0279 368.0308 368.0912 368.0912 369.8405 369.9285 369.9285 370.0073
   370.0073 370.0279 370.0691 370.0691 370.1512 370.6968 370.6968 370.8216
   371.2279 371.2279 371.3053 371.3053 371.3291 371.3969 371.4083 371.4193
   371.4193 373.6721 373.6721 373.9708 373.9708 373.9912 374.0186 374.2383
   374.2383 374.3703 375.1260 375.1472 375.1472 375.1877 375.1877 375.1991
   375.8484 375.8484 375.9254 376.6824 376.6824 376.9401 377.0833 377.0833
   377.1307 377.8239 377.8239 377.9849 377.9849 377.9940 378.0587 378.0635
   378.1244 378.1244 378.8773 378.8973 378.8973 379.1146 379.1146 379.1153
   379.4469 379.4586 379.4586 379.5650 379.6912 379.6912 380.1170 380.1170
   380.3585 380.3886 380.6267 380.6267 381.0288 381.0288 381.1347 381.2303
   381.2303 381.2520 382.9556 383.0042 383.0042 383.0284 383.0284 383.0321

          k =-0.2500 0.2500-0.2500 (  3644 PWs)   bands (ev):

   -52.1558 -52.1558 -52.1558 -52.1558 -52.1558 -12.5886  -1.1726  -0.6025
    -0.6025   6.7689   9.3883  10.3146  10.3146  11.8663  11.8663  13.2416
    15.9583  17.5523  17.5523  18.6452  19.5064  19.5064  20.5418  24.9286
    24.9286  26.1039  26.1039  26.1219  26.8407  28.7360  28.7360  28.9724
    31.4916  32.5554  32.5554  33.1755  33.1755  33.6658  34.1993  34.4838
    34.4838  34.8347  35.4449  37.0204  37.0204  38.8746  38.8746  40.3491
    40.4560  40.4560  41.5161  42.8333  42.8333  43.3904  44.0608  44.0644
    44.0644  46.7836  47.7135  47.7135  48.6736  49.0566  49.0566  49.4684
    49.4684  49.7135  50.5109  50.5109  53.9992  54.7386  56.7880  56.8453
    57.4333  57.4333  58.9791  58.9791  60.6594  61.6885  61.6885  61.9319
    61.9319  62.1935  62.8162  63.0035  63.0035  63.6366  63.6366  64.8746
    67.0866  67.0866  67.4106  68.2357  68.2357  68.6192  68.6277  68.7003
    68.7003  69.1652  69.2846  69.2846  70.8623  70.9323  70.9323  71.8968
    71.8968  73.9711  75.2112  75.2112  75.2320  75.4041  75.4041  75.9775
    77.3463  77.6549  77.6549  78.3204  78.3204  78.3480  78.8826  78.8826
    79.8595  80.2017  80.4714  80.4714  81.3723  82.4151  82.4151  83.1050
    83.8261  83.9483  84.0227  84.0227  84.5666  84.5666  85.2745  85.2745
    86.9420  86.9420  86.9787  87.1188  87.6613  87.6613  87.7279  91.0230
    91.1612  91.1612  91.3857  91.3857  91.5112  91.9231  92.4567  92.4567
    92.7031  92.7031  93.4264  95.4433  95.4433  97.6054  98.8547  98.8547
    99.4825  99.7543  99.7543 100.9442 102.1083 102.1083 103.2679 103.8338
   104.1123 104.1123 105.0048 105.0048 105.3808 105.4907 105.6485 105.6485
   106.6832 106.6832 106.7547 107.0276 109.0031 109.0031 109.6356 109.9224
   109.9224 110.5715 110.5715 110.9379 111.7743 112.1904 112.2271 112.2271
   112.6030 112.6030 113.1689 113.3377 113.3377 114.2950 116.7227 116.9923
   116.9923 117.6160 117.7982 117.7982 118.2168 118.4973 118.4973 118.8893
   118.9712 118.9712 120.2723 120.4400 120.4400 121.3675 121.3675 121.9704
   122.6802 122.6802 123.3094 124.4309 124.4309 125.0302 125.1199 125.1199
   125.9668 126.2263 126.4317 126.4317 127.3921 127.3921 127.6036 127.7105
   127.9286 127.9286 127.9729 128.6702 128.6702 128.9023 129.0500 129.0500
   129.9767 129.9767 131.5197 131.9707 131.9707 132.2611 132.5027 132.5027
   132.9878 133.4613 133.4995 133.4995 133.7606 133.7606 134.1102 134.6893
   134.9474 135.3030 135.3030 135.5933 135.9447 135.9447 136.6110 136.6110
   137.5482 137.6597 137.6597 138.8339 138.8339 139.4124 139.7895 139.7895
   140.5658 140.5658 140.7347 141.2567 141.2567 141.4078 141.6042 142.3791
   142.3791 142.7067 143.1020 143.5604 143.5604 145.9327 146.6354 146.7587
   146.7587 147.3084 147.3152 147.3152 147.4430 147.4430 147.6971 148.8132
   148.9859 148.9859 149.4444 149.4956 149.4956 149.6956 149.8113 149.8113
   151.7596 152.1348 152.1348 154.3901 154.3901 155.1768 155.1876 155.1876
   155.8916 155.9800 156.1498 156.1498 157.5639 157.5933 157.5933 159.1398
   160.0101 160.0101 160.2144 160.3643 160.5624 160.5624 161.0705 161.0705
   161.2022 163.2396 163.4524 163.4524 163.9342 164.0221 164.0221 164.8877
   165.2452 165.2452 165.9914 165.9914 167.3791 167.4994 167.6448 167.6448
   167.7514 167.9342 167.9342 168.0611 168.3861 168.3861 168.7176 168.9437
   168.9437 169.4269 169.4332 169.4807 169.4807 170.9810 170.9810 171.6101
   171.6101 172.1514 173.3214 173.3214 173.3770 175.0588 175.1984 175.1984
   175.6653 175.6653 176.8506 176.8506 177.1059 177.4433 177.4433 178.3609
   178.7565 178.7565 180.5625 180.8782 180.8782 180.8876 180.9798 181.3991
   181.4860 181.4860 181.9098 181.9617 181.9617 182.7469 182.8910 182.8910
   183.5527 183.6090 183.6090 184.2318 184.2318 184.8752 185.3674 187.3566
   187.3566 187.7565 187.7565 188.2708 188.2708 188.2877 188.4249 188.6181
   188.6181 188.7422 189.1509 189.1509 189.5398 189.5991 189.6485 189.6485
   190.2015 190.2015 190.3689 191.2064 191.9749 191.9749 192.5569 192.5569
   192.6302 193.2755 193.3187 193.5899 193.5899 194.2040 194.2512 194.2512
   194.5258 194.5258 194.5665 195.2974 195.4377 195.4377 196.6931 196.6931
   197.3990 197.4908 197.4908 197.6131 197.6873 197.9942 197.9942 198.3722
   198.3722 198.5998 198.5998 198.6222 198.9485 199.1322 199.1322 199.7349
   200.2470 200.2470 200.3509 200.6104 200.6104 200.7877 201.4295 201.4295
   202.9033 203.0489 203.0489 203.9329 203.9511 204.3962 204.3962 204.8162
   204.8540 204.8540 204.9835 204.9835 205.0033 205.6606 205.6606 205.7136
   205.8178 206.1274 206.1274 206.1684 206.5312 206.5312 208.9641 208.9641
   210.2030 210.4766 211.3912 211.3912 211.5739 211.5739 211.9738 212.8340
   212.8817 212.9097 212.9097 213.5983 213.5983 213.8449 213.8449 214.2363
   214.3706 215.1155 215.1155 216.0555 216.0555 216.1438 217.0741 217.2644
   217.2644 218.4572 218.4572 218.8600 218.8600 219.1893 219.3607 219.4671
   219.4671 219.6134 219.6134 219.9617 219.9617 220.6336 221.1535 221.6390
   222.1038 222.6352 222.6352 222.6462 223.1652 223.1652 223.6007 223.6155
   223.6155 223.9838 223.9838 224.3080 224.3882 224.5315 224.5315 224.6763
   225.3278 225.3278 226.5332 226.5332 228.3350 229.3644 229.5605 229.5605
   229.5766 229.7846 229.7846 230.6986 230.6986 230.8219 230.8788 230.8788
   230.8903 230.9422 232.0112 232.0112 232.4512 232.6067 232.6067 233.0796
   233.7030 233.7030 234.0078 234.0078 234.2912 234.4145 234.4145 234.6418
   236.4349 236.4349 237.3926 238.2346 238.2346 238.4733 240.0024 240.0024
   240.3760 240.3760 240.5679 240.6046 241.3580 241.4442 241.4442 241.5765
   241.5781 241.5781 241.9514 242.1158 242.1158 242.5165 243.3699 243.3699
   243.8654 244.1146 244.1146 244.9508 245.9939 246.1301 246.1301 246.7630
   246.7630 246.9088 247.4650 247.4650 247.5657 247.7443 247.7498 247.7498
   247.8810 247.8810 247.9679 248.7925 248.7925 248.8803 250.1309 250.1309
   250.5209 251.9094 251.9094 252.0930 253.0984 253.3338 253.3338 253.5578
   253.5847 253.5847 254.0187 254.3395 254.3395 254.5776 254.6937 254.6937
   256.5371 256.5371 257.0615 258.0431 258.6843 258.6843 259.1408 259.1408
   259.3043 259.3043 259.4183 259.5925 259.7207 259.7207 259.8393 260.0577
   260.2769 260.2769 261.0459 261.0459 261.8232 261.9087 261.9087 262.0949
   262.2069 262.2069 262.2147 262.7272 263.1746 263.1746 263.3225 264.0421
   264.0421 264.6860 264.6860 264.7956 264.9191 265.0336 265.0336 265.4902
   265.7687 265.7687 267.6123 267.6123 267.7738 268.0299 268.0299 268.0904
   268.0904 268.4508 268.4801 268.5179 268.5179 268.6817 268.9475 268.9475
   270.0886 270.2302 270.2373 270.2373 270.3546 270.3681 270.3681 270.9289
   270.9289 271.1205 271.1832 271.2054 271.2054 272.5890 272.5890 273.3604
   273.9276 273.9276 274.3749 274.5138 274.5504 274.5504 274.8752 274.8752
   275.1831 275.2566 275.2654 275.2654 275.6483 275.6483 275.6815 275.7736
   276.0691 276.0691 276.1431 276.2561 276.2561 276.5422 276.5422 276.7369
   276.9438 276.9438 277.0853 278.8196 278.8196 278.8319 279.1852 279.1852
   279.2615 281.4774 282.0466 282.0466 282.0958 282.2470 282.2470 282.6747
   282.6747 282.8237 282.8695 282.8695 282.9848 283.0700 283.3668 283.3668
   283.5234 283.5959 283.5959 283.6112 283.8411 283.9233 283.9233 285.3050
   285.3115 285.3115 286.0537 286.0537 286.6455 286.6455 287.7492 289.0955
   289.0955 289.4075 289.5480 289.5480 289.5894 289.7685 289.8018 289.8018
   290.0815 290.0815 290.1835 290.4763 290.4817 290.4817 290.6326 290.6655
   290.6655 290.9531 290.9531 291.1846 292.6053 293.1717 293.1717 293.1971
   293.4838 293.4838 293.5865 295.2635 295.2635 296.4565 296.4565 296.6560
   297.1737 297.2586 297.2586 297.5949 297.9216 297.9216 298.1489 298.6919
   298.6919 298.7967 299.1181 299.1181 299.3466 299.5972 299.5972 300.1741
   300.1741 300.8751 301.2349 301.2401 301.2401 301.2502 302.2423 302.4299
   302.4299 303.4484 303.4484 303.4892 304.0954 304.2177 304.2177 304.3329
   304.3329 304.4279 304.4846 304.6315 304.6315 304.6814 304.7282 304.7282
   305.0885 305.0885 305.1321 306.7039 306.7039 306.7565 307.6764 307.8497
   307.8497 308.2189 308.4245 308.4245 309.2258 309.4218 309.4455 309.4455
   309.5788 309.5788 309.6348 309.7600 309.7600 309.9843 310.1581 310.1581
   310.5014 310.5014 310.5169 310.6405 310.6919 310.6919 311.5181 311.5230
   311.5230 313.2322 313.2322 313.4018 314.6780 314.6780 314.7470 315.1293
   315.6355 315.6355 316.1289 316.2153 316.2153 316.2334 316.8233 316.8233
   317.2824 317.3034 317.3034 317.5321 317.5321 317.5357 318.3193 318.3193
   318.6231 319.7739 320.0222 320.0222 320.8727 320.8727 320.9282 321.0345
   322.9100 322.9100 323.3654 323.3654 323.9257 323.9257 324.1060 324.2551
   324.5792 324.8951 324.8951 325.1076 325.1076 325.2402 325.8581 325.8581
   325.9984 327.2662 327.2662 327.3634 327.5591 327.5591 327.6464 328.1373
   328.1373 328.9897 329.1449 329.1449 329.1460 331.1109 331.1109 331.3762
   332.9048 332.9048 333.0948 333.2793 333.2793 334.3108 334.9354 334.9354
   335.0245 336.0532 336.0532 336.1239 336.2483 336.2483 336.2573 336.4306
   336.4433 336.4433 336.7487 336.7862 336.7862 337.7248 337.7248 337.8373
   338.3676 338.3676 338.5040 338.7600 338.7600 339.0344 339.1764 339.2409
   339.2409 339.2565 339.6896 339.8071 339.8071 340.5687 340.5687 340.6431
   340.6431 340.6568 341.0555 341.1133 341.1783 341.1783 341.5583 341.5583
   341.6059 342.2491 342.2491 344.8833 344.8833 345.3553 346.1363 346.1363
   346.5666 346.7218 346.7643 346.7643 347.1574 347.1574 347.2045 347.3744
   347.5145 347.5145 347.5477 347.6692 347.6692 348.2361 348.2361 348.2631
   348.2917 348.2917 348.4209 349.9340 350.9116 350.9116 351.2272 351.2272
   351.7660 351.7850 351.7850 351.8172 351.9246 351.9246 352.3117 352.4071
   352.4807 352.4807 352.6815 352.8247 352.8720 352.8720 352.9749 353.0165
   353.0165 353.2686 353.2686 353.4329 353.7552 353.7552 353.7881 353.8241
   353.8241 353.8543 355.5874 355.5874 355.6458 356.8358 356.8358 356.8629
   357.0728 357.0728 357.0832 358.4925 358.5380 358.5380 358.5692 358.5692
   358.5844 359.4356 359.4356 359.4628 359.5578 359.5578 359.6370 359.7184
   359.7526 359.7526 360.7777 360.7777 360.9364 361.0894 361.0894 361.2101
   361.3349 361.3349 361.3719 363.2800 363.2800 363.3930 363.9248 364.1806
   364.1806 365.6176 365.6176 365.6506 366.0409 366.0409 366.2587 366.2587
   366.2807 366.3540 366.8739 366.9113 366.9113 367.2688 367.2909 367.2909
   367.3036 367.3036 367.3072 367.6634 367.6634 367.9519 368.0027 368.0027
   368.0131 368.0991 368.0991 368.1285 368.2119 368.2814 368.2814 370.0290
   370.0290 370.3068 371.2652 371.2663 371.2663 371.3384 371.3384 371.3614
   371.9629 372.6548 372.6548 372.7798 373.2087 373.2087 373.3378 373.3536
   373.3536 375.0342 375.0342 375.1533 375.1840 375.1840 375.2147 376.1649
   376.1649 376.1936 376.4159 376.4374 376.4374 376.8339 376.8339 376.8515
   376.9575 376.9575 376.9683 376.9943 376.9943 377.3098 377.3305 377.3305
   377.5916 378.3994 378.3994 378.6377 378.8630 379.3338 379.3338 380.3017
   380.8148 381.4740 381.4740 381.7307 381.7307 381.7953 382.9688 382.9688
   382.9955 382.9955 383.1613 383.1712 383.1712 383.2220 383.3422 383.3967
   383.3967 384.7502 384.7502 384.8882 384.9099 384.9099 385.2203 385.2203
   385.2438 385.4536 385.4536 385.4902 385.7201 386.2343 386.2805 386.2805

          k =-0.3750 0.3750-0.3750 (  3630 PWs)   bands (ev):

   -52.1558 -52.1558 -52.1558 -52.1557 -52.1557 -12.5423  -1.5523  -0.6515
    -0.6515   7.2187   9.6482  10.0278  10.0278  12.8306  12.8306  12.8814
    16.2539  17.1807  17.1807  18.4954  19.7497  19.7497  23.1232  24.4402
    24.6314  24.6314  25.6042  25.6042  26.4235  27.2217  27.2217  28.5642
    29.3642  32.0222  32.0222  32.1523  32.4087  32.4087  32.9419  34.1706
    36.8217  36.8217  37.0960  37.0960  38.1159  38.7088  38.7088  40.0828
    41.8527  41.8527  42.8304  45.3703  45.3703  45.4415  45.7556  45.7556
    47.1099  47.1639  47.1639  47.2572  47.2572  47.4161  49.1914  50.7940
    51.0975  51.0975  52.9882  53.3976  53.3976  53.5201  53.6932  53.6932
    54.7435  54.8669  54.8669  58.1362  58.3388  58.3388  58.3794  60.4580
    61.6862  61.6862  61.9274  61.9274  63.4210  64.2668  65.0235  65.0235
    66.3945  66.8350  66.8350  67.1339  67.1339  67.9266  67.9266  68.1877
    69.4304  69.6618  70.0784  70.0784  70.3153  70.6013  70.6013  73.4341
    74.6584  74.6584  74.8023  75.4335  75.6901  75.6901  76.4291  76.4349
    76.4349  77.4597  77.4597  77.6588  77.8264  77.8264  78.7449  78.7449
    78.8925  81.6564  82.7414  83.2604  83.2604  83.4767  83.4767  83.6155
    84.3422  84.3422  84.4475  85.4212  85.4212  85.9278  85.9742  85.9742
    87.0857  87.0857  87.3277  87.6021  89.1892  89.1892  89.9918  90.0237
    90.0237  90.1635  90.5685  90.5685  90.7402  90.8385  90.8385  93.8749
    95.9511  96.0458  96.0458  96.8242  96.8242  97.1912  98.1329  98.1329
    99.6105  99.7408  99.7408 100.0345 102.4953 103.4793 103.4793 103.8987
   104.1385 104.1385 104.5091 105.3436 105.3436 105.4506 105.6477 105.6477
   106.1897 106.4599 106.4599 106.8737 107.0867 107.0867 108.2469 109.2600
   109.2600 109.9066 109.9066 110.0257 110.7554 110.8260 110.8260 111.2781
   112.6384 112.6384 113.4254 113.8902 113.8902 114.4657 114.4657 116.2750
   116.2750 116.2886 116.6478 116.8132 116.8132 117.2074 117.3974 117.3974
   117.7768 119.0134 119.9024 119.9024 120.8260 120.8260 120.9805 121.4095
   121.4170 121.9177 122.0106 122.0106 122.5285 122.5285 123.4934 123.4934
   123.6143 124.2528 124.2528 124.6037 124.6037 124.8338 126.8968 127.5342
   127.5342 127.5445 128.2238 128.2238 128.2582 129.9603 130.1565 130.1565
   130.7038 130.7038 131.0824 131.1169 131.1169 131.6167 132.1281 132.6578
   132.6578 133.0422 133.0422 133.7870 134.6176 134.6176 135.1926 135.7282
   135.7282 136.3090 136.3328 136.4615 136.4615 137.5588 138.4110 138.4110
   139.1699 139.1699 139.2672 140.0292 141.1237 141.4771 141.4771 141.8117
   142.0980 142.0980 142.5863 142.7615 142.7615 143.2385 143.3437 143.3437
   143.5131 144.2788 144.2788 145.6022 145.6022 147.1331 147.6236 147.6236
   148.1894 148.6596 149.0232 149.0232 149.3826 149.3826 149.9261 150.1695
   150.1695 150.2125 151.3707 151.3707 152.4179 152.8925 152.9782 152.9782
   153.2722 154.0254 154.0254 154.9430 155.1445 156.0043 156.0043 156.1453
   156.8239 156.8967 156.8967 156.9589 157.2694 157.2694 157.6332 157.6332
   158.4537 158.4537 160.6555 160.6555 160.6751 161.5356 161.5356 161.7439
   162.2733 162.2733 162.2767 162.9077 162.9077 162.9401 163.0953 163.2622
   163.2622 163.3469 163.3725 163.9039 164.1721 164.1721 164.5207 164.5207
   165.1399 165.1399 165.9136 166.2038 166.2777 166.2777 167.6608 167.6608
   168.6089 168.7931 169.2151 169.2151 169.4605 169.4605 169.4685 170.8901
   170.8901 173.6661 173.6661 173.6818 173.7055 173.8477 173.8477 173.9607
   174.6798 175.3981 175.3981 175.7751 176.7695 177.0882 177.0882 177.8806
   177.8806 178.7318 178.7318 179.3343 179.5857 179.5857 180.1695 180.5243
   180.5243 180.6266 180.7516 180.7516 181.1231 181.1767 181.1767 181.4612
   182.4381 182.4381 183.2096 183.3837 183.3837 183.5176 183.8679 183.8679
   184.6588 185.0669 185.2319 185.2319 186.1367 186.1367 186.9241 187.0700
   187.2868 187.2868 187.4500 187.4500 188.2390 188.3029 188.3029 188.9478
   189.4035 189.4035 189.9289 190.6734 190.7440 190.7440 191.7070 191.7070
   191.7961 192.2972 192.4350 192.4350 192.9982 192.9982 194.4359 195.5671
   195.5671 196.0454 196.0508 196.1964 196.1964 197.2583 197.2583 197.4923
   197.9646 198.4360 198.4360 199.0384 199.1058 199.1058 199.2073 199.2723
   199.2723 199.7354 199.9848 199.9848 200.3097 200.5473 200.5473 202.1246
   202.1246 202.3610 202.8708 202.9137 202.9137 203.2297 203.7578 203.7578
   204.1295 204.3171 204.3171 204.3270 204.4983 204.4983 204.5006 204.9801
   204.9801 205.6895 206.1347 206.3821 206.3821 207.0419 207.0419 207.3871
   207.5188 207.5188 208.0819 208.7879 208.7879 209.0235 210.0649 210.0649
   210.5927 210.7436 210.7436 211.8902 211.9805 211.9805 214.4565 214.6908
   214.6908 214.8217 214.9751 214.9751 215.0817 215.8869 215.8869 215.9583
   216.5294 216.8657 216.8657 217.3173 217.3518 217.3518 217.6561 217.6561
   217.9711 217.9711 217.9863 218.0540 218.9145 218.9145 218.9249 219.5759
   219.5759 219.6419 220.7475 220.7475 220.9306 221.8359 222.2744 222.2744
   223.9659 223.9659 224.2385 224.3013 224.3312 224.3312 224.3891 224.6572
   224.6572 225.0440 225.2889 225.2889 225.8310 226.1742 226.1742 226.3160
   226.4715 226.9457 226.9457 227.7706 227.7706 227.8332 229.2949 229.2949
   229.5091 229.5091 229.6002 229.8760 229.9190 229.9190 230.4806 230.6055
   230.6055 231.3527 231.3527 231.7216 232.2497 232.2497 232.6103 233.3501
   233.8166 233.8166 233.8415 233.8415 233.9497 234.0631 234.0716 234.0716
   234.1837 235.1793 235.1793 235.4226 235.7674 235.7674 235.7820 236.9207
   236.9207 237.0742 238.4615 238.4615 238.4728 239.0797 239.0797 239.4801
   240.0027 240.0027 240.4292 241.3168 241.3698 241.3698 242.1138 242.1138
   242.3712 243.7125 243.7125 244.0996 245.3531 245.3764 245.3764 246.0142
   246.0142 246.0789 246.2111 246.2111 246.3615 246.5492 246.5829 246.5829
   247.6736 247.7152 247.7152 248.6820 248.6820 248.7322 251.3858 251.3858
   251.8923 252.1745 252.1745 252.5650 253.0032 253.2340 253.2340 253.4622
   253.4622 253.5293 253.5480 253.5480 253.8150 255.3904 255.3904 256.1351
   256.1351 256.3793 256.6740 258.0198 258.0198 258.2351 258.6804 258.6804
   258.9065 258.9065 259.0597 259.1380 259.9276 259.9475 259.9475 260.1740
   260.1740 261.0162 261.0162 261.0313 261.2302 261.5465 261.5465 262.1534
   262.1720 262.1734 262.1734 262.6197 262.6975 262.6975 263.3944 263.5472
   263.5726 263.5726 263.9260 263.9260 264.9084 264.9084 265.1790 265.2347
   265.2347 266.0167 266.3522 266.3522 266.9340 267.4763 267.4763 267.6964
   268.0773 268.0773 268.1745 268.2598 268.8719 268.8719 268.9861 269.5059
   269.5059 269.5792 269.7335 269.7713 269.7713 269.9750 270.3025 270.3025
   270.4294 271.1658 271.1658 271.3315 271.3315 271.5317 271.9369 271.9369
   272.7740 272.7740 273.1045 273.1600 273.1600 273.2286 273.7920 273.7920
   273.8769 274.2186 274.2186 274.2320 274.3399 274.4761 274.4761 275.1398
   275.1398 275.1761 276.3569 276.3569 277.3958 277.6881 277.6881 277.9577
   277.9577 278.0002 278.0460 278.0931 278.0931 278.1726 278.5473 278.6914
   278.6914 278.7106 278.9361 278.9361 279.0426 279.3122 279.3122 279.6389
   279.6389 279.6608 279.6979 280.5241 280.6041 280.6041 281.2920 281.2920
   284.8852 284.8852 285.1861 285.4531 285.4531 285.5087 285.8723 285.8723
   286.2970 287.3301 287.3301 288.0066 288.4258 288.4258 288.8322 289.0181
   289.0181 289.0244 289.4065 289.4677 289.4677 291.5727 291.5727 292.0243
   292.4130 292.4130 292.5376 293.0665 293.0665 293.1815 293.1815 293.2702
   293.5584 293.9870 293.9870 294.1913 294.5640 294.7230 294.7230 294.8788
   294.8788 294.9582 295.0362 295.1958 295.1958 295.3450 295.3450 295.4125
   295.4590 296.6916 296.6916 298.0178 298.1075 298.1075 298.5028 298.5028
   298.6190 299.9834 299.9834 300.0261 300.7389 300.7389 301.0221 301.3407
   301.3407 302.0244 302.2179 302.2179 302.5165 302.5447 302.5447 302.5620
   302.9189 302.9189 303.9925 304.0522 304.0522 304.0562 304.2080 304.2080
   304.3534 304.4062 304.4095 304.4095 305.6650 305.8328 305.8328 306.0682
   306.0975 306.0975 306.1843 306.1843 306.3544 306.6459 306.6483 308.6945
   308.6945 308.9878 308.9878 309.5330 309.5330 309.8641 310.1639 310.7047
   310.7047 310.7153 312.4073 312.4073 312.4270 312.4980 312.4980 312.6154
   313.9906 313.9906 314.9779 314.9779 314.9922 315.0901 315.4396 315.4396
   315.6288 316.1516 316.2044 316.2044 316.3290 316.3290 316.3779 316.8173
   316.8173 317.0112 317.2171 317.3225 317.3225 317.9680 317.9680 318.2422
   318.3976 318.3976 318.5084 319.1261 319.1261 319.3108 319.4549 319.5001
   319.5001 320.1995 320.2055 320.2055 321.4967 321.5881 321.5881 322.7998
   322.7998 322.8644 324.5169 324.6303 324.6303 325.2650 325.2650 325.3451
   325.4112 325.4112 325.9954 326.0798 326.0798 326.1077 327.0397 327.0397
   327.0760 327.1730 327.1796 327.1796 327.8761 327.9166 327.9166 328.1357
   328.8341 328.8341 329.0055 329.1538 329.1538 329.1777 330.2356 330.2356
   331.1741 331.1741 332.2826 333.3849 333.3849 333.8538 333.8538 334.1416
   334.7922 334.9442 334.9442 335.0968 335.0968 335.1090 335.3041 335.3240
   335.4071 335.4181 335.4181 336.1135 336.1135 336.4528 336.4528 336.7250
   336.7905 336.7905 337.0118 337.1724 337.1890 337.3955 337.3955 337.6666
   337.6666 337.7560 337.8113 338.3667 338.3667 338.4973 338.4973 338.5486
   338.5486 338.6125 338.8453 339.3166 339.3166 339.3556 339.5156 339.5156
   339.6656 339.7136 339.8524 339.8524 340.7478 340.7812 340.7812 340.9580
   340.9580 340.9704 343.2810 343.2810 343.4323 343.4542 343.4542 343.5023
   345.4326 345.4326 345.5827 346.2971 346.2971 346.2976 347.3683 347.3683
   347.3965 347.6075 347.6075 347.6635 347.6780 347.7382 347.7382 347.9487
   347.9487 348.0843 349.0488 349.0488 349.0927 351.4130 351.4130 351.6262
   351.6262 351.6319 351.6724 351.6724 351.7469 351.8974 352.1427 352.1427
   352.3258 352.3457 352.3650 352.3650 353.8024 353.8414 353.8414 354.0200
   354.0200 354.0805 354.0827 356.8416 357.3085 357.3085 357.7191 357.7191
   357.9870 357.9870 358.2107 358.2391 358.5761 358.5761 358.6831 358.7350
   358.7350 358.7852 358.7852 359.0207 359.1038 359.1153 359.1153 359.4560
   359.4560 359.7807 360.2867 360.2867 360.4082 360.4148 360.4806 360.4806
   361.0800 361.0800 361.1975 361.2132 361.2132 361.3484 361.7853 361.8412
   361.8412 362.0735 362.0735 362.0926 362.3265 362.3265 363.0651 365.8976
   365.8976 366.0803 366.1589 366.4108 366.4108 366.4268 366.9536 366.9536
   367.5765 367.5765 367.5806 368.0833 368.0833 368.3779 368.3779 368.3997
   368.5259 368.8848 368.9803 368.9803 369.0922 369.0922 369.1448 369.3168
   369.3654 369.3654 369.4290 369.4290 369.4843 370.9536 370.9536 371.0281
   372.8470 372.8470 372.8662 373.6989 373.6989 374.4573 374.4573 374.4649
   374.6333 374.8939 374.8939 374.9094 375.0065 375.0377 375.0377 375.1468
   375.1468 375.1632 375.2304 375.2410 375.2410 375.9996 375.9996 376.4093
   376.4093 376.5669 376.7185 376.8283 377.2145 377.2145 377.6016 377.6380
   377.6380 377.9283 377.9283 378.0193 379.3719 379.3719 379.5952 379.5952
   379.5993 379.6749 379.6749 379.6865 379.7998 381.8312 382.2778 382.2778
   384.1604 384.1604 384.1747 385.1637 386.1119 386.1201 386.1201 386.3314
   386.3314 386.3734 387.3102 387.3102 387.5385 387.8373 387.8373 387.8755
   387.9720 387.9720 388.0039 388.4821 388.4821 388.8460 388.8460 388.8830

          k = 0.5000-0.5000 0.5000 (  3648 PWs)   bands (ev):

   -52.1558 -52.1558 -52.1558 -52.1557 -52.1557 -12.5229  -1.6974  -0.6713
    -0.6713   7.2839   9.8957   9.8957   9.9844  13.0039  13.7143  13.7143
    15.0826  15.8729  15.8729  21.2337  21.3998  22.1306  22.1306  22.3693
    22.3693  25.5590  25.5590  25.8782  26.4719  26.5680  27.2023  27.2023
    28.9609  31.2366  31.7073  31.7073  31.7841  31.7841  32.4782  34.1263
    36.8641  36.8641  38.3641  38.3641  39.2314  40.6121  40.6121  42.0005
    42.0005  42.0425  43.4607  43.4607  43.6797  43.8806  44.5809  44.5809
    46.5161  48.5599  49.2036  49.2036  49.9614  49.9614  50.5058  50.5058
    50.6544  51.1403  51.1403  51.1776  51.4998  54.2544  54.3123  54.5217
    54.5217  54.5558  54.5558  57.5435  58.0348  58.5886  58.5886  58.8031
    59.1221  59.1221  61.7223  61.7223  62.4336  62.4336  64.2171  66.4328
    66.5473  66.6834  66.6834  67.0404  67.5813  67.5813  68.0093  69.3588
    69.3588  70.3495  71.3793  71.3793  71.3897  72.5062  72.7352  72.8672
    72.8672  72.9755  72.9755  73.2997  74.1571  74.1571  74.4183  74.4183
    76.8305  78.4550  78.7656  78.7656  80.1088  80.1088  80.3229  80.5916
    80.8229  80.8229  80.9098  80.9470  80.9470  82.1486  82.1486  84.1652
    84.1652  84.3420  85.4349  86.1028  86.1028  86.4084  86.4084  86.7718
    88.9773  89.3377  89.3377  89.4484  89.4484  89.4834  90.5134  91.0483
    91.0483  91.5321  92.1253  92.1253  92.9214  92.9214  93.4058  93.4058
    93.5401  93.6187  94.7974  96.7995  97.2547  97.2547  97.5479  97.5479
    97.6616  99.7424  99.7424 100.4736 100.5286 100.9375 101.4979 101.4979
   101.6012 101.6012 101.8146 101.8146 102.3630 105.5809 106.2091 106.2091
   106.2616 107.0606 107.7217 107.7217 109.0131 109.2969 109.2969 109.3973
   109.3973 109.6283 111.4571 111.4571 112.4747 112.4747 113.8240 114.4637
   114.6863 114.6863 114.7351 114.7351 114.8566 115.3261 115.3261 115.5664
   115.7906 115.7906 116.2000 116.2000 116.2805 116.5973 116.5973 116.8063
   116.9603 116.9603 117.0150 117.4630 117.7412 117.7737 117.7737 121.1981
   121.3656 121.3656 121.4392 121.4392 121.8175 123.2889 123.2889 123.5462
   123.6236 123.6236 123.7036 123.9660 123.9660 124.0269 124.5352 124.5352
   126.4625 128.4425 128.5680 128.5680 129.4188 129.8251 129.8752 129.8752
   130.1364 130.1364 130.1907 130.2303 131.0323 131.1466 131.1466 133.5110
   133.9622 133.9622 133.9789 134.2064 134.3106 134.3106 135.0081 135.0081
   136.6516 136.6516 137.4533 137.4533 138.6579 138.7324 138.7693 138.7693
   139.0349 139.0349 139.4544 139.5512 139.6048 139.6826 139.6826 139.9199
   139.9199 141.5337 143.0281 143.0281 143.9999 147.1840 147.1840 147.6879
   147.7953 148.0800 148.0800 148.0941 148.0941 148.2332 149.0858 149.2225
   149.2681 149.5276 150.1205 150.1205 150.1205 150.1205 150.4752 150.4752
   150.8834 152.0407 152.0407 153.1747 153.1747 153.5743 153.5743 153.8184
   154.2429 154.2429 154.4837 155.4583 155.8816 155.8816 156.1190 156.1190
   157.0234 157.1499 157.1499 157.6231 157.9459 158.0865 158.1001 158.1719
   158.1719 158.2741 158.2741 158.3387 158.3387 158.3599 158.3599 158.4923
   159.0207 159.0207 159.2394 159.2418 160.3040 160.3040 161.2191 161.5006
   161.5006 164.7019 164.8560 165.8086 165.8631 165.8631 166.0509 166.0509
   166.4454 166.8203 166.8203 166.8274 166.8274 168.0446 168.7152 169.2959
   169.2959 169.5042 169.8501 169.8501 169.9730 169.9730 170.2647 170.7684
   170.7684 170.8059 171.1180 171.3575 171.7232 171.7232 172.0277 172.0277
   172.8594 172.8594 172.8791 172.8791 173.0654 173.1694 176.8003 176.8003
   178.4049 178.4049 178.5636 179.8961 179.9426 179.9426 179.9456 180.1354
   180.1834 180.2032 180.2032 180.2396 180.2396 180.4725 180.6551 180.6551
   180.6591 181.4817 181.4817 183.1543 183.1543 183.6021 183.9189 183.9189
   184.0516 185.5895 185.5895 186.0039 186.2315 186.2315 186.8275 186.9070
   187.3487 187.3487 187.4189 187.4189 187.4954 188.2367 189.4094 189.4094
   190.0242 190.0242 191.5422 191.7340 191.9773 191.9773 192.4849 192.4849
   193.1567 193.2979 193.2979 193.3893 193.4573 193.4573 194.7988 195.1757
   195.2451 195.5845 195.5845 196.2336 196.2336 196.3856 196.3856 196.6937
   196.6937 196.7159 197.6771 197.8042 197.8042 197.8192 198.7335 198.7335
   199.2451 199.2883 199.2883 199.2903 199.3122 199.3122 200.5351 202.8564
   202.8721 202.8769 202.8769 202.8837 202.8837 203.7952 203.7952 203.8267
   203.8425 203.8425 203.8447 204.8867 204.8867 205.3868 205.3868 205.6731
   206.5922 206.5922 206.9439 207.2204 207.5896 207.6327 207.9482 207.9482
   208.0787 208.0787 209.8285 209.8285 210.2367 211.6791 211.6791 212.3590
   212.5208 212.5208 212.7681 212.7681 212.8616 212.8638 213.9209 214.5278
   214.9904 214.9904 215.4885 215.4885 215.5360 215.6637 216.9235 216.9235
   217.9917 218.9341 218.9341 219.0243 219.0243 219.3259 219.6921 219.9371
   219.9493 219.9493 219.9793 219.9793 220.3741 220.3784 220.5214 220.5214
   220.5756 220.5756 221.2598 221.2931 221.2931 221.5498 221.7259 221.7259
   221.9817 222.0422 222.2185 222.2185 223.4979 223.4979 223.5609 223.5787
   223.5787 223.5844 223.8868 223.8868 224.7202 224.7202 224.7394 224.7607
   226.4253 226.4253 227.0513 227.2482 227.2482 227.2655 227.6133 227.6133
   228.7715 228.9572 228.9609 228.9609 228.9741 229.5796 229.5796 229.7974
   229.8173 229.8173 229.9048 230.0586 230.0586 230.2042 230.2121 230.2349
   230.2349 231.2838 231.2838 234.0088 234.0088 234.0162 234.9442 235.4581
   235.4581 237.1444 237.1444 237.3732 237.4043 237.4043 237.4521 237.8591
   239.1191 239.1191 239.3391 239.3391 241.7815 241.7815 242.0222 242.0222
   242.0929 242.0958 242.2851 242.2851 242.7036 242.7129 243.0377 243.0377
   243.2292 243.8786 243.8786 243.8828 243.8828 243.9010 243.9010 243.9375
   244.1776 244.1776 244.5632 244.5685 244.8622 246.6013 246.7701 246.7701
   248.6674 248.6674 250.1566 250.1566 250.2408 250.3975 250.4524 250.4524
   250.5092 250.5365 250.7608 250.7608 252.0011 252.0011 252.2341 252.2341
   252.2923 252.2923 252.2957 252.2957 254.2660 254.2683 254.2683 254.3139
   255.1819 255.9302 255.9302 256.1770 258.4116 258.4121 258.4121 258.4357
   258.7448 258.7448 258.8967 258.8967 258.9134 258.9134 259.7691 259.8878
   259.8878 260.2061 260.2645 260.2645 260.9050 261.1463 261.1618 261.1618
   261.5535 261.5535 262.0146 262.0236 262.0236 262.0343 262.8691 263.4260
   263.4260 263.5212 263.5212 263.7365 264.4695 264.4695 264.6301 264.7764
   264.8013 264.8013 264.9971 265.0063 265.0063 265.1996 265.2732 265.2732
   266.9691 266.9700 267.0949 267.0949 267.1164 267.1164 267.8871 267.8871
   267.9026 267.9026 267.9162 267.9272 270.3692 270.4064 270.4064 271.0809
   271.0809 271.1150 271.2464 271.2464 271.3312 271.6220 271.6220 271.8612
   272.8943 272.8990 272.8990 272.9834 272.9973 272.9973 273.8870 273.8870
   274.1621 274.9275 274.9275 276.1077 276.1077 276.1461 276.2837 276.3088
   276.3359 276.3359 276.3471 276.3471 276.3576 276.7035 276.7035 276.7045
   278.6297 278.6297 278.8688 278.8701 278.9055 278.9055 280.0002 281.4200
   281.4200 281.6437 281.6437 281.6590 281.6751 281.7786 281.7786 281.7884
   281.7907 281.8055 281.8055 282.8926 282.8926 283.1723 283.9451 283.9451
   284.3492 284.3492 285.6965 285.6965 285.8646 285.9418 285.9647 285.9647
   286.5048 286.5048 286.5791 286.6017 286.6145 286.6191 286.6191 286.6254
   286.6654 286.6654 287.9212 288.1659 288.1659 288.8149 288.8149 289.4266
   289.4961 289.4961 290.4232 291.1873 291.1873 291.3303 292.0601 292.0733
   292.7822 292.7822 292.8709 292.8709 292.8750 292.9316 294.8114 294.8114
   294.8155 294.8155 297.5331 297.5331 298.8437 298.8999 298.8999 299.0256
   299.0621 299.0621 299.4119 299.4840 299.4840 299.4972 300.0233 300.0902
   300.0902 300.2664 300.2664 300.4708 300.4708 300.4777 300.4777 300.5118
   300.5156 300.5958 301.7821 301.7821 301.8379 301.8394 301.8394 301.8633
   303.7854 303.7854 304.4636 304.4636 304.4695 304.5140 305.4239 305.4239
   305.7179 305.7412 305.8667 305.8667 306.9426 306.9426 307.0794 307.3207
   307.3419 307.3419 309.0277 309.0277 309.0277 309.0277 309.0413 309.0566
   309.2540 309.6947 309.6947 310.2166 310.2166 310.3218 310.5900 310.5900
   311.4462 311.4462 311.8540 312.2146 312.2527 312.2527 312.3213 312.3213
   312.3217 312.3340 312.3677 312.6857 312.6857 312.7188 312.7188 312.7847
   314.8208 314.8208 315.0088 315.0089 315.0593 315.0593 316.0825 316.0825
   318.0497 318.0622 318.0622 318.0624 320.4702 321.0238 321.6639 321.6639
   322.1801 322.1801 322.1837 322.1938 322.2039 322.2039 322.3841 322.3902
   322.4317 322.4317 322.9710 322.9710 322.9738 322.9738 323.5478 323.5549
   323.6073 323.6073 325.1343 325.3285 325.3568 325.3568 325.7403 325.7403
   326.2206 326.4340 326.4340 326.7466 326.7498 327.0454 327.4167 327.4167
   327.5356 327.5356 327.9852 328.0077 328.0077 328.1508 328.1736 328.1736
   328.5207 328.5207 328.6161 328.6161 328.9529 328.9707 329.2634 329.3072
   329.4772 329.4772 329.5008 329.5008 329.7576 329.7576 329.7607 329.7607
   329.7642 329.7737 330.1135 330.1135 330.1769 330.1782 330.1782 330.1962
   334.4620 334.4620 334.8004 336.7265 336.7265 336.7683 336.7683 336.7823
   336.8776 337.0447 337.0447 337.1629 337.1726 337.1726 337.1748 337.2108
   337.2127 337.2555 337.2555 337.2588 337.2588 338.0548 338.0548 338.4522
   339.1518 339.1518 339.1690 339.6473 339.8365 339.8365 340.6759 340.6759
   341.1463 341.1589 341.1798 341.1798 342.1071 342.9645 342.9645 342.9816
   342.9914 342.9914 343.0545 343.3775 343.3775 343.5758 343.6437 343.6460
   343.6578 343.6578 344.1188 344.1188 344.5285 344.5285 345.8943 345.9136
   345.9141 345.9141 345.9286 345.9286 347.9338 347.9338 347.9674 347.9674
   348.8012 348.8014 350.2852 350.2852 350.5423 350.5423 350.6517 350.6547
   350.6547 350.6604 350.7010 350.7047 350.7317 350.7317 351.5081 351.5344
   351.5344 351.5871 351.5871 351.6490 351.7616 351.7624 352.5439 352.5439
   352.5801 352.5801 353.5901 353.5901 353.5925 353.5925 353.8498 353.8502
   354.5666 354.5666 354.7576 354.7576 354.7703 354.7907 357.3991 357.3991
   357.6256 357.9047 357.9172 357.9172 361.9026 361.9026 362.3222 362.3222
   362.8482 363.1685 363.1774 363.1774 363.3668 363.3718 363.3726 363.3726
   363.3776 363.4030 363.4030 363.5130 363.6329 363.6329 363.8880 364.0007
   364.0007 364.0337 364.0818 364.0818 364.1419 364.1891 364.1891 364.1955
   364.1955 364.4544 364.9898 365.0349 365.0349 365.0823 365.0899 365.0899
   368.2222 368.2222 368.5582 368.5582 368.6010 368.7183 368.7248 368.7248
   368.7706 368.9961 369.0228 369.0514 369.0514 369.1927 369.1927 369.1983
   369.1983 369.3029 369.3029 369.3264 369.3582 369.3863 369.4834 369.4834
   369.5359 369.6277 371.1600 371.1600 371.2278 371.3509 371.3509 371.3671
   372.7185 372.7185 372.7398 372.7398 373.1173 373.1188 373.1406 373.1406
   373.1540 373.1540 374.5106 374.5106 374.5150 374.5313 374.5313 374.5507
   374.5954 374.6008 374.6008 374.6048 374.6228 374.6228 378.3613 378.3613
   378.5159 378.5285 378.5617 378.5617 380.3199 380.3199 380.3344 380.3344
   380.3468 380.3493 383.2044 383.2044 383.3446 383.3446 383.6040 383.8441
   383.8652 383.8652 383.9017 383.9141 383.9210 383.9210 385.7242 385.7242
   386.1293 386.1806 386.1809 386.1809 386.1959 386.1959 386.2442 386.2442
   386.2590 386.2590 388.4082 388.4082 389.1828 389.3365 389.3629 389.3631

          k = 0.0000 0.2500 0.0000 (  3631 PWs)   bands (ev):

   -52.1558 -52.1558 -52.1558 -52.1558 -52.1558 -12.6277  -0.7327  -0.5939
    -0.5939   6.1435   9.5779  10.4348  10.4348  11.1066  12.2591  14.0816
    15.2139  15.4293  15.4293  18.6648  21.6169  21.6169  22.1532  23.3125
    25.0402  25.1748  25.1748  27.3960  28.5291  28.5291  29.5783  30.2649
    30.8608  32.3149  32.3191  32.3191  34.2697  34.2883  34.2883  36.1889
    36.2819  36.2819  37.1196  37.5919  37.8430  38.4989  39.2635  39.2635
    39.5095  40.5350  40.5350  40.5711  41.1389  41.1389  41.4798  42.2549
    43.1116  43.4042  43.4042  44.9794  46.9862  47.6323  47.6323  48.4827
    49.0897  54.3861  55.0255  55.0255  55.4659  55.4659  56.1862  56.4898
    59.3043  60.1583  60.8761  60.8761  61.7134  61.9007  61.9007  62.3029
    63.0634  63.5814  63.5814  63.5882  64.0140  64.9104  65.5523  67.0033
    67.0562  67.0562  67.6724  67.6724  67.8063  68.3375  68.4028  68.7026
    68.9019  68.9019  69.4037  69.4037  70.7492  71.4049  72.1726  72.1726
    72.4227  73.0833  73.2970  73.2970  73.8240  73.9912  74.4894  74.4894
    75.1109  75.1450  76.0681  77.0899  77.0899  78.4754  78.4754  78.5529
    79.4047  79.9050  79.9293  79.9293  80.0109  80.7497  80.8636  81.4666
    81.7137  81.7137  85.3571  86.4761  86.4761  86.8567  86.9735  86.9735
    87.5188  88.2909  88.7526  88.9411  88.9411  89.3737  89.3737  89.6026
    90.3968  90.4312  90.8046  91.2623  91.2623  92.4490  92.4490  92.4730
    92.8199  94.5254  94.8086  94.8086  95.4489  95.8476  95.9253  96.5765
    96.5765  97.2823  99.3207  99.3458  99.3458  99.4569  99.6435 101.0429
   101.2825 101.5649 101.5649 102.3417 102.3417 103.6731 104.8561 104.8561
   105.5106 107.3434 108.9266 108.9266 109.9217 111.2887 111.2887 111.7188
   112.6989 113.2739 113.7536 113.7536 114.2700 114.3639 114.5283 115.1749
   116.6988 117.1173 117.1173 117.3052 117.3052 117.5789 117.9285 118.5935
   118.7986 118.7986 119.8214 119.8847 119.8847 119.9100 120.0724 121.0676
   121.2009 121.2009 121.7632 121.7632 121.9685 122.2088 122.2620 122.2635
   122.8173 122.8173 122.9508 124.1217 124.1217 124.7431 124.9080 124.9080
   125.0663 125.5314 125.9278 125.9358 125.9358 126.0250 126.7310 126.8039
   126.8039 127.0600 127.1516 127.2272 127.2272 128.6522 128.8137 128.8137
   129.0504 129.3573 130.1351 130.1351 130.5223 130.7591 131.5302 131.6740
   131.6740 131.9037 132.0225 132.2802 132.6109 132.9916 132.9916 133.3640
   133.3640 133.6987 134.4406 135.6812 135.8782 135.8782 136.3760 136.7039
   137.0641 137.0641 137.1742 137.4997 137.4997 138.5504 138.5782 139.3387
   139.7499 140.1045 140.2368 140.2368 141.9529 141.9529 142.2247 142.2247
   142.4760 142.7259 143.2667 143.8646 144.5054 144.7030 144.8587 144.8587
   145.3670 145.3670 145.5095 145.9878 146.3125 146.3125 146.8008 147.0467
   147.4938 147.5190 147.5190 148.3844 151.2485 151.2485 152.1494 152.8654
   152.9824 152.9824 153.0368 153.2615 153.2687 153.2687 153.5297 153.8175
   154.5646 154.5646 154.7495 154.8018 156.7552 156.7552 156.7781 156.8570
   158.3543 158.9397 158.9397 159.9426 160.8195 160.9481 160.9515 161.0585
   161.0585 161.1674 161.1810 161.1810 161.7833 162.7380 162.7380 163.0127
   163.2970 163.9230 164.8704 166.7455 166.7455 167.2053 167.4764 167.7340
   167.7340 168.5421 168.5421 170.1926 170.1926 171.1663 171.1952 171.8975
   172.0088 172.0906 172.0906 173.1205 173.1205 173.4872 173.7110 173.8805
   173.8805 176.0984 176.2122 176.4117 177.2352 177.2352 177.4255 177.9679
   178.1191 178.1734 178.1734 179.0246 179.1154 179.3945 179.3945 179.9244
   180.4334 180.4334 180.8296 180.8470 181.0483 181.2238 181.2238 181.8035
   181.8624 181.9836 182.6068 182.6068 182.7719 182.7719 182.8238 184.5645
   184.7307 184.7307 184.7773 184.8298 185.5835 185.9339 186.3887 186.5847
   186.5847 186.7659 186.7659 186.9801 187.2266 187.9258 187.9492 187.9492
   188.2253 189.4020 189.4945 189.4945 189.6372 189.6372 189.6433 189.7495
   190.6972 190.6972 190.7463 190.8695 191.8288 192.3134 192.4601 192.4601
   192.8804 192.9914 192.9914 193.6995 193.9274 193.9274 194.8122 194.8122
   194.8232 194.8680 195.4674 195.5723 195.5723 195.7018 195.7219 196.1642
   196.3333 196.3524 196.3524 197.1117 198.1718 198.9939 198.9939 199.0005
   199.2056 199.2056 199.4717 199.4754 199.9910 199.9910 200.1595 200.5938
   200.5938 200.7145 200.8124 201.4445 201.4445 201.4866 201.5060 202.3495
   202.3495 202.4952 203.0048 203.6211 203.9784 204.0931 204.0931 204.1726
   204.4503 204.4799 204.4800 204.4800 204.5323 205.1906 205.2161 205.2161
   205.4019 205.8758 205.8758 206.1987 206.3832 206.3832 206.4464 206.5654
   206.8054 206.8289 206.8289 208.7396 208.8221 208.9314 208.9314 209.0812
   210.1523 210.8375 210.8375 211.0825 211.7048 211.8493 211.8493 211.8881
   212.7562 212.7596 212.7596 213.0144 213.0148 213.4724 213.4724 213.7119
   215.2782 216.2515 216.2515 216.7054 216.7435 216.7505 216.7505 217.4077
   217.7065 217.9317 217.9389 217.9389 219.1463 219.1463 219.2465 219.2505
   219.5528 219.8491 219.9022 219.9022 220.3492 222.9155 223.0114 223.4074
   223.8483 223.8483 223.8673 223.8673 224.3651 224.7160 225.0745 225.0745
   225.9682 225.9682 227.1939 227.2136 228.0059 228.6841 228.6841 228.9260
   230.7993 231.1350 231.1350 231.1470 231.8505 231.8505 232.6725 232.8053
   232.8330 234.8759 234.9999 234.9999 235.1745 235.8166 235.9848 235.9848
   236.2008 236.3452 236.9442 236.9442 237.0355 237.4350 237.7025 237.9968
   237.9968 238.4776 239.0824 239.0824 239.1523 240.4306 240.4306 240.5343
   240.6603 241.0118 241.0283 241.0492 241.0492 241.1363 241.1969 241.1969
   241.2656 242.7054 243.5957 244.0984 244.0984 244.1355 244.1841 244.3274
   244.3274 245.8744 246.1951 246.7435 246.7435 248.2758 248.3386 248.3386
   248.3728 249.2801 249.6007 249.6007 249.7954 249.9209 249.9209 249.9383
   250.0823 250.6396 250.8689 250.8689 251.1001 251.5498 251.5591 251.5591
   251.6850 252.0745 252.0745 252.0788 252.0877 252.1258 252.9859 252.9859
   253.1826 253.1826 253.3820 253.5312 253.6202 253.9879 254.2778 254.2778
   255.0833 255.4017 255.4017 256.2593 256.5975 256.6036 256.7254 256.7254
   257.2019 257.4623 257.5752 257.5752 257.6985 258.5463 258.5466 258.7221
   258.7959 258.8223 258.8223 259.0759 259.0759 260.5088 260.5689 260.5689
   260.5892 260.6180 260.9622 261.1026 261.1026 261.6147 261.6959 261.7380
   261.7380 261.7802 261.9670 261.9670 262.0075 263.6018 263.6184 264.3529
   264.3529 265.4323 267.7049 267.7049 268.5480 268.6640 268.6640 268.6869
   268.6924 268.8061 268.8445 268.8668 268.8668 269.2042 269.3181 269.3181
   269.4808 270.5690 271.0403 271.0403 271.3592 271.6216 272.0879 272.5474
   272.5474 273.1080 273.3695 273.6049 273.6049 273.7279 274.2842 274.4167
   274.4527 274.4527 274.5970 275.0442 275.0442 275.1790 275.3344 275.3850
   275.3850 275.4462 275.5825 276.0815 276.0815 276.7541 278.6190 278.6915
   278.6915 278.7848 278.8553 278.8750 278.8750 278.9741 280.2584 280.2715
   280.2715 280.2746 280.8021 281.3125 281.3125 281.8748 281.9244 281.9244
   281.9282 281.9724 282.0504 282.0504 282.0734 282.8586 282.8586 282.9595
   283.0140 283.0725 283.1338 283.1338 283.1826 283.2221 283.2475 283.2475
   283.4082 284.9528 285.1641 285.1679 285.1679 285.2541 285.8858 286.2019
   286.2594 286.2594 286.2811 286.3666 286.3666 286.6187 286.8169 286.8717
   286.8717 288.5289 288.5289 288.5513 288.5667 289.3280 289.3280 289.7353
   289.8923 291.4481 291.6077 291.6077 291.7047 291.7672 291.8012 291.8012
   291.8301 292.3951 293.5577 293.5577 293.6598 293.8526 293.9022 293.9022
   294.0604 294.8139 295.0793 295.1954 295.1954 295.4652 295.6717 295.6717
   295.6901 295.6972 295.7164 295.7759 295.8028 295.8028 296.2529 296.2529
   296.2918 296.2977 296.5934 296.5934 297.1235 298.7189 298.8021 298.8021
   298.8735 299.3186 299.3186 299.8646 300.3012 300.3541 300.4458 300.4458
   300.6046 300.9229 300.9951 300.9951 300.9994 301.1988 302.5599 302.6110
   302.6110 302.6287 302.6797 302.7052 302.7052 302.8921 302.9524 303.1937
   303.2598 303.2598 303.5738 303.6068 303.6068 303.6228 303.7029 303.7029
   303.7087 305.2626 305.5371 305.6582 305.6767 305.6767 306.1387 306.2224
   306.2224 306.3165 307.1883 307.1883 307.1884 307.2277 307.2967 307.3810
   307.3810 307.4078 308.1868 309.2617 309.2617 309.8521 310.2888 310.2888
   312.3122 312.4200 312.5260 312.9141 312.9141 313.9275 313.9377 313.9377
   313.9853 314.0337 314.0838 314.0838 314.2622 316.7850 318.1345 318.1345
   318.5079 318.5275 318.5304 318.5304 318.6891 318.7460 318.8996 319.6022
   319.6022 320.3519 320.4805 320.4805 320.4828 321.4804 321.4804 322.6046
   322.6221 322.9368 322.9368 323.1956 323.5546 323.8225 324.0327 324.0327
   324.0418 324.0771 324.4212 324.4290 324.4290 325.4298 325.5084 325.5084
   325.5257 325.9265 325.9265 325.9979 326.5742 326.5782 326.5782 326.5999
   327.0954 328.7796 330.2754 330.5709 330.5709 330.5787 330.5791 330.7204
   330.7204 331.1892 331.3524 331.3734 331.3734 332.5403 334.3645 335.4229
   335.4229 335.6423 335.6423 335.6939 335.7945 336.0699 337.2695 338.1290
   338.1290 338.2023 338.3568 338.5976 339.3355 339.3355 339.3952 339.5943
   339.5943 339.7466 340.2161 340.5723 340.7379 340.7592 340.7592 341.3274
   341.3274 341.9385 342.3757 342.3757 342.4443 342.4536 343.6751 343.8525
   343.8525 343.8601 343.8848 344.1480 344.1480 344.8972 345.2335 345.4579
   345.4579 345.4635 345.4748 345.4763 345.4763 345.5111 346.1905 346.2035
   346.2177 346.2374 346.2547 346.2547 346.3624 346.3624 348.3256 349.4647
   349.4647 350.0735 350.3818 350.3818 350.7837 351.8158 351.9270 351.9371
   351.9605 351.9605 352.0009 352.0121 352.0121 352.3592 352.3994 352.8338
   352.8338 352.9328 352.9328 353.0339 353.0457 353.1044 353.1044 353.1083
   353.1414 353.2377 353.4409 353.4932 353.4932 353.5179 356.8003 356.8721
   356.9352 356.9445 356.9445 357.0947 357.0947 357.1353 357.1785 357.1785
   357.2005 357.2151 357.3369 357.4044 357.4044 357.4224 357.7568 357.8109
   357.8419 357.8419 358.7495 358.9873 358.9873 359.0986 361.4902 361.5095
   361.5095 361.5313 361.7460 362.0161 362.0161 362.1588 362.4665 362.8794
   363.0418 363.0418 363.7506 364.1757 364.2282 364.2619 364.2619 364.3750
   364.3750 364.4060 364.6217 364.7651 364.7651 364.8558 365.3159 365.3845
   365.5462 365.6260 365.6260 365.6511 365.6532 365.6532 365.6754 365.7034
   365.7034 366.2653 366.4490 366.7235 366.7235 366.8833 367.1075 367.4940
   367.4940 367.5689 367.7097 367.8163 367.8213 367.8213 367.8783 367.9704
   367.9704 367.9877 368.0358 368.1426 368.1426 368.1636 368.2124 368.2611
   368.3675 368.3675 369.1314 369.2268 369.2268 369.2907 369.5431 369.8165
   369.9451 369.9451 370.0902 370.5675 370.6127 370.6127 370.6957 372.0733
   372.1051 372.1051 372.1812 372.3530 372.3751 372.3773 372.3773 372.4508
   372.5049 372.5049 372.5583 373.4225 373.4380 373.4380 373.4414 375.5529
   375.5545 375.5690 375.5690 377.0353 377.0752 377.1884 377.3273 377.3273
   377.3469 377.3637 377.3637 377.5877 377.5877 377.7979 378.0164 378.0258
   378.0309 378.0427 378.0427 380.2581 380.2747 380.2747 380.2795 380.3470
   380.3867 380.4282 380.4282 381.9224 382.0303 382.0303 382.0927 382.2770
   382.3206 382.3206 382.3989 383.0228 383.0376 383.0578 383.0578 383.0634
   383.0885 383.0885 383.0976 384.3315 385.7077 385.7512 385.7512 385.8388

          k =-0.1250 0.3750-0.1250 (  3628 PWs)   bands (ev):

   -52.1558 -52.1558 -52.1558 -52.1558 -52.1558 -12.5914  -1.0571  -0.6581
    -0.6416   6.7800   9.1739  10.1554  10.6293  11.1652  12.4094  14.2871
    15.5822  16.4476  17.1243  18.9813  19.4274  20.5888  21.6400  22.9864
    22.9937  25.3805  26.2282  27.7492  28.9897  29.0490  29.7998  30.1014
    30.3341  31.4250  31.6995  32.0568  32.7551  33.8090  34.0513  34.6275
    35.7454  35.8085  36.6001  37.4950  37.6388  38.5258  38.8151  39.0694
    39.8002  40.2599  40.7954  42.2000  42.8168  42.9253  43.5166  44.2369
    44.7070  45.5444  46.4174  46.5768  47.5756  48.2469  49.9614  50.4247
    50.5470  51.8306  52.7079  52.8875  53.1811  54.7014  56.1128  57.3265
    57.3421  57.3878  58.9634  59.3259  59.4884  59.8007  60.8421  61.3597
    62.4687  62.7239  63.0150  63.2306  63.3288  63.6375  63.6436  64.7197
    66.0664  66.3571  66.9343  67.5968  68.1309  68.1749  69.1251  69.4903
    69.7662  69.8832  70.2240  70.8669  71.9326  72.1575  72.9523  73.1554
    73.3775  73.7907  73.9666  73.9966  74.2352  74.5227  74.7091  74.9463
    75.4802  76.5153  77.7283  77.7696  77.9440  78.2400  78.9192  79.3119
    79.6729  79.8015  80.0134  80.8395  80.9052  81.3498  81.9158  82.5719
    83.0723  83.1522  84.2994  84.3248  84.6148  84.6738  85.1964  85.6012
    86.2600  86.3868  87.3960  88.3298  88.4947  88.9143  89.2361  89.9210
    90.1299  91.3846  91.5388  92.1236  92.7354  93.3135  93.5616  94.1116
    94.7040  94.8828  95.4787  95.6460  96.5053  96.6297  96.9663  97.0992
    97.3768  98.8527  99.2156  99.4547 100.0622 101.0778 101.8865 102.5378
   103.3614 103.5370 104.1630 104.6790 105.1420 105.1945 105.7152 105.8268
   106.6580 106.7479 107.5307 108.2254 108.8761 109.6787 109.8052 110.4434
   110.7501 110.8666 111.2128 111.5441 111.8961 112.0093 112.5670 112.7487
   113.0207 113.1123 113.8537 114.2454 114.4003 115.3336 115.4511 115.7550
   116.7776 116.7905 117.7373 118.2160 118.3645 118.4180 118.5829 119.0548
   119.1464 119.4164 119.7725 120.9304 121.1977 121.2583 121.6729 121.7513
   122.1152 122.8697 123.2796 124.1496 124.5308 124.5328 124.8785 124.9020
   125.3213 125.3293 125.3480 125.8329 126.0553 126.2654 127.0727 127.0788
   127.4532 127.7383 127.8035 128.3506 128.7796 128.9989 129.3736 130.9201
   130.9448 131.4287 131.9990 132.0007 132.5124 132.7717 132.8927 133.1937
   133.6614 133.9662 134.0708 134.2507 134.3919 134.4297 134.6601 135.1858
   135.4206 135.8430 135.9426 136.1242 136.5333 136.5438 137.0681 137.1292
   138.3752 138.5004 138.5838 138.8312 139.0420 139.0651 139.1971 139.7920
   140.6879 140.9115 141.0113 141.1037 141.5158 141.8057 142.0564 142.2165
   142.4322 142.6320 142.6903 142.8232 143.2619 143.3735 144.3532 144.7598
   144.8445 145.1830 145.3135 145.7566 145.8461 145.8793 146.1427 146.4864
   148.3942 148.5504 149.0951 149.5190 149.8946 150.6043 151.1274 151.8112
   152.4772 152.5278 152.9879 154.4772 155.0853 155.0919 155.1668 155.5312
   155.7290 155.9962 156.5680 156.8297 157.0533 157.6081 158.5561 158.7803
   159.1717 159.6496 159.8278 159.8447 159.8512 160.5247 160.8490 161.4104
   161.5246 162.0345 162.1962 163.0825 163.1582 163.4890 163.6922 164.0020
   164.4171 164.7689 165.4495 165.4585 166.0118 166.4288 166.4382 166.7253
   167.2051 168.1237 168.7595 169.2490 169.7708 169.9065 169.9871 170.4335
   170.5753 170.7763 171.2653 172.0299 172.3342 172.5084 172.6924 172.8370
   172.8703 173.3200 173.3368 173.6304 173.8186 174.8231 174.9027 175.8432
   176.0903 176.4070 176.9064 177.3011 178.0961 178.2713 178.5003 178.9877
   179.0759 179.4172 179.6194 179.7370 179.9304 180.1598 180.2162 181.0801
   181.3532 181.4377 181.6534 182.0430 182.4370 182.5689 182.5856 183.1275
   183.1410 183.5389 183.9221 184.6918 185.1790 185.4300 185.5720 186.4649
   186.5510 186.7446 186.8803 187.3928 187.7798 188.0852 188.0886 188.3249
   188.4775 188.6807 189.2264 189.8493 189.9328 189.9873 190.0776 190.2690
   190.3338 190.5069 190.6029 190.9855 190.9941 191.0990 191.6955 191.7482
   191.9629 192.1576 192.2776 192.3655 192.7249 192.9823 193.4263 193.6064
   193.9192 194.1245 194.5069 194.6079 195.3809 195.5738 196.0772 196.2426
   196.5338 196.6979 196.8760 196.9655 197.1576 197.5093 197.6430 198.3750
   198.4905 198.6064 198.7729 198.9156 199.2564 199.3018 199.6572 199.7962
   200.5022 200.5410 201.2791 201.3892 202.1438 202.1965 202.3205 202.4321
   202.7079 202.7604 203.1490 203.2338 203.5397 203.6364 203.7972 204.0859
   204.2225 204.2952 204.6487 204.9569 205.0921 205.2164 206.0974 206.7029
   207.3363 208.2930 208.5070 208.8705 208.9749 209.1746 209.4186 209.5708
   209.8659 209.9856 210.0944 210.1970 210.5046 211.0313 211.2074 211.3914
   212.5819 213.0292 213.0396 213.5107 213.9030 214.1045 214.4382 214.7662
   215.1373 215.3337 215.5095 215.6070 215.6369 216.0594 216.3793 216.3928
   216.8623 217.0748 217.1009 217.3284 217.3653 217.7405 217.9509 218.4843
   219.3944 219.8333 219.8540 220.4084 220.8459 220.8831 221.0293 221.6171
   221.6942 222.0364 222.1494 222.2150 222.2278 222.8248 223.0465 223.4785
   223.8994 224.4238 224.6696 224.8172 225.2963 225.4115 225.7837 226.2220
   226.2336 226.5058 226.6317 226.9881 227.5319 227.7742 228.2243 228.2760
   228.7389 228.9089 229.4856 229.7233 230.1763 230.5288 230.7603 230.8958
   231.1286 231.2931 231.3224 232.2490 232.5017 232.8628 232.9653 233.4295
[...]
   208.9413 209.0613 209.1161 209.3605 209.4062 209.5875 210.4367 210.4518
   210.8232 211.1944 212.0811 213.8665 214.7610 215.0927 215.1201 215.2283
   215.3081 215.7336 216.2996 217.0360 217.3012 217.4599 217.7046 217.8650
   217.9308 218.1499 218.5103 218.7397 218.9730 219.2696 219.5266 220.3227
   220.4361 220.4739 220.6978 221.5942 221.9198 222.0247 222.1215 222.5072
   222.6268 223.5364 223.7251 223.9546 224.2950 224.4240 224.5612 224.5839
   224.6122 224.6980 224.9356 225.5762 225.6613 225.8036 225.9006 225.9516
   226.7020 226.8210 226.8520 227.0418 227.2173 227.3886 228.0230 228.3589
   228.4538 228.7278 229.0150 229.3026 229.6138 229.6274 229.9365 230.1698
   230.3796 230.4503 231.1413 231.1485 231.9258 232.0294 232.1406 232.3773
   232.4499 232.7138 232.7826 232.9590 232.9774 232.9904 233.0077 233.3398
   233.4638 233.5336 233.6152 233.7604 233.9203 234.1962 234.4644 235.3591
   236.3791 236.9959 237.6395 237.7130 237.7190 237.8263 237.8602 237.9211
   237.9725 238.1075 238.3179 238.5922 238.6717 238.8844 238.9334 238.9762
   239.2020 239.2509 239.4264 240.6902 240.7202 240.8165 240.8222 241.9342
   242.0228 242.1476 242.3763 242.6433 242.9285 243.0290 243.0943 243.5229
   244.1947 244.5149 244.5948 244.6319 244.6902 244.7258 244.7965 244.8645
   244.9969 245.2984 245.6838 246.8019 246.8854 246.9406 246.9478 247.5722
   248.8018 248.9376 248.9649 248.9915 249.5495 249.7766 249.9297 249.9500
   250.0469 250.1082 250.2194 250.2771 251.3826 251.6895 252.4138 252.9300
   253.3958 254.2080 254.2104 254.2130 254.2478 254.3633 254.6921 254.7564
   254.9231 255.1097 256.3783 256.7818 257.3057 257.5455 257.6920 257.9957
   258.0244 258.0250 258.0916 258.0966 258.1298 258.2004 258.3851 258.9487
   258.9825 259.0343 259.1351 259.2547 259.8170 259.9907 260.2439 260.8142
   260.8305 260.9256 260.9947 261.3405 262.7244 262.9300 262.9875 263.0796
   263.6345 263.6875 264.1424 264.3530 265.0238 265.0434 265.0640 265.1387
   265.8125 265.9260 266.0383 266.0449 266.0584 266.1025 266.5837 266.6976
   266.8004 266.8104 267.5283 268.6309 269.3993 269.5249 269.8503 269.9152
   270.0073 270.0434 270.0496 270.3193 270.4573 270.6732 271.0386 271.3768
   271.8834 272.1436 272.2490 273.1040 273.6175 274.4539 274.6312 275.2020
   275.5214 275.5308 275.9075 276.0239 276.5997 276.6678 276.7740 276.9605
   276.9807 277.0021 277.0069 277.1800 277.3648 277.3813 277.8186 277.8712
   278.6992 279.0767 279.0873 279.2917 279.8230 279.8265 281.1936 282.4835
   282.5361 282.8196 283.2492 283.4029 283.5939 283.8071 284.1061 284.1988
   284.2357 284.2619 284.3522 284.7892 285.3415 285.7550 285.8053 286.3057
   286.4259 286.4790 286.4820 286.6947 286.8329 286.9953 287.1040 288.3157
   288.3366 288.4100 288.4451 289.2895 289.7267 290.2336 290.7713 290.8263
   291.0848 291.2726 291.2790 291.3836 291.7177 291.7266 292.5831 292.5998
   292.6865 292.7306 293.7381 293.7444 294.8203 295.1486 295.6975 295.7364
   295.8584 296.7812 296.8853 296.8933 297.3376 297.5831 297.6888 297.6900
   297.8097 297.8830 298.1807 298.3683 298.3933 298.6399 298.7643 298.8951
   299.1028 299.2854 299.5549 300.3637 300.4034 300.5080 300.8669 300.8675
   301.0326 301.1606 301.6251 301.6671 301.7063 302.0180 302.4807 302.5947
   302.6554 302.9767 302.9788 303.3441 303.5748 303.6035 303.6188 303.6538
   303.6693 303.9141 303.9190 304.3370 304.7450 304.7866 304.8315 304.9917
   305.0014 305.7357 305.7550 305.8344 305.8574 307.6759 307.6841 307.7042
   307.7313 307.8463 307.9132 307.9165 307.9301 308.6085 309.1548 309.3756
   309.9143 310.5041 310.8743 310.8865 312.0028 312.0931 312.3032 312.3138
   312.4023 312.4176 312.5913 312.6182 312.6399 312.9460 312.9843 313.3012
   313.3047 313.3076 313.5350 313.5601 313.7537 313.8751 313.9303 313.9503
   315.1285 315.2959 315.3812 315.4655 315.4712 315.5856 315.7713 316.0616
   316.0648 316.0765 317.1549 317.3079 317.5018 317.6902 317.7434 317.7850
   318.0065 318.4714 318.6280 318.6409 318.7859 318.8099 319.0120 319.0789
   319.3864 319.4298 319.4451 319.7093 319.8938 320.0353 321.8816 322.0445
   322.0745 322.0987 322.6780 322.8063 322.9033 323.0992 323.4113 323.4932
   323.5244 323.5424 323.5692 323.6272 323.6525 323.8760 323.9900 324.0273
   324.4838 325.1298 325.2657 325.4973 325.8356 326.2342 326.2707 326.4613
   328.1835 328.2909 328.3056 328.5099 328.7532 328.9843 329.0508 329.0693
   329.0853 329.1476 329.1541 329.1737 329.8032 329.8763 330.0171 330.0960
   330.0971 330.1268 331.2264 331.4950 331.6421 331.6451 331.6606 331.6702
   332.9012 333.0802 333.1475 333.2666 333.3619 333.4260 333.7804 333.7834
   334.0032 334.1246 334.1365 334.5859 334.7830 334.8500 335.3797 335.7346
   336.0628 337.3596 337.4095 338.6734 338.9787 339.0015 339.0328 339.7270
   339.8108 339.8403 339.9005 340.4522 340.5545 340.8861 340.9025 341.1255
   341.1997 341.2807 341.2946 341.4378 341.6065 342.4265 342.5435 342.5812
   342.8670 343.3408 343.4270 343.4487 343.6932 343.7212 344.2011 344.3673
   344.5649 344.6182 347.4600 347.4649 347.6784 347.7093 347.8902 347.9106
   347.9808 348.0401 348.3728 348.3826 348.6248 349.0903 349.1435 349.4943
   349.7174 349.7791 350.0300 350.2738 350.5949 350.6739 350.7552 350.7661
   350.8076 350.8276 350.8747 351.0680 351.3487 351.4037 351.4753 351.5456
   351.5718 351.6131 351.6735 351.7415 351.9887 352.0269 352.0685 352.1266
   352.6429 352.6568 352.7914 353.3718 353.8447 354.2051 354.2311 354.5572
   354.6463 354.7500 354.7720 354.8021 354.9681 354.9864 355.4466 355.4533
   355.6528 355.7113 355.7858 355.7969 355.8601 355.8715 357.1579 357.2264
   359.7739 359.7829 360.1893 360.2263 360.8055 361.0023 361.3437 361.4146
   361.8631 361.9786 362.0720 362.1409 362.2141 362.2253 362.3625 362.3809
   362.4267 362.6262 362.6337 362.7756 363.2654 363.2692 365.2895 365.3382
   365.6055 365.6844 365.7381 365.7803 366.1527 366.1664 366.2272 366.2356
   366.3031 366.3705 366.5837 366.5930 366.8813 366.8824 367.4658 367.4663
   367.8525 367.8555 368.2155 368.3275 368.6615 368.8870 369.3928 369.4780
   369.6612 369.6916 369.7247 369.7470 369.8058 369.8552 370.8673 370.8750
   370.9035 371.8793 371.9742 372.3660 372.3754 372.8621 373.2086 373.3221
   373.3389 374.1677 374.1747 374.4609 374.5297 375.6195 375.6555 375.9679
   375.9948 376.3292 376.6022 376.6321 376.6404 376.6831 376.6833 376.7245
   377.0781 377.6582 377.6667 377.6739 377.6895 377.9698 377.9894 378.0668
   378.5315 378.5319 381.3880 381.8322 381.8453 381.9410 381.9970 382.0179
   382.8245 382.8545 382.8626 382.8818 383.2552 383.4383 383.4806 383.4814
   383.4978 383.5118 383.5162 383.6630 383.8936 383.9910 384.0484 384.1179
   384.7282 384.7449 385.4256 385.9890 385.9904 386.1744 386.2086 386.2709
   386.5930 387.1130 387.1696 387.7294 388.0208 388.1543 389.0390 389.9992

          k =-0.5000-1.0000 0.0000 (  3636 PWs)   bands (ev):

   -52.1558 -52.1558 -52.1558 -52.1557 -52.1557 -12.4803  -1.2926  -1.2926
    -0.9754   8.0753   9.2964   9.2964  10.4187  14.2825  14.2825  14.3192
    14.7320  17.3105  19.1411  19.1411  19.5437  20.6790  20.7767  20.7767
    22.2638  24.5814  25.3019  25.8586  25.8586  25.8648  26.7527  27.7049
    27.7049  31.9404  31.9404  32.0162  32.4740  33.6652  33.6652  35.0918
    36.1461  39.0725  39.7904  39.7905  39.7905  40.1779  40.3934  40.3934
    40.5768  41.3231  41.3231  42.0333  44.3565  44.5753  46.3529  47.2224
    47.4549  47.4549  47.9412  48.1723  48.1723  50.6026  50.6026  50.9196
    51.2220  51.4112  51.8828  51.8828  52.5307  54.3155  54.5319  54.5319
    56.0991  57.0818  57.0818  59.2201  59.2800  59.2800  59.2968  59.4853
    60.0728  60.5050  61.3459  61.3459  61.9918  61.9918  62.1495  62.1965
    62.4173  64.9502  65.1268  65.8592  65.8592  65.9353  66.2408  66.2408
    66.9682  69.0762  69.1081  69.1081  69.2788  70.6807  70.7860  70.7860
    70.7957  71.7938  71.8259  71.8259  72.0581  74.0206  76.2112  76.2112
    76.6476  79.8629  79.8629  80.2380  80.3507  80.6220  81.3702  81.3702
    81.8004  82.6540  82.6540  85.2886  85.3424  85.3424  85.3928  86.7924
    87.3409  87.5851  87.5851  87.9041  88.2639  89.0422  89.0422  89.1842
    89.6219  89.7584  89.9339  90.2267  90.2267  90.7589  90.7589  90.9250
    91.6328  91.7881  91.9703  91.9703  92.1923  93.1484  93.8460  93.8460
    94.3855  95.2473  95.9613  95.9613  96.4771  96.9860  96.9860  97.0289
    97.6281  99.1774  99.3214  99.3214 101.7571 102.0305 102.1751 102.1751
   103.1162 103.1826 103.6932 103.6961 103.6961 103.7632 103.7632 104.0876
   104.2240 104.2240 104.7184 104.7487 105.1316 106.9811 107.2386 107.9275
   107.9275 109.0139 109.0713 109.0713 109.6169 109.6720 110.4947 110.9504
   110.9504 111.0560 111.8250 111.8250 112.2806 112.2806 112.3564 112.5228
   112.5831 112.7563 112.7563 113.0877 114.3156 115.3972 116.0342 116.1274
   116.1274 117.2122 117.2122 118.0308 118.6717 121.8951 121.8951 122.1821
   122.2769 122.3113 122.4087 122.4087 123.9270 124.0880 124.4434 124.8188
   124.8188 126.5060 126.5060 126.5322 126.5583 126.7491 126.7491 127.0926
   128.9149 128.9149 129.0631 130.6264 130.7059 131.3418 131.8735 131.8735
   132.2849 132.3484 132.3484 132.3828 132.3828 132.5113 132.5491 132.5694
   132.6804 132.7060 132.9304 132.9304 133.0292 133.2738 133.2738 133.5284
   134.7470 136.7078 137.2274 137.2274 138.3437 138.8385 138.8385 139.2542
   139.2548 139.2548 140.1045 140.5124 140.6449 140.6449 140.7279 142.2722
   142.6180 143.2261 143.9466 143.9466 145.5904 146.0925 146.4294 146.4294
   146.6790 146.7677 146.7677 147.5563 147.7354 149.0710 149.9376 150.0452
   150.0452 150.2180 150.3636 150.3636 150.6060 150.9101 151.0599 151.2680
   151.3951 151.3951 151.9444 152.4298 152.5085 152.5085 153.5179 153.7059
   153.8334 153.8334 154.3501 154.3501 155.0360 155.0562 155.0684 155.0684
   155.6498 156.0485 156.1230 157.6472 157.6472 158.7267 159.4356 159.4356
   159.8128 159.8386 159.8386 160.0915 160.1858 160.2674 160.6204 160.6204
   160.8706 161.9098 161.9098 161.9770 162.0285 163.6305 163.7793 163.7793
   163.9508 164.0473 164.0473 164.5152 164.6251 164.6251 165.3613 165.4043
   165.5609 166.4581 166.5024 166.6214 166.6214 167.7794 167.7794 168.2326
   169.0843 169.0875 169.1061 169.1061 169.1628 169.1628 169.2473 169.4911
   169.5337 169.5337 169.7197 169.8294 170.3308 170.7099 171.0061 171.7340
   171.7340 172.4790 172.4790 172.7488 173.3194 173.3196 173.3196 174.5935
   175.5585 175.9383 175.9981 175.9981 176.0277 177.6649 177.6945 177.6991
   177.6991 178.7157 178.7258 178.9823 178.9823 179.9688 179.9688 180.7365
   180.8981 181.1227 181.1227 181.1386 181.6425 181.6425 182.7537 183.1536
   183.1872 186.9845 186.9845 187.0170 187.1413 187.1759 187.2671 187.6122
   187.6122 188.3476 188.3476 188.3945 188.4278 188.6225 188.6294 188.6294
   189.3769 190.7734 190.7734 190.7781 191.2959 191.5306 191.5306 191.6559
   192.8380 193.1384 193.6425 194.0147 194.0147 194.5729 195.1645 195.7881
   195.7881 195.8629 195.9296 195.9296 196.0537 196.1841 196.4099 197.4907
   197.4907 197.6716 197.6716 197.7333 198.0527 198.4557 198.6909 198.9665
   198.9665 199.2341 200.0175 200.3078 200.3078 200.3616 200.4757 200.6100
   200.6100 200.6646 201.3882 201.6439 201.6439 201.8460 202.6635 202.8193
   202.9727 202.9727 204.9675 205.0149 205.0149 205.4419 206.1788 206.1788
   206.7603 207.9070 207.9070 208.1829 208.2286 209.7087 209.7087 210.0570
   210.1903 210.2065 210.2065 210.2341 210.9969 210.9969 211.3030 211.4614
   211.8198 211.8198 212.2428 212.4156 213.1927 213.1927 213.2512 213.3011
   214.4244 214.4244 214.4611 215.6478 215.7962 216.1418 216.1418 216.3964
   216.4244 216.6160 216.6391 216.6391 217.2453 217.8604 217.8619 217.8619
   218.6448 218.6448 218.8085 218.8177 219.1870 220.0651 220.0651 220.6547
   221.2200 221.3148 221.6165 221.6165 221.6267 224.1325 224.1325 224.6087
   225.0284 225.0284 225.4730 225.6257 225.8097 226.3166 226.3282 226.3282
   226.9296 226.9296 227.0722 227.1297 228.4781 229.4745 229.6092 229.6092
   229.8810 230.0425 230.0989 230.0989 230.5339 230.8369 230.8369 230.8733
   232.6511 232.7001 232.7001 232.7082 233.1345 233.1965 233.1965 233.2493
   233.2762 233.3811 233.3811 233.4429 234.2524 234.3328 234.5708 234.5708
   235.0726 235.3095 235.3095 235.3683 235.4802 235.4858 235.5254 235.5255
   235.5255 235.7170 235.8217 235.8217 236.1370 236.1370 236.3157 236.3237
   238.3293 238.5609 238.5609 238.5623 238.9424 239.1056 239.1654 239.1654
   240.1904 240.3022 240.3022 240.3158 240.6133 240.7278 240.7586 240.7586
   240.7858 240.7888 240.7888 240.8341 243.1848 244.3505 244.3505 244.5179
   245.4573 245.5994 245.7608 245.7842 245.7842 245.7983 245.7999 245.8146
   245.8146 246.6920 246.7510 246.7510 248.1422 249.3833 249.3833 249.4144
   249.4292 249.4395 249.4395 249.4474 249.8021 250.4939 250.4939 250.5334
   250.7795 250.7795 250.8094 250.8149 252.2897 252.3723 252.3723 252.4560
   252.5033 252.5049 252.5049 252.5874 252.7469 254.0223 254.1460 254.2340
   254.2340 254.2437 256.2250 257.1110 257.1110 257.2834 257.4078 257.4078
   257.5542 257.7821 257.9530 257.9577 258.0197 258.0197 258.1202 258.4287
   258.4287 258.5084 258.5084 258.5172 258.6870 258.7284 259.7366 260.0823
   260.0823 260.1001 260.1541 260.1541 260.1992 260.2241 261.3912 261.3912
   261.9848 261.9848 262.0478 262.0569 263.4967 263.4967 264.6784 265.7598
   266.5069 266.8746 266.8746 267.0885 267.0885 267.0913 267.1148 267.2221
   267.4405 267.4757 267.4757 267.4933 267.5171 267.5303 267.5316 267.5316
   269.0368 269.6532 270.6874 270.6874 270.7122 271.0954 271.0954 271.2912
   271.3067 271.3904 271.3904 271.4507 271.5418 271.5418 271.6244 271.6544
   275.6063 275.6063 275.7334 275.7589 275.9876 276.0441 276.0441 276.0488
   279.1079 279.2051 279.5273 280.5316 280.5316 280.9704 280.9704 281.0863
   281.3151 281.3778 281.3778 281.4034 281.8511 281.8511 281.8724 281.9245
   282.6989 282.8646 282.9647 282.9647 283.3156 284.8536 284.8873 284.9072
   284.9072 285.1415 285.1415 285.3629 286.0802 286.9984 287.2324 287.2324
   287.3477 287.6229 287.6229 287.8166 287.9239 287.9829 288.0126 288.0126
   288.5431 288.5431 288.5670 288.6412 288.7924 289.8663 291.1316 291.1316
   291.5767 291.9697 291.9697 292.9757 293.4374 293.5329 293.5329 293.5536
   294.3943 294.5085 294.6233 294.6233 294.9583 294.9583 295.2545 295.3082
   295.4643 295.4710 295.4710 295.4725 296.6360 297.2427 297.2427 297.6024
   297.6184 297.8117 297.9666 297.9666 299.3811 299.9095 299.9095 300.1166
   300.3859 300.3866 300.3866 300.4452 300.5323 300.7756 300.7940 300.7940
   300.8015 300.8879 300.9933 300.9933 301.2468 301.3322 301.3329 301.3329
   302.3862 302.6077 302.6078 302.6264 302.6288 302.6288 302.6357 302.6357
   303.5358 303.5418 303.5418 303.5565 304.7659 304.7666 304.8072 304.8072
   304.8133 304.8150 304.8150 304.8180 304.8936 304.8936 304.9066 304.9141
   306.3985 306.3985 306.4642 306.6723 308.3270 308.4029 308.4029 308.5220
   308.6287 309.0095 309.5323 309.5323 309.5364 309.7655 309.7655 309.8158
   309.9097 309.9097 309.9354 310.0449 310.0535 310.1091 310.1091 310.1453
   310.1635 310.1635 310.1649 310.1783 312.2685 312.2685 312.4483 313.5199
   314.0174 314.1058 314.1058 314.4667 315.5794 315.6011 315.8095 315.8095
   315.8275 316.1644 316.3825 316.3825 317.9638 318.6801 318.7786 318.7786
   318.7882 318.8015 319.3522 320.2774 320.2774 320.3205 320.4703 320.4703
   320.6529 320.6985 322.7929 322.7929 322.9102 322.9270 323.2352 323.2389
   323.2462 323.2462 323.4638 323.6124 323.6406 323.6406 323.6711 323.7365
   323.7661 323.7661 325.2900 325.2900 326.1486 326.3821 326.3867 326.3867
   326.3953 326.4548 326.4548 326.5029 326.6970 326.8568 326.8568 327.2431
   327.4619 328.0452 328.0452 328.0531 328.2198 328.4268 328.4268 328.5359
   329.8276 329.8679 329.8679 329.9589 330.3268 330.3648 330.3705 330.3705
   332.9675 332.9675 333.0042 333.3782 334.0485 334.4359 334.4359 335.0681
   335.3625 335.8044 335.8609 335.8609 335.9187 336.0053 336.0445 336.0445
   336.5311 336.5482 336.5482 336.5639 337.6807 337.6807 338.0442 338.0665
   338.1366 338.1735 338.1735 338.1998 339.4135 339.4135 339.6014 339.6301
   339.7428 339.8130 339.8130 339.8330 340.4588 340.6314 340.6314 340.9098
   340.9735 341.0092 341.0092 341.0857 341.8188 341.8188 341.8195 341.8274
   342.3254 343.1797 343.1950 343.6421 343.6421 343.7119 343.7119 343.7294
   344.5208 344.5208 344.5286 344.6086 345.2163 345.2216 345.2216 345.2293
   345.2383 345.2473 345.2473 345.3236 345.4437 345.6827 345.6949 345.6949
   345.7443 345.7443 345.7631 345.7880 347.4268 347.4910 347.4910 347.4989
   347.6273 347.6373 347.6452 347.6452 350.9017 351.2330 351.2330 351.2659
   351.4635 352.3932 352.6171 352.6171 352.7098 352.8222 352.8222 352.8327
   353.1921 353.5710 353.7158 353.7158 354.4980 354.4980 354.7244 355.3387
   355.4202 355.4202 355.5438 355.5726 356.0139 356.2209 356.3111 356.3877
   356.3877 356.5749 356.5841 356.5841 358.1321 358.1591 358.1591 358.2123
   360.7808 360.7958 360.8035 360.8035 361.6197 361.6456 361.6456 361.6599
   361.6967 361.7182 361.7182 361.7292 362.8193 362.8193 363.5659 363.9912
   364.4006 364.4013 364.4013 364.4250 364.4715 364.6286 364.6321 364.6321
   365.0121 365.0121 365.0249 365.0593 365.8241 365.9723 365.9768 365.9768
   366.0394 366.0394 366.0964 366.1073 366.2237 366.3728 366.3728 366.4007
   366.4041 366.5648 366.6280 366.6280 366.8251 366.9321 366.9393 366.9393
   367.2325 367.2389 367.2593 367.2593 368.8959 368.9132 368.9132 368.9299
   373.2585 373.4951 373.4951 373.5913 373.6105 373.6105 373.6221 373.6243
   374.3536 374.3790 374.3950 374.3950 374.4044 374.4345 374.4345 374.4443
   376.3764 376.6506 376.9962 376.9962 377.4837 377.7244 377.7244 377.7873
   378.6921 378.6921 378.7125 378.7182 379.3194 379.6423 379.6423 379.6982
   380.8176 380.8176 380.8692 380.9371 380.9541 380.9808 380.9808 380.9808
   381.6154 382.0879 382.0879 382.1016 382.7622 382.7622 382.8653 382.8685
   382.8922 382.8922 382.9200 382.9348 383.1790 383.3519 383.4055 383.4418
   383.4418 383.7486 383.7486 383.7864 386.3287 386.3293 386.3302 386.4486
   386.4486 386.4746 386.4938 386.5988 386.5988 386.6662 386.6692 386.6692

     the Fermi energy is     3.0667 ev
     (compare with:     0.4981 eV, computed in scf)

     Writing all to output data dir out/mp-611517.save/
 
     init_run     :      0.02s CPU      0.06s WALL (       1 calls)
     electrons    :   1202.37s CPU   1276.65s WALL (       1 calls)

     Called by init_run:
     wfcinit      :      0.00s CPU      0.00s WALL (       1 calls)
     potinit      :      0.01s CPU      0.01s WALL (       1 calls)
     hinit0       :      0.00s CPU      0.03s WALL (       1 calls)

     Called by electrons:
     c_bands      :   1202.36s CPU   1276.60s WALL (       1 calls)
     v_of_rho     :      0.00s CPU      0.00s WALL (       1 calls)

     Called by c_bands:
     init_us_2    :      0.00s CPU      0.00s WALL (      15 calls)
     init_us_2:cp :      0.00s CPU      0.00s WALL (      15 calls)
     cegterg      :   1096.34s CPU   1162.39s WALL (      15 calls)

     Called by *egterg:
     cdiaghg      :   1016.11s CPU   1079.70s WALL (     178 calls)
     h_psi        :     22.45s CPU     23.30s WALL (     193 calls)
     g_psi        :      0.16s CPU      0.16s WALL (     163 calls)

     Called by h_psi:
     h_psi:calbec :      0.30s CPU      0.31s WALL (     193 calls)
     vloc_psi     :     21.60s CPU     22.42s WALL (     193 calls)
     add_vuspsi   :      0.24s CPU      0.24s WALL (     193 calls)

     General routines
     calbec       :      0.30s CPU      0.31s WALL (     193 calls)
     fft          :      0.00s CPU      0.03s WALL (      10 calls)
     fftw         :     19.66s CPU     20.41s WALL (  218280 calls)
 
     Parallel routines
 
     PWSCF        :  20m 3.71s CPU  21m18.75s WALL

 
   This run was terminated on:  22:46:57  20Nov2023            

=------------------------------------------------------------------------------=
   JOB DONE.
=------------------------------------------------------------------------------=
