
     Program PWSCF v.7.1 starts on 17Nov2023 at 16:27:23 

     This program is part of the open-source Quantum ESPRESSO suite
     for quantum simulation of materials; please cite
         "P. Giannozzi et al., J. Phys.:Condens. Matter 21 395502 (2009);
         "P. Giannozzi et al., J. Phys.:Condens. Matter 29 465901 (2017);
         "P. Giannozzi et al., J. Chem. Phys. 152 154105 (2020);
          URL http://www.quantum-espresso.org", 
     in publications or presentations arising from this work. More details at
     http://www.quantum-espresso.org/quote

     Parallel version (MPI), running on     8 processors

     MPI processes distributed on     1 nodes
     123347 MiB available memory on the printing compute node when the environment starts
 
     Reading input from pw_mp-1672_nscf_k60_E89.in
Warning: card &IONS ignored
Warning: card / ignored
Warning: card &CELL ignored
Warning: card / ignored

     Current dimensions of program PWSCF are:
     Max number of different atomic species (ntypx) = 10
     Max number of k-points (npk) =  40000
     Max angular momentum in pseudopotentials (lmaxx) =  4

     Atomic positions and unit cell read from directory:
     out/mp-1672.save/
     Atomic positions from file used, from input discarded
 
 
     R & G space division:  proc/nbgrp/npool/nimage =       8
     Subspace diagonalization in iterative solution of the eigenvalue problem:
     one sub-group per band group will be used
     scalapack distributed-memory algorithm (size of sub-group:  2*  2 procs)

 
     Parallelization info
     --------------------
     sticks:   dense  smooth     PW     G-vecs:    dense   smooth      PW
     Min         177     177     52                 4444     4444     690
     Max         178     178     53                 4448     4448     691
     Sum        1417    1417    421                35557    35557    5521
 
     Using Slab Decomposition
 


     bravais-lattice index     =            2
     lattice parameter (alat)  =      10.7804  a.u.
     unit-cell volume          =     313.2175 (a.u.)^3
     number of atoms/cell      =            2
     number of atomic types    =            2
     number of electrons       =        16.00
     number of Kohn-Sham states=         2200
     kinetic-energy cutoff     =      89.0000  Ry
     charge density cutoff     =     356.0000  Ry
     Exchange-correlation= PBE
                           (   1   4   3   4   0   0   0)

     celldm(1)=  10.780412  celldm(2)=   0.000000  celldm(3)=   0.000000
     celldm(4)=   0.000000  celldm(5)=   0.000000  celldm(6)=   0.000000

     crystal axes: (cart. coord. in units of alat)
               a(1) = (  -0.500000   0.000000   0.500000 )  
               a(2) = (   0.000000   0.500000   0.500000 )  
               a(3) = (  -0.500000   0.500000   0.000000 )  

     reciprocal axes: (cart. coord. in units 2 pi/alat)
               b(1) = ( -1.000000 -1.000000  1.000000 )  
               b(2) = (  1.000000  1.000000  1.000000 )  
               b(3) = ( -1.000000  1.000000 -1.000000 )  


     PseudoPot. # 1 for Ca read from file:
     /usr/scratch4/magr4985/MG/HTDF/pseudo/SG15/Ca.upf
     MD5 check sum: b43c970dc090f2312d256360aabdb6f1
     Pseudo is Norm-conserving, Zval = 10.0
     Generated using ONCVPSP code by D. R. Hamann
     Using radial grid of  602 points,  6 beta functions with: 
                l(1) =   0
                l(2) =   0
                l(3) =   1
                l(4) =   1
                l(5) =   2
                l(6) =   2

     PseudoPot. # 2 for S  read from file:
     /usr/scratch4/magr4985/MG/HTDF/pseudo/SG15/S.upf
     MD5 check sum: f9d020296ee6110346977bfd66d424f6
     Pseudo is Norm-conserving, Zval =  6.0
     Generated using ONCVPSP code by D. R. Hamann
     Using radial grid of  602 points,  4 beta functions with: 
                l(1) =   0
                l(2) =   0
                l(3) =   1
                l(4) =   1

     atomic species   valence    mass     pseudopotential
        Ca            10.00    40.07800     Ca( 1.00)
        S              6.00    32.06500     S ( 1.00)

     48 Sym. Ops., with inversion, found



   Cartesian axes

     site n.     atom                  positions (alat units)
         1           Ca  tau(   1) = (   0.0000000   0.0000000   0.0000000  )
         2           S   tau(   2) = (  -0.5000000   0.5000000   0.5000000  )

     number of k points=     8  Gaussian smearing, width (Ry)=  0.0005
                       cart. coord. in units 2pi/alat
        k(    1) = (   0.0000000   0.0000000   0.0000000), wk =   0.0312500
        k(    2) = (  -0.2500000   0.2500000  -0.2500000), wk =   0.2500000
        k(    3) = (   0.5000000  -0.5000000   0.5000000), wk =   0.1250000
        k(    4) = (   0.0000000   0.5000000   0.0000000), wk =   0.1875000
        k(    5) = (   0.7500000  -0.2500000   0.7500000), wk =   0.7500000
        k(    6) = (   0.5000000   0.0000000   0.5000000), wk =   0.3750000
        k(    7) = (   0.0000000  -1.0000000   0.0000000), wk =   0.0937500
        k(    8) = (  -0.5000000  -1.0000000   0.0000000), wk =   0.1875000

     Dense  grid:    35557 G-vectors     FFT dimensions: (  45,  45,  45)

     Estimated max dynamical RAM per process >     320.56 MB

     Estimated total dynamical RAM >       2.50 GB

     The potential is recalculated from file :
     out/mp-1672.save/charge-density

     Starting wfcs are random

     Band Structure Calculation
     ParO style diagonalization

     ethr =  5.00E-06,  avg # of iterations =  5.7

     total cpu time spent up to now is     4539.6 secs

     End of band structure calculation

          k = 0.0000 0.0000 0.0000 (  4477 PWs)   bands (ev):

   -33.2894 -14.2635 -14.2635 -14.2635  -5.3278   5.9790   5.9790   5.9790
    10.0928  10.1429  10.1429  10.1429  10.7306  10.7306  16.8425  19.0112
    19.0112  19.0112  21.9489  21.9489  22.5871  22.5871  22.5871  29.8697
    31.4565  31.4565  31.4565  32.6233  32.6233  32.6233  33.1948  33.1948
    34.9099  34.9099  34.9099  43.4203  46.3495  46.3495  46.3495  46.8404
    46.8404  47.0142  47.0142  47.0142  47.7106  47.7106  47.7106  49.6563
    49.6563  49.6563  49.7255  50.3846  50.6569  50.6569  50.6569  52.5951
    52.5951  52.5951  53.2353  53.2353  55.4065  60.3288  60.3288  60.3288
    60.6570  60.6570  60.6570  69.5659  69.5659  70.8371  70.9251  70.9251
    70.9251  72.6316  72.6316  72.6316  79.2198  79.2198  79.2198  80.0822
    80.0822  81.7844  82.6821  82.6821  82.6821  83.0008  83.1346  83.1346
    83.1346  85.7611  85.7611  85.7611  86.9335  86.9335  86.9335  87.3904
    87.3904  87.3904  88.1323  88.1323  88.1323  88.5263  88.5263  88.5730
    88.5730  88.5730  88.9146  88.9146  90.2876  90.2876  91.3457  91.3457
    91.3457  92.2378  94.0946  96.1888  96.1888  96.1888  99.7872  99.8130
   101.0211 101.0211 101.0211 104.5576 104.5576 104.5576 105.8458 105.8458
   106.8472 106.8472 106.8472 108.0748 108.0748 108.0748 108.2702 108.2702
   108.2750 108.2750 108.2750 108.4518 108.4518 108.4518 108.8344 108.8344
   108.8344 110.2980 117.2716 117.2716 117.2716 117.8315 118.0497 119.5125
   119.5125 119.5125 120.0259 120.0259 120.0259 121.4395 121.4395 121.4395
   121.8465 121.8465 121.8465 122.4917 122.4917 125.3489 125.3489 125.3489
   126.2438 126.2438 126.3457 126.3457 126.3457 126.5174 128.7779 135.9851
   135.9851 135.9851 138.0113 138.0113 138.0113 138.7075 138.7075 139.0504
   139.0504 139.0504 144.2669 144.2669 146.2588 146.5807 146.5807 146.5807
   146.5935 146.5935 146.5935 150.4397 150.4397 150.4397 152.2230 152.2230
   152.2230 153.2478 153.8077 153.8077 153.8077 154.0358 154.0358 154.4404
   154.4404 154.4404 156.0654 156.0654 156.0654 156.3657 157.1717 157.1717
   157.1717 157.2160 157.2954 157.6117 157.6117 157.6117 159.0414 159.0414
   160.1608 160.1608 160.1608 160.8518 160.8518 160.8518 161.6440 161.6440
   161.6440 162.3078 162.3078 162.3078 162.4385 162.4385 162.5575 162.7959
   162.7959 162.7959 162.9962 162.9962 162.9962 163.2189 163.2189 163.2189
   163.2704 163.2704 163.3216 163.3732 163.3732 163.3732 163.4527 163.4527
   163.6283 163.6283 163.6283 171.2340 171.2340 172.4966 172.4966 172.4966
   173.7145 175.3867 175.3867 175.3867 176.5538 176.5538 176.5538 176.6545
   176.6545 176.6545 177.0582 177.0582 177.0582 178.9447 178.9447 178.9447
   182.6075 182.6075 182.8214 182.8214 182.8214 182.9113 183.5945 183.5945
   186.6639 187.4630 187.4630 187.4630 187.9016 192.4173 192.4173 192.4173
   195.0681 195.0681 195.0681 195.1485 195.1485 195.1485 195.1619 195.1619
   195.1619 195.4555 195.4555 195.4679 195.4679 195.4679 196.3535 196.3535
   197.4995 197.6965 197.8557 197.8557 197.8557 198.2879 198.2879 198.2879
   198.3346 198.3346 198.6065 198.6065 198.6065 198.8300 198.8300 198.8300
   198.8345 198.8345 198.8345 199.7106 199.7106 207.8357 207.8357 207.8357
   207.8983 208.8223 208.8223 208.8223 212.8183 212.8183 212.8183 213.6046
   213.6046 213.6046 214.7630 217.7590 220.0712 220.0712 220.5549 220.5549
   220.5549 221.3791 221.3791 221.3791 222.0082 222.0082 222.0082 222.3650
   222.4631 222.4631 225.6274 225.6274 225.6274 227.5146 227.5146 227.5146
   230.3379 230.3379 230.3379 230.5777 230.5777 230.5777 230.6138 230.6138
   230.6138 230.8778 230.8778 230.8778 233.3208 233.4948 233.6405 233.6405
   233.6405 234.0217 234.0217 234.2384 234.2384 234.2384 234.4728 234.4728
   234.5104 234.5104 234.5104 235.2330 235.2330 235.2330 235.6782 235.6782
   235.6782 235.8497 235.8497 235.8497 236.0112 237.1391 237.1391 237.1391
   237.1395 237.1395 237.1508 243.9477 243.9477 243.9477 245.9332 246.2326
   246.2326 246.2326 247.0050 247.8811 247.8811 248.2327 248.2327 248.2327
   250.6485 250.6485 250.6485 250.8083 250.8083 251.1607 251.1607 251.2173
   251.2173 251.2173 251.4245 251.4245 251.4245 251.6956 251.6956 251.6956
   253.6070 253.6070 253.6070 256.0716 256.0716 256.0716 256.0759 256.0759
   256.0921 256.0921 256.0921 256.1812 256.1812 256.2116 256.2116 256.2116
   256.2271 256.2271 256.2271 257.8301 257.8301 257.8301 257.8386 257.8386
   257.8386 257.8487 257.8742 258.4428 258.4428 258.4428 258.9573 259.1921
   259.7916 259.7916 259.7916 260.4817 260.4817 260.4817 262.6428 262.6428
   262.6428 263.5964 263.7380 263.7380 263.7380 264.0020 264.0020 264.4409
   264.4409 264.4409 264.7042 267.3932 267.3932 267.9470 267.9470 268.7073
   268.7073 268.7073 269.0035 269.0035 269.0035 269.1163 269.1163 269.1163
   269.9078 269.9078 269.9273 269.9273 269.9273 270.1847 270.5228 270.5228
   270.5228 270.5332 270.5332 272.1140 272.1140 272.1140 272.2637 272.2637
   272.2637 272.4502 272.4502 272.4502 272.5801 272.5801 272.5801 273.5012
   273.5539 273.5539 273.5539 273.5761 273.5761 275.6809 275.6809 275.6809
   279.9979 289.4832 289.4832 289.4832 293.8264 293.8264 293.8264 295.8150
   298.3170 298.3170 298.3170 299.0606 299.5797 299.5797 300.2466 300.2466
   301.9829 301.9829 301.9829 302.0970 302.0970 302.0970 303.3513 303.3513
   303.3513 303.5008 303.5008 303.5008 303.7437 303.7437 303.7437 304.1124
   304.1124 304.4004 304.5065 304.7514 304.7514 304.7514 305.4605 305.4605
   305.4605 305.4656 305.4656 305.4656 305.6378 305.6378 305.6378 305.9735
   305.9735 305.9735 306.0976 310.3361 310.3361 310.5655 310.5655 310.5655
   310.5848 310.5848 310.5848 310.6816 310.6816 310.7575 310.7575 310.7575
   310.9048 310.9048 310.9048 311.9885 311.9885 312.0552 312.0552 312.0552
   312.2246 319.3540 319.3540 319.3540 319.4857 319.4857 319.4857 320.1181
   320.5928 320.5928 320.7229 320.7229 320.7229 320.9128 320.9128 320.9128
   323.0344 323.0344 326.4453 326.4453 326.4453 327.2628 327.4837 327.4837
   327.4984 327.4984 327.4984 327.6051 327.6051 327.6662 327.6662 327.6662
   327.8004 327.8004 327.8004 327.8018 327.9739 327.9739 327.9739 328.1431
   328.1431 328.1431 328.8379 328.8379 328.8379 329.3991 329.3991 329.3991
   330.5946 336.8628 336.9577 336.9577 337.8033 337.8033 337.8033 338.3667
   338.3667 338.3667 338.9820 338.9820 338.9820 339.0726 339.0726 339.0726
   339.1523 339.1523 339.1523 339.3098 339.8929 342.6695 342.6695 342.6695
   343.9168 343.9168 343.9168 343.9464 343.9464 344.0782 344.0782 344.0782
   344.2343 344.2343 344.2343 344.3200 344.7910 344.7910 344.7910 345.0111
   345.0111 345.0707 345.4190 345.6424 345.6424 345.6438 345.6438 345.6438
   345.6586 345.6586 345.6586 345.6670 345.6670 345.6670 345.7738 345.7738
   345.7738 346.6326 346.6326 346.6326 346.6613 346.6613 346.6964 346.6964
   346.6964 346.7318 346.7318 346.7318 346.7951 349.7714 349.7714 353.1272
   353.1272 353.1272 354.7897 357.0214 357.0214 359.4492 359.4492 359.4492
   360.6630 360.6630 360.6630 360.8347 360.8347 360.8347 360.9894 360.9894
   360.9894 361.9664 361.9664 361.9664 362.0530 362.0530 362.0530 362.0616
   362.1058 362.1058 362.8202 366.5616 366.5616 366.5616 369.3558 369.7427
   369.7427 369.7427 370.8840 374.2599 374.2599 374.2599 374.5148 374.5148
   374.5973 374.5973 374.5973 374.9997 374.9997 374.9997 375.2276 375.2276
   375.2276 375.4997 375.4997 376.6277 376.6277 376.6277 378.0750 378.0750
   378.0750 378.1784 378.1784 378.1784 378.3323 378.3323 378.3323 378.3339
   378.3339 378.3339 379.1677 379.3855 379.3855 379.7089 379.7089 379.7089
   380.0737 380.0737 380.1090 380.1090 380.1090 380.4166 380.4166 380.4166
   380.5114 380.5204 380.5204 380.5554 380.5554 380.5880 380.5880 380.5880
   380.5919 380.5919 380.5919 380.6415 380.6415 380.6415 380.7131 380.7131
   380.7131 380.8523 380.8523 380.8523 380.8599 380.8599 380.8599 382.3241
   382.3673 382.3673 382.3673 382.3933 382.3933 382.3933 382.4140 384.9724
   384.9942 384.9942 384.9942 385.0054 385.0054 385.3480 385.3480 385.3480
   385.4251 385.4251 385.4466 385.4466 385.4466 385.4668 385.4668 385.4668
   385.4870 385.5022 385.5022 385.5022 385.5277 385.5277 385.6188 385.6188
   385.6188 385.7359 385.7359 385.7359 385.8392 392.9101 392.9101 392.9101
   394.0144 394.1407 394.1407 394.1407 394.1902 400.9872 400.9872 402.9181
   402.9181 402.9181 403.0286 403.0286 403.0286 403.0463 403.0463 403.0643
   403.0643 403.0643 403.3302 403.3302 403.3302 403.3368 403.3368 404.0059
   404.1806 404.1806 404.1806 405.6003 405.6003 405.6003 407.4862 407.4862
   407.4862 407.6468 407.6468 407.6468 407.9978 407.9978 407.9978 412.1098
   412.1098 412.2449 412.2449 412.2449 412.3960 416.9598 417.0416 417.0416
   417.0416 417.1365 417.1365 419.9181 419.9181 419.9181 419.9393 419.9393
   419.9393 419.9725 419.9725 419.9725 419.9740 419.9740 419.9740 421.3064
   421.3064 421.3317 421.3317 421.3317 421.3743 429.6631 430.2715 430.2715
   430.7665 430.7665 430.7665 433.3668 433.3668 433.3668 434.7582 435.3104
   435.3104 435.3104 436.4008 436.4008 436.4008 436.8451 436.8451 436.8451
   437.2782 437.2782 437.2782 437.3123 437.3123 437.3123 437.6578 437.6578
   440.1847 440.1847 440.5211 440.7608 440.7608 440.7608 440.9921 440.9921
   441.0153 441.0153 441.0153 442.7528 442.7528 442.7528 442.8778 443.9816
   444.1572 444.1572 444.1572 446.1994 446.1994 446.1994 446.5999 446.5999
   446.5999 446.8688 447.9931 447.9931 448.4717 448.4717 448.4717 449.0216
   449.0216 449.0216 449.5238 450.0758 450.0758 450.1840 450.1840 450.1840
   450.6633 450.6633 450.6633 450.7720 450.7720 450.9701 450.9701 450.9701
   451.0972 451.0972 451.0972 452.1922 452.1922 452.1922 452.2530 452.4451
   452.4451 452.4451 452.6432 454.6410 454.6410 454.6410 454.6530 454.6530
   454.7181 454.7181 454.7181 454.7642 454.7642 454.7642 454.8131 454.8131
   454.8131 454.8175 454.8175 456.2592 456.2592 456.2592 456.2713 456.2831
   456.2831 456.2831 456.3109 456.3109 456.3169 456.3169 456.3169 457.1115
   457.1115 457.1115 457.1527 457.1527 457.1922 457.1922 457.1922 457.2030
   457.2030 457.2030 457.2892 468.5133 468.5133 469.1442 469.3639 469.3639
   469.3639 469.6711 469.6711 469.6711 470.8807 470.8807 470.8807 470.9838
   471.0159 471.0159 471.0159 471.1684 471.1684 471.1684 471.9666 471.9666
   471.9666 472.5366 472.5366 472.5366 472.5514 472.5514 472.7102 472.7102
   472.7102 472.9360 473.5455 473.5455 473.7656 473.7656 473.7656 473.7766
   473.7766 473.7766 473.8537 473.8537 473.8537 477.5046 477.5046 477.5326
   477.5326 477.5326 477.5921 477.5921 477.5921 477.6061 477.6061 477.6061
   477.6336 477.6588 477.6588 477.7561 477.7561 477.7561 477.7740 477.8198
   477.8198 477.8198 477.8669 477.8669 477.8669 478.5868 478.5868 478.6582
   478.6582 478.6582 478.7699 479.4124 479.4124 479.4124 479.5129 479.5129
   480.9150 481.3057 481.3057 481.3057 481.9352 481.9352 481.9352 482.2302
   482.2302 482.2302 482.3254 482.3254 482.4266 482.4266 482.4266 482.7644
   482.7644 482.7644 482.9138 485.7211 486.5524 486.5524 486.5524 487.4311
   487.4311 487.4311 488.0089 488.0089 488.0159 488.0159 488.0159 488.9493
   489.3780 489.3780 489.3780 489.4659 489.4659 489.4659 489.6014 489.6014
   489.6206 489.6206 489.6206 491.3020 491.3020 491.3020 491.8943 492.0114
   492.0794 492.0794 492.0794 493.1175 493.1175 493.1175 493.1211 493.1211
   493.2105 493.2105 493.2105 493.3215 493.3215 493.3215 493.4532 493.7641
   493.7641 493.7990 493.8244 493.8244 493.8244 493.8520 493.8520 493.8520
   493.8854 493.8854 493.8976 493.8976 493.8976 493.9205 493.9258 493.9258
   493.9258 493.9596 493.9596 494.2347 494.2347 494.2347 494.3136 494.3136
   494.3136 494.3214 494.3412 494.3412 494.3412 494.3577 494.3577 494.3577
   494.6206 494.6206 494.6206 516.1850 517.2286 517.2286 517.2286 518.4384
   518.4384 518.5032 519.9172 519.9172 519.9172 520.9063 520.9063 520.9063
   521.8072 521.8072 521.8072 522.1976 522.1976 522.1976 522.4465 522.4465
   522.4465 522.7916 522.7916 523.4588 523.4588 523.4588 524.5669 524.5669
   525.0046 525.0094 525.0281 525.0281 525.0281 525.9836 525.9836 525.9836
   526.2716 526.2716 526.2716 526.3260 526.3260 526.3260 526.5409 526.7480
   526.7480 526.7480 527.0477 527.0477 527.5642 527.5642 527.6321 527.6321
   527.6321 527.7339 527.7339 527.7339 528.0183 528.1363 528.1363 528.1363
   528.1692 528.1692 528.1692 528.3602 528.3602 528.3602 528.3957 528.3957
   528.4346 528.4346 528.4346 528.4407 528.4407 528.4407 528.4578 528.5205
   528.5205 528.5205 528.5650 528.5650 528.6003 528.6003 528.6003 528.6195
   528.6195 528.6195 528.6332 528.6398 528.6398 528.6398 528.7255 528.7255
   528.8595 528.8595 528.8595 532.8760 532.8760 532.8760 532.9062 532.9062
   532.9062 532.9101 532.9101 532.9883 532.9883 532.9916 532.9916 532.9916
   533.0150 533.0150 533.0150 534.8044 534.8153 534.8153 534.8153 534.8325
   534.8325 534.8325 534.8561 539.2736 539.2736 540.6719 542.1321 542.1321
   542.1321 546.2183 546.3197 546.3197 546.3197 546.5673 546.5673 546.6062
   546.6062 546.6062 546.7511 546.7511 546.7511 546.8351 546.8351 546.8351
   547.0645 547.0645 547.0645 547.6675 547.6675 548.0360 548.4553 548.4553
   548.4553 551.8046 551.8046 551.8046 551.8309 551.8309 551.8309 551.8336
   551.8336 551.8379 551.8379 551.8379 551.8730 551.9238 551.9238 551.9238
   551.9284 551.9284 551.9617 551.9617 551.9617 552.0607 552.0607 552.0607
   552.1402 554.1135 554.1135 554.1135 554.6270 554.6455 556.0730 556.0730
   556.0730 562.6703 562.6703 562.6703 562.7022 562.7022 562.7022 562.8146
   562.8146 562.8146 562.9026 562.9026 562.9026 564.5076 564.5076 564.5793
   564.5793 564.5793 564.6898 564.6898 564.6898 564.8378 564.8378 564.8378
   564.8522 564.8522 564.8522 564.8638 564.8638 569.8208 569.8267 569.8267
   569.8267 569.8282 569.8282 575.9108 576.3343 576.3343 576.3343 576.8677
   576.8677 576.8677 576.9304 576.9304 581.6137 581.6137 581.6137 585.2239
   585.2239 585.4647 585.5151 585.5151 585.5151 586.4211 586.4211 586.4211
   588.0057 588.0057 588.0057 588.4236 588.4236 589.6955 589.6955 589.6955
   590.5127 591.0179 591.0179 591.0179 592.2773 592.2773 592.2773 592.8733
   592.8733 592.8733 593.1469 593.1469 593.1469 594.2520 595.8526 595.8526
   595.8526 596.1995 596.7123 596.7123 596.7123 596.8278 596.8278 597.5159
   597.5159 597.5159 597.7951 597.7951 597.7951 597.9042 597.9042 598.0838
   598.2762 598.2762 598.2955 598.2955 598.2955 598.6001 598.6777 598.6777
   598.6777 598.8537 598.8537 598.8537 599.1597 599.1597 599.1597 599.2783
   599.2783 599.2783 599.6292 599.6292 599.8022 599.8022 599.8022 601.7385
   601.7385 601.7385 602.0297 602.0741 602.0741 602.0950 602.0950 602.0950
   602.1798 602.3695 602.5187 602.5187 602.5187 602.5400 602.5400 602.5400
   602.5544 602.5544 602.6099 602.6099 602.8170 602.8170 602.8170 602.9751
   602.9751 602.9751 602.9758 603.0075 603.0075 603.0075 603.1595 603.1595
   603.1595 603.2242 603.2242 603.2242 603.3508 603.3508 604.0186 604.0186
   604.0186 604.5451 604.5451 604.5451 604.5866 604.5866 604.5866 604.6062
   604.6062 604.6987 604.6987 604.6987 604.7599 604.7599 604.7599 604.8075
   604.8075 604.8333 604.8333 604.8333 604.8870 604.8870 604.8870 604.8897
   604.8897 604.8897 604.9361 604.9361 604.9361 605.1542 605.3277 605.3277
   605.3277 605.4373 605.4373 605.4373 605.4477 605.4559 605.5047 605.5047
   605.5101 605.5101 605.5101 605.5327 605.5327 605.5327 605.5489 605.5489
   605.5489 606.2174 606.2174 606.2349 606.2349 606.2349 606.2674 615.0526
   615.0657 615.0657 615.0657 615.2981 616.1685 616.1685 616.1685 618.9908
   618.9908 619.4533 619.4533 619.4533 619.4820 619.4820 619.4820 619.5029
   619.5029 619.5029 619.6639 619.6639 619.6639 619.7026 619.8180 619.8180
   619.8180 619.8213 619.8213 619.8377 621.4033 621.4033 621.4033 624.8758
   624.8758 624.9097 624.9097 624.9097 624.9106 624.9106 624.9106 624.9466
   624.9466 624.9466 624.9619 624.9619 624.9619 624.9763 624.9763 631.9168
   632.1484 632.1484 632.1484 632.4747 632.7630 632.7630 633.1701 633.1701
   633.1701 633.2702 633.2702 633.2702 633.4968 633.4968 633.4968 633.7719
   633.7719 633.7719 633.8738 633.8738 634.5977 634.5977 634.5977 634.9077
   634.9077 635.9605 635.9849 635.9849 635.9849 636.1812 636.1812 636.1812
   636.1828 636.1828 636.1828 636.4205 636.4205 636.4205 636.4679 636.4679
   636.8837 636.8837 636.8837 636.9621 637.1022 637.1022 637.1022 639.1501
   639.1766 639.1766 639.1766 639.2154 639.2154 639.2154 639.2607 639.3083
   639.3083 639.3083 639.3173 639.3173 639.3173 639.3379 639.3379 639.3648
   639.3648 639.3682 639.3682 639.3682 639.3795 639.3795 639.3795 641.0940
   641.1671 641.1671 641.1671 641.3576 641.3576 641.3576 641.3792 641.3792
   641.4129 641.4129 641.4129 641.5647 641.5647 641.5647 641.5899 641.6142
   641.6142 641.6278 641.6278 641.6278 641.6774 641.6774 641.7492 641.7492
   641.7492 641.8016 641.8793 641.8793 641.8793 641.9530 641.9530 641.9530
   642.1619 642.1619 642.1619 642.1842 642.1842 642.3241 642.3241 642.3241
   642.4440 642.4440 642.4440 642.5347 642.9571 642.9571 642.9571 646.5381
   646.5381 646.6279 648.6747 648.6747 648.6747 658.2984 658.3429 658.3429
   658.3429 658.4376 659.3233 659.3233 659.3233 659.3768 659.3768 659.4498
   659.4498 659.4498 659.4864 659.4864 659.4864 659.6441 659.6441 659.6560
   659.6560 659.6560 660.0161 660.0161 660.0161 665.8706 665.8706 665.9468
   666.1048 666.1048 666.1048 666.1859 666.1859 666.1859 666.2427 666.2427
   666.2427 666.3745 666.3745 666.3745 667.2459 667.2459 667.4154 667.4154
   667.4154 667.6038 668.7402 668.7402 668.7402 671.0797 671.2069 671.2069
   671.2069 671.3744 672.1676 672.1676 672.1676 673.4596 673.4596 673.5176
   674.3154 674.3154 674.3154 675.0483 675.0483 675.0483 675.0701 675.0701
   675.0701 675.1047 675.1047 675.1047 675.3325 675.3325 675.3325 677.8047
   677.8337 677.8337 677.8337 677.8609 677.8609 678.0794 678.0794 678.0794
   678.0892 678.0892 678.0892 678.0907 678.0907 678.0907 678.1092 678.1092
   678.1092 678.2569 678.2569 678.2629 678.2646 678.2646 678.2646 681.8510
   681.8510 681.8558 681.8558 681.8558 681.8570 690.6972 690.9384 690.9384
   690.9384 691.1265 692.4281 692.4281 692.4489 692.4489 692.4489 692.6252
   692.6252 692.6252 692.8060 692.8060 692.8060 692.8998 692.8998 692.8998
   693.1089 693.1089 695.2199 695.2199 695.2199 697.3370 697.3370 697.3374
   697.3387 697.3387 697.3387 697.6619 697.6737 697.6737 697.7410 697.7410
   697.7410 697.7461 697.7461 697.7461 697.7571 697.7571 697.7571 697.7637
   697.7637 697.7637 698.1963 698.1963 698.1963 698.8976 698.8976 698.9380
   698.9380 698.9380 699.0586 699.0586 699.0586 699.1877 699.1877 699.1877
   699.2177 699.2177 699.2177 699.2340 699.2340 699.2483 699.2810 699.2810
   699.2810 699.3165 699.3165 699.3165 699.3437 701.6773 701.7257 701.7257
   701.7257 701.7983 704.0347 704.0347 704.0347 704.7487 704.7487 704.8434
   704.8434 704.8434 705.1106 705.1106 705.1106 705.1754 705.1754 705.1754
   705.4360 705.4360 706.7071 706.7071 706.7071 708.8003 709.1153 709.1153
   709.1153 709.2445 709.4058 709.4058 709.4058 709.4126 709.4126 709.5999
   709.5999 709.5999 709.6389 709.6389 709.6389 709.6466 709.6466 709.6466
   709.6904 709.6904 709.6904 709.7379 709.7379 712.3516 712.3516 712.3629
   712.3629 712.3629 712.4563 712.4563 712.4563 712.6223 712.6223 712.6246
   712.6246 712.6246 712.6292 712.6292 712.6292 712.8861 712.8919 712.8919
   712.8919 712.9072 712.9072 712.9072 712.9309 714.0585 714.0585 714.0633
   714.0633 714.0633 714.0721 714.0721 714.0721 714.0815 714.0815 714.0815
   714.0952 714.0952 714.0992 714.0992 714.0992 715.3816 715.3818 715.3818
   715.3818 715.3850 715.3850 715.3850 715.3913 727.3458 727.7921 727.7921
   728.9985 728.9985 728.9985 729.2712 729.2712 729.2712 729.4580 729.4580
   729.4580 730.2015 730.2015 730.2015 730.5341 730.5341 731.0414 731.0414
   731.0414 731.3413 731.5532 731.5532 731.5532 735.8060 735.9877 735.9877
   736.0688 736.0688 736.0688 736.0700 736.0700 736.0700 740.5687 740.5687
   740.5687 743.1440 743.3496 743.3496 743.3496 743.4759 744.1333 744.1333
   744.1378 744.1378 744.1378 744.5221 744.5221 744.5221 744.9623 744.9623
   744.9623 745.3596 745.8130 745.8130 745.8130 749.3503 749.3503 749.5025
   749.5025 749.5349 749.5349 749.5349 749.5789 749.6047 749.6047 749.6047
   749.7078 749.7078 749.7078 749.9169 749.9169 749.9169 750.0187 750.1524
   750.1524 750.1524 751.7263 751.7263 751.7338 751.7338 751.7338 751.7436
   751.7436 751.7436 751.7591 751.7591 751.7591 751.7796 752.3192 752.3192
   752.3192 752.8219 752.8524 752.8524 752.8524 752.8811 752.8811 752.8811
   753.0341 753.0341 753.0341 753.0864 753.0864 754.1945 754.1945 754.2123
   754.2123 754.2123 754.2515 754.2515 754.2515 754.2632 754.2632 754.2632

          k =-0.2500 0.2500-0.2500 (  4450 PWs)   bands (ev):

   -33.2840 -14.3452 -14.2699 -14.2699  -4.9545   4.1674   5.3189   5.3189
    10.2601  10.9386  10.9386  12.1330  12.1330  12.1975  16.3042  17.3682
    17.3682  19.7816  19.9276  19.9276  23.5809  26.1685  26.2940  26.2940
    27.4322  27.4322  32.6453  32.6453  33.1080  33.6590  33.6590  35.0751
    35.7668  38.8280  38.9182  38.9182  41.3931  41.3931  42.6100  45.0294
    45.0294  45.0546  45.7008  45.7008  46.5330  47.0241  47.0241  48.1430
    49.2063  50.5082  50.5082  52.4421  54.2893  54.2893  55.6476  55.6476
    56.4474  56.5565  58.0196  58.6409  58.6409  60.1668  62.5162  62.5162
    62.9566  62.9566  64.1701  65.3842  65.3842  66.9603  68.2489  68.2489
    71.1337  72.0809  72.0809  74.3543  74.8317  74.8317  75.8204  75.8204
    75.9345  76.3221  78.5988  78.5988  79.2638  79.2638  79.5229  81.7889
    81.7889  82.1728  83.3658  85.4939  86.1635  86.4326  86.4326  86.7708
    87.7688  87.7688  89.4908  89.4908  89.6918  89.6918  89.9648  90.3534
    91.1540  91.1540  92.5122  92.5122  93.2439  94.1734  94.1734  94.4709
    96.5459  96.8594  96.8594  98.3217  98.8133  99.4773  99.9673  99.9673
   100.2196 101.1459 101.1459 102.8143 102.8143 103.2445 103.2445 103.9098
   104.9395 104.9395 105.1923 105.5544 105.9151 105.9151 107.5546 108.0376
   108.0376 109.2060 109.2128 110.0467 110.0467 112.1031 112.1031 113.2848
   113.6633 113.9864 113.9864 116.0391 116.1509 116.1509 117.0040 117.0040
   118.2529 118.4209 118.6100 118.6100 119.3563 119.9617 119.9617 123.4877
   123.9065 123.9065 125.1919 127.2198 127.2198 127.7893 127.7893 130.2886
   131.0196 131.0196 131.8691 131.8851 132.1934 132.1934 132.6960 133.7170
   133.7170 134.5540 134.5540 136.7988 137.7453 138.9931 138.9931 139.3385
   139.3385 139.9117 139.9729 140.0678 140.0678 141.3981 141.6995 141.6995
   142.1169 142.2728 142.2728 143.7337 144.2560 144.2560 144.7477 145.3680
   145.3680 146.1221 146.1221 146.9322 147.1759 150.1252 150.1252 152.9449
   153.2367 153.2367 153.6449 154.3947 154.3947 154.4809 155.4216 155.6026
   155.6026 157.0302 157.0302 157.4615 157.9428 158.3104 158.3104 158.4690
   158.4690 159.1027 159.3290 159.4090 159.4090 159.7081 159.9530 159.9530
   160.5338 160.5338 161.4786 161.4786 161.9726 163.2436 163.8199 163.8199
   165.6356 165.9871 165.9871 166.3014 166.9631 167.2879 167.7653 167.7653
   167.8243 167.8243 168.5387 168.7725 168.8556 168.8556 170.5525 170.5525
   171.7777 171.7777 172.2101 172.3509 172.6022 172.6022 174.2959 174.3017
   174.3017 176.2178 176.4092 176.4092 176.7146 176.8968 176.8968 177.5057
   179.0296 179.0296 179.3961 180.2570 180.2570 182.1443 182.1443 182.4712
   182.4712 183.3214 184.6522 184.6522 184.7005 184.7382 185.5227 185.9648
   186.0788 186.0788 186.3085 186.3085 186.7672 186.8392 186.8392 188.3401
   188.3401 188.8316 189.9195 189.9195 189.9522 191.4527 192.5729 192.5729
   193.1900 193.4962 193.4962 193.5270 193.6782 193.6782 197.5420 197.8609
   197.8609 198.6391 199.0468 199.0468 199.6912 200.1899 200.1899 201.7644
   202.5144 202.6943 202.6943 203.6640 203.6640 205.5441 205.7385 205.7385
   207.0531 207.5634 207.6935 207.6935 208.0193 209.7280 209.7280 211.2783
   211.4529 211.4529 211.7694 211.7694 212.5714 212.7560 212.7560 213.1910
   213.2651 213.2651 213.6565 214.0571 214.1371 214.1371 214.6943 215.4991
   215.4991 216.5534 218.1631 218.7587 218.7587 219.9273 219.9273 220.9300
   220.9300 221.1676 221.4703 221.4703 221.8536 222.4600 223.3559 223.3559
   223.3986 223.3986 223.4895 224.3885 224.3885 225.2966 225.2966 225.8754
   226.2344 226.2344 226.4075 226.6002 229.5404 229.5404 230.9204 231.1211
   231.3781 231.3781 232.2947 232.2947 232.8497 234.3425 234.3425 235.1686
   235.6540 235.6540 235.7628 235.8021 235.8021 237.1350 237.1553 237.1553
   237.6244 237.7347 237.8474 237.8474 238.5205 238.5205 238.6330 239.3654
   240.4466 240.4466 240.5293 240.9607 241.4459 241.4459 244.0156 244.0156
   244.5537 244.9866 244.9866 245.4969 245.4969 246.0617 246.0644 246.4579
   246.4579 246.8184 246.8184 247.2541 247.2541 247.3360 248.0584 248.2284
   248.2284 248.6306 248.6306 249.0167 249.4069 249.7183 250.8210 250.8210
   251.0994 251.3159 251.3159 252.5240 252.9105 252.9105 253.0013 253.9288
   253.9288 254.0758 254.9119 254.9119 254.9205 255.5131 255.5131 256.1810
   256.1810 256.1820 257.4700 257.4700 257.5481 257.7749 258.3463 258.3463
   258.7064 258.7247 258.7247 259.0559 259.0559 259.4980 260.0635 260.9874
   260.9874 261.3942 262.4817 262.4817 263.0027 263.2048 263.2048 263.2860
   263.5690 263.5690 263.8655 265.2665 265.2665 265.4313 265.4353 265.4730
   265.4730 266.9821 267.0834 267.0834 270.4059 271.4341 271.4341 271.5821
   272.1272 273.2757 273.3086 273.3086 273.4722 273.9720 273.9720 275.5765
   275.5765 275.8192 276.6170 276.6170 277.1976 277.1976 277.2543 277.9024
   278.2535 278.2535 279.5031 279.5031 280.0760 280.0760 281.2616 281.3488
   281.3488 281.9859 282.0550 282.5438 282.5438 283.3359 283.3359 284.3955
   284.3955 284.6475 284.7993 284.7993 285.2449 285.3987 285.5573 285.5573
   286.3251 286.6440 286.7977 286.7977 287.2756 287.2756 288.2714 288.2714
   288.5333 288.5333 288.7230 289.3041 290.4352 290.8434 290.9215 290.9215
   293.3113 294.3144 294.3144 295.2954 295.2954 295.8280 295.9902 296.0414
   296.3176 296.3176 297.0284 297.4526 297.4526 297.7174 297.7174 297.7199
   298.0232 299.0147 299.0147 300.6361 300.6361 300.6708 300.6708 301.3960
   301.6292 301.6292 302.0192 303.9796 303.9796 304.4053 304.6225 304.6225
   306.2003 306.6738 306.6738 306.8109 308.2209 309.6172 309.6172 310.0401
   310.0401 310.1817 310.3136 310.9768 310.9768 311.8305 313.0288 314.6273
   314.6273 315.9608 315.9608 316.2267 316.2267 316.7561 317.2380 317.2380
   317.5572 317.5705 317.8263 318.2389 318.2389 318.4828 318.4828 319.3029
   319.3029 319.6921 320.4852 320.4852 320.5215 321.4954 321.8226 321.8439
   321.8439 322.0228 322.2564 322.2564 322.6881 322.8611 322.8611 323.0549
   323.0549 323.5893 323.8341 324.0039 324.0039 325.3598 325.3815 325.3815
   325.5803 325.5803 325.8369 326.8924 326.8924 327.9031 329.3216 329.7415
   329.7415 330.3853 330.7777 330.7777 331.4366 332.7335 332.7335 333.1089
   333.1089 333.5850 334.1015 334.6244 334.6244 334.8846 335.1715 335.1715
   336.4831 337.3003 337.8590 337.8590 338.1327 339.7809 339.7809 340.0503
   340.0503 340.1422 340.6817 341.3530 341.3530 341.3713 341.6696 341.6696
   341.8363 341.8363 342.1296 342.1296 342.1320 342.2105 342.3976 342.3976
   342.4134 343.1318 343.1318 345.4215 345.4215 345.4923 346.5621 346.5621
   346.6408 346.8226 346.8226 347.3673 348.0779 348.0779 348.4966 348.4966
   348.6090 348.8347 349.1535 349.3400 349.3400 349.9920 349.9920 350.2948
   350.2948 350.3608 351.0948 351.3651 351.3651 351.5681 351.9604 351.9604
   352.3358 352.3358 352.6644 352.8078 352.9043 352.9043 353.5098 353.8630
   353.8630 353.9914 354.2242 354.2242 354.3834 354.8997 355.4532 355.4532
   356.2527 356.2527 356.4424 357.2452 357.2452 357.5180 357.5521 358.0815
   358.0815 358.3800 359.1155 359.1155 359.5871 359.5871 359.8290 359.9740
   360.1332 360.1332 360.4284 364.6160 364.6160 365.2262 366.0478 366.0478
   366.2728 366.3139 366.3139 366.8982 367.1857 367.1857 367.2861 367.2861
   367.4454 368.3936 368.3936 368.4871 369.0708 369.0708 369.5345 370.2836
   370.5981 370.5981 370.7170 370.7170 370.7605 370.8995 371.4883 371.4883
   371.6083 372.4305 372.4305 373.1074 373.1074 373.9401 374.5585 374.5585
   374.6051 375.3064 375.3064 375.4049 375.9997 376.0692 376.0720 376.0720
   376.8544 376.8544 377.4669 377.6821 377.6821 378.0547 378.3502 378.3502
   378.6025 379.1712 379.1712 379.3953 379.4046 379.4046 380.1496 381.5983
   381.6240 381.6240 382.4005 382.4005 382.5779 382.9505 382.9505 383.5077
   385.7008 385.7008 385.7394 387.3373 387.3373 388.0319 388.0319 388.3704
   389.0479 389.6746 389.6746 389.8880 390.1511 390.1511 390.3070 390.5244
   390.5244 390.5548 391.0746 391.0746 391.1247 391.5682 391.5682 391.5996
   392.3989 392.3989 392.5145 394.6435 394.6512 394.6512 394.9715 394.9861
   394.9861 395.6770 395.6770 395.7344 396.6060 396.6132 396.6132 396.6685
   397.0831 397.0831 397.3094 397.5372 397.5372 397.9500 398.6911 398.8900
   398.8900 399.8264 399.8397 399.8397 400.4931 400.4931 402.4164 402.4164
   402.5024 402.8093 404.4692 404.4692 404.5337 405.0119 405.4315 405.4315
   405.8118 407.1231 407.1231 407.7416 407.7416 407.8896 407.8896 407.9994
   408.0158 408.0675 408.0675 408.2215 408.5998 408.5998 408.6014 410.1200
   410.3752 410.3752 411.8773 412.3916 412.3916 413.3149 413.3149 413.3310
   414.1934 414.1934 414.5914 414.5914 415.1566 415.9825 415.9825 416.4431
   416.4431 417.8445 417.9390 418.1517 418.1517 418.5200 418.5200 418.6810
   418.7120 418.9442 418.9442 419.3341 419.4021 419.7452 419.7452 420.8411
   420.8411 420.9683 421.1572 421.1572 421.5197 423.5712 423.5712 424.4092
   424.5668 424.5668 424.5828 425.7035 425.8682 425.8682 427.5168 427.5168
   428.0821 430.3734 430.3734 430.5387 430.8396 431.8648 431.8648 431.9900
   433.1475 433.1475 433.1476 433.8213 433.8213 434.0901 434.9738 435.6316
   435.6316 435.8894 436.2192 436.2192 436.2248 436.8203 436.8203 437.5315
   437.5315 437.7950 438.3918 438.5320 438.5320 438.7194 438.7194 438.9311
   440.6992 440.7475 440.7613 440.7613 440.9962 440.9962 441.3929 441.3929
   441.8738 441.8738 441.8924 443.8993 443.8993 444.0269 444.2191 444.2191
   444.9494 445.3555 445.3555 445.7586 446.0373 446.0373 446.3024 446.4993
   446.4993 446.6495 446.8295 446.9590 446.9655 446.9655 447.2046 447.4075
   447.4075 447.6262 447.6262 447.9578 448.0537 448.0537 450.1571 450.1571
   450.2166 450.3813 450.3813 450.7531 450.8564 450.8564 451.0380 451.1168
   452.0980 452.0980 452.3092 452.3092 452.4848 452.6474 453.3941 453.4663
   453.4663 455.5482 455.5482 456.1719 456.2498 456.2498 456.6837 457.3448
   457.3448 457.4867 458.1975 458.1975 458.2190 458.2851 458.2851 458.2856
   458.5032 458.7242 458.7242 459.8892 459.8892 459.9438 460.3040 460.3040
   460.3425 461.0467 461.0467 461.0548 462.2540 462.2540 462.3528 463.1933
   463.1933 463.2332 464.6074 464.6074 464.9812 465.1725 465.1725 465.3570
   465.5067 465.5067 466.4580 466.4705 466.4705 466.8344 466.8887 466.8887
   467.2051 469.8031 469.8406 469.8406 469.8693 471.4276 471.4276 471.4378
   471.8222 471.8598 471.8598 471.9902 471.9902 472.6077 472.7375 472.7375
   473.3575 473.3575 473.4876 473.7492 473.9561 473.9747 473.9747 474.0909
   474.0909 474.8837 474.8837 474.9265 475.6840 475.6840 475.7904 475.8395
   476.0799 476.0799 476.3733 476.3733 476.4413 477.2385 477.2385 477.2881
   478.7031 478.7207 478.7207 479.6060 480.6490 480.6490 480.8592 480.9925
   480.9925 481.6330 481.9376 481.9497 481.9497 482.4139 482.4139 482.4204
   482.6034 483.3564 483.3564 484.9449 485.0174 485.0174 485.0779 485.2034
   485.2335 485.2335 485.6692 485.6692 485.8516 485.8793 485.8793 485.9156
   486.1345 486.1345 486.8590 486.8590 488.3798 489.7292 489.7292 489.8848
   489.8848 489.9345 489.9801 489.9801 490.0745 490.0965 490.1395 490.2318
   490.2318 491.4972 491.4972 491.6378 491.9680 491.9680 492.4004 492.4004
   492.5386 493.8024 493.8024 493.9755 493.9903 494.3946 494.3946 494.4499
   494.4808 494.4808 495.3760 495.3760 495.8545 496.0793 496.0793 496.1650
   496.6424 496.6424 496.6953 498.3098 498.3098 498.7366 499.2435 499.3079
   499.3079 500.1397 500.1397 500.3022 501.2137 501.2137 501.4449 503.7988
   503.7988 503.9385 503.9669 504.0085 504.0085 504.0322 504.0322 504.1251
   504.4743 504.5172 504.5172 506.1408 506.3456 506.3456 506.5021 506.5021
   506.5799 508.3737 508.3737 508.7457 509.0370 509.3171 509.4340 509.4340
   509.7173 509.8525 509.8525 510.6541 510.6541 510.8598 510.8598 510.9355
   511.0906 511.1206 511.1206 511.8173 512.1311 512.1311 512.2596 512.7718
   512.7718 513.1644 513.8471 513.8471 514.0901 514.3585 514.3585 514.9481
   515.4884 515.4884 515.5806 515.6562 516.0153 516.0153 516.0469 516.0469
   516.1179 516.7209 516.7209 516.7927 517.0752 517.0752 517.5753 517.5753
   517.5840 517.9463 518.1283 518.1283 518.2165 518.4602 518.4602 518.4854
   520.7908 520.8202 520.8202 521.6596 521.6596 521.9019 521.9019 522.0802
   522.3057 522.3590 522.3590 523.3092 523.8390 523.8390 524.9729 525.8078
   525.8078 526.1658 526.1958 526.1958 526.7097 526.7097 526.8670 526.8866
   526.8866 527.0872 527.1977 527.2717 527.2717 529.3638 529.3638 529.3706
   529.4356 529.8367 529.8367 530.3860 530.7782 530.7782 531.5116 531.5285
   531.5285 532.6751 532.6751 532.6978 532.7020 532.8025 532.8025 533.9916
   536.6934 536.6934 536.7127 536.9759 537.0736 537.0736 537.5313 537.5313
   538.2473 538.2722 538.6731 538.6731 539.0047 539.0047 539.1436 539.5243
   539.7660 539.7660 540.4713 540.7048 540.7048 541.8581 542.1328 542.1328
   542.4264 542.4264 542.8552 542.8552 542.9483 543.0398 543.4665 543.4680
   543.4680 544.1657 544.1657 544.2160 545.1584 545.1584 545.2210 546.6279
   546.6279 546.6298 549.4559 549.8220 549.8220 550.1662 550.2345 550.2345
   551.4174 551.4174 551.8693 552.6113 552.6113 552.7379 553.0136 553.0136
   553.1104 553.9929 554.0021 554.0021 554.9402 554.9402 555.1649 556.3840
   556.3840 556.8194 557.2256 557.3860 557.3860 557.8391 557.8391 557.9485
   558.3895 558.3895 560.1363 560.1775 560.2775 560.2775 560.6427 561.2773
   561.5106 561.5106 561.5289 562.2349 562.2413 562.2413 562.5914 562.5914
   563.1091 563.1091 563.4738 563.4738 563.8062 564.3967 564.3967 564.7950
   565.7593 566.1453 566.1453 566.1774 566.5527 566.5527 567.0111 567.7908
   567.8014 567.8014 567.8546 568.3136 568.3136 568.5596 568.6702 568.6702
   569.3366 569.4641 569.4641 569.7096 569.7096 569.8981 569.9040 569.9040
   570.2017 570.6430 570.6430 571.3300 571.8127 571.8127 571.9057 572.1716
   572.5599 572.5599 574.2222 574.5783 574.5783 575.1857 575.2728 575.2728
   576.0124 576.0124 577.2332 577.2499 577.2499 577.2588 577.3440 578.5151
   578.5151 578.6222 578.6222 578.7943 578.8509 578.9369 578.9369 578.9442
   579.0261 579.0261 579.5756 579.5756 579.8912 580.0211 580.0211 580.2000
   581.0224 581.0224 581.2239 581.2239 581.3103 581.3987 581.3987 581.5176
   583.8170 583.8170 583.8797 584.0283 584.0645 584.0645 584.4365 584.4365
   584.6831 584.7167 584.7167 585.0984 585.4483 585.5321 585.5321 586.1717
   586.1717 586.2172 586.4610 587.1545 587.1545 588.4739 588.4739 588.5133
   588.8443 588.8458 588.8458 588.9997 588.9997 589.0127 589.6269 589.6269
   589.7204 590.4086 591.0169 591.0169 594.6119 595.3258 595.3258 595.7313
   595.7313 596.2253 597.3736 597.4264 597.4264 597.8137 598.1335 598.1383
   598.1383 598.3251 598.3251 598.5514 598.8268 598.8830 598.8830 599.1502
   599.1502 599.5053 599.7113 599.7113 600.0187 600.6008 600.6008 600.6666
   600.8007 600.8506 600.8506 600.9606 600.9688 600.9688 601.2078 601.2078
   601.2284 601.5389 601.5399 601.5399 601.6020 601.6020 601.7622 602.7066
   602.8063 602.8063 604.5348 604.5348 604.7198 607.1138 607.1138 607.1534
   607.7738 607.7738 607.7988 608.1657 608.2534 608.3032 608.3032 608.8786
   608.8786 608.9819 608.9819 609.4403 609.5093 609.5093 609.7793 609.7819
   609.7819 610.0124 610.0124 610.0528 610.1206 610.2236 610.2236 610.3480
   610.3480 610.3654 610.7135 610.7135 610.7727 611.1608 611.2541 611.2541
   611.7091 611.7091 611.7166 612.6421 612.6421 612.6671 612.7458 612.7458
   612.7540 613.2546 613.9794 613.9794 614.1797 614.3755 614.3755 615.0928
   615.0928 615.2106 615.4729 615.4729 616.4038 619.2674 619.2674 619.7946
   619.7952 619.7952 620.2625 620.4178 620.6812 620.6812 621.9943 621.9943
   622.2700 623.5318 623.5318 623.6283 623.7688 624.4507 624.4507 624.5978
   624.8356 624.8356 624.9296 624.9922 625.2638 625.2638 625.6353 625.6353
   625.7067 625.7935 625.7935 626.3468 626.7475 626.9393 626.9393 627.0668
   627.3318 627.3318 628.3732 628.6969 628.6969 629.0846 629.1028 629.1028
   629.1177 629.2386 629.2386 629.4655 629.5763 629.5763 629.8102 629.8102
   629.9959 630.0924 630.0924 630.1297 630.4714 630.4714 630.7951 631.1429
   631.1429 631.1555 632.5961 632.7335 632.7335 634.9252 634.9252 635.0306
   635.4613 635.6199 635.6199 635.9771 635.9781 635.9781 636.1241 636.2662
   636.2662 637.1726 637.4193 637.4193 637.6409 637.7506 637.7506 637.7858
   638.0888 638.0888 639.0364 639.0777 639.0777 639.1154 639.2159 639.2159
   639.4587 639.5700 639.5700 639.6665 640.3460 640.3460 640.9324 641.0224
   641.0224 642.3055 642.4397 642.4397 642.4559 642.4559 642.4607 642.6303
   643.0319 643.0319 643.4019 643.4019 643.9913 644.0508 644.2628 644.2675
   644.2675 644.4409 644.4409 645.3616 645.5396 645.5396 645.8183 645.8807
   645.8807 646.0919 646.7829 646.7829 646.8793 646.8793 647.1179 647.2746
   647.3241 647.3241 647.6007 647.9491 647.9491 649.0637 649.0637 649.2012
   649.3882 649.3882 649.4738 649.5390 649.5390 649.5696 650.2984 650.5656
   650.5656 651.0546 651.4052 651.4854 651.4854 651.5533 651.5533 653.4527
   653.5205 653.5205 653.7767 653.7767 653.9777 654.2045 654.3682 654.3682
   655.2844 655.9352 655.9352 656.0233 656.0322 656.0322 656.0597 656.3884
   656.6826 656.6826 657.0780 657.0783 657.0783 657.1307 657.1307 657.2451
   657.7509 657.7509 658.4809 659.0496 659.0496 661.7333 662.0063 662.0207
   662.0207 662.4123 662.4123 662.5931 662.6635 662.6635 663.0350 664.5161
   664.5161 664.9158 664.9836 664.9836 665.3115 665.3255 665.3255 665.6691
   665.6691 665.6789 665.7928 666.4138 666.4138 667.1566 667.6207 667.6207
   667.9956 668.1598 668.2759 668.2759 669.0556 669.3558 669.3558 669.6579
   669.7341 669.7341 670.1427 670.1427 670.1532 670.3296 670.3296 670.4988
   670.8546 670.8778 670.8778 671.1335 671.1335 671.1473 671.8427 671.8427
   674.0403 674.0403 674.3140 674.9649 674.9649 675.0484 675.4393 675.6067
   675.6067 675.9630 676.4803 676.4803 678.1237 678.1838 678.1838 678.6330
   678.6330 678.7521 679.2122 679.2122 679.2312 679.2462 679.7258 679.7258
   679.8601 679.8601 680.1663 680.3461 680.3461 680.3676 681.1871 681.2379
   681.2379 681.2560 681.9301 681.9301 683.5821 683.6384 683.6384 683.7343
   683.7343 683.9209 684.0696 684.1265 684.1265 684.2525 684.2525 684.3917
   686.8743 687.4303 687.4303 687.7896 687.8148 687.8148 688.8929 688.9917
   688.9917 690.2914 690.5461 690.5461 690.9139 690.9934 690.9934 691.9637
   691.9637 692.4678 692.9044 692.9044 693.2739 693.2988 693.2988 693.3454
   693.5030 693.5030 693.6267 693.7131 693.7131 693.9723 694.4579 694.8941
   695.2803 695.2803 695.4851 695.4851 695.5315 695.6526 695.6878 695.6878
   696.8800 696.8800 697.5110 699.1208 699.1525 699.1525 699.9399 699.9820
   699.9820 700.0863 700.0863 700.1005 700.6942 700.8954 700.8954 700.9713
   701.3374 701.3374 702.0931 702.1163 702.1163 703.0271 703.0271 703.1494
   703.7104 703.7104 704.3072 704.3072 704.4998 704.4998 704.5208 705.1627
   706.2320 706.6549 706.6549 706.8794 706.9061 706.9061 707.2239 707.2239
   707.2266 707.4009 707.4009 707.4696 709.6377 709.6377 710.0542 711.4282
   711.4486 711.4486 711.4981 711.6874 711.6874 711.9482 712.1658 712.1658
   712.3079 712.3313 712.3313 712.5321 712.6313 712.6313 713.3712 713.8342
   713.8342 714.2812 714.6948 714.6948 714.7912 714.7912 714.8373 715.3837
   715.5823 715.5823 715.6304 716.1384 716.1384 716.3650 716.3816 716.3816
   716.5385 716.5385 716.5602 717.7592 717.7631 717.7631 719.7200 719.7521
   719.7521 720.3046 720.3315 720.3315 720.4393 720.6030 720.6030 720.9417
   721.0648 721.0723 721.0723 723.2141 723.6409 723.6409 724.1633 724.1633
   724.3812 725.0691 725.0691 725.1256 725.8285 726.1092 726.1092 726.2683
   726.3754 726.3754 726.4564 726.5171 726.5248 726.5248 726.7679 726.7679
   726.9480 726.9661 726.9661 728.1181 728.1181 728.3337 730.8672 730.9645
   730.9645 731.0656 731.3433 731.3433 731.4494 731.4494 731.7145 731.8794
   731.8856 731.8856 732.1418 732.1418 732.2333 732.8835 732.9271 732.9271
   733.1582 734.0709 734.0709 734.3481 734.3481 734.4688 734.5165 734.5165
   735.0568 735.2418 735.2418 735.3337 735.7463 735.7463 735.9114 736.4299
   737.0791 737.0791 737.1231 737.2308 737.3977 737.4151 737.4151 737.6733
   737.6733 737.8458 737.8458 738.2434 738.2765 738.6479 738.6479 738.8825
   738.8825 738.8957 739.1526 739.1526 739.1754 739.9461 739.9461 741.0181
   741.0811 741.0811 741.3059 741.3418 741.3418 742.0659 742.0659 742.0718
   742.4802 742.4802 742.6776 742.6907 742.7279 742.7279 743.3941 743.4433
   743.4433 743.4653 744.0704 744.0704 746.1500 746.1500 746.3487 747.3877
   747.3877 747.4082 748.4929 748.6495 748.6763 748.6763 749.2991 749.2991
   750.1474 750.2091 750.2091 750.7231 751.0925 751.0925 751.5390 751.5390
   751.5839 752.9143 752.9913 752.9913 753.0295 753.0295 753.0382 754.6217

          k = 0.5000-0.5000 0.5000 (  4446 PWs)   bands (ev):

   -33.2785 -14.4241 -14.2762 -14.2762  -4.5340   2.9079   4.8352   4.8352
    11.1964  12.0041  12.1352  12.1352  14.0616  14.0616  14.8283  14.8283
    17.0998  19.4328  19.4328  21.6228  21.7555  24.9004  24.9004  27.1117
    29.3994  29.3994  30.6872  33.2518  33.2518  34.6443  34.6443  35.2217
    35.2217  35.2698  38.1808  38.5030  39.7543  40.5399  40.5399  41.8420
    43.6615  43.6615  46.1781  46.1781  46.9946  47.3979  50.2529  50.2529
    50.5449  50.9490  50.9490  54.4133  54.9340  56.4294  56.4294  56.9641
    57.8587  57.8587  61.0499  61.0499  62.5038  62.5038  64.1812  64.1812
    64.2786  64.2786  64.3123  65.7057  65.7699  66.5279  66.7504  67.1029
    67.1029  69.7952  70.8082  70.8082  73.3437  73.3437  74.3959  74.3959
    75.1323  75.3494  75.9001  75.9001  75.9626  75.9626  80.2662  80.2662
    80.6945  80.7492  80.7961  80.7961  81.8694  83.2474  86.4533  86.4533
    86.9968  87.9986  88.0832  88.0832  88.3985  93.0140  93.2434  93.2434
    93.5753  93.5753  93.8656  93.9768  94.0574  94.6169  94.6169  96.4750
    96.4750  96.6436  97.0042  97.0042  98.0978  98.0978  99.5967 100.0470
   100.6592 102.0872 102.7611 102.7611 104.0153 104.0153 104.2609 105.9118
   105.9118 106.7851 106.7851 107.3810 108.6248 108.6248 109.1971 110.7047
   110.8824 110.8824 110.8845 111.2644 111.2644 111.5317 111.5317 113.2614
   115.0534 115.3159 115.3159 116.7037 118.1163 118.1163 118.2122 119.1351
   119.1351 119.7569 119.7569 120.9642 121.0137 121.4124 121.4124 122.1119
   122.1119 123.0966 123.0966 126.1405 126.4192 126.4192 126.5464 129.0079
   129.0079 129.6380 130.1841 130.4172 130.4172 130.5489 131.2781 131.2781
   131.8820 131.8820 132.4201 133.9092 137.2342 137.6343 138.2638 138.2638
   138.7821 140.2969 140.2969 140.6570 140.8916 140.8916 141.7451 141.7451
   142.9586 143.4454 143.9707 143.9707 144.7493 145.1518 145.1518 145.6116
   145.6116 146.3159 146.3839 146.3839 146.5487 148.0123 148.0123 148.1702
   148.1702 148.4399 151.8612 152.3443 152.3443 153.7698 153.8397 153.8397
   154.3343 154.3343 154.7673 154.9181 156.6592 156.6592 156.8149 156.8149
   157.5555 157.5995 157.5995 157.9584 158.4410 158.6804 158.6804 159.0140
   159.0140 159.9260 159.9260 160.3296 162.8332 163.0576 163.0576 163.9983
   164.7221 164.9479 165.3890 165.3890 165.4292 165.4933 165.4933 167.9762
   167.9762 168.6937 171.9806 172.5180 172.5180 173.7972 173.7972 173.8276
   173.9284 173.9284 174.3883 174.9956 174.9956 175.1951 175.3213 175.6492
   175.6492 175.6927 176.1111 176.1111 176.1635 176.6806 176.6806 176.8404
   178.6783 178.6783 180.0972 180.0972 181.0860 181.2801 181.8764 181.8764
   183.0813 183.5441 183.5441 185.8204 189.6727 189.6727 190.7689 191.4806
   191.4806 191.8261 191.8261 192.4921 192.4921 192.5626 192.5626 192.9849
   193.1459 193.1602 193.2159 193.2159 193.2433 193.2803 194.0066 195.3230
   195.3230 195.4923 196.8609 196.8609 198.1081 198.1324 199.9010 199.9010
   200.0563 200.0563 200.4140 200.4140 200.7874 200.9054 200.9362 201.0363
   201.0363 201.1056 201.1056 201.2935 201.2935 201.3621 202.2357 203.3679
   204.7893 204.7893 204.8371 204.8371 206.2345 206.2356 208.3502 208.3502
   210.0675 210.0675 210.8335 210.8335 211.8331 212.2250 212.4797 212.4797
   212.8332 212.8332 212.9256 213.6352 213.6352 214.4765 214.4765 214.5564
   214.8831 214.8831 215.1563 215.1563 216.0744 217.8278 217.9062 217.9062
   218.3036 218.3036 218.3588 219.4835 219.9327 219.9327 220.0482 220.3855
   221.6970 221.6970 221.7320 222.7221 222.7221 222.9494 223.0510 223.0510
   223.7716 224.2581 224.2581 225.7750 227.2738 227.2738 228.4776 228.7210
   228.7210 229.5211 229.8638 229.8638 230.4094 230.4094 230.5657 230.7415
   232.6367 232.6367 234.6746 235.3130 235.6528 235.6528 235.9901 236.0217
   236.0217 236.8852 237.0502 237.0502 237.5407 237.5407 238.3486 239.0099
   239.0099 239.1219 239.7905 239.7905 239.8709 239.8709 239.9682 239.9776
   240.5875 242.4014 242.4014 242.5151 242.5226 244.5719 244.5719 244.6672
   244.6672 244.8388 245.0059 245.3465 245.3465 245.8918 246.3027 246.9324
   246.9324 247.7053 247.7053 249.2023 249.2023 249.5399 249.5399 250.4593
   252.2529 252.2529 252.5922 253.2029 253.2029 253.9653 255.0590 255.0590
   255.6560 256.1256 256.1256 256.2360 258.4944 258.4944 258.6643 258.8266
   258.8266 259.2813 259.3822 259.3822 260.3240 260.3240 260.3410 260.3410
   260.3552 260.4388 260.5553 261.0447 261.5483 261.5483 263.9386 263.9386
   264.4459 264.4459 265.5180 265.5180 265.6077 265.6980 265.8211 267.3486
   268.6149 268.6149 268.8265 268.8733 268.8733 271.4176 272.4137 273.0097
   273.0097 273.0595 273.0595 273.2061 274.2721 274.2721 274.4247 274.4247
   274.9215 275.1937 276.2697 276.4943 276.6671 276.6671 276.7212 276.7212
   277.1959 277.2292 277.2292 277.3183 277.3183 277.4871 277.4871 277.6202
   278.0636 278.1503 278.1503 278.7841 278.7841 279.0790 280.9885 281.0221
   282.9046 283.7553 283.8500 283.8500 284.0437 284.0437 284.1743 284.1743
   284.5504 284.7129 284.7129 285.0229 285.1771 285.1991 285.6373 285.6373
   285.8145 285.8145 286.4071 286.4071 286.5213 286.5213 286.7693 286.7830
   292.4465 292.4465 292.6304 292.9637 292.9637 293.0343 293.7239 293.7239
   294.3677 294.3677 294.5377 294.6188 294.6656 294.6656 295.0968 295.0968
   295.1908 295.3101 296.1828 296.1828 296.9585 296.9585 297.0478 297.0559
   298.7002 298.7002 299.7444 300.8979 300.9534 300.9534 300.9735 301.3829
   301.4921 301.4921 301.9129 301.9129 303.1928 303.5179 305.1616 305.2217
   305.2217 305.6052 305.6052 306.0310 306.0310 307.2832 307.2832 308.5666
   309.0895 309.4128 309.4128 309.7337 309.7570 309.7570 309.7787 310.3442
   310.3442 310.5145 310.5726 310.5726 310.8167 310.8167 314.4342 314.4342
   314.8770 314.8770 315.2546 315.2546 315.3407 316.1427 316.1537 316.1537
   316.6013 316.6031 317.3595 317.3595 317.4144 317.9198 319.0529 319.1678
   320.2126 320.5103 320.5103 320.7157 320.7157 321.9999 321.9999 322.3750
   322.3750 323.8426 324.0697 324.0697 324.6150 324.8436 324.8436 324.8531
   324.8531 325.0339 325.0353 325.5540 326.2483 326.5164 326.5164 326.9182
   332.8711 332.8711 332.9226 332.9226 334.1230 334.1230 334.1763 334.1763
   334.4399 335.6529 335.6529 335.8774 337.0037 337.1576 337.1576 337.4308
   337.4308 337.5787 337.5787 337.7231 338.1257 338.2068 338.8101 338.8101
   338.9008 338.9008 338.9439 339.3288 339.8609 339.8609 340.1385 340.1416
   340.1416 340.2300 340.7758 340.7791 340.7791 340.9566 340.9566 341.0502
   341.1005 341.2449 341.2449 341.2885 341.3319 341.3319 341.8414 341.8414
   341.8813 341.8813 342.0416 342.2621 344.4131 344.4131 344.8678 345.4581
   345.4984 345.4984 345.9245 346.4348 346.4348 346.5071 346.5071 347.1131
   349.4222 349.9841 350.1431 350.1431 350.6768 350.6768 351.4847 351.4847
   351.9284 352.0031 352.1405 352.1405 356.0362 356.0362 356.4340 356.4340
   356.7086 357.3959 357.6460 357.6504 357.8442 357.8442 357.9723 357.9723
   358.2907 358.2907 358.4113 358.4113 358.4586 358.6864 358.7421 358.7421
   359.6146 359.6975 359.8221 359.8221 359.8950 359.8950 360.0463 360.0561
   360.0561 360.2678 362.4501 362.7901 363.8964 363.8964 364.4729 364.7814
   364.7814 365.2199 366.2428 366.2990 366.2990 366.7616 366.7616 368.0167
   368.0167 368.2034 368.2034 368.4240 368.4481 368.5492 368.5492 368.9703
   368.9703 369.0562 369.1030 369.2685 372.9725 372.9725 373.2808 373.2808
   373.3736 373.4416 376.2560 376.2560 376.2606 376.2606 377.9702 377.9702
   378.5660 378.7994 379.0092 379.3812 379.3812 379.4688 379.6298 379.6428
   379.6428 379.6839 379.6839 379.7331 379.8088 379.8088 379.8592 379.8592
   381.1595 381.1595 382.7377 383.0213 383.0213 383.1245 383.1245 383.3436
   383.6100 383.6100 383.6227 383.9980 383.9980 384.2522 384.8863 385.0817
   385.5791 385.5791 386.2105 386.2105 386.4347 386.5827 386.5827 386.8320
   387.8212 387.8212 388.0646 388.0955 388.0955 388.1087 391.8824 391.8824
   394.1030 394.1030 394.7378 394.8516 394.8622 394.8622 395.0324 395.0324
   395.5211 395.5315 395.7394 395.7394 395.9321 396.0371 396.0487 396.0487
   397.2120 397.2120 398.2760 398.2760 398.8602 398.8921 398.9369 398.9482
   398.9482 398.9718 398.9718 398.9899 401.3546 401.7451 402.5465 402.5465
   402.6312 402.6312 403.7480 404.0867 404.0867 404.0995 404.1028 404.1028
   404.1111 404.1390 404.5416 404.5416 404.5448 404.5448 407.7396 407.7396
   407.7502 407.7502 407.8988 407.9001 409.2321 409.2321 410.3197 410.3653
   410.7024 410.7024 411.5388 411.6091 411.6724 411.6724 412.2933 412.4333
   412.6026 412.6026 412.7551 413.0346 413.0346 413.1828 413.1828 413.5081
   417.5313 417.5561 417.5561 417.5984 417.5984 417.8150 418.6288 418.6288
   418.8128 418.8128 419.0113 419.2716 419.2716 419.5409 419.8314 419.8314
   419.9249 419.9263 420.3276 420.3276 421.1983 421.1983 421.2089 421.4003
   421.5291 421.5312 421.5312 421.5475 421.5475 421.5905 422.7168 422.8543
   422.9738 422.9738 422.9860 422.9860 425.1081 425.1081 425.1126 425.1844
   425.1844 425.2642 425.6620 425.6620 425.6987 425.6987 425.7773 425.7787
   430.9288 432.2267 432.2267 432.4064 432.4064 432.6021 433.2266 433.2266
   433.3191 433.3191 433.3921 433.4874 433.8790 433.8790 433.9392 433.9451
   433.9451 433.9827 434.4688 434.6203 434.6203 434.6405 434.6405 435.1693
   437.5605 438.1534 438.1534 438.2746 438.2746 439.1133 439.6847 440.5217
   440.5217 440.6165 440.6165 440.8028 440.8309 440.8649 441.0304 441.0304
   441.5148 441.5148 441.6017 441.6324 441.6324 441.7307 441.7307 441.7719
   441.8105 441.9405 443.2579 443.5005 443.5005 444.3367 444.3367 444.3570
   445.4501 445.7405 445.7405 446.3718 446.3718 446.5997 446.5997 447.0030
   447.0030 447.1544 447.8140 448.1532 448.3637 448.3637 448.8787 448.8787
   451.3709 451.3709 451.3868 451.3868 451.5095 451.5718 451.9172 451.9172
   452.0622 452.0720 452.0720 452.1831 453.2102 453.2102 453.2126 453.2126
   453.3490 453.3490 453.3788 453.3788 453.5088 453.5091 455.1168 455.1170
   459.6423 459.6423 459.6942 459.7957 459.8857 459.8857 460.2733 460.6150
   460.6150 460.9013 460.9013 461.1923 463.3362 463.3362 463.5227 463.8453
   463.8453 464.2412 464.5813 464.5813 464.6719 464.8698 464.8698 465.1213
   465.3562 465.3562 465.7740 465.8326 465.8326 465.9622 465.9622 465.9841
   466.2111 466.4286 466.4286 466.7593 466.9079 466.9079 466.9853 467.1865
   467.1865 467.2692 468.9928 469.0993 469.0993 469.3339 469.3339 469.3663
   470.6266 470.6439 475.9311 475.9311 476.1273 476.1273 476.3007 476.3127
   477.1333 477.1351 477.1351 477.1743 477.1743 477.3439 477.7341 477.7341
   477.7836 477.7836 477.8093 477.8634 478.2880 478.2880 478.3354 478.3354
   478.3395 478.4422 478.7299 478.7299 478.7549 478.7628 478.7628 478.8948
   479.8474 479.8917 479.8917 480.0482 480.0482 480.0771 480.1571 480.1974
   480.1974 480.2446 480.2446 480.2948 480.5333 480.5333 480.5561 480.5561
   482.0799 482.0799 482.0807 482.0807 482.1428 482.1455 483.3576 483.3576
   483.7214 483.7214 483.9434 484.1349 487.8739 487.8739 488.7677 488.7677
   488.9141 489.0052 489.7119 489.8279 489.8279 489.9549 489.9549 490.8519
   495.4654 495.4654 495.7829 495.9298 495.9298 496.0763 496.5031 496.5031
   496.6614 496.8164 496.9560 496.9560 497.3075 497.3075 497.4380 497.5235
   497.5271 497.5271 497.5575 497.5575 497.6801 497.6801 497.6941 497.7583
   501.0075 501.6887 501.6887 501.8402 501.8402 502.1486 502.2607 502.7006
   502.7006 502.7740 502.7740 503.1218 504.0548 504.7707 505.1088 505.1088
   505.5458 505.5458 505.8396 506.0945 506.1697 506.1697 506.1916 506.1916
   506.2659 506.2659 506.3067 507.1524 507.1524 508.9908 512.1550 512.8319
   512.9912 512.9912 513.1680 513.1680 513.4232 513.6564 513.6564 513.7303
   514.0582 514.0582 514.7119 514.7119 514.9098 514.9098 515.0451 515.0644
   515.9406 515.9406 516.0744 516.0744 516.3768 516.5704 517.1493 517.1493
   517.1667 517.1667 517.1989 517.2055 517.2654 517.2654 517.2688 517.2688
   517.2695 517.3237 519.8185 519.9230 519.9922 519.9922 520.8908 520.8908
   521.4537 521.4876 522.3310 522.3310 522.5072 522.5072 522.6938 522.8896
   522.8896 522.9319 523.0797 523.0797 524.7137 524.7137 524.7900 524.7950
   524.9244 524.9244 525.9804 525.9804 525.9841 525.9841 526.0544 526.0815
   526.6065 526.6400 526.6910 526.6910 526.7067 526.7067 527.1317 527.1720
   527.1720 527.2425 527.2425 527.2830 528.0140 528.0962 528.6086 528.6086
   528.6966 528.7567 528.7567 529.3914 530.4377 530.4408 530.5111 530.5111
   530.7741 530.7741 532.7361 532.7361 532.8654 532.8654 533.2891 533.3234
   533.3252 533.3924 533.8226 533.8226 533.8297 533.8297 536.1485 536.1485
   536.1547 536.1547 536.3291 536.3882 536.3882 536.5027 536.5027 536.5439
   537.1218 537.1218 537.1238 537.1238 537.1969 537.1987 539.9329 539.9329
   539.9622 540.1414 540.5342 540.5342 541.5188 541.5188 541.6046 541.6046
   541.6421 542.3114 543.5637 543.5637 543.9467 543.9786 543.9834 543.9834
   544.0546 544.2934 544.4745 544.4745 544.5310 544.5310 545.0870 545.0870
   545.1026 545.1427 545.1427 545.1895 547.3619 547.9802 547.9802 548.1011
   548.1011 548.6255 548.6255 548.6358 548.6358 548.6359 548.6414 549.2900
   550.1101 550.3723 550.4739 550.4739 550.6772 550.6772 554.7236 554.7236
   554.7335 554.7335 554.9722 554.9973 554.9978 555.5346 555.5346 556.4541
   556.9143 556.9361 556.9361 556.9634 556.9634 558.1631 558.5567 558.5567
   559.2870 559.5635 559.8171 559.8171 560.4410 560.4410 560.5954 560.5954
   560.6508 560.6508 560.8003 560.8011 561.0416 561.2867 561.2867 561.3211
   561.3211 561.4834 561.5075 561.5075 561.5871 561.5871 561.5900 561.6573
   561.6573 561.6618 561.6618 561.6850 561.6876 562.0137 562.6722 562.8041
   562.8041 562.8232 562.8232 562.8580 563.2594 563.2594 563.2866 563.2866
   563.3806 563.3814 569.9313 570.0593 570.0593 570.0736 570.1025 570.3329
   570.3329 570.4638 570.9968 570.9968 571.0118 571.0118 574.3352 574.3805
   574.3805 574.4907 574.4907 574.5211 575.6326 575.7905 575.7905 576.6722
   576.6722 576.7908 577.5820 577.9061 577.9061 577.9967 578.1000 578.3796
   580.0879 580.0879 580.1153 580.1153 580.1269 580.1269 580.2881 580.3838
   580.4406 580.4406 580.4632 580.5489 581.6657 581.6657 582.3725 582.3725
   582.4071 582.4607 582.5178 582.5178 583.3070 583.9076 583.9076 584.3983
   584.3983 584.8636 585.2808 585.2808 585.3989 585.5216 585.5216 585.6052
   586.7958 586.7958 587.2854 588.3948 588.3948 588.6251 588.7168 588.8897
   588.8897 588.9651 589.1781 589.1781 591.4453 591.4453 591.4618 591.4618
   591.4741 591.5248 591.7778 591.7778 591.7826 593.1669 593.1669 593.6617
   594.8764 594.8764 595.0880 595.0880 595.1736 595.4592 595.4592 595.4757
   595.4805 595.8960 595.8977 595.8977 597.0470 597.1512 597.1512 597.1829
   597.8279 597.8279 599.0055 599.1116 599.1116 599.3545 599.4974 599.4974
   599.6852 599.7634 599.7634 599.7710 599.7710 599.8333 602.1453 603.7691
   603.8580 603.8580 604.0821 604.1350 604.2201 604.2201 604.3628 604.3628
   604.7915 604.7915 604.8325 604.8325 604.9755 604.9815 605.0569 605.0569
   607.2368 607.2585 607.2585 607.3030 607.3030 607.3581 607.3758 607.3758
   607.4664 607.7015 608.0359 608.0359 609.3694 609.4017 609.4451 609.4457
   609.4457 609.4682 609.4682 609.4735 609.5134 609.5134 609.5952 609.5952
   610.0080 610.2381 610.2381 610.2444 610.2444 610.4195 610.4198 610.9502
   613.5285 613.5285 613.6050 613.6050 614.9488 614.9913 614.9913 615.0238
   615.0238 615.3402 615.9490 615.9837 615.9837 616.1207 616.1788 616.1788
   616.2046 616.2542 616.3535 616.3535 616.6687 616.6687 616.7878 616.8901
   616.8901 616.9544 616.9767 616.9767 617.0074 617.0074 617.0620 617.0880
   617.1989 617.1989 618.5121 618.5700 618.5700 618.5833 618.8154 618.8221
   618.8221 618.8278 618.8278 618.8699 618.8699 618.8754 619.3161 619.3161
   619.3164 619.3164 621.3834 621.3835 623.8431 624.0801 624.0801 624.1527
   624.1527 624.5150 627.9178 627.9178 627.9437 627.9774 628.1946 628.1946
   629.0102 629.0102 629.0187 629.0187 629.1510 629.1512 629.4994 629.4994
   629.5891 629.9579 630.6092 630.6092 634.1613 634.1613 634.2935 634.5664
   634.7050 634.7050 634.8037 635.0126 635.0126 635.0464 635.8400 635.8400
   636.0939 636.0939 636.1009 636.1297 636.1297 636.1572 638.5353 638.6729
   638.6729 639.5914 639.9034 639.9034 640.1952 640.3198 640.3198 640.7545
   640.8265 640.9772 640.9772 641.2188 641.2188 641.4215 642.2644 642.2644
   643.0153 643.3622 643.3622 643.4702 643.4702 643.5408 643.7124 643.9302
   643.9302 644.1764 644.3118 644.3118 644.7119 644.7119 644.7296 644.7296
   644.7382 644.8100 644.8355 644.8355 644.8813 644.9284 644.9284 644.9701
   645.0911 645.9123 645.9302 645.9302 645.9747 646.1454 646.1454 646.4711
   646.4711 646.4715 646.4839 646.5109 646.5109 647.2493 650.7395 650.7395
   651.0425 652.2014 652.2014 652.7669 652.7669 652.8464 652.8563 653.1823
   653.1823 653.2103 654.5986 654.5986 654.8013 654.8013 655.0412 655.4871
   655.4871 655.5001 655.5069 655.8445 655.8505 655.8505 655.8514 655.8514
   655.8713 655.9730 655.9730 656.5557 656.5557 656.7934 656.7934 658.3758
   658.3758 658.6374 658.6374 658.7299 659.1896 660.0837 660.3820 660.3820
   660.4072 660.5227 660.5260 660.6188 660.6188 660.6936 660.6936 660.9272
   660.9272 660.9942 663.0266 663.0492 663.0492 663.1123 663.2275 663.3609
   663.3609 663.4206 663.4206 663.4259 663.5009 663.5009 663.5195 663.5195
   663.5420 663.5778 663.6442 663.6442 663.8788 663.9238 663.9238 664.5336
   664.5336 665.3553 665.3652 665.3652 665.3662 665.3662 665.3771 665.3844
   671.6122 671.6122 671.6196 671.6196 671.7362 671.9756 672.3847 672.4022
   672.4022 672.4109 672.5396 672.5396 672.5639 672.5639 672.5639 672.8583
   672.8787 672.8829 672.9780 672.9780 672.9805 672.9805 673.1697 673.1697
   673.6523 673.6851 673.6851 673.7448 673.7968 673.7968 676.1865 676.1865
   676.1871 676.1871 676.2302 676.2305 679.9837 680.5314 680.6328 680.6328
   680.6499 680.9425 680.9425 681.0294 681.0294 681.1850 681.5473 681.5473
   681.5633 681.6068 681.6068 681.7157 681.8055 681.8055 684.8037 684.8037
   684.8466 684.8466 685.1026 685.1027 685.8882 687.7110 687.7110 687.7493
   688.3186 688.3186 688.9448 689.1371 689.1371 689.5643 689.5643 689.7875
   689.7875 689.9679 689.9730 690.8141 690.8141 690.8152 690.8152 690.8259
   690.8604 690.8635 690.8635 690.9928 690.9928 690.9998 690.9998 691.6093
   691.6279 691.6617 692.7812 692.8328 692.8745 692.8745 695.1677 695.1677
   695.9097 695.9097 695.9279 696.2845 696.2845 696.3585 696.3585 696.4217
   696.4351 696.5379 696.6433 696.6433 696.7818 696.7818 696.9439 697.2506
   697.3083 697.3752 697.3752 697.3888 697.3888 698.1258 698.2523 698.2523
   698.2593 698.2813 698.2813 698.2856 698.3598 698.3598 698.3945 698.3945
   698.4187 698.7015 698.7635 698.7635 702.5865 702.6233 702.6233 702.6902
   702.6902 702.7075 702.7355 702.7355 702.7471 702.7515 702.7515 702.7606
   702.7691 702.7691 702.7767 702.7901 702.7901 702.8109 703.8875 703.9586
   703.9586 705.1034 705.1034 705.7682 706.6972 706.6974 706.6974 706.9989
   708.5330 708.5330 710.0398 710.2907 710.3417 710.3417 710.4595 710.5693
   710.5693 710.7267 710.7472 710.8514 710.8514 710.8945 710.8945 711.1905
   711.2036 711.2036 711.2153 711.2616 711.2616 711.2743 711.2821 711.2821
   711.3058 711.3573 711.3573 712.9070 717.6658 717.6658 717.7244 717.7244
   717.8564 718.3498 718.5285 718.5339 718.5339 718.7445 718.7445 719.2921
   720.7177 720.7177 720.7215 720.7215 722.9752 723.5080 723.5080 723.7550
   724.1786 724.4897 724.4897 724.6469 724.6469 724.6998 725.0202 725.0202
   725.1148 725.1148 725.1791 725.8190 725.8190 726.2125 726.6247 726.6477
   726.6477 726.6619 726.6619 726.6703 727.0708 727.3550 727.3550 727.4389
   727.5996 727.5996 728.0079 728.0079 728.1154 728.1777 728.1777 728.2769
   728.2769 728.2910 728.2910 728.4231 728.4432 728.8183 728.9244 729.0934
   729.0934 729.7428 729.7517 729.7517 730.3084 730.3084 730.3152 730.3152
   730.3772 730.3787 730.6415 730.6437 730.6437 730.7184 730.7184 730.7265
   733.8564 733.9180 733.9180 733.9319 735.3273 735.3273 735.5899 735.5899
   735.7169 736.3349 736.9358 736.9358 737.2650 737.5169 737.5169 737.6285
   737.9088 737.9088 738.6815 738.6815 738.7986 739.1292 739.4420 739.4420
   740.0518 740.0518 740.0732 741.2894 741.2894 741.7677 741.7677 742.0876
   742.1655 742.2170 742.6794 742.6794 742.6836 742.6836 742.6957 742.7034
   743.1586 743.1955 743.1955 743.3908 743.3908 743.7323 743.7323 744.2053
   744.8409 744.8409 745.0890 745.3451 745.5157 745.5176 745.5176 745.7785
   745.7785 745.7992 746.2022 746.2022 746.2335 746.2335 746.2494 746.2590
   746.3875 746.3875 753.9480 753.9683 754.2271 754.2271 754.2741 754.4347
   754.4347 754.4435 754.4435 754.5295 754.5589 755.1198 755.1198 755.1807

          k = 0.0000 0.5000 0.0000 (  4432 PWs)   bands (ev):

   -33.2822 -14.3333 -14.2870 -14.2870  -4.9246   4.0303   5.4495   5.4495
     9.1002  11.1201  11.1419  11.8468  11.8468  14.3375  15.8434  17.4526
    17.4526  17.5064  21.6406  22.1163  24.4704  24.5531  24.5531  27.3061
    27.6171  27.6171  28.6163  32.4030  33.0419  34.0292  34.0292  36.4731
    36.4731  37.4051  40.3082  40.8003  41.1884  42.3370  42.3370  42.7460
    43.3355  43.3355  44.9593  45.6006  45.6006  47.6190  48.2511  48.4035
    49.6683  50.4376  51.4991  54.1644  54.1644  55.6788  56.0899  56.0899
    57.2268  57.2268  57.5713  58.7823  61.0332  61.0332  61.6903  62.3600
    64.1431  64.1431  64.2084  64.2176  65.1965  65.1965  67.3747  69.7213
    69.7323  72.2516  73.6156  73.6674  73.6674  74.8892  74.8892  75.3679
    75.6565  75.8516  76.3945  76.3945  77.2468  80.0562  80.0562  80.1280
    80.3858  83.2805  83.2805  83.4069  85.8296  85.8296  86.4103  87.1058
    87.4816  87.8041  88.9890  89.2582  89.2582  90.4102  90.7470  91.5021
    91.5021  92.4347  92.4347  93.0803  95.3549  96.0566  96.0566  96.4031
    96.6451  96.7328  98.1336  98.1336  98.5766  98.9910  99.4638  99.8205
   100.5297 100.5297 100.7771 100.7799 102.0138 102.0138 103.1689 103.1689
   103.5248 103.7399 103.7399 104.2189 104.5294 105.8882 105.8882 106.0162
   107.6778 110.1538 110.4902 110.4902 110.6742 113.7501 114.2070 114.5088
   115.5052 115.5052 117.1008 118.0227 118.0227 118.4821 118.4821 118.5298
   118.7023 119.8065 119.9662 119.9662 121.8720 121.9179 122.9784 124.8082
   125.1927 125.1927 126.1493 126.1913 126.1913 126.2399 126.7938 128.2563
   129.1761 129.1761 129.6180 129.8732 131.1763 131.9733 132.0277 132.0277
   132.7396 135.0580 135.1873 135.1873 135.6039 138.3497 138.4248 138.4248
   138.5087 139.1549 139.1734 139.1734 140.3814 140.5132 140.5132 141.3881
   142.3453 143.5432 143.5432 144.5756 144.5756 145.1469 145.8006 145.8006
   146.1164 146.3123 146.9458 147.4805 147.8840 147.8840 148.9240 149.5707
   149.5707 150.4319 150.4846 151.1235 151.5428 151.5428 153.6724 153.6724
   153.8712 153.9471 153.9471 154.0254 154.7827 154.9235 154.9235 156.1985
   156.3548 157.0795 157.0795 158.3071 159.2862 159.9324 160.8320 161.1685
   162.9043 162.9043 164.5510 164.9198 165.3515 165.3515 166.7671 166.7671
   166.8258 167.0081 167.6626 167.9269 167.9269 168.4165 169.4645 169.9794
   170.6378 170.9958 170.9958 171.4912 171.6792 171.6792 173.5122 174.1238
   174.2240 174.2240 175.0207 175.1685 175.6518 175.8072 176.0355 176.0355
   176.6453 176.6453 177.0102 177.1037 177.6854 178.0271 178.1630 178.1630
   178.8524 178.8883 178.8883 179.0801 179.6276 179.6833 179.6833 181.5055
   182.4401 182.4401 182.6297 182.8055 182.8055 182.8456 183.0277 183.0916
   183.3421 185.4070 185.4070 186.3198 186.3198 186.8365 188.1567 188.2507
   188.4616 189.2342 189.4930 190.0643 190.0643 191.0822 191.3616 191.3616
   191.3629 192.3422 192.3422 194.1256 194.8173 195.3695 195.3695 198.0090
   198.8874 200.2298 200.2298 200.8553 201.1683 201.5852 201.5852 201.8308
   201.8308 203.1498 203.4187 204.3027 204.3577 204.5787 204.5787 205.4198
   205.8888 207.4866 207.4866 207.7726 208.0171 208.0171 208.6169 209.3685
   209.3685 210.4328 210.7740 210.7775 211.0002 211.0002 211.0422 211.7099
   212.1326 212.1326 212.5827 213.8656 214.0099 214.3969 214.9517 214.9517
   217.0809 217.0809 217.3742 217.7196 218.1320 220.0620 220.0620 220.6925
   221.3866 221.7445 221.7445 222.1394 223.8788 224.1586 224.1586 225.3122
   225.5494 225.5494 226.7351 227.0440 227.0440 228.6396 228.7099 228.8942
   228.9179 228.9179 229.2049 229.3506 229.4742 229.4742 230.9450 230.9450
   231.2057 231.5213 232.1434 232.6640 232.6640 233.3888 233.8351 233.9607
   235.2591 235.2591 235.4462 235.4521 235.4547 235.8756 236.0567 236.0567
   236.2060 236.3179 236.3179 236.9501 237.3179 237.4664 237.5140 237.5140
   237.6241 237.9212 237.9212 239.5111 240.0002 240.6196 240.6595 240.6595
   240.8602 240.9955 240.9955 241.5349 241.9811 242.1714 242.6494 242.6494
   244.1692 244.3553 244.3553 244.9072 245.1803 245.6568 245.6568 246.3365
   246.5088 246.5088 246.9699 247.2868 248.5056 248.6153 248.6153 248.6518
   248.7058 249.1504 249.1504 249.5523 251.1884 251.3400 253.9150 253.9150
   254.4969 256.9651 257.2722 257.3565 257.4347 257.4347 257.4972 257.9683
   257.9683 258.3422 258.7167 259.0294 259.0294 259.1073 259.2486 259.7072
   259.7072 260.9669 261.3488 261.3488 261.6686 261.9867 262.0440 262.0440
   262.0695 262.3518 263.5201 263.5201 265.2211 265.2433 265.2433 265.3332
   265.9667 265.9667 268.1628 268.5070 268.5070 268.9112 269.9175 270.3570
   270.8409 270.9055 271.1224 271.1224 271.7370 272.3776 272.3776 272.4721
   273.0891 273.0891 273.2756 273.5828 273.8915 273.8915 274.1185 274.2928
   274.2928 274.6869 275.9439 276.1105 276.3040 277.2876 277.2876 277.4356
   277.7005 277.8225 277.8225 278.0387 278.8348 279.3176 279.4789 279.4789
   280.4735 280.4965 280.4965 281.4407 284.9416 285.2015 285.2287 285.2287
   285.3783 286.3573 286.3573 286.5651 286.6024 286.8558 286.8558 287.6040
   287.9373 287.9373 288.2074 288.2424 288.8906 289.4674 289.4674 289.8060
   289.8386 290.3787 290.3787 291.3610 291.3992 291.4335 291.5438 291.5438
   291.9094 292.4817 292.9003 292.9003 293.2600 293.2650 293.2650 293.3236
   293.7249 294.8975 294.8975 295.0812 295.5020 295.5020 295.9154 297.4475
   297.4475 298.2295 298.3007 299.6632 299.8855 299.9803 299.9803 300.0612
   301.1367 302.9782 304.2904 304.2904 305.5178 305.6536 305.6536 306.0529
   306.1701 306.4552 306.4552 306.9725 308.1791 309.8012 312.4302 312.4302
   312.8201 312.8226 313.8692 313.8692 313.9356 313.9356 314.0213 314.0457
   314.2569 314.7044 314.7044 315.0676 315.1174 316.1449 316.6764 316.6916
   316.7065 316.7065 317.5092 317.7014 317.7014 318.2150 318.4787 318.7725
   318.8403 318.8403 318.9100 319.0341 319.0673 319.0673 319.5311 319.9965
   319.9965 320.4528 320.7162 320.7162 320.7899 320.8498 320.8904 321.1101
   321.1101 321.9253 323.4226 323.4226 323.5505 323.5625 323.6357 323.6357
   323.9237 324.2320 324.3411 325.2188 325.7822 325.7822 326.7186 327.8828
   328.1890 328.1890 329.4817 329.8540 329.8540 330.1182 334.0943 334.5541
   334.5541 335.3576 335.9011 335.9011 336.6649 336.8584 337.0599 337.0599
   337.1902 337.3346 337.3346 337.3747 337.4797 337.7517 337.7517 337.7849
   337.9758 338.2797 338.2797 338.3236 338.3313 338.3513 338.3829 338.3829
   341.0403 341.2621 341.2621 341.3881 341.7726 342.1391 342.1391 342.5092
   343.3476 343.3476 343.7691 344.1202 344.2459 344.2466 344.2466 344.6650
   344.7499 345.7655 345.7655 345.8065 346.0236 348.1106 348.3054 348.3054
   348.5122 348.8995 348.8995 349.1514 349.3990 349.6745 349.6896 349.6896
   349.9006 350.0800 350.0838 350.0838 350.5189 351.0953 351.7787 352.3613
   352.3613 352.5071 352.5071 352.6955 353.7901 353.8871 354.8623 354.8623
   355.4425 355.4425 355.6905 356.0611 356.1001 356.5968 357.3372 357.3372
   357.5133 358.9437 359.7933 360.2637 360.2637 360.5060 361.0817 361.3506
   361.9703 361.9703 362.9680 362.9680 362.9869 363.2664 363.6856 363.9311
   363.9545 363.9545 364.2061 364.2061 364.9470 365.1932 365.3801 365.4168
   365.4833 365.4833 365.5640 365.6544 365.7412 365.7412 366.9460 366.9460
   368.0649 368.0980 368.0980 368.1176 368.7887 369.2188 369.2188 369.2394
   369.2855 369.3865 369.3865 369.5166 369.6331 369.6331 369.8457 369.9203
   371.8287 373.0427 373.0427 373.6314 373.7055 373.8301 374.3298 374.3298
   374.4293 375.9842 375.9964 376.0518 376.0518 376.1195 376.2080 376.2196
   376.2196 376.3721 376.7751 376.8923 376.9484 376.9484 376.9840 376.9840
   377.0242 377.0584 378.7539 378.8676 378.8676 379.0925 379.3674 379.3674
   379.4092 379.4677 379.5450 379.5450 380.8955 381.0858 381.3975 381.3975
   381.5636 384.2826 384.3994 384.4391 384.4391 385.9089 387.1061 387.1061
   387.9810 388.3179 388.7557 388.7557 388.9492 390.8680 391.0787 391.6927
   391.6927 392.0759 392.2803 392.2803 392.3096 392.4216 392.5403 392.9957
   394.1020 394.1020 394.3176 394.3176 394.4592 394.4725 395.0130 397.7540
   397.7540 399.4162 399.4162 399.8457 399.8464 400.4208 400.4208 400.7168
   401.0092 401.2440 401.8365 401.9174 402.1954 402.1954 402.4616 402.6983
   402.8981 402.8981 403.0427 403.2222 403.2622 403.2691 403.2691 403.5237
   404.3975 404.3975 404.7464 406.0882 406.0882 406.5328 407.3177 407.4789
   408.0158 408.0158 408.4088 408.8369 408.9283 408.9283 409.2383 409.5474
   409.5474 409.5529 409.7961 410.2551 411.7175 411.7175 412.3318 413.0651
   413.0651 414.2195 414.2493 414.2493 414.2857 414.6071 414.6400 415.2151
   415.5732 416.0032 416.0032 416.3584 416.5652 416.5652 417.4461 418.5003
   418.6582 418.7533 418.7533 419.1869 419.4664 419.4664 419.4879 419.5502
   419.9201 419.9326 419.9326 420.0341 420.2039 420.2039 420.2049 421.0642
   421.0642 421.6588 421.8514 421.8514 421.8924 423.4968 423.5609 423.5609
   423.6434 424.4925 424.7860 424.9025 424.9025 424.9943 425.5759 425.6406
   425.6406 425.6802 426.4823 426.4823 426.9221 427.0681 427.2487 427.3957
   427.3957 427.6902 427.6902 427.7095 428.1372 428.3525 428.3525 428.4166
   428.4666 431.3661 431.5386 431.5386 431.6401 431.8628 432.0681 432.0681
   432.1713 433.4626 434.5582 434.6318 434.6318 434.6684 436.3445 437.1822
   437.2340 437.7353 437.7353 437.8005 438.0370 438.0370 438.5875 438.6821
   438.7308 438.7308 439.3597 439.3597 439.4778 439.5006 439.7554 440.1519
   440.9059 441.1792 441.1792 441.2065 441.8777 441.8777 442.5538 443.0933
   443.9106 443.9106 444.6538 446.0707 448.3325 448.3325 448.3871 448.8052
   448.9781 449.0258 449.0258 449.0723 449.1420 449.2806 449.2806 449.4135
   449.4135 449.5634 449.6075 449.6075 449.6813 451.9893 452.3036 452.3036
   452.6635 454.6964 455.2126 455.2126 455.6390 455.7062 455.7313 456.0971
   456.0971 456.1789 456.3033 456.3729 456.3811 456.3811 456.9237 457.4575
   457.4575 457.7427 458.2919 458.3097 458.3503 458.3503 458.3931 458.6311
   458.6311 458.6740 459.7500 461.1306 461.3046 461.3557 461.3557 462.6771
   462.6771 463.1952 463.4954 463.4954 464.0571 464.0769 464.1046 464.2020
   464.3383 464.3383 464.5046 465.7100 465.7100 465.8257 465.9323 465.9323
   465.9545 466.0435 467.0111 467.0358 467.0358 467.1024 469.4970 469.4970
   469.5367 469.9227 470.0318 470.0318 470.1181 470.3097 471.2740 471.3625
   471.3625 471.4090 471.9735 472.2021 472.2021 472.3486 472.3595 473.1354
   473.1354 473.2649 473.6732 474.1782 474.1986 474.1986 474.3493 474.5271
   475.0494 475.0494 475.5774 476.2122 476.2122 476.8324 477.9273 478.3491
   478.6136 478.6136 478.7509 479.3305 479.3305 479.7746 479.7746 479.9581
   480.4604 481.3024 481.4459 481.5352 481.5907 481.5907 481.7086 481.8856
   482.1104 482.1104 482.7397 482.8780 482.9219 483.2649 483.2649 483.4699
   483.5800 483.5800 483.8927 483.9046 483.9046 483.9609 484.9701 485.2328
   485.2328 485.4396 486.7886 486.8360 486.9565 486.9565 486.9747 487.0097
   487.1944 487.1944 487.9077 487.9142 487.9322 487.9322 487.9544 487.9544
   487.9628 487.9815 488.2027 489.6048 489.6048 489.6504 489.6504 489.7118
   489.8975 489.8975 490.5934 491.7061 492.0085 492.0085 492.4490 493.4118
   494.6547 494.6547 494.7058 495.1013 495.3694 495.4624 495.5139 495.5139
   495.5472 495.8587 495.8587 496.0445 496.1339 496.1925 496.1925 496.2137
   500.1234 500.4710 500.7947 500.7947 501.0594 501.7797 501.8641 501.8755
   501.8755 502.1078 502.1078 502.4206 502.4608 502.5307 502.5473 502.5473
   502.8683 503.0413 503.2158 503.2158 503.2585 503.4711 503.4711 503.6563
   503.7585 503.9804 503.9804 504.0103 504.0183 504.0527 504.0527 504.1078
   504.3506 504.3979 504.4092 504.4092 504.9625 505.0119 505.0119 505.1034
   506.4986 506.8131 506.8131 506.8360 506.8903 506.8903 507.0091 507.0639
   509.8980 510.1622 510.2078 510.2078 510.5867 510.7523 510.9134 510.9134
   513.0255 513.0255 513.1070 513.1814 513.1814 513.3676 513.4249 513.6574
   513.7038 513.7038 513.8372 513.8631 513.9050 513.9050 513.9135 514.0824
   514.0824 514.3847 515.6872 515.7109 515.7109 515.7143 516.5899 516.8745
   516.8745 517.0521 517.2045 518.6758 518.6758 519.4787 519.6094 519.8431
   519.8431 520.1446 521.1172 521.2656 521.2656 521.6872 522.3264 522.3305
[...]
   176.5617 179.7392 179.7392 180.0998 180.0998 180.7311 180.9122 180.9763
   180.9763 181.3356 181.3356 181.6091 183.6948 183.6948 183.8203 184.3244
   185.0671 185.2335 185.7260 186.7923 186.7923 189.3429 189.6005 189.6005
   191.5515 192.3886 192.3886 192.4002 192.6523 192.7905 194.1885 194.6716
   194.8058 194.8115 194.8115 195.1905 195.1915 195.5281 195.5281 195.6127
   195.7182 195.7182 196.7142 196.8403 196.8403 197.3056 197.8345 197.8345
   198.2827 198.5753 198.5753 200.4047 200.5371 200.9289 200.9289 201.2031
   201.2831 202.0286 202.0972 202.1567 202.1567 202.5394 202.7416 202.9822
   202.9822 203.2964 203.3494 203.3494 204.2891 207.1784 207.1784 207.8305
   208.7540 208.7540 208.8278 210.7589 211.4764 211.9448 211.9448 212.0001
   212.3881 212.3881 212.4793 212.7367 213.0257 213.2431 213.2818 213.2818
   213.7078 213.9637 213.9637 215.0713 215.8798 215.8798 216.9027 216.9027
   216.9462 217.0585 217.2500 217.2853 218.3646 218.4705 218.5680 218.5680
   220.8039 220.8039 221.7501 222.2885 222.4812 222.4812 222.5579 222.7413
   225.6677 226.0572 226.0572 226.5483 226.6684 227.3115 227.3705 227.3705
   227.9736 228.1376 228.6515 228.6515 228.7244 228.9334 229.5342 229.8236
   229.8236 229.9686 230.9244 230.9244 231.8431 233.0622 233.0622 234.0338
   234.1633 234.3371 235.4229 235.4229 236.0623 237.2855 237.2855 237.6730
   237.7663 237.7663 237.8809 238.9833 239.1015 240.0306 242.4941 242.4941
   243.6487 243.6487 244.5639 245.6313 246.0529 246.9924 247.1021 247.1021
   247.6662 248.0033 248.6519 248.6519 248.7789 248.9726 249.0508 249.1948
   249.5303 249.5303 249.9468 250.0049 250.0529 250.0529 250.7638 250.7669
   250.7669 250.9564 251.2453 251.3139 251.3436 251.3526 251.3526 251.8354
   251.8354 253.0905 255.7056 255.7346 257.2010 257.2010 257.6771 258.5907
   258.8320 258.8320 260.6045 261.1678 261.1678 261.8491 261.9685 261.9685
   262.5002 263.2246 263.3491 263.3491 263.8541 264.0004 264.0004 264.2122
   264.3841 265.4241 265.8772 265.8772 265.8939 267.0284 267.0738 267.0738
   267.8696 267.8891 267.8891 268.2338 268.3914 269.5630 270.0428 270.0428
   270.1813 270.4750 270.4750 270.6246 272.0228 272.0228 272.2482 272.6444
   272.6757 272.8209 272.8209 273.2707 273.5558 274.2051 274.3314 274.3314
   275.3324 275.3699 275.3699 275.6964 275.6964 275.7108 275.9488 276.2527
   276.6943 278.2054 278.2054 278.5081 280.8218 280.8218 281.9248 281.9586
   285.8923 285.9361 285.9361 286.5319 286.6379 286.7858 287.2870 287.2870
   289.4946 289.8118 289.8118 290.2044 290.6222 290.7219 290.8754 290.9734
   290.9734 291.3102 291.8073 291.8073 292.4954 292.4954 293.1190 293.1190
   293.1985 293.6899 294.0135 294.2826 294.7936 294.8014 294.8275 294.8275
   295.8522 295.8522 296.1287 296.2937 296.3216 296.3216 296.3896 296.9955
   297.7960 297.7960 297.9541 298.1105 298.4944 298.5296 298.5296 299.6597
   302.0956 302.1139 302.1769 302.1769 303.8877 304.4525 304.4525 304.6890
   304.7860 305.0035 305.0035 305.0213 305.0330 305.0906 305.2895 305.2895
   305.4676 305.6343 305.8086 305.8086 306.3177 306.8094 306.8094 306.9594
   307.0488 307.1832 307.2074 307.2074 308.4779 308.6239 308.6239 308.9563
   309.9888 310.0045 310.0126 310.0126 310.6489 310.6853 311.2272 311.2272
   311.3402 311.5704 312.2414 312.2414 313.2174 313.5351 313.6010 313.6010
   313.8510 315.2358 316.0386 316.0386 316.7485 316.7831 319.0430 319.2031
   319.2031 319.2487 320.0479 320.0479 320.5538 320.6176 320.6222 321.5431
   321.5431 322.7305 322.7989 322.7989 323.0135 323.4502 324.0999 324.0999
   324.1394 324.2806 324.3373 324.3373 324.7257 324.7831 325.2158 326.1083
   326.1150 326.1970 326.1970 326.8042 326.8440 326.8440 327.7355 328.4714
   328.4714 328.9765 329.7540 330.1143 330.4999 330.4999 332.2588 332.2588
   332.2694 332.4608 332.6945 332.6945 332.7439 332.9524 333.9538 334.0089
   334.0348 334.0348 334.1629 334.1894 334.1894 334.4249 335.5876 335.5876
   336.9983 336.9983 337.1393 337.1436 338.8727 339.1149 339.1149 340.0491
   341.3806 341.3806 342.1195 342.1507 342.3186 342.3736 342.3736 343.1203
   343.2428 343.2563 343.2563 343.3396 343.6751 343.7071 343.7293 343.7293
   345.0125 346.0828 346.0828 347.3000 347.4427 347.5001 347.5001 347.8687
   349.9097 350.0571 350.1138 350.2199 350.2199 350.5459 350.5459 351.8738
   353.2290 353.5310 353.5310 353.6524 354.8616 354.8616 355.1141 355.1141
   355.6002 355.7557 355.7810 355.8737 356.1155 356.1185 356.1389 356.1389
   357.2036 358.6100 359.0482 359.0657 359.0657 359.9223 360.0222 360.0222
   363.4976 363.4976 363.7947 363.9802 364.1406 364.2144 365.5817 365.5817
   365.7123 365.7123 366.2050 366.2536 366.4742 366.4742 366.5585 367.1525
   367.6093 367.8097 367.8900 367.8900 368.8205 369.0838 369.0838 369.5925
   370.1741 370.2586 370.3465 370.3465 375.2528 376.1076 376.1076 376.4290
   376.4847 376.8826 376.8826 376.8972 377.5516 377.5683 377.5683 377.6790
   377.7483 377.8190 377.8190 377.9775 378.1046 378.6295 378.6295 378.9926
   379.7793 379.8442 379.8442 379.8965 380.0957 380.9696 381.7121 381.7121
   381.9475 382.3892 383.1847 383.1847 384.2776 384.5837 384.9806 384.9806
   385.7311 385.8186 385.8468 385.8468 386.5540 386.8701 386.9430 387.1887
   387.2935 387.2935 387.6174 387.6174 387.7262 387.7646 387.7646 388.0213
   388.3189 388.3483 388.3891 388.3891 388.6589 388.6606 388.6784 388.6784
   388.6819 388.7867 388.7867 388.8338 389.2624 389.2624 389.3018 389.3413
   389.5285 389.6560 389.6560 389.7798 392.2718 392.3618 392.3618 392.3815
   395.4951 395.4951 395.5659 395.6694 395.7612 396.0577 396.0577 396.0977
   396.4699 397.2171 397.3578 397.3803 397.3803 397.5157 397.7042 397.7749
   397.7749 398.0174 398.3192 398.3999 398.3999 398.7170 399.2193 399.3546
   399.3971 399.4316 399.4316 399.4363 399.5039 399.5039 401.3029 401.7314
   401.7314 402.4266 402.6101 402.8364 403.0648 403.0772 403.0772 403.8306
   404.0085 404.0085 406.7722 406.7722 407.8343 408.0553 410.9822 410.9822
   411.2484 411.3581 411.4247 411.4247 411.9260 412.4968 412.5193 412.5193
   413.1631 413.2331 414.2556 414.6370 414.6798 414.6798 415.4762 415.5219
   415.5219 415.5495 416.1290 416.1737 416.2421 416.2421 416.7049 416.7307
   416.7307 416.8539 416.8658 417.0781 417.0781 417.2176 417.7916 417.8085
   417.8976 417.9193 417.9316 417.9316 417.9706 417.9706 418.6764 418.6764
   420.4589 420.6719 420.8330 420.8330 423.7961 424.0024 424.2385 424.2385
   424.2563 424.3654 424.3654 424.6723 427.5605 427.5605 428.2693 428.3879
   429.0701 429.0701 429.0715 429.1687 429.2352 429.2352 429.7407 430.2527
   431.2502 431.3644 431.3644 431.6224 431.8423 431.9985 431.9985 432.1795
   433.3664 433.3664 433.7400 433.7873 433.9299 434.0862 434.0862 434.2308
   434.8780 435.0800 435.0800 435.0892 435.1939 435.2095 435.3274 435.3274
   437.4632 437.4632 437.5154 437.6025 438.4514 438.4514 438.6011 438.7659
   438.7782 438.7782 438.8915 438.9262 438.9637 439.2111 439.4332 439.4332
   439.7313 439.9125 440.2934 440.2934 441.6525 441.8897 441.8897 442.1736
   442.6724 442.6835 443.1520 443.2736 443.2736 443.3065 443.3890 443.3890
   443.6350 443.7758 443.7915 443.8518 443.8518 443.8775 443.9139 443.9139
   443.9651 444.2236 444.2236 444.2285 444.2436 444.2478 444.2725 444.2725
   444.4081 444.4794 444.4794 444.4986 444.5468 445.3648 445.7741 445.7741
   450.3428 450.3912 450.7611 450.7611 454.9651 454.9994 454.9994 455.0271
   455.0341 455.0448 455.0563 455.0563 456.9501 457.3465 457.3465 457.4804
   458.9993 459.0504 459.6040 459.6040 459.9866 459.9866 460.0385 460.8946
   461.9342 461.9854 461.9854 462.1188 462.2046 462.3361 462.3684 462.3684
   462.6316 462.6316 462.6991 462.7434 463.1143 463.1143 463.2439 463.3025
   464.5450 464.6431 464.6556 464.6556 466.4669 466.5441 466.5441 466.8488
   467.5045 467.6394 467.7403 467.7403 467.7658 468.1928 468.1928 468.3372
   469.8655 470.0661 470.0661 470.4955 470.6989 470.7000 470.7750 470.7750
   471.0211 471.0231 471.3864 471.3864 471.6358 471.6358 471.6557 471.6838
   472.4545 472.4545 472.4749 472.4891 472.5794 472.5946 472.5946 472.6522
   473.8368 474.1917 474.4104 474.4104 476.2320 476.2420 476.2643 476.2643
   479.0753 479.3099 479.3099 479.8637 479.9087 479.9759 479.9870 480.0779
   480.0779 480.1009 480.1849 480.1849 481.6276 481.6405 481.6405 481.6582
   481.8160 481.9458 481.9458 482.0405 482.5195 483.3349 483.6926 483.6926
   483.7186 483.7844 484.0016 484.0016 490.0797 490.0797 490.0940 490.1058
   490.2408 490.2428 490.2545 490.2545 490.3065 490.5720 490.6060 491.3347
   491.4437 491.4437 493.5629 493.5629 493.5793 493.8691 493.9013 493.9013
   493.9044 494.5388 494.5488 494.5629 494.6066 494.6066 494.7234 494.9857
   495.7211 495.7211 495.7704 496.4631 496.5066 496.5066 496.6762 496.9475
   496.9475 497.2292 497.3567 497.7860 497.7860 497.8723 498.9202 498.9202
   498.9813 499.0967 499.2524 499.3615 499.3615 499.3644 499.4783 499.4783
   499.4807 499.5166 499.7145 499.7145 499.7162 499.7367 503.5483 503.5483
   503.5514 503.5599 505.8548 506.1684 506.1684 506.2124 506.5142 506.9980
   507.0471 507.3729 507.3729 508.4905 508.4905 508.5458 509.3695 510.0453
   510.0453 510.1237 510.9123 510.9123 512.7686 513.2789 513.3500 513.4492
   513.4492 513.6974 514.0285 514.0285 515.0625 515.1869 515.1869 515.9505
   515.9505 516.0637 516.2386 516.8895 519.7858 519.7858 520.7769 521.1812
   521.4641 521.4641 521.8061 521.9758 522.1894 522.1894 522.4294 522.4718
   522.5268 522.5268 522.5682 523.0189 523.8619 524.0026 524.0026 524.4174
   524.6644 524.9277 525.2284 525.2284 525.4796 525.4796 525.8391 526.1117
   526.1117 526.1583 526.2578 526.2667 526.7591 526.9216 527.0220 527.0794
   527.0794 527.1728 527.2274 527.2274 527.2883 527.3021 527.3400 527.3400
   527.3898 527.4798 527.4798 527.5330 527.6818 527.7960 527.7960 527.9325
   528.0922 528.0980 528.1892 528.1892 528.4329 528.5042 528.5042 528.5444
   530.5617 530.5617 531.0081 531.4337 531.4445 531.4447 531.8893 531.9047
   532.0843 532.0843 532.7046 532.7046 533.8915 534.6171 534.6171 535.0696
   535.1195 535.1629 535.2593 535.2593 535.8953 535.9379 535.9379 536.1736
   536.1918 536.1957 536.1957 536.2242 536.7719 536.7719 536.8950 536.9608
   536.9677 536.9775 536.9775 537.0063 539.2948 539.3866 540.9379 541.1058
   541.1058 542.0175 542.0175 542.5320 543.3120 543.6049 543.7187 543.7187
   544.2596 544.3154 544.6464 544.6464 544.7790 544.8859 544.8859 544.9792
   545.1502 545.4745 545.4823 545.4823 545.6775 545.7173 545.7771 545.7771
   546.1112 546.1112 546.1488 546.3204 546.3283 546.3750 546.3750 546.7124
   546.9149 546.9956 547.0891 547.1254 547.1254 547.2436 547.2436 547.2474
   548.0675 548.5333 548.5333 548.5568 549.6722 549.6722 549.8852 550.1175
   554.1657 554.1942 554.2631 554.2631 554.2666 554.2676 554.4387 554.4387
   554.4521 554.5235 554.5296 554.5296 554.5861 554.7436 554.7855 554.7855
   558.8510 558.8523 558.8616 558.8616 559.1034 559.1223 559.1257 559.1257
   561.4030 561.4905 561.5021 561.5021 562.6057 562.6831 562.8751 562.8751
   562.9062 563.1884 563.1884 563.3747 563.6644 563.7926 563.8268 563.8381
   563.8381 563.8531 563.9099 564.2010 564.2010 564.4177 564.4734 564.4734
   567.2047 567.7475 567.7475 567.7833 567.9985 568.7827 569.5020 569.5020
   570.3385 570.3529 570.5192 570.5192 571.2703 571.3522 571.4701 571.4701
   571.4778 571.6161 571.6161 571.8850 572.2106 572.3242 572.4274 572.4274
   572.5010 572.9559 572.9559 572.9584 573.0008 573.1510 573.1510 573.5070
   575.0709 575.8179 575.8179 576.2036 576.2275 576.2275 576.3934 576.4850
   578.7097 578.7411 578.7411 578.8556 578.9552 579.9336 579.9614 579.9614
   579.9959 580.3139 580.3139 580.5588 581.1591 581.3352 581.4546 581.4656
   581.5333 581.5333 581.7038 581.7038 583.1931 583.1931 583.2041 583.2111
   583.6254 583.6710 583.8141 583.8141 584.0441 584.0692 584.0755 584.0755
   584.1172 584.1362 584.1755 584.1755 584.2032 584.2117 584.2117 584.2161
   584.3638 584.3880 584.5187 584.5187 586.1665 586.1723 586.2797 586.2797
   586.8859 586.8859 586.9991 587.0002 589.4045 589.5800 589.5800 589.6880
   589.9158 589.9444 589.9671 590.0165 590.0165 590.2226 591.0171 591.0171
   591.2484 591.3010 591.4209 591.4209 591.5592 592.2430 592.3161 592.3400
   592.3416 592.3572 592.3572 592.4015 592.4015 594.2616 595.0784 595.1981
   595.1981 595.2739 598.1709 598.1709 598.3889 598.5502 598.5998 598.9937
   598.9937 599.8653 600.0934 600.0934 600.2084 600.2084 600.2719 600.2762
   600.3197 600.5786 600.8694 600.9008 600.9008 600.9052 601.1180 601.2126
   601.5875 601.6093 601.6093 601.6456 601.6576 601.6576 601.6757 601.6977
   601.8504 601.8504 605.3303 605.3372 605.3387 605.3387 606.4125 606.7351
   607.0214 607.0214 608.7135 608.7135 608.7313 608.9445 608.9445 609.2329
   609.2693 609.5205 609.9920 610.0141 610.0584 610.0966 610.0966 610.6423
   610.6423 610.7013 612.7028 612.7028 614.1911 614.1911 614.5017 615.3994
   616.3561 616.6494 616.6494 618.2928 618.7320 618.7359 619.1361 619.1361
   619.5136 619.5136 619.5933 619.8689 619.8767 619.9296 619.9296 619.9960
   620.0007 620.0007 620.1228 620.3847 621.6206 622.2031 622.4462 622.4462
   622.4831 622.7099 622.7099 622.9828 623.6649 623.6649 623.7448 623.9959
   624.6875 624.7138 625.0882 625.0882 625.5140 625.5447 625.5651 625.5651
   625.8865 626.9992 626.9992 627.1203 627.8750 627.9086 627.9094 627.9094
   627.9604 627.9835 627.9835 627.9992 628.6890 628.6943 628.6946 628.6946
   628.7606 628.8005 628.8005 628.8075 629.0485 629.0625 629.0641 629.0641
   629.4216 629.4674 629.6120 629.6120 632.0651 632.0651 632.7176 632.7184
   632.7432 632.7432 633.1289 633.1307 635.2633 635.4146 635.4146 635.7103
   637.0964 637.5282 637.5930 637.5930 638.0744 638.1165 638.1616 638.1616
   638.4114 638.4217 638.4272 638.4272 638.6961 638.7207 638.7207 638.7606
   638.8810 638.8834 638.9043 638.9043 639.0173 639.0330 639.0330 639.3404
   639.5140 639.6581 639.6888 639.6888 639.7036 639.7340 639.9187 639.9187
   642.5989 642.5989 642.7009 642.7017 642.7398 642.8255 643.0500 643.1159
   643.1159 643.9232 644.4429 644.8002 644.8002 644.9224 644.9224 645.7438
   646.4575 646.8417 646.8435 646.8435 646.8624 646.9760 647.3928 647.3928
   647.7446 647.9607 649.0562 649.0562 650.1156 650.1156 650.1429 650.3059
   651.8664 652.7003 654.9476 654.9476 654.9575 655.3965 655.7196 655.7196
   655.9724 656.1534 656.1679 656.1679 656.3616 656.3757 656.3757 656.3757
   656.8902 656.8903 656.8927 656.8927 657.1971 657.1971 657.2061 657.2393
   657.2394 657.7743 658.3699 658.3699 659.8641 659.9556 659.9556 659.9971
   661.7818 661.8450 661.8646 661.8646 662.9618 663.5289 663.5289 663.9899
   664.0111 664.3059 664.3059 664.3734 664.4384 664.7305 664.7305 664.8679
   664.9255 664.9255 665.0727 665.1878 665.3414 665.5233 665.5299 665.5299
   665.6052 665.6796 665.6796 665.6860 665.6953 665.8419 665.8616 665.9857
   665.9857 666.3094 666.3094 666.5112 666.5196 666.5248 666.5248 666.5446
   666.8217 667.0779 667.0779 667.1163 667.9414 668.0014 668.0014 668.0210
   669.3287 669.3287 669.3396 669.5327 671.3532 671.3999 671.3999 671.4429
   673.2934 673.2990 673.2990 673.3618 673.4020 673.5424 674.3072 674.3072
   675.6498 675.6559 675.6986 675.6986 676.2631 676.2687 676.2750 676.2750
   676.8976 677.4127 677.4127 678.6138 679.2082 679.2104 679.3215 679.3215
   679.3544 679.3936 679.4109 679.4109 679.9332 680.1508 680.5169 680.5169
   680.5410 680.9244 681.1181 681.1181 682.3846 682.8871 683.2496 683.2496
   683.8021 683.8542 683.8608 683.8608 686.6611 686.6992 686.9230 686.9230
   688.2760 688.2760 688.3470 688.3514 688.7817 689.7318 689.7318 690.2840
   690.3322 690.5590 690.5590 690.6316 690.7102 691.2830 691.2830 692.1898
   692.2709 692.2709 692.2969 692.4769 692.5081 693.0222 693.0222 693.1201
   693.1201 693.1479 693.1479 693.1678 693.1910 693.2328 693.2328 693.3246
   693.3388 693.3388 693.3413 693.3813 693.5111 693.6295 693.6295 693.6802
   694.4414 694.6009 694.8230 694.8230 694.9795 695.0170 695.0510 695.0510
   695.1144 695.9221 695.9579 695.9579 696.0118 696.0285 696.6068 696.6068
   699.1466 699.2398 699.8965 699.8965 700.7166 700.7814 700.8091 700.8091
   701.0672 701.1612 701.1612 701.1640 701.2078 701.3443 701.7782 701.7782
   702.1119 702.5203 702.5531 702.9609 702.9609 705.5617 707.0227 707.0870
   707.1424 707.1424 707.3846 708.8606 708.8606 709.2312 709.2842 709.8619
   710.1826 710.1826 710.4982 710.4982 710.5439 710.6551 710.8118 710.8118
   711.0985 711.4678 711.5092 711.5092 711.5288 711.8819 712.0022 712.0022
   712.0257 712.0321 712.0527 712.1129 712.1326 712.1495 712.1495 712.3175
   712.3253 712.3253 712.3510 712.4599 712.4685 712.4799 712.4799 712.5862
   712.6001 712.6001 712.6806 712.6892 712.6916 712.6916 712.9059 713.1157
   713.1157 713.1242 713.1254 713.3764 713.3764 713.3823 715.2868 715.3544
   715.3544 715.4663 715.6983 715.6983 715.7038 715.7092 716.0738 716.1048
   716.7300 716.7300 716.7914 716.8938 717.0061 717.0061 717.4135 717.6036
   717.6036 717.6149 717.6172 717.9380 717.9380 718.1729 718.7649 718.8327
   718.8327 718.8882 719.1436 719.7984 719.7984 719.8829 719.8829 720.0562
   720.1470 720.4671 720.4671 720.5565 720.5950 720.5974 720.7828 720.7968
   720.8371 720.8725 720.8725 721.0016 721.0016 721.1235 721.1552 721.1656
   721.2482 721.2482 721.3627 721.5043 721.5043 721.6243 721.6283 721.6283
   721.6431 721.7447 721.7635 721.7635 721.8048 721.8198 723.8724 723.8724
   725.3496 725.3501 725.3501 725.3502 725.9576 725.9579 725.9579 725.9584
   727.7636 727.8123 727.8123 728.1113 729.4845 729.6136 729.9785 729.9785
   730.1119 730.1564 730.2523 730.2523 730.4939 730.4939 730.5066 730.5214
   730.5265 730.6259 730.9882 730.9882 731.9916 731.9966 731.9979 732.0001
   732.0001 732.0211 732.0775 732.0775 732.8615 732.8615 735.2254 736.0653
   738.7524 738.7904 738.7904 738.8155 738.8262 739.0683 739.0683 739.3796
   739.4085 739.4302 739.4876 739.4876 739.5024 739.7428 739.9569 739.9569
   740.1115 740.1115 740.1242 740.1296 740.6697 740.6697 740.6958 740.9641
   743.0331 743.0331 744.0271 744.0276 744.5667 745.2561 745.3037 745.3037
   747.2703 747.2926 747.2926 747.3804 747.3862 747.4669 747.4669 748.1160
   748.3548 748.4323 748.5374 748.5500 748.5500 748.5774 748.8822 748.8822

     the Fermi energy is     6.6939 ev
     (compare with:     7.6056 eV, computed in scf)

     Writing all to output data dir out/mp-1672.save/
 
     init_run     :      0.07s CPU      0.09s WALL (       1 calls)
     electrons    :   4232.33s CPU   4539.25s WALL (       1 calls)

     Called by init_run:
     wfcinit      :      0.00s CPU      0.00s WALL (       1 calls)
     potinit      :      0.01s CPU      0.02s WALL (       1 calls)
     hinit0       :      0.03s CPU      0.03s WALL (       1 calls)

     Called by electrons:
     c_bands      :   4232.32s CPU   4539.24s WALL (       1 calls)
     v_of_rho     :      0.01s CPU      0.01s WALL (       1 calls)

     Called by c_bands:
     init_us_2    :      0.00s CPU      0.00s WALL (       8 calls)
     init_us_2:cp :      0.00s CPU      0.00s WALL (       8 calls)
     paro_k       :   4093.93s CPU   4390.18s WALL (       8 calls)

     Called by paro_*:
     h_psi        :     34.52s CPU     35.59s WALL (    1359 calls)
     g_psi        :      0.59s CPU      0.68s WALL (  142472 calls)

     Called by h_psi:
     h_psi:calbec :      0.59s CPU      0.61s WALL (    1359 calls)
     vloc_psi     :     33.28s CPU     34.30s WALL (    1359 calls)
     add_vuspsi   :      0.45s CPU      0.45s WALL (    1359 calls)

     General routines
     calbec       :      0.59s CPU      0.61s WALL (    1359 calls)
     fft          :      0.00s CPU      0.01s WALL (      10 calls)
     fftw         :     30.21s CPU     31.11s WALL (  233296 calls)
 
     Parallel routines
 
     PWSCF        :      1h10m CPU      1h15m WALL

 
   This run was terminated on:  17:43: 6  17Nov2023            

=------------------------------------------------------------------------------=
   JOB DONE.
=------------------------------------------------------------------------------=
