
     Program PWSCF v.7.1 starts on 18Nov2023 at  5: 1:51 

     This program is part of the open-source Quantum ESPRESSO suite
     for quantum simulation of materials; please cite
         "P. Giannozzi et al., J. Phys.:Condens. Matter 21 395502 (2009);
         "P. Giannozzi et al., J. Phys.:Condens. Matter 29 465901 (2017);
         "P. Giannozzi et al., J. Chem. Phys. 152 154105 (2020);
          URL http://www.quantum-espresso.org", 
     in publications or presentations arising from this work. More details at
     http://www.quantum-espresso.org/quote

     Parallel version (MPI), running on    24 processors

     MPI processes distributed on     1 nodes
     123027 MiB available memory on the printing compute node when the environment starts
 
     Reading input from pw_mp-1672_nscf_k690_E89.in
Warning: card &IONS ignored
Warning: card / ignored
Warning: card &CELL ignored
Warning: card / ignored

     Current dimensions of program PWSCF are:
     Max number of different atomic species (ntypx) = 10
     Max number of k-points (npk) =  40000
     Max angular momentum in pseudopotentials (lmaxx) =  4

     Atomic positions and unit cell read from directory:
     out/mp-1672.save/
     Atomic positions from file used, from input discarded
 
 
     R & G space division:  proc/nbgrp/npool/nimage =      24
     Subspace diagonalization in iterative solution of the eigenvalue problem:
     one sub-group per band group will be used
     scalapack distributed-memory algorithm (size of sub-group:  4*  4 procs)

 
     Parallelization info
     --------------------
     sticks:   dense  smooth     PW     G-vecs:    dense   smooth      PW
     Min          59      59     17                 1481     1481     232
     Max          60      60     18                 1485     1485     235
     Sum        1417    1417    421                35557    35557    5601
 
     Using Slab Decomposition
 


     bravais-lattice index     =            2
     lattice parameter (alat)  =      10.7804  a.u.
     unit-cell volume          =     313.2175 (a.u.)^3
     number of atoms/cell      =            2
     number of atomic types    =            2
     number of electrons       =        16.00
     number of Kohn-Sham states=         1112
     kinetic-energy cutoff     =      89.0000  Ry
     charge density cutoff     =     356.0000  Ry
     Exchange-correlation= PBE
                           (   1   4   3   4   0   0   0)

     celldm(1)=  10.780412  celldm(2)=   0.000000  celldm(3)=   0.000000
     celldm(4)=   0.000000  celldm(5)=   0.000000  celldm(6)=   0.000000

     crystal axes: (cart. coord. in units of alat)
               a(1) = (  -0.500000   0.000000   0.500000 )  
               a(2) = (   0.000000   0.500000   0.500000 )  
               a(3) = (  -0.500000   0.500000   0.000000 )  

     reciprocal axes: (cart. coord. in units 2 pi/alat)
               b(1) = ( -1.000000 -1.000000  1.000000 )  
               b(2) = (  1.000000  1.000000  1.000000 )  
               b(3) = ( -1.000000  1.000000 -1.000000 )  


     PseudoPot. # 1 for Ca read from file:
     /usr/scratch4/magr4985/MG/HTDF/pseudo/SG15/Ca.upf
     MD5 check sum: b43c970dc090f2312d256360aabdb6f1
     Pseudo is Norm-conserving, Zval = 10.0
     Generated using ONCVPSP code by D. R. Hamann
     Using radial grid of  602 points,  6 beta functions with: 
                l(1) =   0
                l(2) =   0
                l(3) =   1
                l(4) =   1
                l(5) =   2
                l(6) =   2

     PseudoPot. # 2 for S  read from file:
     /usr/scratch4/magr4985/MG/HTDF/pseudo/SG15/S.upf
     MD5 check sum: f9d020296ee6110346977bfd66d424f6
     Pseudo is Norm-conserving, Zval =  6.0
     Generated using ONCVPSP code by D. R. Hamann
     Using radial grid of  602 points,  4 beta functions with: 
                l(1) =   0
                l(2) =   0
                l(3) =   1
                l(4) =   1

     atomic species   valence    mass     pseudopotential
        Ca            10.00    40.07800     Ca( 1.00)
        S              6.00    32.06500     S ( 1.00)

     48 Sym. Ops., with inversion, found



   Cartesian axes

     site n.     atom                  positions (alat units)
         1           Ca  tau(   1) = (   0.0000000   0.0000000   0.0000000  )
         2           S   tau(   2) = (  -0.5000000   0.5000000   0.5000000  )

     number of k points=    29  Gaussian smearing, width (Ry)=  0.0005
                       cart. coord. in units 2pi/alat
        k(    1) = (   0.0000000   0.0000000   0.0000000), wk =   0.0039062
        k(    2) = (  -0.1250000   0.1250000  -0.1250000), wk =   0.0312500
        k(    3) = (  -0.2500000   0.2500000  -0.2500000), wk =   0.0312500
        k(    4) = (  -0.3750000   0.3750000  -0.3750000), wk =   0.0312500
        k(    5) = (   0.5000000  -0.5000000   0.5000000), wk =   0.0156250
        k(    6) = (   0.0000000   0.2500000   0.0000000), wk =   0.0234375
        k(    7) = (  -0.1250000   0.3750000  -0.1250000), wk =   0.0937500
        k(    8) = (  -0.2500000   0.5000000  -0.2500000), wk =   0.0937500
        k(    9) = (   0.6250000  -0.3750000   0.6250000), wk =   0.0937500
        k(   10) = (   0.5000000  -0.2500000   0.5000000), wk =   0.0937500
        k(   11) = (   0.3750000  -0.1250000   0.3750000), wk =   0.0937500
        k(   12) = (   0.2500000   0.0000000   0.2500000), wk =   0.0468750
        k(   13) = (   0.0000000   0.5000000   0.0000000), wk =   0.0234375
        k(   14) = (  -0.1250000   0.6250000  -0.1250000), wk =   0.0937500
        k(   15) = (   0.7500000  -0.2500000   0.7500000), wk =   0.0937500
        k(   16) = (   0.6250000  -0.1250000   0.6250000), wk =   0.0937500
        k(   17) = (   0.5000000   0.0000000   0.5000000), wk =   0.0468750
        k(   18) = (   0.0000000   0.7500000   0.0000000), wk =   0.0234375
        k(   19) = (   0.8750000  -0.1250000   0.8750000), wk =   0.0937500
        k(   20) = (   0.7500000   0.0000000   0.7500000), wk =   0.0468750
        k(   21) = (   0.0000000  -1.0000000   0.0000000), wk =   0.0117188
        k(   22) = (  -0.2500000   0.5000000   0.0000000), wk =   0.0937500
        k(   23) = (   0.6250000  -0.3750000   0.8750000), wk =   0.1875000
        k(   24) = (   0.5000000  -0.2500000   0.7500000), wk =   0.0937500
        k(   25) = (   0.7500000  -0.2500000   1.0000000), wk =   0.0937500
        k(   26) = (   0.6250000  -0.1250000   0.8750000), wk =   0.1875000
        k(   27) = (   0.5000000  -0.0000000   0.7500000), wk =   0.0937500
        k(   28) = (  -0.2500000  -1.0000000   0.0000000), wk =   0.0468750
        k(   29) = (  -0.5000000  -1.0000000   0.0000000), wk =   0.0234375

     Dense  grid:    35557 G-vectors     FFT dimensions: (  45,  45,  45)

     Estimated max dynamical RAM per process >     132.39 MB

     Estimated total dynamical RAM >       3.10 GB

     The potential is recalculated from file :
     out/mp-1672.save/charge-density

     Starting wfcs are random

     Band Structure Calculation
     Davidson diagonalization with overlap

     ethr =  5.00E-06,  avg # of iterations = 10.0

     total cpu time spent up to now is     1189.9 secs

     End of band structure calculation

          k = 0.0000 0.0000 0.0000 (  4477 PWs)   bands (ev):

   -33.2894 -14.2635 -14.2635 -14.2635  -5.3278   5.9790   5.9790   5.9790
    10.0928  10.1429  10.1429  10.1429  10.7306  10.7306  16.8425  19.0112
    19.0112  19.0112  21.9489  21.9489  22.5871  22.5871  22.5871  29.8697
    31.4565  31.4565  31.4565  32.6233  32.6233  32.6233  33.1948  33.1948
    34.9099  34.9099  34.9099  43.4203  46.3495  46.3495  46.3495  46.8404
    46.8404  47.0142  47.0142  47.0142  47.7106  47.7106  47.7106  49.6563
    49.6563  49.6563  49.7255  50.3846  50.6569  50.6569  50.6569  52.5951
    52.5951  52.5951  53.2353  53.2353  55.4065  60.3288  60.3288  60.3288
    60.6570  60.6570  60.6570  69.5659  69.5659  70.8371  70.9251  70.9251
    70.9251  72.6316  72.6316  72.6316  79.2198  79.2198  79.2198  80.0822
    80.0822  81.7844  82.6821  82.6821  82.6821  83.0008  83.1346  83.1346
    83.1346  85.7611  85.7611  85.7611  86.9335  86.9335  86.9335  87.3904
    87.3904  87.3904  88.1323  88.1323  88.1323  88.5263  88.5263  88.5730
    88.5730  88.5730  88.9146  88.9146  90.2876  90.2876  91.3457  91.3457
    91.3457  92.2378  94.0945  96.1888  96.1888  96.1888  99.7872  99.8130
   101.0211 101.0211 101.0211 104.5576 104.5576 104.5576 105.8458 105.8458
   106.8472 106.8472 106.8472 108.0748 108.0748 108.0748 108.2702 108.2702
   108.2750 108.2750 108.2750 108.4518 108.4518 108.4518 108.8344 108.8344
   108.8344 110.2980 117.2716 117.2716 117.2716 117.8315 118.0497 119.5125
   119.5125 119.5125 120.0259 120.0259 120.0259 121.4395 121.4395 121.4395
   121.8465 121.8465 121.8465 122.4917 122.4917 125.3489 125.3489 125.3489
   126.2438 126.2438 126.3457 126.3457 126.3457 126.5174 128.7779 135.9851
   135.9851 135.9851 138.0113 138.0113 138.0113 138.7075 138.7075 139.0504
   139.0504 139.0504 144.2669 144.2669 146.2588 146.5807 146.5807 146.5807
   146.5936 146.5936 146.5936 150.4397 150.4397 150.4397 152.2230 152.2230
   152.2230 153.2478 153.8077 153.8077 153.8077 154.0358 154.0358 154.4404
   154.4404 154.4404 156.0654 156.0654 156.0654 156.3657 157.1717 157.1717
   157.1717 157.2160 157.2954 157.6117 157.6117 157.6117 159.0414 159.0414
   160.1608 160.1608 160.1608 160.8518 160.8518 160.8518 161.6440 161.6440
   161.6440 162.3078 162.3078 162.3078 162.4385 162.4385 162.5575 162.7959
   162.7959 162.7959 162.9962 162.9962 162.9962 163.2189 163.2189 163.2189
   163.2704 163.2704 163.3216 163.3732 163.3732 163.3732 163.4527 163.4527
   163.6283 163.6283 163.6283 171.2340 171.2340 172.4966 172.4966 172.4966
   173.7145 175.3867 175.3867 175.3867 176.5538 176.5538 176.5538 176.6545
   176.6545 176.6545 177.0582 177.0582 177.0582 178.9447 178.9447 178.9447
   182.6075 182.6075 182.8214 182.8214 182.8214 182.9113 183.5945 183.5945
   186.6639 187.4630 187.4630 187.4630 187.9016 192.4173 192.4173 192.4173
   195.0681 195.0681 195.0681 195.1485 195.1485 195.1485 195.1619 195.1619
   195.1619 195.4555 195.4555 195.4679 195.4679 195.4679 196.3535 196.3535
   197.4995 197.6965 197.8557 197.8557 197.8557 198.2879 198.2879 198.2879
   198.3346 198.3346 198.6065 198.6065 198.6065 198.8300 198.8300 198.8300
   198.8345 198.8345 198.8345 199.7106 199.7106 207.8357 207.8357 207.8357
   207.8983 208.8223 208.8223 208.8223 212.8183 212.8183 212.8183 213.6046
   213.6046 213.6046 214.7630 217.7590 220.0712 220.0712 220.5549 220.5549
   220.5549 221.3791 221.3791 221.3791 222.0082 222.0082 222.0082 222.3650
   222.4631 222.4631 225.6274 225.6274 225.6274 227.5146 227.5146 227.5146
   230.3379 230.3379 230.3379 230.5777 230.5777 230.5777 230.6138 230.6138
   230.6138 230.8778 230.8778 230.8778 233.3208 233.4948 233.6405 233.6405
   233.6405 234.0217 234.0217 234.2384 234.2384 234.2384 234.4728 234.4728
   234.5104 234.5104 234.5104 235.2330 235.2330 235.2330 235.6782 235.6782
   235.6782 235.8497 235.8497 235.8497 236.0112 237.1391 237.1391 237.1391
   237.1395 237.1395 237.1508 243.9477 243.9477 243.9477 245.9332 246.2326
   246.2326 246.2326 247.0050 247.8811 247.8811 248.2327 248.2327 248.2327
   250.6485 250.6485 250.6485 250.8083 250.8083 251.1607 251.1607 251.2173
   251.2173 251.2173 251.4245 251.4245 251.4245 251.6956 251.6956 251.6956
   253.6070 253.6070 253.6070 256.0716 256.0716 256.0716 256.0759 256.0759
   256.0921 256.0921 256.0921 256.1812 256.1812 256.2116 256.2116 256.2116
   256.2271 256.2271 256.2271 257.8301 257.8301 257.8301 257.8386 257.8386
   257.8386 257.8487 257.8742 258.4428 258.4428 258.4428 258.9573 259.1921
   259.7916 259.7916 259.7916 260.4817 260.4817 260.4817 262.6428 262.6428
   262.6428 263.5964 263.7380 263.7380 263.7380 264.0020 264.0020 264.4409
   264.4409 264.4409 264.7042 267.3932 267.3932 267.9470 267.9470 268.7073
   268.7073 268.7073 269.0035 269.0035 269.0035 269.1163 269.1163 269.1163
   269.9078 269.9078 269.9273 269.9273 269.9273 270.1847 270.5228 270.5228
   270.5228 270.5332 270.5332 272.1140 272.1140 272.1140 272.2637 272.2637
   272.2637 272.4502 272.4502 272.4502 272.5801 272.5801 272.5801 273.5012
   273.5539 273.5539 273.5539 273.5761 273.5761 275.6809 275.6809 275.6809
   279.9979 289.4832 289.4832 289.4832 293.8264 293.8264 293.8264 295.8150
   298.3170 298.3170 298.3170 299.0606 299.5797 299.5797 300.2466 300.2466
   301.9829 301.9829 301.9829 302.0970 302.0970 302.0970 303.3513 303.3513
   303.3513 303.5008 303.5008 303.5008 303.7437 303.7437 303.7437 304.1124
   304.1124 304.4004 304.5065 304.7514 304.7514 304.7514 305.4605 305.4605
   305.4605 305.4656 305.4656 305.4656 305.6378 305.6378 305.6378 305.9735
   305.9735 305.9735 306.0977 310.3361 310.3361 310.5655 310.5655 310.5655
   310.5848 310.5848 310.5848 310.6816 310.6816 310.7575 310.7575 310.7575
   310.9048 310.9048 310.9048 311.9885 311.9885 312.0552 312.0552 312.0552
   312.2246 319.3540 319.3540 319.3540 319.4857 319.4857 319.4857 320.1181
   320.5928 320.5928 320.7229 320.7229 320.7229 320.9128 320.9128 320.9128
   323.0344 323.0344 326.4453 326.4453 326.4453 327.2628 327.4837 327.4837
   327.4984 327.4984 327.4984 327.6051 327.6051 327.6662 327.6662 327.6662
   327.8004 327.8004 327.8004 327.8018 327.9739 327.9739 327.9739 328.1431
   328.1431 328.1431 328.8379 328.8379 328.8379 329.3991 329.3991 329.3991
   330.5946 336.8628 336.9577 336.9577 337.8033 337.8033 337.8033 338.3667
   338.3667 338.3667 338.9820 338.9820 338.9820 339.0726 339.0726 339.0726
   339.1523 339.1523 339.1523 339.3098 339.8929 342.6695 342.6695 342.6695
   343.9168 343.9168 343.9168 343.9464 343.9464 344.0782 344.0782 344.0782
   344.2343 344.2343 344.2343 344.3200 344.7910 344.7910 344.7910 345.0111
   345.0111 345.0707 345.4190 345.6424 345.6424 345.6438 345.6438 345.6438
   345.6586 345.6586 345.6586 345.6670 345.6670 345.6670 345.7738 345.7738
   345.7738 346.6326 346.6326 346.6326 346.6613 346.6613 346.6964 346.6964
   346.6964 346.7318 346.7318 346.7318 346.7951 349.7714 349.7714 353.1272
   353.1272 353.1272 354.7897 357.0214 357.0214 359.4492 359.4492 359.4492
   360.6630 360.6630 360.6630 360.8347 360.8347 360.8347 360.9894 360.9894
   360.9894 361.9664 361.9664 361.9664 362.0530 362.0530 362.0530 362.0616
   362.1058 362.1058 362.8202 366.5616 366.5616 366.5616 369.3558 369.7427
   369.7427 369.7427 370.8840 374.2599 374.2599 374.2599 374.5148 374.5148
   374.5973 374.5973 374.5973 374.9997 374.9997 374.9997 375.2276 375.2276
   375.2276 375.4997 375.4997 376.6277 376.6277 376.6277 378.0750 378.0750
   378.0750 378.1784 378.1784 378.1784 378.3323 378.3323 378.3323 378.3339
   378.3339 378.3339 379.1677 379.3855 379.3855 379.7089 379.7089 379.7089
   380.0737 380.0737 380.1090 380.1090 380.1090 380.4166 380.4166 380.4166
   380.5114 380.5204 380.5204 380.5554 380.5554 380.5880 380.5880 380.5880
   380.5919 380.5919 380.5919 380.6415 380.6415 380.6415 380.7131 380.7131
   380.7131 380.8523 380.8523 380.8523 380.8599 380.8599 380.8599 382.3241
   382.3673 382.3673 382.3673 382.3933 382.3933 382.3933 382.4140 384.9724
   384.9942 384.9942 384.9942 385.0054 385.0054 385.3480 385.3480 385.3480
   385.4251 385.4251 385.4466 385.4466 385.4466 385.4668 385.4668 385.4668
   385.4870 385.5022 385.5022 385.5022 385.5277 385.5277 385.6188 385.6188
   385.6188 385.7359 385.7359 385.7359 385.8392 392.9101 392.9101 392.9101
   394.0144 394.1407 394.1407 394.1407 394.1902 400.9872 400.9872 402.9181
   402.9181 402.9181 403.0286 403.0286 403.0286 403.0463 403.0463 403.0643
   403.0643 403.0643 403.3302 403.3302 403.3302 403.3368 403.3368 404.0059
   404.1806 404.1806 404.1806 405.6003 405.6003 405.6003 407.4862 407.4862
   407.4862 407.6468 407.6468 407.6468 407.9978 407.9978 407.9978 412.1098
   412.1098 412.2449 412.2449 412.2449 412.3960 416.9598 417.0416 417.0416
   417.0416 417.1365 417.1365 419.9181 419.9181 419.9181 419.9393 419.9393
   419.9393 419.9725 419.9725 419.9725 419.9740 419.9740 419.9740 421.3064
   421.3064 421.3317 421.3317 421.3317 421.3743 429.6631 430.2715 430.2715
   430.7665 430.7665 430.7665 433.3668 433.3668 433.3668 434.7582 435.3104
   435.3104 435.3104 436.4008 436.4008 436.4008 436.8451 436.8451 436.8451
   437.2782 437.2782 437.2782 437.3123 437.3123 437.3123 437.6578 437.6578
   440.1847 440.1847 440.5211 440.7608 440.7608 440.7608 440.9921 440.9921
   441.0153 441.0153 441.0153 442.7528 442.7528 442.7528 442.8778 443.9816
   444.1572 444.1572 444.1572 446.1994 446.1994 446.1994 446.5999 446.5999
   446.5999 446.8688 447.9931 447.9931 448.4717 448.4717 448.4717 449.0216
   449.0216 449.0216 449.5238 450.0758 450.0758 450.1840 450.1840 450.1840
   450.6633 450.6633 450.6633 450.7720 450.7720 450.9701 450.9701 450.9701
   451.0972 451.0972 451.0972 452.1922 452.1922 452.1922 452.2530 452.4451
   452.4451 452.4451 452.6432 454.6410 454.6410 454.6410 454.6530 454.6530
   454.7181 454.7181 454.7181 454.7642 454.7642 454.7642 454.8131 454.8131
   454.8131 454.8175 454.8175 456.2592 456.2592 456.2592 456.2713 456.2831
   456.2831 456.2831 456.3109 456.3109 456.3169 456.3169 456.3169 457.1115
   457.1115 457.1115 457.1527 457.1527 457.1922 457.1922 457.1922 457.2030
   457.2030 457.2030 457.2892 468.5133 468.5133 469.1442 469.3639 469.3639
   469.3639 469.6711 469.6711 469.6711 470.8807 470.8807 470.8807 470.9838
   471.0159 471.0159 471.0159 471.1684 471.1684 471.1684 471.9666 471.9666
   471.9666 472.5366 472.5366 472.5366 472.5514 472.5514 472.7102 472.7102
   472.7102 472.9360 473.5455 473.5455 473.7656 473.7656 473.7656 473.7766
   473.7766 473.7766 473.8537 473.8537 473.8537 477.5046 477.5046 477.5326

          k =-0.1250 0.1250-0.1250 (  4456 PWs)   bands (ev):

   -33.2878 -14.2877 -14.2654 -14.2654  -5.2223   5.3231   5.7570   5.7570
    10.1322  10.3681  10.3681  10.8660  11.1325  11.1325  16.9484  18.6401
    18.6401  18.8254  20.6424  20.6424  22.8789  24.2981  24.2981  28.9686
    29.7698  29.7698  31.1414  32.7383  32.7383  32.9337  32.9337  34.0057
    35.1242  37.1670  37.1670  43.3685  43.9618  43.9618  44.2044  45.3327
    46.1263  46.1263  46.4282  46.4282  46.6999  47.5943  47.5943  48.2812
    49.8788  50.4598  50.4598  51.7302  51.7302  52.2230  52.2230  52.4573
    52.4912  54.9537  56.7280  57.2503  57.2503  58.3414  59.4480  59.4480
    61.9162  61.9162  62.4094  67.9221  67.9221  69.3368  69.8970  69.8970
    70.9779  73.2998  73.3219  73.3219  77.6367  77.6367  79.0431  79.0431
    79.1799  79.2892  81.1340  81.5437  81.5437  81.8676  81.8676  82.8937
    82.8937  82.9336  84.1015  84.7930  85.5720  85.5720  85.8216  86.8266
    86.8266  87.3363  88.1808  88.1808  88.8099  88.8099  88.8978  89.6176
    89.6176  90.7405  91.5904  91.6580  91.6580  92.7222  95.0095  95.2765
    95.2765  95.7261  95.7261  96.2672  96.2672  98.0041  98.7227  99.2832
    99.2832  99.4852 101.3563 101.9769 101.9769 103.4077 103.4077 103.9202
   103.9202 104.0504 104.0620 105.9261 105.9261 107.3758 107.5078 108.2614
   108.2614 110.2433 110.4091 110.4091 112.0342 112.5404 112.5404 113.1263
   113.7698 113.9074 113.9074 114.3056 115.7998 116.3716 116.3716 116.8722
   116.8722 118.2613 118.5296 118.5296 120.6351 121.2254 121.2254 122.0035
   122.0035 122.1278 124.5491 124.5491 124.9457 125.6576 125.7691 125.7691
   126.7523 126.7523 127.9945 130.3144 132.2237 132.2237 132.6430 132.6430
   133.2140 134.4306 136.6785 137.0824 137.0824 137.3972 137.3972 139.2113
   139.3004 139.3004 144.1957 144.1957 144.4749 145.0346 145.1747 145.3219
   145.3219 146.6067 146.6067 148.0566 148.8181 148.8181 149.1605 150.3744
   151.1264 151.1347 151.1347 151.3407 151.3407 152.3158 152.3158 152.6630
   152.6630 153.1583 153.5725 154.1984 154.1984 154.8215 154.8215 154.9264
   156.2738 156.6363 156.6363 156.8917 157.4632 157.4632 158.4665 158.4665
   158.5861 158.7663 159.4181 159.4181 159.7472 159.7472 160.0430 161.2423
   161.2430 161.2430 161.9465 161.9465 162.2205 162.3799 163.3781 163.4831
   163.4831 164.9753 164.9753 165.3519 165.6712 165.6818 165.6818 165.9887
   166.3041 166.3041 167.0002 168.3018 168.3440 168.3440 169.1045 169.1045
   169.3946 169.4620 169.4620 169.5082 170.9961 171.2740 171.2740 171.7300
   171.7300 172.7308 172.7420 174.5132 174.5132 176.1009 176.1009 176.8327
   177.0844 177.0844 178.8443 178.9071 178.9071 181.0497 181.1156 181.1156
   181.7622 181.7622 182.9039 183.9322 183.9322 185.0635 185.0635 185.0877
   186.3762 187.3717 187.3717 188.4186 188.4186 189.3177 189.7739 189.7739
   189.8063 190.2645 190.6027 190.6027 190.6768 190.9886 190.9886 191.6418
   191.6418 192.0879 192.5996 194.1043 194.1043 194.1120 195.2177 195.2177
   197.6002 198.5964 198.8643 198.8643 198.9064 199.6921 199.6921 200.0147
   201.0661 201.0661 201.2504 202.3698 202.3698 202.5242 205.0403 205.0403
   205.1780 205.8165 206.1178 207.1356 207.1356 207.5819 207.5819 207.6644
   207.6644 209.0593 209.7873 209.7873 209.9283 210.8586 210.8586 212.4432
   213.5918 213.5918 215.1393 216.3609 216.3609 217.4739 217.4739 218.1778
   219.7913 219.8798 219.8798 221.7215 221.7215 221.7874 222.8576 223.1604
   223.2548 223.2548 223.6357 223.6357 223.6567 223.6836 223.8011 223.8011
   224.3401 224.3401 224.5908 226.0200 226.0200 227.2174 228.0429 229.4242
   229.4242 229.5414 230.1417 230.1417 231.9661 231.9661 232.3454 233.1558
   234.1245 234.3739 234.3739 234.6655 234.6655 234.7631 235.6262 235.6262
   235.7826 236.5823 236.8838 236.8838 237.7634 237.9340 237.9340 238.5093
   238.5093 238.8034 238.8038 239.1650 239.1650 239.3931 239.6987 239.6987
   241.2570 242.6200 242.6200 243.2266 243.2266 244.2486 244.4246 244.4246
   244.7916 245.3732 245.3732 245.3947 245.6231 245.6231 246.2907 246.2933
   246.2933 247.0613 247.0613 247.4828 247.5625 247.6482 247.6482 248.2111
   248.4308 248.4308 250.1156 250.1211 250.1360 250.1360 251.1442 252.0100
   252.0100 252.6252 252.9003 252.9003 252.9311 253.3633 253.3633 254.5145
   254.5145 254.7864 255.2922 255.2922 255.9383 256.0524 256.0524 256.3063
   256.8501 256.8977 256.8977 257.4943 257.4943 257.5992 258.3720 258.3720
   258.6726 258.7145 258.7145 259.1054 259.8845 259.8905 259.8905 260.8502
   260.8502 261.6407 261.7378 261.8979 261.8979 262.4566 262.5308 262.5308
   262.8467 262.8467 263.6952 264.4048 264.4048 265.2366 265.2366 265.5653
   265.5653 265.6077 265.6540 266.0602 266.0900 266.0900 266.2549 267.0533
   267.0646 267.0646 267.3794 268.4958 268.4958 268.7914 268.7914 268.8728
   269.5559 269.7677 269.7677 270.1801 270.1801 271.8702 272.7585 272.7585
   273.0835 273.4887 273.4887 274.2902 274.4611 276.2981 276.2981 276.5718
   277.0969 277.0969 277.7197 277.9886 277.9886 278.0158 279.5911 280.0844
   280.0844 282.2115 282.2115 283.1710 284.2724 284.2724 284.9533 285.6467
   285.6467 285.7822 285.8792 285.8792 287.1051 288.3128 288.3128 290.4446
   291.4146 291.4146 292.3556 292.3556 293.4851 294.4142 294.4142 294.5253
   295.2876 295.2876 295.8631 295.8631 296.4333 296.7197 296.8203 296.8203
   297.0299 300.7695 300.7695 301.0682 301.7849 301.7849 303.1683 303.3196
   303.3196 303.3858 304.0531 304.0531 304.1167 304.1167 304.1793 304.3668
   306.0564 306.2436 306.2436 306.5661 307.6209 307.6209 308.3166 308.5521
   308.5521 310.1377 310.1377 310.8514 310.8848 310.8848 311.1195 311.4517
   312.1045 312.1045 313.4087 313.7165 313.7165 313.9217 314.3833 314.3833
   314.5914 314.7554 314.7554 315.3347 315.8388 315.8388 316.8528 317.5052
   317.5052 317.7949 317.7997 317.7997 317.9809 318.3924 318.3924 318.4570
   318.7064 318.8453 318.8453 320.4920 320.4920 320.6183 321.3758 321.3758
   321.6534 321.6534 321.8386 322.0289 322.0289 322.1831 322.4627 323.9612
   324.1306 324.1306 325.0379 325.0379 325.3701 325.3976 326.7479 326.7479
   326.8131 326.8131 328.5900 328.9706 329.7928 329.7928 329.9720 329.9720
   330.1065 332.6475 332.6863 332.6863 332.9064 332.9127 332.9127 333.1412
   333.1412 333.2425 333.4166 333.4166 333.6797 333.8996 333.8996 334.6969
   336.2884 336.2884 336.9179 336.9179 337.2602 337.4091 337.8971 337.8971
   338.9150 339.1782 339.1782 339.7468 340.0832 340.1148 340.1148 341.4776
   341.4776 341.6347 341.6347 341.6347 342.0490 342.5187 342.5187 342.6675
   342.6675 342.6965 342.9822 342.9921 342.9921 343.7730 343.7756 343.7756
   343.8127 345.3642 345.5533 345.5533 346.5558 346.5558 346.8150 346.9466
   346.9466 347.8607 347.8607 347.9114 348.0864 348.0864 348.1111 348.3567
   348.3567 348.4195 348.4351 348.5233 348.5233 349.2628 352.1291 352.1291
   352.2117 352.9902 354.4814 355.5246 355.5246 356.4291 356.5755 356.5755
   356.9951 356.9951 357.0984 357.3829 358.0070 358.0070 358.1413 358.1413
   359.0989 360.1593 360.4500 360.4500 360.7982 360.7982 360.9861 361.4201
   361.4201 361.5593 361.7996 361.7996 362.6338 363.0338 363.4589 363.4589
   364.1907 364.1907 365.2516 365.5245 365.5245 366.0293 366.0529 366.0529
   366.8557 367.1998 367.3276 367.3276 367.6699 367.6699 368.5238 368.5631
   368.5631 368.9071 368.9071 369.1967 369.5637 369.5637 369.7103 369.7125
   370.2985 370.2985 370.6709 370.6709 370.8459 370.8487 372.7109 372.7109
   373.0632 373.3309 373.3834 373.3834 373.9792 373.9792 374.8529 375.0425
   375.0425 375.3024 375.3591 375.3953 375.3953 375.6269 376.2127 376.2657
   376.2657 377.0370 377.0370 377.3430 377.3895 377.3895 377.4579 377.8142
   377.8142 378.1471 379.7666 379.7676 379.7676 380.1230 380.1230 380.1507
   381.2570 381.2570 381.7976 381.7976 381.9626 382.2316 383.3201 383.3408
   383.3408 384.4450 384.5712 384.5712 384.9242 384.9242 385.4298 386.8265
   386.8265 387.5122 387.5122 387.5140 387.8331 387.9353 387.9353 388.0603
   388.1132 388.1132 388.1747 388.4191 388.4191 388.5273 388.5273 388.7093
   389.1284 389.1284 389.2040 389.5948 390.4668 390.4668 391.2772 391.6212
   391.6212 391.6758 392.5946 392.5946 394.7874 395.0865 395.0865 395.6047
   395.6047 395.6847 395.9526 395.9526 395.9835 395.9922 395.9922 396.0857
   396.1178 396.3938 396.4006 396.4006 396.6244 396.6244 398.0870 398.0870
   398.3828 398.3828 398.4486 398.8396 399.0674 399.0674 399.8396 399.8396
   399.9011 400.1583 401.7686 401.7686 401.9527 402.8272 402.8272 402.9457
   405.3210 405.3509 405.3509 407.2230 407.2230 407.2679 408.0233 408.0233
   408.0495 411.1434 411.1434 411.3739 411.4586 411.4586 411.7738 411.8497
   411.8497 411.8920 412.0713 414.2589 414.3092 414.3092 414.3258 416.0273
   416.0273 416.5252 417.5492 417.5492 419.1742 419.1904 419.1904 421.6901
   421.8783 421.8783 422.0192 422.0192 423.4649 423.4649 423.9289 424.1833
   425.1473 425.1473 426.0389 426.1392 426.1392 427.0632 427.0632 427.9231
   428.0271 428.0271 428.0768 428.8998 429.8605 429.8605 430.8958 431.6793
   431.9906 431.9906 432.4597 432.6260 432.6260 432.8737 432.8737 433.2409
   433.3547 433.3547 435.0714 435.0714 435.1396 435.2871 435.5545 435.5545
   436.2163 436.2163 436.3830 436.7244 436.7244 437.7761 437.8412 438.7919
   438.7919 440.1541 440.4299 440.4299 440.9816 441.0426 441.0426 441.1680
   441.6243 441.6243 441.8558 441.8558 442.0875 442.1926 442.1926 442.3328
   444.5712 444.5712 445.1235 445.1235 445.1479 446.5289 446.5289 446.5688
   446.9384 447.0830 447.3427 447.3427 447.3524 447.6690 447.6690 448.4632
   448.4632 448.5388 449.3092 449.3516 449.3516 450.3169 450.3169 450.3370
   451.2165 451.6443 451.6443 453.4149 453.8779 454.7568 454.7568 454.8882
   454.8882 455.9242 455.9242 456.2480 456.2924 456.2924 456.3605 456.6394
   456.6696 456.6696 456.7575 456.7575 456.9899 456.9899 457.1904 457.7255
   457.8008 457.8008 457.8963 458.0158 458.0158 458.2407 458.2426 458.2426
   459.2423 459.3624 459.5567 459.6154 459.6154 459.8574 460.2134 460.2134
   460.2925 460.2925 460.4491 460.4491 460.5430 461.4267 461.5519 461.5519
   462.9669 462.9879 462.9879 463.5410 463.5410 463.7867 463.8388 463.9639
   463.9639 464.0157 464.0157 464.0867 464.4610 464.9537 464.9695 464.9695
   466.2199 466.2199 466.6740 467.6692 467.6692 467.7476 468.2043 468.2043
   468.7318 469.4301 469.4301 469.6930 470.0199 470.0412 470.0412 470.1421
   470.1421 470.1668 471.4390 472.5351 472.5351 472.7848 473.2992 473.3880
   473.3880 473.4728 473.6413 473.6413 474.3513 474.4230 474.4230 474.4950

          k =-0.2500 0.2500-0.2500 (  4450 PWs)   bands (ev):

   -33.2840 -14.3452 -14.2699 -14.2699  -4.9545   4.1674   5.3189   5.3189
    10.2601  10.9386  10.9386  12.1330  12.1330  12.1975  16.3042  17.3682
    17.3682  19.7816  19.9276  19.9276  23.5809  26.1685  26.2940  26.2940
    27.4322  27.4322  32.6453  32.6453  33.1080  33.6590  33.6590  35.0751
    35.7668  38.8280  38.9182  38.9182  41.3931  41.3931  42.6100  45.0294
    45.0294  45.0546  45.7008  45.7008  46.5330  47.0241  47.0241  48.1430
    49.2063  50.5082  50.5082  52.4421  54.2893  54.2893  55.6476  55.6476
    56.4474  56.5565  58.0196  58.6409  58.6409  60.1668  62.5162  62.5162
    62.9566  62.9566  64.1701  65.3842  65.3842  66.9603  68.2489  68.2489
    71.1337  72.0809  72.0809  74.3543  74.8317  74.8317  75.8204  75.8204
    75.9345  76.3221  78.5988  78.5988  79.2638  79.2638  79.5229  81.7889
    81.7889  82.1728  83.3658  85.4939  86.1635  86.4326  86.4326  86.7708
    87.7688  87.7688  89.4908  89.4908  89.6918  89.6918  89.9648  90.3534
    91.1540  91.1540  92.5122  92.5122  93.2439  94.1734  94.1734  94.4709
    96.5459  96.8594  96.8594  98.3217  98.8133  99.4773  99.9673  99.9673
   100.2196 101.1459 101.1459 102.8143 102.8143 103.2445 103.2445 103.9098
   104.9395 104.9395 105.1923 105.5544 105.9151 105.9151 107.5546 108.0376
   108.0376 109.2060 109.2128 110.0467 110.0467 112.1031 112.1031 113.2848
   113.6633 113.9864 113.9864 116.0391 116.1509 116.1509 117.0040 117.0040
   118.2529 118.4209 118.6100 118.6100 119.3563 119.9617 119.9617 123.4877
   123.9065 123.9065 125.1919 127.2198 127.2198 127.7893 127.7893 130.2886
   131.0196 131.0196 131.8691 131.8851 132.1934 132.1934 132.6960 133.7170
   133.7170 134.5540 134.5540 136.7988 137.7453 138.9931 138.9931 139.3385
   139.3385 139.9117 139.9729 140.0678 140.0678 141.3981 141.6995 141.6995
   142.1169 142.2728 142.2728 143.7337 144.2560 144.2560 144.7477 145.3680
   145.3680 146.1221 146.1221 146.9322 147.1759 150.1252 150.1252 152.9449
   153.2367 153.2367 153.6449 154.3947 154.3947 154.4809 155.4216 155.6026
   155.6026 157.0302 157.0302 157.4615 157.9428 158.3104 158.3104 158.4690
   158.4690 159.1027 159.3290 159.4090 159.4090 159.7081 159.9530 159.9530
   160.5338 160.5338 161.4786 161.4786 161.9726 163.2436 163.8199 163.8199
   165.6356 165.9871 165.9871 166.3014 166.9631 167.2879 167.7653 167.7653
   167.8243 167.8243 168.5387 168.7725 168.8556 168.8556 170.5525 170.5525
   171.7777 171.7777 172.2101 172.3509 172.6022 172.6022 174.2959 174.3017
   174.3017 176.2178 176.4092 176.4092 176.7146 176.8968 176.8968 177.5057
   179.0296 179.0296 179.3961 180.2570 180.2570 182.1443 182.1443 182.4712
   182.4712 183.3214 184.6522 184.6522 184.7005 184.7382 185.5227 185.9648
   186.0788 186.0788 186.3085 186.3085 186.7672 186.8392 186.8392 188.3401
   188.3401 188.8316 189.9195 189.9195 189.9522 191.4527 192.5729 192.5729
   193.1900 193.4962 193.4962 193.5270 193.6782 193.6782 197.5420 197.8609
   197.8609 198.6391 199.0468 199.0468 199.6912 200.1899 200.1899 201.7644
   202.5144 202.6943 202.6943 203.6640 203.6640 205.5441 205.7385 205.7385
   207.0531 207.5634 207.6935 207.6935 208.0193 209.7280 209.7280 211.2783
   211.4529 211.4529 211.7694 211.7694 212.5714 212.7560 212.7560 213.1910
   213.2651 213.2651 213.6565 214.0571 214.1371 214.1371 214.6943 215.4991
   215.4991 216.5534 218.1631 218.7587 218.7587 219.9273 219.9273 220.9300
   220.9300 221.1676 221.4703 221.4703 221.8536 222.4600 223.3559 223.3559
   223.3986 223.3986 223.4895 224.3885 224.3885 225.2966 225.2966 225.8754
   226.2344 226.2344 226.4075 226.6002 229.5404 229.5404 230.9204 231.1211
   231.3781 231.3781 232.2947 232.2947 232.8497 234.3425 234.3425 235.1686
   235.6540 235.6540 235.7628 235.8021 235.8021 237.1350 237.1553 237.1553
   237.6244 237.7347 237.8474 237.8474 238.5205 238.5205 238.6330 239.3654
   240.4466 240.4466 240.5293 240.9607 241.4459 241.4459 244.0156 244.0156
   244.5537 244.9866 244.9866 245.4969 245.4969 246.0617 246.0644 246.4579
   246.4579 246.8184 246.8184 247.2541 247.2541 247.3360 248.0584 248.2284
   248.2284 248.6306 248.6306 249.0167 249.4069 249.7183 250.8210 250.8210
   251.0994 251.3159 251.3159 252.5240 252.9105 252.9105 253.0013 253.9288
   253.9288 254.0758 254.9119 254.9119 254.9205 255.5131 255.5131 256.1810
   256.1810 256.1820 257.4700 257.4700 257.5481 257.7749 258.3463 258.3463
   258.7064 258.7247 258.7247 259.0559 259.0559 259.4980 260.0635 260.9874
   260.9874 261.3942 262.4817 262.4817 263.0027 263.2048 263.2048 263.2860
   263.5690 263.5690 263.8655 265.2665 265.2665 265.4313 265.4353 265.4730
   265.4730 266.9821 267.0834 267.0834 270.4059 271.4341 271.4341 271.5821
   272.1272 273.2757 273.3086 273.3086 273.4722 273.9720 273.9720 275.5765
   275.5765 275.8192 276.6170 276.6170 277.1976 277.1976 277.2543 277.9024
   278.2535 278.2535 279.5031 279.5031 280.0760 280.0760 281.2616 281.3488
   281.3488 281.9859 282.0550 282.5438 282.5438 283.3359 283.3359 284.3955
   284.3955 284.6475 284.7993 284.7993 285.2449 285.3987 285.5573 285.5573
   286.3251 286.6440 286.7977 286.7977 287.2756 287.2756 288.2714 288.2714
   288.5333 288.5333 288.7230 289.3041 290.4352 290.8434 290.9215 290.9215
   293.3113 294.3144 294.3144 295.2954 295.2954 295.8280 295.9902 296.0414
   296.3176 296.3176 297.0284 297.4526 297.4526 297.7174 297.7174 297.7199
   298.0232 299.0147 299.0147 300.6361 300.6361 300.6708 300.6708 301.3960
   301.6292 301.6292 302.0192 303.9796 303.9796 304.4053 304.6225 304.6225
   306.2003 306.6738 306.6738 306.8109 308.2209 309.6172 309.6172 310.0401
   310.0401 310.1817 310.3136 310.9768 310.9768 311.8305 313.0288 314.6273
   314.6273 315.9608 315.9608 316.2267 316.2267 316.7561 317.2380 317.2380
   317.5572 317.5705 317.8263 318.2389 318.2389 318.4828 318.4828 319.3029
   319.3029 319.6921 320.4852 320.4852 320.5215 321.4954 321.8226 321.8439
   321.8439 322.0228 322.2564 322.2564 322.6881 322.8611 322.8611 323.0549
   323.0549 323.5893 323.8341 324.0039 324.0039 325.3598 325.3815 325.3815
   325.5803 325.5803 325.8369 326.8924 326.8924 327.9031 329.3216 329.7415
   329.7415 330.3853 330.7777 330.7777 331.4366 332.7335 332.7335 333.1089
   333.1089 333.5850 334.1015 334.6244 334.6244 334.8846 335.1715 335.1715
   336.4831 337.3003 337.8590 337.8590 338.1327 339.7809 339.7809 340.0503
   340.0503 340.1422 340.6817 341.3530 341.3530 341.3713 341.6696 341.6696
   341.8363 341.8363 342.1296 342.1296 342.1320 342.2105 342.3976 342.3976
   342.4134 343.1318 343.1318 345.4215 345.4215 345.4923 346.5621 346.5621
   346.6408 346.8226 346.8226 347.3673 348.0779 348.0779 348.4966 348.4966
   348.6090 348.8347 349.1535 349.3400 349.3400 349.9920 349.9920 350.2948
   350.2948 350.3608 351.0948 351.3651 351.3651 351.5681 351.9604 351.9604
   352.3358 352.3358 352.6644 352.8078 352.9043 352.9043 353.5098 353.8630
   353.8630 353.9914 354.2242 354.2242 354.3834 354.8997 355.4532 355.4532
   356.2527 356.2527 356.4424 357.2452 357.2452 357.5180 357.5521 358.0815
   358.0815 358.3800 359.1155 359.1155 359.5871 359.5871 359.8290 359.9740
   360.1332 360.1332 360.4284 364.6160 364.6160 365.2262 366.0478 366.0478
   366.2728 366.3139 366.3139 366.8982 367.1857 367.1857 367.2861 367.2861
   367.4454 368.3936 368.3936 368.4871 369.0708 369.0708 369.5345 370.2836
   370.5981 370.5981 370.7170 370.7170 370.7605 370.8995 371.4883 371.4883
   371.6083 372.4305 372.4305 373.1074 373.1074 373.9401 374.5585 374.5585
   374.6051 375.3064 375.3064 375.4049 375.9997 376.0692 376.0720 376.0720
   376.8544 376.8544 377.4669 377.6821 377.6821 378.0547 378.3502 378.3502
   378.6025 379.1712 379.1712 379.3953 379.4046 379.4046 380.1496 381.5983
   381.6240 381.6240 382.4005 382.4005 382.5779 382.9505 382.9505 383.5077
   385.7008 385.7008 385.7394 387.3373 387.3373 388.0319 388.0319 388.3704
   389.0479 389.6746 389.6746 389.8880 390.1511 390.1511 390.3070 390.5244
   390.5244 390.5548 391.0746 391.0746 391.1247 391.5682 391.5682 391.5996
   392.3989 392.3989 392.5145 394.6435 394.6512 394.6512 394.9715 394.9861
   394.9861 395.6770 395.6770 395.7344 396.6060 396.6132 396.6132 396.6685
   397.0831 397.0831 397.3094 397.5372 397.5372 397.9500 398.6911 398.8900
   398.8900 399.8264 399.8397 399.8397 400.4931 400.4931 402.4164 402.4164
   402.5024 402.8093 404.4692 404.4692 404.5337 405.0119 405.4315 405.4315
   405.8118 407.1231 407.1231 407.7416 407.7416 407.8896 407.8896 407.9994
   408.0158 408.0675 408.0675 408.2215 408.5998 408.5998 408.6014 410.1200
   410.3752 410.3752 411.8773 412.3916 412.3916 413.3149 413.3149 413.3310
   414.1934 414.1934 414.5914 414.5914 415.1566 415.9825 415.9825 416.4431
   416.4431 417.8445 417.9390 418.1517 418.1517 418.5200 418.5200 418.6810
   418.7120 418.9442 418.9442 419.3341 419.4021 419.7452 419.7452 420.8411
   420.8411 420.9683 421.1572 421.1572 421.5197 423.5712 423.5712 424.4092
   424.5668 424.5668 424.5828 425.7035 425.8682 425.8682 427.5168 427.5168
   428.0821 430.3734 430.3734 430.5387 430.8396 431.8648 431.8648 431.9900
   433.1475 433.1475 433.1476 433.8213 433.8213 434.0901 434.9738 435.6316
   435.6316 435.8894 436.2192 436.2192 436.2248 436.8203 436.8203 437.5315
   437.5315 437.7950 438.3918 438.5320 438.5320 438.7194 438.7194 438.9311
   440.6992 440.7475 440.7613 440.7613 440.9962 440.9962 441.3929 441.3929
   441.8738 441.8738 441.8924 443.8993 443.8993 444.0269 444.2191 444.2191
   444.9494 445.3555 445.3555 445.7586 446.0373 446.0373 446.3024 446.4993
   446.4993 446.6495 446.8295 446.9590 446.9655 446.9655 447.2046 447.4075
   447.4075 447.6262 447.6262 447.9578 448.0537 448.0537 450.1571 450.1571
   450.2166 450.3813 450.3813 450.7531 450.8564 450.8564 451.0380 451.1168
   452.0980 452.0980 452.3092 452.3092 452.4848 452.6474 453.3941 453.4663
   453.4663 455.5482 455.5482 456.1719 456.2498 456.2498 456.6837 457.3448
   457.3448 457.4867 458.1975 458.1975 458.2190 458.2851 458.2851 458.2856
   458.5032 458.7242 458.7242 459.8892 459.8892 459.9438 460.3040 460.3040
   460.3425 461.0467 461.0467 461.0548 462.2540 462.2540 462.3528 463.1933
   463.1933 463.2332 464.6074 464.6074 464.9812 465.1725 465.1725 465.3570
   465.5067 465.5067 466.4580 466.4705 466.4705 466.8344 466.8887 466.8887
   467.2051 469.8031 469.8406 469.8406 469.8693 471.4276 471.4276 471.4378
   471.8222 471.8598 471.8598 471.9902 471.9902 472.6077 472.7375 472.7375
   473.3575 473.3575 473.4876 473.7492 473.9561 473.9747 473.9747 474.0909

          k =-0.3750 0.3750-0.3750 (  4446 PWs)   bands (ev):

   -33.2801 -14.4013 -14.2743 -14.2743  -4.6634   3.2531   4.9652   4.9652
    10.6923  11.6923  11.6923  12.5301  13.2808  13.2808  15.8294  15.8294
    16.3952  19.5931  19.5931  21.0278  23.2269  25.4397  25.5130  25.5130
    28.4403  28.4403  32.7353  32.7353  32.8212  34.6534  34.6534  35.6396
    36.5295  36.5295  36.8351  37.4478  40.2732  40.9970  40.9970  43.6883
    43.9980  43.9980  46.4033  46.4033  46.7331  47.7324  47.7324  48.1367
    50.4793  51.3291  51.3291  51.6407  56.4973  56.8254  56.8254  57.4460
    57.4460  58.1553  59.3156  59.3156  60.8910  62.1488  62.1488  63.2380
    63.2380  63.3459  64.0289  67.7044  67.7044  68.2219  68.8066  68.8066
    69.5046  69.5046  69.9727  70.2302  70.2302  70.9349  73.9752  74.5599
    74.5599  75.8179  75.8179  77.1403  79.3800  79.5716  79.5716  79.9787
    81.1072  81.1072  81.8149  83.3265  83.3265  85.8257  85.9514  86.2950
    86.2950  88.1564  88.3171  88.3171  90.0500  91.2253  91.2253  91.6742
    92.6572  92.6572  92.9851  94.3519  94.3519  94.6860  96.2056  96.3722
    96.3722  96.3733  96.5153  96.5153  97.1716  99.3373 100.0590 100.0590
   101.4883 101.4883 102.7190 102.7190 102.7208 104.4934 104.5667 105.4678
   105.4678 106.3620 107.6226 107.9460 107.9460 108.6919 109.1090 109.1090
   110.2902 110.2902 110.9404 110.9404 111.4092 111.8377 111.8377 112.7037
   112.7037 112.8948 113.2759 113.6298 113.6298 114.8312 117.5441 117.5441
   119.7881 119.9649 119.9649 120.5952 120.5952 121.6332 122.1606 124.1527
   124.2222 124.2222 126.3061 126.3061 126.4945 127.5822 127.5822 129.3209
   129.3679 130.6281 130.6281 131.6224 131.6224 132.6672 133.4163 134.6381
   134.6381 135.6850 135.6850 136.3970 136.8173 136.9784 136.9784 137.3051
   137.5422 137.5422 138.4230 138.4230 138.4484 140.5373 140.5373 140.8584
   140.8584 140.9712 141.0626 141.9588 141.9588 142.3832 144.4649 145.2964
   145.2964 146.8937 148.2450 148.2450 148.9556 148.9556 149.7943 151.0724
   151.5363 151.5363 152.5211 153.1293 153.1293 153.4705 153.6424 153.6424
   154.1510 154.5933 154.6783 154.6783 156.4250 157.5757 157.5757 157.8816
   158.2438 158.2438 158.5846 158.5846 158.6214 159.0125 159.3809 159.3809
   159.9423 159.9423 161.2209 161.2209 161.5265 162.6929 164.2584 164.2584
   166.1557 166.1557 166.4347 167.0916 167.5923 167.5923 167.8808 168.0522
   168.0522 169.7009 169.7009 169.9726 169.9726 169.9763 170.8235 170.8989
   172.1840 172.1840 172.2029 172.3848 172.7835 172.7835 174.1171 174.1171
   174.8660 176.9833 176.9833 177.2212 178.1158 178.1158 179.9604 179.9604
   180.0374 180.4064 180.5374 181.1833 181.1833 182.4087 183.1253 183.1253
   183.5114 183.8262 183.8262 184.6308 185.2121 187.0357 187.0357 187.4034
   189.1625 189.4138 189.4138 189.8312 189.8312 190.9827 190.9827 191.1928
   191.8858 191.8858 192.7222 193.0401 193.0401 193.1785 193.1785 193.2844
   194.5151 194.6467 194.6969 194.6969 194.8024 194.8413 194.8413 198.5091
   198.8308 198.8308 200.7289 200.7289 201.0376 201.7062 201.7062 202.3058
   202.3058 202.4594 203.1950 203.7852 203.7852 204.4572 205.4933 205.5476
   205.5476 206.7977 206.7977 207.6447 208.3291 208.3291 208.4943 208.6043
   208.6151 208.6151 208.7973 208.7973 209.3545 210.3870 210.8816 210.8816
   210.9599 212.7960 212.7960 214.2550 214.7432 214.7432 215.9145 216.9052
   216.9052 217.0653 217.0653 217.8923 217.8923 218.1098 218.4434 218.7963
   218.7963 220.2567 220.2567 220.4016 220.6859 221.0914 221.0914 221.4104
   222.4250 222.4250 222.8485 223.1892 223.1892 224.8814 225.4753 225.6692
   225.6692 225.6808 226.9782 226.9782 227.4815 227.4815 227.8927 229.6982
   229.6982 229.8712 230.0552 230.0552 230.1074 230.8514 230.8514 231.0025
   231.9072 233.9574 233.9574 234.6257 235.2935 235.2935 235.7467 235.7467
   236.5800 236.7977 236.7977 237.0889 237.3577 237.4175 237.4175 237.7368
   237.7368 238.8759 238.8759 239.7282 240.3067 240.7005 240.7005 241.1174
   241.3676 241.3676 242.5145 242.9605 242.9605 243.1359 243.1359 243.1632
   243.3245 244.6830 244.6830 245.4817 246.4606 246.4606 248.6534 248.7600
   248.7600 249.3569 249.8861 250.0965 250.6785 250.6785 251.0778 251.0778
   253.3790 253.7144 253.7144 254.3931 255.2619 255.2619 255.4519 255.6512
   255.6512 256.2249 257.0997 257.2509 257.2509 257.5152 257.7674 257.7674
   257.9001 258.2225 258.2225 258.6400 258.6400 258.7166 258.7422 258.7422
   259.0615 260.1334 260.7304 260.7304 260.9783 261.0212 261.0212 262.5412
   262.5412 262.6252 262.8529 263.8702 263.8702 265.5222 265.9919 265.9919
   267.6712 267.6712 268.3496 268.7250 268.7250 268.8488 269.3044 269.3044
   270.1471 271.0293 271.0293 271.1733 271.5343 271.5343 271.9872 271.9872
   272.2030 272.2030 272.4273 272.6612 273.5763 273.5763 275.0976 275.4023
   277.1662 277.3116 277.3116 277.6907 278.4521 278.4521 279.7752 279.7752
   280.6917 280.8216 280.8216 281.4651 281.4651 281.5955 281.7518 281.8341
   282.1449 282.1449 282.3526 282.3526 282.4094 284.2165 284.2165 285.2815
   285.6653 285.9341 285.9341 286.1435 286.1642 286.1642 286.2188 287.5151
   287.5151 288.1564 288.1564 288.4546 288.5190 289.1972 289.1972 289.4790
   289.4890 289.9327 289.9327 291.2864 291.8099 291.8099 291.9139 291.9139
   291.9223 292.1732 293.0060 293.0060 294.6379 295.1752 295.1752 296.5605
   296.5605 297.8778 298.0859 298.0859 298.2563 298.4183 298.4183 298.6165
   299.6029 299.6029 299.9588 299.9588 300.4498 300.9823 300.9823 301.2546
   301.8861 301.8861 301.9125 302.2583 302.2583 302.5519 302.6229 303.4073
   304.0704 304.0704 304.4795 304.4795 304.9886 305.7499 306.5568 306.5568
   307.1139 307.1139 308.3673 308.3673 308.4787 309.0342 309.0342 309.4460
   309.9777 310.6783 310.9045 310.9045 311.1040 311.5465 311.5465 311.9870
   315.6667 315.6667 316.4885 316.5201 316.5201 316.8644 316.8644 317.1310
   318.2902 318.2902 318.5147 319.5339 319.5339 319.6551 320.2926 320.6807
   320.6807 321.9382 321.9382 322.2303 322.4563 322.4563 324.3011 325.1565
   325.1565 325.7759 326.3049 326.5854 326.5854 326.6290 326.6290 327.1463
   327.4626 327.4626 328.4117 328.9150 328.9150 329.1659 329.6877 329.6877
   329.8679 330.0218 330.0218 330.3876 330.6825 330.6825 331.3285 331.4662
   331.4662 332.1364 332.3896 333.3500 333.3500 333.6635 334.7116 334.7116
   336.7552 338.3602 338.3602 339.2809 339.2809 339.4262 339.4262 339.4676
   339.8781 339.8781 339.9157 340.0228 340.5353 340.5353 340.7036 340.9866
   340.9866 341.4290 341.4339 342.3646 342.3646 342.9596 343.2092 343.2092
   343.6165 343.6293 343.6293 344.3811 344.7310 344.7310 344.9558 344.9558
   345.0762 345.6168 345.8978 345.8978 346.6101 346.6838 346.9353 346.9353
   347.0330 347.5189 347.5690 347.5690 348.7967 348.7967 349.3469 349.7653
   349.7653 349.7900 350.0517 350.0517 350.1738 350.1738 350.5707 350.5707
   350.6137 350.6137 350.7066 350.9429 351.2737 353.3673 353.3673 353.5423
   354.4955 354.4955 354.6743 354.6825 354.6825 355.1920 355.3504 355.3504
   355.5171 357.2412 357.2412 357.3912 357.7082 357.7082 357.8657 357.8657
   358.1243 358.1911 358.5649 358.5649 358.7706 360.1893 360.1893 361.1860
   361.1860 361.2547 362.2088 362.2088 362.6115 363.4758 363.8775 363.8775
   363.9143 364.0616 364.0616 364.6123 364.6123 365.0010 365.0010 365.0721
   365.1677 368.8234 368.8234 369.0542 369.9988 369.9988 370.6844 370.7779
   370.7779 371.1262 371.1337 371.1337 371.3367 372.8487 372.8487 373.6413
   373.7349 373.7349 373.8491 375.0058 375.0058 375.7320 376.9969 376.9969
   377.0601 377.9950 377.9950 378.2859 379.2613 379.2613 379.2818 379.4026
   379.7108 379.7108 379.8465 379.9675 379.9675 380.2859 380.2859 380.2892
   380.5200 380.5200 380.7092 381.1306 382.3669 382.3669 382.7785 383.3347
   383.3347 384.6941 384.6941 384.7359 385.0989 385.3412 385.3412 385.7092
   385.7331 385.7331 386.3079 387.6921 387.7819 387.7819 388.2111 388.2111
   388.2829 389.7602 389.7602 389.8021 390.9704 390.9704 391.2003 391.2834
   391.2834 391.4008 391.5720 391.5720 391.6599 392.0371 392.0371 392.8456
   394.5080 394.7429 394.7429 394.8266 395.0114 395.0114 395.0312 395.2836
   395.2836 396.0767 396.6758 396.9690 396.9690 397.0416 397.0416 398.2026
   398.2026 399.6975 399.7367 399.7367 399.9012 401.5971 401.5971 401.8912
   401.8912 402.0956 402.0956 402.1440 402.8013 402.9968 403.4932 403.4932
   403.5100 405.3701 405.5777 405.5777 405.7198 405.7198 406.1631 406.3237
   406.3237 408.2148 408.2148 408.4274 408.7725 409.5168 409.5168 409.7649
   409.7998 409.7998 409.8625 410.4303 410.7499 410.7499 411.0035 411.0035
   411.0467 411.2801 411.2801 411.7883 411.7883 411.8182 411.8595 412.0667
   412.3634 412.3634 413.7978 413.7978 413.8937 418.6444 418.6444 418.6801
   418.9233 418.9430 418.9430 419.3793 420.2067 420.2067 420.2964 420.3620
   420.5532 420.5532 420.6698 420.6698 420.7643 420.7643 420.7883 421.2261
   421.2261 421.4354 422.9805 424.4192 424.4192 424.5812 424.5842 424.5842
   424.6580 426.5716 426.5716 426.9697 428.1605 428.3330 428.3330 429.1637
   429.7942 429.7942 430.4603 430.4603 430.9173 430.9173 431.0454 431.3809
   431.4460 431.4460 431.7178 432.0083 432.0083 432.1405 432.1405 432.3277
   432.3559 432.5000 432.5000 433.5149 434.1594 434.3853 434.3853 434.7898
   434.7898 434.8315 435.0060 435.0060 435.6722 435.6722 435.7861 435.8264
   435.9217 435.9217 436.0960 436.0960 436.1388 436.3225 437.5689 437.5689
   438.0312 438.0312 438.1051 438.5681 440.2702 440.4790 440.4790 440.9586
   441.5220 441.5220 441.7050 441.7050 441.8587 442.6877 442.7673 442.7673
   442.9764 442.9764 443.1580 443.7219 443.9531 443.9531 444.7427 444.7427
   445.2089 445.9809 445.9809 446.7477 446.9401 446.9401 447.0538 447.0671
   447.3633 447.3633 447.7794 447.7794 447.8791 448.6081 448.6104 448.6104
   449.4961 449.4961 449.5043 449.7838 449.7838 449.8085 450.9760 451.8698
   451.8698 452.4155 452.9790 452.9790 453.0312 457.2688 457.3931 457.3931
   458.6890 458.6962 458.6962 460.0434 460.2622 460.2622 460.3159 460.3958
   460.3958 460.7707 460.7707 461.1605 461.2956 461.3411 461.3411 461.4892
   461.4892 461.5709 461.9083 461.9083 461.9367 462.1358 462.1435 462.1435
   463.8044 463.8044 464.0991 464.1715 464.1715 464.2269 464.3247 464.3247
   464.3559 464.9403 464.9403 465.8224 465.8224 465.9054 465.9737 466.4649
   466.4649 466.8737 467.1596 467.1596 467.3565 467.4434 467.4434 468.5938
   468.6421 468.6421 469.1434 469.1434 469.3542 471.4161 471.4161 471.5829
   471.8106 471.8106 471.8317 472.4240 472.4240 473.9946 473.9998 473.9998

          k = 0.5000-0.5000 0.5000 (  4446 PWs)   bands (ev):

   -33.2785 -14.4241 -14.2762 -14.2762  -4.5340   2.9079   4.8352   4.8352
    11.1964  12.0041  12.1352  12.1352  14.0616  14.0616  14.8283  14.8283
    17.0998  19.4328  19.4328  21.6228  21.7555  24.9004  24.9004  27.1117
    29.3994  29.3994  30.6872  33.2518  33.2518  34.6443  34.6443  35.2217
    35.2217  35.2698  38.1808  38.5030  39.7543  40.5399  40.5399  41.8420
    43.6615  43.6615  46.1781  46.1781  46.9946  47.3979  50.2529  50.2529
    50.5449  50.9490  50.9490  54.4133  54.9340  56.4294  56.4294  56.9641
    57.8587  57.8587  61.0499  61.0499  62.5038  62.5038  64.1812  64.1812
    64.2786  64.2786  64.3123  65.7057  65.7699  66.5279  66.7504  67.1029
    67.1029  69.7952  70.8082  70.8082  73.3437  73.3437  74.3959  74.3959
    75.1323  75.3494  75.9001  75.9001  75.9626  75.9626  80.2662  80.2662
    80.6945  80.7492  80.7961  80.7961  81.8694  83.2474  86.4533  86.4533
    86.9968  87.9986  88.0832  88.0832  88.3985  93.0140  93.2434  93.2434
    93.5753  93.5753  93.8656  93.9768  94.0574  94.6169  94.6169  96.4750
    96.4750  96.6436  97.0042  97.0042  98.0978  98.0978  99.5967 100.0470
   100.6592 102.0872 102.7611 102.7611 104.0153 104.0153 104.2609 105.9118
   105.9118 106.7851 106.7851 107.3810 108.6248 108.6248 109.1971 110.7047
   110.8824 110.8824 110.8845 111.2644 111.2644 111.5317 111.5317 113.2614
   115.0534 115.3159 115.3159 116.7037 118.1163 118.1163 118.2122 119.1351
   119.1351 119.7569 119.7569 120.9642 121.0137 121.4124 121.4124 122.1119
   122.1119 123.0966 123.0966 126.1405 126.4192 126.4192 126.5464 129.0079
   129.0079 129.6380 130.1841 130.4172 130.4172 130.5489 131.2781 131.2781
   131.8820 131.8820 132.4201 133.9092 137.2342 137.6343 138.2638 138.2638
   138.7821 140.2969 140.2969 140.6570 140.8916 140.8916 141.7451 141.7451
   142.9586 143.4454 143.9707 143.9707 144.7493 145.1518 145.1518 145.6116
   145.6116 146.3159 146.3839 146.3839 146.5487 148.0123 148.0123 148.1702
   148.1702 148.4399 151.8612 152.3443 152.3443 153.7698 153.8397 153.8397
   154.3343 154.3343 154.7673 154.9181 156.6592 156.6592 156.8149 156.8149
   157.5555 157.5995 157.5995 157.9584 158.4410 158.6804 158.6804 159.0140
   159.0140 159.9260 159.9260 160.3296 162.8332 163.0576 163.0576 163.9983
   164.7221 164.9479 165.3890 165.3890 165.4292 165.4933 165.4933 167.9762
   167.9762 168.6937 171.9806 172.5180 172.5180 173.7972 173.7972 173.8276
   173.9284 173.9284 174.3883 174.9956 174.9956 175.1951 175.3213 175.6492
   175.6492 175.6927 176.1111 176.1111 176.1635 176.6806 176.6806 176.8404
   178.6783 178.6783 180.0972 180.0972 181.0860 181.2801 181.8764 181.8764
   183.0813 183.5441 183.5441 185.8204 189.6727 189.6727 190.7689 191.4806
   191.4806 191.8261 191.8261 192.4921 192.4921 192.5626 192.5626 192.9849
   193.1459 193.1602 193.2159 193.2159 193.2433 193.2803 194.0066 195.3230
   195.3230 195.4923 196.8609 196.8609 198.1081 198.1324 199.9010 199.9010
   200.0563 200.0563 200.4140 200.4140 200.7874 200.9054 200.9362 201.0363
   201.0363 201.1056 201.1056 201.2935 201.2935 201.3621 202.2357 203.3679
   204.7893 204.7893 204.8371 204.8371 206.2345 206.2356 208.3502 208.3502
   210.0675 210.0675 210.8335 210.8335 211.8331 212.2250 212.4797 212.4797
   212.8332 212.8332 212.9256 213.6352 213.6352 214.4765 214.4765 214.5564
   214.8831 214.8831 215.1563 215.1563 216.0744 217.8278 217.9062 217.9062
   218.3036 218.3036 218.3588 219.4835 219.9327 219.9327 220.0482 220.3855
   221.6970 221.6970 221.7320 222.7221 222.7221 222.9494 223.0510 223.0510
   223.7716 224.2581 224.2581 225.7750 227.2738 227.2738 228.4776 228.7210
   228.7210 229.5211 229.8638 229.8638 230.4094 230.4094 230.5657 230.7415
   232.6367 232.6367 234.6746 235.3130 235.6528 235.6528 235.9901 236.0217
   236.0217 236.8852 237.0502 237.0502 237.5407 237.5407 238.3486 239.0099
   239.0099 239.1219 239.7905 239.7905 239.8709 239.8709 239.9682 239.9776
   240.5875 242.4014 242.4014 242.5151 242.5226 244.5719 244.5719 244.6672
   244.6672 244.8388 245.0059 245.3465 245.3465 245.8918 246.3027 246.9324
   246.9324 247.7053 247.7053 249.2023 249.2023 249.5399 249.5399 250.4593
   252.2529 252.2529 252.5922 253.2029 253.2029 253.9653 255.0590 255.0590
   255.6560 256.1256 256.1256 256.2360 258.4944 258.4944 258.6643 258.8266
   258.8266 259.2813 259.3822 259.3822 260.3240 260.3240 260.3410 260.3410
   260.3552 260.4388 260.5553 261.0447 261.5483 261.5483 263.9386 263.9386
   264.4459 264.4459 265.5180 265.5180 265.6077 265.6980 265.8211 267.3486
   268.6149 268.6149 268.8265 268.8733 268.8733 271.4176 272.4137 273.0097
   273.0097 273.0595 273.0595 273.2061 274.2721 274.2721 274.4247 274.4247
   274.9215 275.1937 276.2697 276.4943 276.6671 276.6671 276.7212 276.7212
   277.1959 277.2292 277.2292 277.3183 277.3183 277.4871 277.4871 277.6202
   278.0636 278.1503 278.1503 278.7841 278.7841 279.0790 280.9885 281.0221
   282.9046 283.7553 283.8500 283.8500 284.0437 284.0437 284.1743 284.1743
   284.5504 284.7129 284.7129 285.0229 285.1771 285.1991 285.6373 285.6373
   285.8145 285.8145 286.4071 286.4071 286.5213 286.5213 286.7693 286.7830
   292.4465 292.4465 292.6304 292.9637 292.9637 293.0343 293.7239 293.7239
   294.3677 294.3677 294.5377 294.6188 294.6656 294.6656 295.0968 295.0968
   295.1908 295.3101 296.1828 296.1828 296.9585 296.9585 297.0478 297.0559
   298.7002 298.7002 299.7444 300.8979 300.9534 300.9534 300.9735 301.3829
   301.4921 301.4921 301.9129 301.9129 303.1928 303.5179 305.1616 305.2217
   305.2217 305.6052 305.6052 306.0310 306.0310 307.2832 307.2832 308.5666
   309.0895 309.4128 309.4128 309.7337 309.7570 309.7570 309.7787 310.3442
   310.3442 310.5145 310.5726 310.5726 310.8167 310.8167 314.4342 314.4342
   314.8770 314.8770 315.2546 315.2546 315.3407 316.1427 316.1537 316.1537
   316.6013 316.6031 317.3595 317.3595 317.4144 317.9198 319.0529 319.1678
   320.2126 320.5103 320.5103 320.7157 320.7157 321.9999 321.9999 322.3750
   322.3750 323.8426 324.0697 324.0697 324.6150 324.8436 324.8436 324.8531
   324.8531 325.0339 325.0353 325.5540 326.2483 326.5164 326.5164 326.9182
   332.8711 332.8711 332.9226 332.9226 334.1230 334.1230 334.1763 334.1763
   334.4399 335.6529 335.6529 335.8774 337.0037 337.1576 337.1576 337.4308
   337.4308 337.5787 337.5787 337.7231 338.1257 338.2068 338.8101 338.8101
   338.9008 338.9008 338.9439 339.3288 339.8609 339.8609 340.1385 340.1416
   340.1416 340.2300 340.7758 340.7791 340.7791 340.9566 340.9566 341.0502
   341.1005 341.2449 341.2449 341.2885 341.3319 341.3319 341.8414 341.8414
   341.8813 341.8813 342.0416 342.2621 344.4131 344.4131 344.8678 345.4581
   345.4984 345.4984 345.9245 346.4348 346.4348 346.5071 346.5071 347.1131
   349.4222 349.9841 350.1431 350.1431 350.6768 350.6768 351.4847 351.4847
   351.9284 352.0031 352.1405 352.1405 356.0362 356.0362 356.4340 356.4340
   356.7086 357.3959 357.6460 357.6504 357.8442 357.8442 357.9723 357.9723
   358.2907 358.2907 358.4113 358.4113 358.4586 358.6864 358.7421 358.7421
   359.6146 359.6975 359.8221 359.8221 359.8950 359.8950 360.0463 360.0561
   360.0561 360.2678 362.4501 362.7901 363.8964 363.8964 364.4729 364.7814
   364.7814 365.2199 366.2428 366.2990 366.2990 366.7616 366.7616 368.0167
   368.0167 368.2034 368.2034 368.4240 368.4481 368.5492 368.5492 368.9703
   368.9703 369.0562 369.1030 369.2685 372.9725 372.9725 373.2808 373.2808
   373.3736 373.4416 376.2560 376.2560 376.2606 376.2606 377.9702 377.9702
   378.5660 378.7994 379.0092 379.3812 379.3812 379.4688 379.6298 379.6428
   379.6428 379.6839 379.6839 379.7331 379.8088 379.8088 379.8592 379.8592
   381.1595 381.1595 382.7377 383.0213 383.0213 383.1245 383.1245 383.3436
   383.6100 383.6100 383.6227 383.9980 383.9980 384.2522 384.8863 385.0817
   385.5791 385.5791 386.2105 386.2105 386.4347 386.5827 386.5827 386.8320
   387.8212 387.8212 388.0646 388.0955 388.0955 388.1087 391.8824 391.8824
   394.1030 394.1030 394.7378 394.8516 394.8622 394.8622 395.0324 395.0324
   395.5211 395.5315 395.7394 395.7394 395.9321 396.0371 396.0487 396.0487
   397.2120 397.2120 398.2760 398.2760 398.8602 398.8921 398.9369 398.9482
   398.9482 398.9718 398.9718 398.9899 401.3546 401.7451 402.5465 402.5465
   402.6312 402.6312 403.7480 404.0867 404.0867 404.0995 404.1028 404.1028
   404.1111 404.1390 404.5416 404.5416 404.5448 404.5448 407.7396 407.7396
   407.7502 407.7502 407.8988 407.9001 409.2321 409.2321 410.3197 410.3653
   410.7024 410.7024 411.5388 411.6091 411.6724 411.6724 412.2933 412.4333
   412.6026 412.6026 412.7551 413.0346 413.0346 413.1828 413.1828 413.5081
   417.5313 417.5561 417.5561 417.5984 417.5984 417.8150 418.6288 418.6288
   418.8128 418.8128 419.0113 419.2716 419.2716 419.5409 419.8314 419.8314
   419.9249 419.9263 420.3276 420.3276 421.1983 421.1983 421.2089 421.4003
   421.5291 421.5312 421.5312 421.5475 421.5475 421.5905 422.7168 422.8543
   422.9738 422.9738 422.9860 422.9860 425.1081 425.1081 425.1126 425.1844
   425.1844 425.2642 425.6620 425.6620 425.6987 425.6987 425.7773 425.7787
   430.9288 432.2267 432.2267 432.4064 432.4064 432.6021 433.2266 433.2266
   433.3191 433.3191 433.3921 433.4874 433.8790 433.8790 433.9392 433.9451
   433.9451 433.9827 434.4688 434.6203 434.6203 434.6405 434.6405 435.1693
   437.5605 438.1534 438.1534 438.2746 438.2746 439.1133 439.6847 440.5217
   440.5217 440.6165 440.6165 440.8028 440.8309 440.8649 441.0304 441.0304
   441.5148 441.5148 441.6017 441.6324 441.6324 441.7307 441.7307 441.7719
   441.8105 441.9405 443.2579 443.5005 443.5005 444.3367 444.3367 444.3570
   445.4501 445.7405 445.7405 446.3718 446.3718 446.5997 446.5997 447.0030
   447.0030 447.1544 447.8140 448.1532 448.3637 448.3637 448.8787 448.8787
   451.3709 451.3709 451.3868 451.3868 451.5095 451.5718 451.9172 451.9172
   452.0622 452.0720 452.0720 452.1831 453.2102 453.2102 453.2126 453.2126
   453.3490 453.3490 453.3788 453.3788 453.5088 453.5091 455.1168 455.1170
   459.6423 459.6423 459.6942 459.7957 459.8857 459.8857 460.2733 460.6150
   460.6150 460.9013 460.9013 461.1923 463.3362 463.3362 463.5227 463.8453
   463.8453 464.2412 464.5813 464.5813 464.6719 464.8698 464.8698 465.1213
   465.3562 465.3562 465.7740 465.8326 465.8326 465.9622 465.9622 465.9841
   466.2111 466.4286 466.4286 466.7593 466.9079 466.9079 466.9853 467.1865
   467.1865 467.2692 468.9928 469.0993 469.0993 469.3339 469.3339 469.3663
   470.6266 470.6439 475.9311 475.9311 476.1273 476.1273 476.3007 476.3127

          k = 0.0000 0.2500 0.0000 (  4464 PWs)   bands (ev):

   -33.2873 -14.2863 -14.2704 -14.2704  -5.1943   5.0913   5.7806   5.7806
     9.7879  10.5417  10.6959  10.6959  10.8401  11.9240  17.1458  18.2707
    18.2707  18.9844  19.6336  21.9796  23.5191  23.5191  24.4082  29.5413
    29.5539  29.5539  30.3173  31.1434  32.5873  33.4498  33.4498  35.0129
    36.1098  36.1098  38.0393  43.5661  43.5661  43.9800  44.4977  45.0777
    45.0777  45.0815  45.8674  46.6493  46.6493  46.9328  47.7931  48.5437
    48.8024  49.1741  50.8813  52.5611  52.5611  52.6458  53.6741  53.6741
    54.6640  54.7276  54.7276  57.3198  57.9572  57.9572  59.5850  60.9413
    61.1288  62.6752  62.6752  66.7597  67.9345  68.6464  68.6464  70.6442
    71.2623  73.5042  73.5042  73.9043  76.7535  76.9550  78.2263  78.2263
    78.9440  79.6900  80.7196  80.7196  81.5576  81.5576  81.9007  82.6090
    83.2007  83.3518  83.3518  84.4496  85.1056  85.1056  85.3116  85.7769
    86.0254  87.3831  88.3851  88.4350  88.4350  89.2119  89.8257  89.8257
    91.1166  92.3254  92.5817  93.5706  93.6923  93.6923  93.6959  94.6558
    94.6558  95.3455  95.7409  95.8634  95.8634  98.4445  99.4007 100.3879
   100.5450 100.8802 100.8802 101.6861 102.1352 102.3985 102.3985 103.0061
   103.6690 103.6690 104.2064 104.3316 104.3316 105.7008 107.1578 107.8055
   107.8055 111.1722 111.1722 111.4700 111.8325 112.9052 112.9052 113.1249
   113.1610 114.5622 115.3426 115.8356 116.0758 116.0758 116.6421 116.8606
   116.8606 118.8405 119.4796 119.4796 119.5314 119.7287 122.0628 122.5727
   122.8126 122.8126 122.9407 124.5773 124.5773 125.0193 126.4132 127.3046
   127.5751 127.5751 128.2085 130.1224 131.2100 131.2100 132.6461 132.6920
   132.6920 134.0147 135.9297 136.2984 137.3153 138.1080 138.9779 138.9779
   139.7587 139.7587 141.6191 144.2836 144.2836 145.1724 145.9982 146.0429
   146.0429 146.2547 147.0629 147.8160 148.0696 148.0696 148.9408 149.4490
   149.8130 149.8130 150.5213 150.5213 150.6476 150.8299 151.3382 152.6286
   153.4812 153.4812 154.0551 154.0551 154.1566 154.4709 154.9039 155.0809
   155.0809 155.4475 155.4475 155.9252 156.0663 156.1968 156.7940 158.1380
   158.1380 158.4713 158.7613 158.8282 159.0881 160.0521 160.0521 160.6556
   160.6556 162.1437 162.2025 162.2025 162.3442 162.7892 163.3276 163.6134
   163.6134 164.0346 164.4088 164.4088 165.1612 166.6213 167.1215 167.9542
   167.9542 168.2118 169.1979 169.2572 169.2572 170.0069 170.2957 170.8901
   171.1924 171.8255 171.8255 172.2154 172.4775 172.7982 172.8696 172.8696
   172.9214 173.2049 173.2049 174.4823 175.1231 175.1231 175.4679 176.2104
   176.8548 176.8548 176.8999 176.9756 177.9992 177.9992 179.8892 180.9758
   182.2773 182.9560 182.9560 184.1929 184.3861 184.6022 184.7077 184.7077
   184.9238 184.9933 186.2920 186.2920 188.1885 188.1885 188.3104 188.8636
   189.0421 189.0421 189.3210 189.6062 191.3657 191.3657 191.7256 191.8200
   192.8714 193.1595 193.1595 194.1174 194.4737 194.4737 194.5566 196.6858
   196.9333 199.0913 200.0421 200.0421 200.3610 202.1296 202.1846 202.1846
   202.6523 203.0212 203.0694 203.0694 203.2937 203.8282 204.0058 204.0058
   204.2979 204.4242 204.4242 205.0478 206.1802 206.4252 206.4252 208.2136
   209.3903 209.3903 210.2713 211.0529 211.1701 211.1701 211.2530 212.3789
   212.3849 213.2250 213.2250 214.1585 214.8478 215.3999 215.3999 217.4141
   217.4588 219.8339 219.8339 221.1019 221.7128 222.2314 222.2314 222.7754
   222.7754 222.9113 223.0709 223.2348 223.5608 224.5443 224.5443 225.6114
   225.6114 225.8763 225.9926 227.0676 227.0676 228.3765 229.2986 229.9445
   229.9915 230.2581 230.2851 230.2851 231.4083 232.5214 232.5214 233.0958
   233.0958 234.1740 234.3064 234.4546 234.7510 234.8031 234.8031 235.3216
   235.5588 235.6443 235.6443 235.8025 236.1419 236.1419 237.1514 238.0774
   238.1198 238.1390 238.1390 238.2369 239.8616 240.8168 240.8168 240.9201
   241.3234 241.3234 241.3623 242.9064 242.9124 243.2089 243.2089 243.5231
   245.0054 245.3162 245.3162 245.3633 245.4606 245.6237 245.6237 245.9495
   246.3270 246.9794 246.9794 247.3819 247.6539 247.6539 248.0917 248.0917
   248.3792 248.9265 248.9435 249.2457 249.2457 249.3816 250.2405 252.1107
   252.1854 252.2205 252.2205 252.3609 252.6799 252.8612 252.8612 253.3908
   253.5508 253.5508 253.5861 254.0454 256.2609 256.3059 256.3059 256.3322
   256.9065 257.0380 257.1995 257.1995 258.0547 258.5072 258.5072 258.7355
   258.8594 258.8594 258.9463 259.7428 260.1275 260.1275 260.1633 260.5076
   261.1944 261.2726 261.3302 261.3302 261.8073 261.8073 262.4320 262.9910
   263.7926 263.8850 264.0086 264.0086 264.5748 264.5748 264.8679 265.7303
   265.7891 265.7891 266.0679 266.1948 266.4973 266.7831 266.8596 266.8596
   267.8875 268.5543 268.9294 269.4493 269.4493 270.6962 270.7159 270.7159
   270.8670 271.8471 272.2136 272.3140 272.3140 273.1012 273.2924 273.2924
   273.4804 274.1115 275.3349 275.3349 275.6440 275.6440 275.8314 278.0549
   278.6999 278.6999 278.7594 279.6278 279.6544 279.9100 280.0863 280.0863
   281.1159 281.5928 281.5928 281.6451 281.7442 281.7442 282.3627 284.8470
   286.1405 286.3710 286.3710 286.6259 287.7566 288.6655 288.6655 288.8783
   288.8783 289.0185 289.9490 291.6771 293.7362 294.2373 294.2373 294.3692
   294.7509 296.3156 296.8002 296.8002 297.1371 297.4013 297.7978 298.4231
   298.4231 299.0085 299.7523 299.7523 301.4556 301.4556 301.5502 301.8826
   301.9155 302.5324 302.5324 302.5534 302.6838 304.8878 305.2334 305.2334
   305.7365 306.0983 306.8707 306.8707 307.3909 307.3909 307.6231 308.2158
   308.3607 308.6614 308.7779 308.7779 309.4022 309.9072 310.5453 310.5453
   310.8294 311.0605 311.0605 311.1442 311.2661 312.4410 312.4410 313.0185
   313.5704 313.6589 313.6589 313.9761 314.2136 317.1780 318.4573 318.4573
   319.0363 319.2389 319.3338 319.6781 319.6781 319.6961 320.0478 320.0478
   320.1723 320.4641 321.1394 322.2141 322.2141 323.2389 323.5886 323.5886
   323.6100 323.7780 324.0076 324.1437 324.1437 324.3369 324.3896 325.0146
   325.1338 325.1454 325.1454 325.4208 325.4208 326.5435 326.5435 327.0303
   327.3554 328.3502 328.3502 328.5570 329.1290 329.8571 329.8571 330.0587
   330.1568 330.1568 330.2644 331.1177 331.3870 331.5454 331.5551 331.5551
   331.7400 331.9783 332.1483 332.1780 332.1780 332.4210 332.5052 332.5760
   332.5760 334.0692 334.4105 334.4225 334.4225 334.4577 334.9891 335.2646
   335.3260 335.3260 336.2411 337.9170 337.9170 338.5280 338.5280 338.6279
   340.4390 340.5458 340.7901 341.4532 341.4532 341.5388 342.0793 342.8569
   342.8569 343.7514 344.0474 344.2217 344.2268 344.2268 346.1348 346.4130
   346.5384 346.5384 347.4592 347.5940 347.5940 347.6360 348.5016 349.2443
   349.2443 349.4205 349.4364 349.7809 350.0175 350.0175 350.2713 350.8993
   350.8993 351.3100 351.5271 352.0583 353.3812 353.3812 354.0631 354.2560
   354.2560 355.5504 355.5504 355.6526 355.9014 356.6882 356.8177 356.8177
   356.8341 356.9069 358.3267 358.3267 358.3563 358.4230 358.4230 358.5670
   359.4498 359.7253 359.7330 359.7330 360.0583 360.6523 360.7730 360.7730
   360.8158 361.0269 361.5630 361.5630 361.7754 362.0047 362.0764 362.0764
   362.2320 362.2320 362.2452 362.6290 362.7208 362.7896 362.7896 363.0051
   363.8815 364.5581 364.8183 364.8794 364.8794 367.0922 367.1694 367.1694
   367.2821 367.5235 367.5235 367.5303 367.5893 369.9907 370.0760 370.0760
   370.4582 370.4603 370.6867 370.6867 370.7448 371.1195 371.8615 371.8615
   372.0868 372.5938 372.7022 372.8457 372.9272 372.9272 374.3311 374.3546
   374.3546 374.3722 376.1144 376.9654 376.9654 377.7119 377.8022 377.8022
   377.8205 378.4417 378.7169 378.7169 378.8257 379.0890 379.3857 379.4391
   379.4391 379.7768 380.0918 380.1070 380.1070 380.1351 380.1351 380.1451
   380.6816 380.7232 381.6095 381.6095 381.6933 381.8176 383.2274 384.8132
   384.9110 384.9110 385.0011 385.0394 385.6752 385.6752 386.0172 386.0858
   386.1906 386.1906 386.2302 386.3756 386.5760 386.5760 386.8003 386.9168
   386.9168 387.5859 387.5859 388.0818 388.2355 389.4669 389.6984 389.6984
   389.8186 390.4832 390.6423 390.6423 390.7404 391.7569 393.1238 393.1287
   393.1287 393.1534 393.1622 393.2333 393.2333 393.4501 393.5031 393.5217
   393.5217 393.5918 393.5918 393.5939 393.7451 393.8175 396.5898 397.3586
   397.3586 397.4841 397.5015 397.8924 397.8924 397.9895 398.2322 398.4326
   399.4118 399.4118 399.4802 399.4802 399.8399 399.8957 399.8957 400.8237
   404.1886 404.2083 404.2083 404.3549 405.0238 405.2610 405.4683 405.4683
   405.8550 406.0747 407.0420 407.0420 407.3256 407.7830 408.1156 408.2253
   408.2253 413.0856 413.3027 413.3698 413.3698 413.4432 414.4286 414.4286
   414.5270 414.7590 414.8446 414.8446 414.9643 415.2134 416.3624 416.3624
   417.2201 417.3744 417.3744 417.4524 418.5712 419.5773 419.6607 419.6607
   419.7458 420.1098 421.2967 421.3140 421.3140 421.3235 421.9218 422.0000
   422.0000 422.0089 424.3938 424.6188 426.7616 426.7616 427.0062 427.0788
   427.0788 427.0932 427.3151 427.3151 427.4480 427.9463 428.3186 428.3186
   428.3867 428.5671 430.4164 430.4164 430.9262 430.9262 431.0412 431.8391
   431.9340 432.0869 432.6535 432.6605 432.6605 433.2293 436.3220 436.8859
   437.1346 438.1305 438.2247 438.2247 439.7633 439.8170 439.8170 439.9634
   440.2537 440.5989 440.6445 440.6445 441.0073 441.0073 441.0636 441.0636
   441.2407 441.2890 442.1401 442.1883 442.1883 442.2966 442.4147 443.1761
   443.1761 443.3846 443.6867 444.9576 444.9576 444.9599 445.4225 445.7343
   445.8268 445.8793 445.8793 446.1560 446.4319 446.4319 446.9832 447.0059
   447.0109 447.0109 447.0269 447.9931 448.5770 448.5770 448.7235 448.9467
   448.9467 451.1865 451.1865 451.4169 452.7663 454.1211 454.8787 454.8971
   454.8971 455.4196 455.4196 455.4226 455.5638 455.8668 456.1397 456.3302
   456.4715 456.4715 456.6865 456.6865 456.8428 456.9823 457.2184 457.2862
   457.2862 457.3983 457.6116 457.9991 457.9991 458.5113 459.3623 459.5922
   459.7357 459.7357 460.1936 460.3656 460.3656 460.6525 461.1277 461.1277
   461.2412 461.8484 462.4164 462.4682 462.4682 462.4890 462.5719 462.5863
   462.5863 462.7525 463.8003 463.8003 463.9304 464.0160 465.5025 466.0583
   466.1580 466.1580 466.2810 467.1360 467.2411 467.6652 467.6652 467.8665
   468.4052 468.4052 468.4097 468.6871 468.6871 468.9330 469.1158 469.5892
   469.8788 469.8788 470.1118 470.3380 470.8889 470.8889 471.2136 471.2504
   471.5029 471.5060 471.5060 471.5635 471.6851 471.7232 471.7232 472.4039
   472.5056 472.5056 472.6044 472.6130 472.6211 472.6850 472.6850 473.2767

          k =-0.1250 0.3750-0.1250 (  4456 PWs)   bands (ev):

   -33.2842 -14.3276 -14.2771 -14.2740  -4.9995   4.3230   5.3837   5.4850
     9.7462  10.9641  11.1151  11.4849  11.4915  13.1261  16.5974  17.2805
    17.5045  18.6150  20.3562  21.3399  23.8112  25.1152  25.1490  27.2861
    27.5041  29.2132  30.1041  31.6178  32.5611  33.8895  34.4774  35.7154
    36.5478  37.6896  39.8412  40.7905  41.4074  41.9034  42.8481  43.6387
    43.7698  44.4395  44.8195  46.0970  46.5106  47.2862  48.5365  48.5478
    49.7634  50.5657  50.9922  52.2103  52.6754  54.0232  54.7334  56.2899
    56.8529  56.9024  57.8037  58.3375  59.2294  59.4614  60.9661  62.2634
    63.0982  63.6060  64.2347  65.3707  65.4224  66.4479  67.4962  69.1941
    70.6521  73.1132  73.7773  74.2027  74.7153  75.0271  75.5095  75.6267
    76.3613  76.4684  78.2421  78.5820  79.3547  80.4946  81.0505  81.8188
    82.3653  83.0683  83.1867  83.6636  84.2977  85.5464  86.0510  86.3779
    86.9080  88.1268  88.1421  88.7284  88.8789  89.6467  90.9615  91.5353
    93.1246  93.1593  93.3074  93.5109  93.7341  94.6011  95.5407  95.8674
    95.9102  96.5783  97.1495  97.4948  97.8437  98.4250  98.8187  99.7655
   100.1384 100.2334 100.7757 101.0860 101.8886 102.5495 103.0094 103.0421
   103.7249 104.3879 105.2204 105.8144 106.0484 106.4101 107.0318 107.9506
   108.2084 108.6254 109.1275 109.5430 110.2555 112.2372 112.6242 113.3449
   114.0399 114.4178 114.6358 115.3785 115.8951 117.5939 117.7396 118.0810
   118.3435 119.5167 119.5240 121.2050 121.3291 122.4899 122.6552 123.3385
   123.5216 124.0368 124.6104 124.8686 125.3935 126.0655 127.2206 128.0540
   128.4443 129.1065 129.6386 131.0119 132.1744 132.3698 133.6210 133.8732
   134.5743 134.5976 135.1724 136.3490 137.0958 137.2069 137.6900 138.5400
   138.6825 139.5208 140.0826 140.2956 141.2122 141.9352 142.9021 143.0287
   143.7195 144.3254 144.7599 145.1004 145.5235 145.7768 146.2948 146.7005
   146.7498 147.0772 147.6071 148.0930 148.9120 149.7639 150.0893 150.1067
   150.9663 150.9862 151.7366 152.2344 152.4645 153.2643 154.5765 154.8439
   155.3555 155.5421 155.5948 155.7499 155.8878 156.1360 156.3630 157.4808
   157.6209 157.8729 158.2341 158.3839 158.6281 159.0455 160.1090 161.9583
   162.8181 163.2551 163.4095 163.5147 163.8200 164.4602 164.9425 165.2632
   165.6400 165.6500 165.8963 166.5826 166.6756 167.6788 167.7941 168.1960
   168.2443 168.4689 169.5802 171.0087 171.1043 171.1704 171.4734 172.4255
   172.6495 172.9140 173.3490 173.5560 174.0629 174.4491 174.5747 174.6618
   175.0874 175.7604 176.9844 177.0251 177.0373 177.5677 177.9081 177.9854
   178.0578 178.2664 178.8086 178.9357 179.7787 179.8163 180.4955 180.9788
   181.0407 181.7526 181.9828 182.3984 182.4600 182.7418 183.0056 183.6395
   183.7763 183.9753 184.1521 186.0531 186.3935 186.4551 187.1220 187.5336
   188.6321 189.1229 190.4689 190.7006 191.1289 191.6370 193.0251 193.4271
   194.1293 194.5969 194.7597 195.3278 195.5091 196.7720 197.1230 197.2154
   197.7451 198.3149 198.9492 199.6535 200.1234 200.2209 200.6617 201.1418
   201.8081 202.0184 202.7498 203.9707 204.0297 204.9630 205.0945 205.8191
   205.8623 206.0915 206.5373 207.3406 208.0043 208.3013 209.0668 209.3584
   209.6750 210.3176 211.1512 211.8177 211.9891 212.1809 212.3621 212.5572
   213.1107 213.4550 213.9362 214.0537 214.3258 214.9025 215.0150 216.2163
   216.6112 217.7696 218.0416 218.4502 218.9168 219.5508 219.7655 220.3591
   220.9247 221.9331 222.7100 222.8421 222.8951 223.5412 223.5454 223.6662
   223.8417 224.6831 225.0698 225.2323 225.6801 226.6087 226.8002 228.0709
   228.2360 228.6056 229.1702 229.4185 229.5342 229.9159 230.6036 231.3467
   231.6061 231.9284 231.9471 233.0531 233.2046 233.5085 234.8084 234.9053
   235.4515 235.7018 235.8586 235.9957 236.2882 236.3950 236.6132 236.7768
   236.7813 237.2062 237.4881 237.7619 238.0861 238.3470 238.3761 239.0528
   239.3430 239.8604 240.8059 241.7217 242.2377 243.2837 243.6257 243.6841
   243.7526 243.9550 244.1712 244.4072 244.8426 244.9828 245.1588 245.7507
   246.1768 246.2704 246.4911 246.5324 246.7727 246.7788 247.4901 247.5643
   247.7921 247.8492 248.1259 248.6881 249.0070 249.3815 249.8079 250.0167
   250.1687 250.4364 250.9130 251.6253 251.7507 251.7811 252.2223 252.5112
   252.9287 253.0887 253.2460 254.8096 254.9552 255.1316 255.2256 256.0225
   256.1840 257.1911 257.2036 257.6913 258.0234 258.3508 258.4794 258.5664
   258.8022 259.2353 259.2624 259.6387 259.7549 260.2343 260.8898 262.0463
   262.1176 262.4928 262.7181 263.0646 263.0765 263.7627 263.8830 264.0955
   264.1027 264.9439 265.4749 265.5422 265.9384 267.0352 267.7278 268.1459
   268.6192 268.9423 269.0991 270.3264 270.4730 270.6454 270.8318 271.0398
   271.1597 272.1872 272.7727 272.9455 273.3550 273.3709 273.5853 273.9199
   274.3184 274.8023 275.0564 275.1848 275.5376 276.9974 277.2365 277.3774
   278.0642 278.2866 278.3675 278.5217 278.8122 279.1782 279.2218 279.6755
   279.9201 280.2506 280.7894 281.0127 281.4772 281.9391 282.2548 282.7313
   283.1385 283.4780 283.6253 284.2130 284.8702 285.0448 285.0745 285.2027
   285.6497 285.9673 286.7949 287.5241 287.7435 288.2501 288.2729 289.1666
   289.1817 290.4717 290.8521 291.0286 291.5219 291.5767 292.5385 292.6044
   292.9831 293.2108 294.1213 294.6042 294.6274 294.6944 295.4504 296.0064
   296.2121 296.8566 297.1579 297.4213 297.6112 297.7825 298.3275 298.6294
   299.1247 299.1946 299.5117 300.6146 300.8785 301.7637 301.8388 302.7138
   302.7908 303.0025 304.1002 304.3966 305.1984 305.6889 305.9927 306.4029
   307.0088 307.6270 307.9557 308.2546 308.5792 309.6053 309.8168 310.0419
   310.5162 310.6982 310.7661 311.2498 311.8329 312.0137 312.5519 312.5576
   313.5544 313.7536 314.1531 314.7222 315.0093 315.0400 315.1980 315.6620
   315.7276 316.0168 316.6426 316.8890 317.5984 318.0627 319.7302 319.8067
   319.8669 320.5727 320.6322 321.2104 321.4024 321.4868 321.8626 322.2969
   322.9706 323.0008 323.2807 323.6657 323.8688 324.2581 324.3027 325.3806
   325.5953 325.7038 325.8879 326.0697 326.2286 326.3676 326.7851 326.9875
   327.2446 327.6203 327.6247 327.7467 327.8765 328.4947 328.5748 329.0623
   329.3701 329.5822 329.8645 330.2653 330.5262 330.7323 330.9453 331.0493
   331.5023 332.8472 332.8791 333.2719 333.5381 333.9693 334.3684 334.9546
   335.4296 335.5140 335.5304 336.3038 336.3752 336.7553 336.7769 337.1532
   337.3780 337.4825 337.9507 338.4278 338.6701 338.8459 338.8546 339.5717
   339.7094 340.1435 340.4403 340.6885 340.8351 340.9773 341.5935 342.0525
   342.1819 343.4878 344.0139 344.3323 345.7951 345.9092 345.9102 346.0412
   346.2548 346.4424 347.2056 347.2527 347.6890 348.1001 348.7498 348.9447
   349.0304 349.2227 349.9173 349.9454 350.6690 351.1205 351.1841 351.4915
   351.6583 351.7995 352.0228 352.2894 353.2628 353.5541 353.8010 353.8757
   354.0570 354.7658 354.8956 354.9888 355.2285 355.4015 355.4918 355.9830
   356.0405 356.0592 356.2401 356.2537 356.6864 356.8318 357.3606 357.4625
   357.5337 357.6613 357.7280 357.8875 357.9034 358.2286 358.2515 359.0172
   359.4751 359.4966 360.4957 360.7494 361.0371 361.5903 361.6906 362.0233
   362.3353 362.4162 362.7789 363.1813 364.5181 364.5555 364.7056 364.8772
   364.9220 364.9357 365.3020 365.4027 365.4507 366.0011 366.0020 366.3604
   366.5560 366.6064 367.0039 367.1605 367.3319 367.9349 368.0078 368.3352
   368.6056 368.9463 370.4838 370.7922 370.9086 371.1468 371.3076 371.6223
   371.6726 371.7546 372.1557 372.1776 372.6600 372.6698 373.0030 373.8632
   373.8984 374.6461 374.6800 375.2010 375.3309 375.3512 375.6901 375.8265
   376.1845 376.5371 376.6167 376.6833 376.8195 376.8702 376.8730 377.0774
   378.4911 379.5807 380.4472 380.6336 380.7506 381.7835 381.8065 382.6383
   382.6798 382.7934 383.4328 383.9332 383.9973 384.1346 384.3885 384.4979
   384.6499 384.6619 384.9755 385.1181 385.2628 385.7232 385.9893 386.6221
   386.7912 387.0462 387.0596 387.2186 387.6447 387.8352 388.9549 388.9892
   389.2734 389.2845 390.6349 390.7740 391.3750 391.5401 391.5697 391.6848
   391.7429 391.8170 391.9338 392.0500 393.2125 393.4991 393.6321 394.0691
   394.0969 394.3145 394.5286 394.8650 396.1296 396.5983 397.2186 397.6771
   397.9423 398.1503 398.2247 398.3577 398.5181 398.6765 401.2524 401.3198
   401.4825 401.8534 402.1040 402.2769 402.4535 402.5415 403.6039 404.2107
   404.5092 404.7583 405.0665 405.1427 405.5734 405.7544 405.9442 406.4470
   406.6025 406.8325 407.1062 407.1526 407.3197 407.3760 408.3836 409.5128
   409.5947 409.6274 409.7516 409.7524 409.9691 410.0013 410.1611 410.2150
   410.5559 410.9949 411.5536 411.7017 411.7927 412.3894 413.2600 414.1797
   414.4716 414.6130 414.6374 414.7439 414.7555 414.9412 415.0208 415.2771
   415.4381 415.8648 417.3639 417.4217 417.9313 418.6300 418.8770 419.0938
   419.2201 419.7846 420.1157 420.5492 420.6150 420.7735 420.8215 420.8793
   422.5720 422.7090 422.9472 423.2273 423.3176 423.5464 424.1441 424.1655
   424.5823 425.1710 425.2717 425.6314 425.6672 425.8553 426.0172 426.5383
   426.5987 427.6201 428.0890 428.3646 428.6629 429.0736 429.5773 429.6934
   430.4036 430.4546 430.8648 431.1612 431.4480 432.1161 432.5751 432.9507
   433.7328 434.2665 434.7533 435.2070 435.2896 435.6936 435.9849 436.3111
   436.8392 437.0943 437.3331 437.3939 437.7713 437.7804 437.9419 438.0322
   438.1504 438.6193 439.1486 440.0116 440.5046 440.6826 440.8653 441.1359
   441.2623 441.5241 441.5562 441.7910 442.3370 442.4357 443.2185 443.4661
   444.5972 444.7518 444.7755 444.8811 445.1879 445.2538 446.0114 446.1884
   446.2231 446.5574 447.3065 447.5237 447.6973 448.4335 448.8684 448.9860
   449.2175 449.2364 449.4074 450.4458 450.4718 451.2002 451.8104 452.1386
   452.3224 452.4265 452.4489 453.1041 453.3274 453.3452 453.9808 454.4947
[...]
   194.1584 194.2522 194.9720 196.8152 197.1585 197.4937 198.0579 198.4588
   198.6801 198.9084 200.2807 200.5223 200.6433 201.1137 201.2699 201.2704
   201.3803 201.9990 202.6537 202.6645 203.3149 204.3391 204.6292 204.9843
   205.4076 205.5029 205.6617 205.6636 206.5652 207.2280 207.4265 207.5100
   208.0675 208.4868 208.7353 209.4385 209.7608 209.8231 210.2051 211.4139
   211.4987 211.5158 211.5454 211.7487 212.9716 212.9758 212.9762 213.0536
   213.5021 213.5404 213.6286 214.8424 215.5281 215.9910 216.2343 216.8734
   218.1253 218.2523 218.3150 218.8399 218.8779 219.1275 219.1537 219.3479
   220.6814 221.3998 221.4772 223.3099 223.7054 224.4040 224.6045 225.3236
   225.4530 225.7616 226.0539 227.1322 227.8333 228.9781 229.4361 229.5181
   229.8885 230.0556 230.2388 230.7755 231.8943 232.0225 232.3772 232.5935
   232.8097 232.9555 233.1313 233.4021 233.5301 233.9071 234.2103 234.9780
   235.1109 235.3486 235.4205 235.5038 236.1316 236.2513 236.4177 236.7991
   237.0245 237.3235 237.4311 237.4821 237.7289 237.8396 237.9779 238.1132
   238.9202 239.4400 239.6855 241.4622 242.8910 243.6616 244.1272 244.2442
   244.2726 244.5563 245.0563 245.3853 247.0049 247.8687 248.2881 248.8128
   249.0937 249.3657 249.4862 250.0383 250.2637 250.4715 250.9590 251.3531
   251.9656 252.5589 253.1916 253.2516 253.5027 253.6148 254.5407 254.5663
   254.5744 254.6242 254.8003 255.5153 255.6478 255.6732 256.1723 256.6462
   257.1436 258.2300 258.4871 258.8459 259.4341 259.7503 260.0452 260.5917
   261.2762 261.9333 261.9506 262.5620 262.8658 263.6874 264.2683 264.3470
   264.3730 264.8927 265.0618 265.1994 265.6118 265.6118 266.0026 266.1593
   266.2014 266.7386 267.1849 267.2391 268.7787 269.1842 269.3599 270.3318
   270.9678 271.3555 272.5579 272.6765 273.4168 273.4542 273.7507 273.8416
   274.2280 274.5551 274.7282 275.8392 276.0925 276.4506 277.2204 277.4399
   277.6043 277.6619 279.3378 279.3890 280.1523 280.5611 280.8310 281.5002
   281.7174 282.1417 283.2901 283.5878 283.5926 284.0374 284.4448 284.6572
   284.8804 284.9791 285.3707 285.4239 285.4546 285.8940 286.2612 286.6530
   287.3244 287.4165 287.7553 287.7989 287.9927 288.2808 288.3335 288.4481
   288.5228 289.6564 289.7747 290.4248 290.5949 290.9650 290.9656 291.3932
   292.4578 292.6432 292.6825 292.7141 293.2212 293.2809 293.9520 293.9757
   294.4591 295.4042 295.8642 296.0310 297.2234 297.6143 297.6266 297.6391
   297.7291 298.2973 298.7248 299.0311 299.2408 299.2898 299.5100 299.5274
   299.6050 299.9205 300.1116 300.8847 300.8968 301.0313 301.9630 302.6311
   302.9934 303.0390 303.0408 303.5358 303.6039 304.2429 304.5086 304.5550
   304.6885 304.7744 305.0354 306.9965 307.0173 307.1068 307.3544 307.5794
   307.6740 307.9177 307.9181 308.0702 308.9961 309.1970 309.8700 309.9031
   310.1835 310.5081 310.5980 310.6644 310.6919 310.7054 310.8010 311.0297
   311.5027 311.6360 311.8262 311.8639 311.8714 312.2674 312.7078 312.9770
   313.2243 316.3066 316.5737 316.7101 316.9330 317.0320 319.0215 319.0642
   319.8457 320.0887 320.1059 320.1200 320.6288 321.0516 321.0885 321.5716
   321.7667 321.8219 322.3307 322.5207 322.7451 322.8801 323.0651 323.0933
   323.5996 324.3382 324.3451 324.3750 324.5803 325.8065 327.1971 327.2965
   327.5314 327.8213 328.1336 328.2851 328.6179 328.6400 328.9985 329.0403
   329.4173 329.4561 329.8362 329.8482 330.2250 330.4671 330.4971 330.5016
   330.5655 330.6913 333.1336 333.4817 333.8146 333.8202 333.8407 334.2436
   334.2678 334.8975 334.9284 335.2414 336.4642 336.6649 336.7558 336.7695
   338.1290 338.1913 338.9513 339.0544 339.4043 340.8850 340.9370 340.9549
   341.1887 341.1916 341.2339 342.3536 342.6322 342.6358 342.8048 342.8658
   343.7541 344.0039 344.2213 344.8645 344.8744 344.9674 344.9793 345.5115
   345.9996 346.2819 346.5070 346.8029 346.9280 348.4042 348.5414 348.6066
   348.8846 349.0786 349.5018 350.2114 351.1607 351.2079 351.7545 351.8047
   351.8613 352.3427 352.5252 352.8690 353.0533 353.3731 353.4622 353.7297
   353.7327 354.2847 355.3646 355.8449 356.2386 356.2998 356.5088 356.7139
   356.8060 356.9953 357.0323 357.8413 358.0842 358.4977 358.6348 358.7512
   359.7882 362.2093 363.5254 363.7366 363.8554 363.8968 364.2451 364.4580
   364.4629 364.9324 365.1786 365.2520 365.5069 365.8749 366.1838 366.5261
   366.8794 368.0471 368.2588 368.5717 368.8511 369.5134 369.5971 369.8886
   371.3136 371.5577 372.0111 372.4238 372.5877 372.7063 372.7087 373.6296
   374.1667 374.3741 374.4297 374.5780 375.5443 375.8022 376.1872 376.6002
   376.6104 377.0249 377.1248 378.3302 378.5182 378.5773 379.0892 379.3000
   379.6344 379.7674 379.9156 380.2821 380.3758 380.4342 380.4537 380.8098
   381.1450 381.2747 381.3153 381.3966 382.2595 382.5440 383.5825 383.7615
   383.8600 383.9285 383.9479 384.3494 384.3936 384.7990 384.9641 385.0031
   385.1502 385.3991 386.1090 386.1095 386.1193 386.6076 386.9870 387.1261
   387.6263 387.7960 387.9844 390.5462 391.2210 391.3797 391.4143 391.4329
   391.7345 391.9273 392.0795 392.1487 392.1650 392.3432 392.7342 392.9305
   393.3001 393.5226 394.0979 394.7877 394.8537 395.0211 395.1789 395.6104
   395.6845 395.8860 395.9391 396.7765 396.8281 396.9957 397.2166 397.2384
   397.7178 398.5114 399.0786 399.2610 399.3557 399.3976 400.1459 400.3361
   400.3398 400.5435 400.7019 400.8124 401.7665 401.8366 401.9862 402.0246
   402.1507 402.2565 402.4221 402.4940 403.0599 403.2233 403.3408 403.4376
   403.5667 403.6065 403.6362 403.8902 404.3162 404.3530 405.7434 406.1512
   406.4746 406.4933 406.5129 407.7527 407.8250 408.3597 408.4087 408.4549
   409.4536 409.7119 409.8088 409.8691 411.3092 411.3845 411.5024 411.5742
   412.0269 412.0765 412.2725 412.3406 412.4673 412.4890 412.6489 412.8060
   414.4235 414.4361 414.8619 414.8843 415.2369 415.2411 415.3349 415.3544
   415.8121 415.8995 416.0726 417.1934 417.2473 417.2506 418.5507 418.7070
   418.7800 419.1733 419.4099 419.5520 419.6368 419.6951 419.8140 419.9588
   420.1254 421.0479 421.0735 421.2030 421.3416 421.5356 421.8590 422.2520
   422.2795 422.5635 422.5743 422.7905 422.7914 422.9176 423.6472 423.9523
   424.4430 424.6737 424.7738 425.9920 426.0080 426.0465 426.3503 426.3914
   426.5545 426.9541 427.0618 427.1108 427.1636 428.7307 429.2013 429.2276
   429.3848 429.4133 429.4971 429.6494 429.7176 431.2454 431.3415 431.4414
   432.0395 433.4502 433.7213 433.8916 434.0210 434.1551 434.4142 434.4537
   434.4722 436.1007 436.2967 436.3903 436.4175 437.7500 438.3704 438.3841
   439.1725 439.4371 440.4004 440.7585 441.1366 441.2425 441.3116 441.8143
   441.8348 441.9113 441.9125 442.4561 442.5421 443.0122 443.0563 443.0863
   443.2177 443.9294 444.1927 444.2810 444.3764 444.4792 444.7046 444.7268
   444.7686 444.9601 445.0747 445.6818 446.6193 446.6473 448.4360 448.4403
   448.8191 448.9941 449.3121 449.3539 449.6122 449.7349 449.7691 449.9745
   450.1776 451.3548 451.6741 451.7445 451.9180 451.9819 452.0035 452.0934
   452.2622 452.3430 452.5337 452.5724 452.6096 452.6158 452.6524 452.7270
   452.7356 452.7478 453.0331 453.1518 453.5363 453.9923 454.0148 454.1225
   457.2273 457.5925 458.3780 458.7483 458.7862 458.7946 458.7987 459.1718
   459.2522 460.0779 460.1258 460.2376 460.3517 460.3541 460.9155 461.0722
   461.3847 461.4428 461.6188 462.1144 462.7490 463.0584 463.3087 463.3523
   463.5388 463.6363 463.7346 463.8792 463.8836 463.9588 464.2312 464.6099
   465.4994 465.7131 466.4784 466.4945 466.5979 467.1858 467.5023 468.9629
   469.2541 469.7846 469.8091 469.9248 469.9306 470.3033 470.3117 471.3263
   471.3330 471.7942 471.7967 472.0168 472.0292 472.5372 472.7767 472.7941

          k =-0.5000-1.0000 0.0000 (  4420 PWs)   bands (ev):

   -33.2750 -14.3462 -14.3462 -14.3200  -4.5986   4.2061   4.2061   4.4427
    10.7948  10.7948  11.9628  12.3625  12.7237  15.2399  16.0417  16.1761
    16.1761  20.2695  20.5912  20.5912  23.3836  26.0355  27.1254  27.1254
    28.2590  28.3363  28.3363  30.1361  31.0333  32.1838  34.6279  34.6279
    36.1445  36.1445  37.0151  37.4851  37.7635  41.8218  41.8218  44.7724
    45.6078  46.0326  46.4376  46.4376  46.8663  47.0404  51.2265  52.0790
    52.1486  52.1486  52.7657  54.6084  54.6084  55.1009  56.3873  56.3873
    57.0137  58.3205  58.3205  59.6236  61.9600  61.9600  63.2655  63.2655
    63.4042  63.7047  65.0960  65.9219  67.2467  67.5627  67.5627  68.6976
    68.8857  68.8857  69.6290  71.3916  71.6846  74.7526  74.7526  75.1214
    76.2251  76.6993  76.9047  76.9047  78.0952  78.0952  78.7065  78.8124
    80.6011  81.0234  81.0256  81.4377  81.4377  82.5451  82.8315  82.8315
    85.3927  86.0134  86.7861  87.5105  87.5105  87.8490  88.3829  88.3829
    89.0752  91.8951  91.9321  92.1321  92.2187  92.2187  92.4979  95.3290
    95.3290  98.6554  98.7147  99.1649  99.2736  99.2736 103.0311 103.5029
   103.5029 104.7445 105.4117 105.4117 105.7050 106.0727 106.0727 106.4075
   107.0220 108.7432 108.7432 109.2140 109.7665 109.7665 110.3964 110.3964
   110.7267 111.4852 111.9322 113.4948 114.1215 114.1215 115.4742 115.6364
   115.6695 116.6131 117.2685 117.2685 118.9157 119.1856 119.1856 119.5194
   119.5335 119.8564 121.0285 121.8004 121.8004 122.0744 123.5579 123.5579
   124.0263 124.0705 124.0705 124.3773 125.3692 125.4520 125.6324 127.4710
   127.4710 128.0048 128.6113 129.4673 129.4673 130.1692 130.6401 132.3580
   132.3580 133.3227 134.0948 134.5425 134.5425 134.6393 135.7887 135.7887
   136.7484 137.3166 138.0693 138.8632 138.8748 138.8748 138.9563 139.6084
   140.3627 140.3627 140.4069 141.2433 141.2433 141.3733 141.4107 141.6073
   141.6073 142.4809 145.1692 145.1692 146.5840 147.4115 147.9932 147.9932
   148.2184 149.1953 149.1953 151.1889 151.2923 151.8367 152.4726 152.4726
   153.2677 154.5736 155.0007 155.0007 156.6589 156.6589 156.6894 157.7900
   157.9999 157.9999 158.0599 158.7046 159.7762 159.7762 159.8607 160.5758
   162.0009 162.1675 162.7614 162.7614 163.0695 164.3923 164.3923 165.2391
   165.3473 166.0151 166.0151 167.3602 167.6148 168.3147 168.8200 169.1388
   169.1388 170.7876 170.7876 170.8596 170.9912 172.2475 172.4011 172.4011
   172.4173 172.8210 172.9313 173.5546 173.9592 173.9592 175.6088 176.2755
   176.5617 179.7392 179.7392 180.0998 180.0998 180.7311 180.9122 180.9763
   180.9763 181.3356 181.3356 181.6091 183.6948 183.6948 183.8203 184.3244
   185.0671 185.2335 185.7260 186.7923 186.7923 189.3429 189.6005 189.6005
   191.5515 192.3886 192.3886 192.4002 192.6523 192.7905 194.1885 194.6716
   194.8058 194.8115 194.8115 195.1905 195.1915 195.5281 195.5281 195.6127
   195.7182 195.7182 196.7142 196.8403 196.8403 197.3056 197.8345 197.8345
   198.2827 198.5753 198.5753 200.4047 200.5371 200.9289 200.9289 201.2031
   201.2831 202.0286 202.0972 202.1567 202.1567 202.5394 202.7416 202.9822
   202.9822 203.2964 203.3494 203.3494 204.2891 207.1784 207.1784 207.8305
   208.7540 208.7540 208.8278 210.7589 211.4764 211.9448 211.9448 212.0001
   212.3881 212.3881 212.4793 212.7367 213.0257 213.2431 213.2818 213.2818
   213.7078 213.9637 213.9637 215.0713 215.8798 215.8798 216.9027 216.9027
   216.9462 217.0585 217.2500 217.2853 218.3646 218.4705 218.5680 218.5680
   220.8039 220.8039 221.7501 222.2885 222.4812 222.4812 222.5579 222.7413
   225.6677 226.0572 226.0572 226.5483 226.6684 227.3115 227.3705 227.3705
   227.9736 228.1375 228.6515 228.6515 228.7244 228.9334 229.5342 229.8236
   229.8236 229.9686 230.9244 230.9244 231.8431 233.0622 233.0622 234.0338
   234.1633 234.3371 235.4229 235.4229 236.0623 237.2855 237.2855 237.6730
   237.7663 237.7663 237.8809 238.9833 239.1015 240.0306 242.4941 242.4941
   243.6487 243.6487 244.5640 245.6313 246.0529 246.9924 247.1021 247.1021
   247.6662 248.0033 248.6519 248.6519 248.7789 248.9726 249.0508 249.1948
   249.5303 249.5303 249.9468 250.0049 250.0529 250.0529 250.7638 250.7669
   250.7669 250.9564 251.2453 251.3139 251.3436 251.3526 251.3526 251.8354
   251.8354 253.0905 255.7056 255.7346 257.2010 257.2010 257.6771 258.5907
   258.8320 258.8320 260.6045 261.1678 261.1678 261.8491 261.9685 261.9685
   262.5002 263.2246 263.3491 263.3491 263.8541 264.0004 264.0004 264.2122
   264.3841 265.4241 265.8772 265.8772 265.8939 267.0284 267.0738 267.0738
   267.8696 267.8891 267.8891 268.2338 268.3914 269.5630 270.0428 270.0428
   270.1813 270.4750 270.4750 270.6246 272.0228 272.0228 272.2482 272.6444
   272.6757 272.8209 272.8209 273.2707 273.5558 274.2051 274.3314 274.3314
   275.3324 275.3699 275.3699 275.6964 275.6964 275.7108 275.9488 276.2527
   276.6943 278.2054 278.2054 278.5081 280.8218 280.8218 281.9248 281.9586
   285.8923 285.9361 285.9361 286.5319 286.6379 286.7858 287.2870 287.2870
   289.4946 289.8118 289.8118 290.2044 290.6222 290.7219 290.8754 290.9734
   290.9734 291.3102 291.8073 291.8073 292.4954 292.4954 293.1190 293.1190
   293.1985 293.6899 294.0135 294.2826 294.7936 294.8014 294.8275 294.8275
   295.8522 295.8522 296.1287 296.2937 296.3216 296.3216 296.3896 296.9955
   297.7960 297.7960 297.9541 298.1105 298.4944 298.5296 298.5296 299.6597
   302.0956 302.1139 302.1769 302.1769 303.8877 304.4525 304.4525 304.6890
   304.7860 305.0035 305.0035 305.0213 305.0330 305.0906 305.2895 305.2895
   305.4676 305.6343 305.8086 305.8086 306.3177 306.8094 306.8094 306.9594
   307.0488 307.1832 307.2074 307.2074 308.4779 308.6239 308.6239 308.9563
   309.9888 310.0045 310.0126 310.0126 310.6489 310.6853 311.2272 311.2272
   311.3402 311.5704 312.2414 312.2414 313.2174 313.5351 313.6010 313.6010
   313.8510 315.2358 316.0386 316.0386 316.7485 316.7831 319.0430 319.2031
   319.2031 319.2487 320.0479 320.0479 320.5538 320.6176 320.6222 321.5431
   321.5431 322.7305 322.7989 322.7989 323.0135 323.4502 324.0999 324.0999
   324.1394 324.2806 324.3373 324.3373 324.7257 324.7831 325.2158 326.1083
   326.1150 326.1970 326.1970 326.8042 326.8440 326.8440 327.7355 328.4714
   328.4714 328.9765 329.7540 330.1143 330.4999 330.4999 332.2588 332.2588
   332.2694 332.4608 332.6945 332.6945 332.7439 332.9524 333.9538 334.0089
   334.0348 334.0348 334.1629 334.1894 334.1894 334.4249 335.5876 335.5876
   336.9983 336.9983 337.1393 337.1436 338.8727 339.1149 339.1149 340.0491
   341.3806 341.3806 342.1195 342.1507 342.3186 342.3736 342.3736 343.1203
   343.2428 343.2563 343.2563 343.3396 343.6751 343.7071 343.7293 343.7293
   345.0125 346.0828 346.0828 347.3000 347.4427 347.5001 347.5001 347.8687
   349.9097 350.0571 350.1138 350.2199 350.2199 350.5459 350.5459 351.8738
   353.2290 353.5310 353.5310 353.6524 354.8616 354.8616 355.1141 355.1141
   355.6002 355.7557 355.7810 355.8737 356.1155 356.1185 356.1389 356.1389
   357.2036 358.6100 359.0482 359.0657 359.0657 359.9223 360.0222 360.0222
   363.4976 363.4976 363.7947 363.9802 364.1406 364.2144 365.5817 365.5817
   365.7123 365.7123 366.2050 366.2536 366.4742 366.4742 366.5585 367.1525
   367.6093 367.8097 367.8900 367.8900 368.8205 369.0838 369.0838 369.5925
   370.1741 370.2586 370.3465 370.3465 375.2528 376.1076 376.1076 376.4290
   376.4847 376.8826 376.8826 376.8972 377.5516 377.5683 377.5683 377.6790
   377.7483 377.8190 377.8190 377.9775 378.1046 378.6295 378.6295 378.9926
   379.7793 379.8442 379.8442 379.8965 380.0957 380.9696 381.7121 381.7121
   381.9475 382.3892 383.1847 383.1847 384.2776 384.5837 384.9806 384.9806
   385.7311 385.8186 385.8468 385.8468 386.5540 386.8701 386.9430 387.1887
   387.2935 387.2935 387.6174 387.6174 387.7262 387.7646 387.7646 388.0213
   388.3189 388.3483 388.3891 388.3891 388.6589 388.6606 388.6784 388.6784
   388.6819 388.7867 388.7867 388.8338 389.2624 389.2624 389.3018 389.3413
   389.5285 389.6560 389.6560 389.7798 392.2718 392.3618 392.3618 392.3815
   395.4951 395.4951 395.5659 395.6694 395.7612 396.0577 396.0577 396.0977
   396.4699 397.2171 397.3578 397.3803 397.3803 397.5157 397.7042 397.7749
   397.7749 398.0174 398.3192 398.3999 398.3999 398.7170 399.2193 399.3546
   399.3971 399.4316 399.4316 399.4363 399.5039 399.5039 401.3029 401.7314
   401.7314 402.4266 402.6101 402.8364 403.0648 403.0772 403.0772 403.8306
   404.0085 404.0085 406.7722 406.7722 407.8343 408.0553 410.9822 410.9822
   411.2484 411.3581 411.4247 411.4247 411.9260 412.4968 412.5193 412.5193
   413.1631 413.2331 414.2556 414.6370 414.6798 414.6798 415.4762 415.5219
   415.5219 415.5495 416.1290 416.1737 416.2421 416.2421 416.7049 416.7307
   416.7307 416.8539 416.8658 417.0781 417.0781 417.2176 417.7916 417.8085
   417.8976 417.9193 417.9316 417.9316 417.9706 417.9706 418.6764 418.6764
   420.4589 420.6719 420.8330 420.8330 423.7961 424.0024 424.2385 424.2385
   424.2563 424.3654 424.3654 424.6723 427.5605 427.5605 428.2693 428.3879
   429.0701 429.0701 429.0715 429.1687 429.2352 429.2352 429.7407 430.2527
   431.2502 431.3644 431.3644 431.6224 431.8423 431.9985 431.9985 432.1795
   433.3664 433.3664 433.7400 433.7873 433.9299 434.0862 434.0862 434.2308
   434.8780 435.0800 435.0800 435.0892 435.1939 435.2095 435.3274 435.3274
   437.4632 437.4632 437.5154 437.6025 438.4514 438.4514 438.6011 438.7659
   438.7782 438.7782 438.8915 438.9262 438.9637 439.2111 439.4332 439.4332
   439.7313 439.9125 440.2934 440.2934 441.6525 441.8897 441.8897 442.1736
   442.6724 442.6835 443.1520 443.2736 443.2736 443.3065 443.3890 443.3890
   443.6350 443.7758 443.7915 443.8518 443.8518 443.8775 443.9139 443.9139
   443.9651 444.2236 444.2236 444.2285 444.2436 444.2478 444.2725 444.2725
   444.4081 444.4794 444.4794 444.4986 444.5468 445.3648 445.7741 445.7741
   450.3428 450.3912 450.7611 450.7611 454.9651 454.9994 454.9994 455.0271
   455.0341 455.0448 455.0563 455.0563 456.9501 457.3465 457.3465 457.4804
   458.9993 459.0504 459.6040 459.6040 459.9866 459.9866 460.0385 460.8946
   461.9342 461.9854 461.9854 462.1188 462.2046 462.3361 462.3684 462.3684
   462.6316 462.6316 462.6991 462.7434 463.1143 463.1143 463.2439 463.3025
   464.5450 464.6431 464.6556 464.6556 466.4669 466.5441 466.5441 466.8488
   467.5045 467.6394 467.7403 467.7403 467.7658 468.1928 468.1928 468.3372
   469.8655 470.0661 470.0661 470.4955 470.6989 470.7000 470.7750 470.7750
   471.0211 471.0231 471.3864 471.3864 471.6358 471.6358 471.6557 471.6838

     the Fermi energy is     6.5658 ev
     (compare with:     6.5658 eV, computed in scf)

     Writing all to output data dir out/mp-1672.save/
 
     init_run     :      0.02s CPU      0.05s WALL (       1 calls)
     electrons    :   1100.19s CPU   1188.81s WALL (       1 calls)

     Called by init_run:
     wfcinit      :      0.00s CPU      0.00s WALL (       1 calls)
     potinit      :      0.00s CPU      0.01s WALL (       1 calls)
     hinit0       :      0.01s CPU      0.03s WALL (       1 calls)

     Called by electrons:
     c_bands      :   1100.18s CPU   1188.77s WALL (       1 calls)
     v_of_rho     :      0.00s CPU      0.00s WALL (       1 calls)

     Called by c_bands:
     init_us_2    :      0.00s CPU      0.00s WALL (      29 calls)
     init_us_2:cp :      0.00s CPU      0.00s WALL (      29 calls)
     cegterg      :   1073.56s CPU   1160.15s WALL (      29 calls)

     Called by *egterg:
     cdiaghg      :    974.23s CPU   1055.41s WALL (     319 calls)
     h_psi        :     31.80s CPU     33.39s WALL (     348 calls)
     g_psi        :      0.18s CPU      0.18s WALL (     290 calls)

     Called by h_psi:
     h_psi:calbec :      0.51s CPU      0.54s WALL (     348 calls)
     vloc_psi     :     30.59s CPU     32.13s WALL (     348 calls)
     add_vuspsi   :      0.34s CPU      0.34s WALL (     348 calls)

     General routines
     calbec       :      0.51s CPU      0.54s WALL (     348 calls)
     fft          :      0.00s CPU      0.02s WALL (      10 calls)
     fftw         :     28.62s CPU     30.06s WALL (  417788 calls)
 
     Parallel routines
 
     PWSCF        :  18m24.52s CPU  19m54.93s WALL

 
   This run was terminated on:   5:21:46  18Nov2023            

=------------------------------------------------------------------------------=
   JOB DONE.
=------------------------------------------------------------------------------=
