
     Program PWSCF v.7.1 starts on 18Nov2023 at  4:40: 6 

     This program is part of the open-source Quantum ESPRESSO suite
     for quantum simulation of materials; please cite
         "P. Giannozzi et al., J. Phys.:Condens. Matter 21 395502 (2009);
         "P. Giannozzi et al., J. Phys.:Condens. Matter 29 465901 (2017);
         "P. Giannozzi et al., J. Chem. Phys. 152 154105 (2020);
          URL http://www.quantum-espresso.org", 
     in publications or presentations arising from this work. More details at
     http://www.quantum-espresso.org/quote

     Parallel version (MPI), running on    24 processors

     MPI processes distributed on     1 nodes
     123061 MiB available memory on the printing compute node when the environment starts
 
     Reading input from pw_mp-1672_scf_k3000_E89.in
Warning: card &CELL ignored
Warning: card / ignored

     Current dimensions of program PWSCF are:
     Max number of different atomic species (ntypx) = 10
     Max number of k-points (npk) =  40000
     Max angular momentum in pseudopotentials (lmaxx) =  4
 
     R & G space division:  proc/nbgrp/npool/nimage =      24
     Subspace diagonalization in iterative solution of the eigenvalue problem:
     a serial algorithm will be used

 
     Parallelization info
     --------------------
     sticks:   dense  smooth     PW     G-vecs:    dense   smooth      PW
     Min          59      59     17                 1481     1481     232
     Max          60      60     18                 1485     1485     235
     Sum        1417    1417    421                35557    35557    5601
 
     Using Slab Decomposition
 


     bravais-lattice index     =            2
     lattice parameter (alat)  =      10.7804  a.u.
     unit-cell volume          =     313.2175 (a.u.)^3
     number of atoms/cell      =            2
     number of atomic types    =            2
     number of electrons       =        16.00
     number of Kohn-Sham states=           16
     kinetic-energy cutoff     =      89.0000  Ry
     charge density cutoff     =     356.0000  Ry
     scf convergence threshold =      1.0E-10
     mixing beta               =       0.7000
     number of iterations used =            8  plain     mixing
     Exchange-correlation= PBE
                           (   1   4   3   4   0   0   0)

     celldm(1)=  10.780412  celldm(2)=   0.000000  celldm(3)=   0.000000
     celldm(4)=   0.000000  celldm(5)=   0.000000  celldm(6)=   0.000000

     crystal axes: (cart. coord. in units of alat)
               a(1) = (  -0.500000   0.000000   0.500000 )  
               a(2) = (   0.000000   0.500000   0.500000 )  
               a(3) = (  -0.500000   0.500000   0.000000 )  

     reciprocal axes: (cart. coord. in units 2 pi/alat)
               b(1) = ( -1.000000 -1.000000  1.000000 )  
               b(2) = (  1.000000  1.000000  1.000000 )  
               b(3) = ( -1.000000  1.000000 -1.000000 )  


     PseudoPot. # 1 for Ca read from file:
     /usr/scratch4/magr4985/MG/HTDF/pseudo/SG15/Ca.upf
     MD5 check sum: b43c970dc090f2312d256360aabdb6f1
     Pseudo is Norm-conserving, Zval = 10.0
     Generated using ONCVPSP code by D. R. Hamann
     Using radial grid of  602 points,  6 beta functions with: 
                l(1) =   0
                l(2) =   0
                l(3) =   1
                l(4) =   1
                l(5) =   2
                l(6) =   2

     PseudoPot. # 2 for S  read from file:
     /usr/scratch4/magr4985/MG/HTDF/pseudo/SG15/S.upf
     MD5 check sum: f9d020296ee6110346977bfd66d424f6
     Pseudo is Norm-conserving, Zval =  6.0
     Generated using ONCVPSP code by D. R. Hamann
     Using radial grid of  602 points,  4 beta functions with: 
                l(1) =   0
                l(2) =   0
                l(3) =   1
                l(4) =   1

     atomic species   valence    mass     pseudopotential
        Ca            10.00    40.07800     Ca( 1.00)
        S              6.00    32.06500     S ( 1.00)

     48 Sym. Ops., with inversion, found



   Cartesian axes

     site n.     atom                  positions (alat units)
         1           Ca  tau(   1) = (   0.0000000   0.0000000   0.0000000  )
         2           S   tau(   2) = (  -0.5000000   0.5000000   0.5000000  )

     number of k points=    72  Gaussian smearing, width (Ry)=  0.0005
                       cart. coord. in units 2pi/alat
        k(    1) = (   0.0000000   0.0000000   0.0000000), wk =   0.0011574
        k(    2) = (  -0.0833333   0.0833333  -0.0833333), wk =   0.0092593
        k(    3) = (  -0.1666667   0.1666667  -0.1666667), wk =   0.0092593
        k(    4) = (  -0.2500000   0.2500000  -0.2500000), wk =   0.0092593
        k(    5) = (  -0.3333333   0.3333333  -0.3333333), wk =   0.0092593
        k(    6) = (  -0.4166667   0.4166667  -0.4166667), wk =   0.0092593
        k(    7) = (   0.5000000  -0.5000000   0.5000000), wk =   0.0046296
        k(    8) = (   0.0000000   0.1666667   0.0000000), wk =   0.0069444
        k(    9) = (  -0.0833333   0.2500000  -0.0833333), wk =   0.0277778
        k(   10) = (  -0.1666667   0.3333333  -0.1666667), wk =   0.0277778
        k(   11) = (  -0.2500000   0.4166667  -0.2500000), wk =   0.0277778
        k(   12) = (  -0.3333333   0.5000000  -0.3333333), wk =   0.0277778
        k(   13) = (   0.5833333  -0.4166667   0.5833333), wk =   0.0277778
        k(   14) = (   0.5000000  -0.3333333   0.5000000), wk =   0.0277778
        k(   15) = (   0.4166667  -0.2500000   0.4166667), wk =   0.0277778
        k(   16) = (   0.3333333  -0.1666667   0.3333333), wk =   0.0277778
        k(   17) = (   0.2500000  -0.0833333   0.2500000), wk =   0.0277778
        k(   18) = (   0.1666667  -0.0000000   0.1666667), wk =   0.0138889
        k(   19) = (   0.0000000   0.3333333   0.0000000), wk =   0.0069444
        k(   20) = (  -0.0833333   0.4166667  -0.0833333), wk =   0.0277778
        k(   21) = (  -0.1666667   0.5000000  -0.1666667), wk =   0.0277778
        k(   22) = (  -0.2500000   0.5833333  -0.2500000), wk =   0.0277778
        k(   23) = (   0.6666667  -0.3333333   0.6666667), wk =   0.0277778
        k(   24) = (   0.5833333  -0.2500000   0.5833333), wk =   0.0277778
        k(   25) = (   0.5000000  -0.1666667   0.5000000), wk =   0.0277778
        k(   26) = (   0.4166667  -0.0833333   0.4166667), wk =   0.0277778
        k(   27) = (   0.3333333   0.0000000   0.3333333), wk =   0.0138889
        k(   28) = (   0.0000000   0.5000000   0.0000000), wk =   0.0069444
        k(   29) = (  -0.0833333   0.5833333  -0.0833333), wk =   0.0277778
        k(   30) = (  -0.1666667   0.6666667  -0.1666667), wk =   0.0277778
        k(   31) = (   0.7500000  -0.2500000   0.7500000), wk =   0.0277778
        k(   32) = (   0.6666667  -0.1666667   0.6666667), wk =   0.0277778
        k(   33) = (   0.5833333  -0.0833333   0.5833333), wk =   0.0277778
        k(   34) = (   0.5000000   0.0000000   0.5000000), wk =   0.0138889
        k(   35) = (   0.0000000   0.6666667   0.0000000), wk =   0.0069444
        k(   36) = (  -0.0833333   0.7500000  -0.0833333), wk =   0.0277778
        k(   37) = (   0.8333333  -0.1666667   0.8333333), wk =   0.0277778
        k(   38) = (   0.7500000  -0.0833333   0.7500000), wk =   0.0277778
        k(   39) = (   0.6666667  -0.0000000   0.6666667), wk =   0.0138889
        k(   40) = (   0.0000000   0.8333333   0.0000000), wk =   0.0069444
        k(   41) = (   0.9166667  -0.0833333   0.9166667), wk =   0.0277778
        k(   42) = (   0.8333333   0.0000000   0.8333333), wk =   0.0138889
        k(   43) = (   0.0000000  -1.0000000   0.0000000), wk =   0.0034722
        k(   44) = (  -0.1666667   0.3333333   0.0000000), wk =   0.0277778
        k(   45) = (  -0.2500000   0.4166667  -0.0833333), wk =   0.0555556
        k(   46) = (  -0.3333333   0.5000000  -0.1666667), wk =   0.0555556
        k(   47) = (   0.5833333  -0.4166667   0.7500000), wk =   0.0555556
        k(   48) = (   0.5000000  -0.3333333   0.6666667), wk =   0.0277778
        k(   49) = (  -0.1666667   0.5000000   0.0000000), wk =   0.0277778
        k(   50) = (  -0.2500000   0.5833333  -0.0833333), wk =   0.0555556
        k(   51) = (   0.6666667  -0.3333333   0.8333333), wk =   0.0555556
        k(   52) = (   0.5833333  -0.2500000   0.7500000), wk =   0.0555556
        k(   53) = (   0.5000000  -0.1666667   0.6666667), wk =   0.0555556
        k(   54) = (   0.4166667  -0.0833333   0.5833333), wk =   0.0555556
        k(   55) = (   0.3333333   0.0000000   0.5000000), wk =   0.0277778
        k(   56) = (  -0.1666667   0.6666667  -0.0000000), wk =   0.0277778
        k(   57) = (   0.7500000  -0.2500000   0.9166667), wk =   0.0555556
        k(   58) = (   0.6666667  -0.1666667   0.8333333), wk =   0.0555556
        k(   59) = (   0.5833333  -0.0833333   0.7500000), wk =   0.0555556
        k(   60) = (   0.5000000   0.0000000   0.6666667), wk =   0.0277778
        k(   61) = (   0.8333333  -0.1666667   1.0000000), wk =   0.0277778
        k(   62) = (   0.7500000  -0.0833333   0.9166667), wk =   0.0555556
        k(   63) = (   0.6666667   0.0000000   0.8333333), wk =   0.0277778
        k(   64) = (  -0.1666667  -1.0000000  -0.0000000), wk =   0.0138889
        k(   65) = (   0.6666667  -0.3333333   1.0000000), wk =   0.0277778
        k(   66) = (   0.5833333  -0.2500000   0.9166667), wk =   0.0555556
        k(   67) = (   0.5000000  -0.1666667   0.8333333), wk =   0.0277778
        k(   68) = (   0.6666667  -0.1666667   1.0000000), wk =   0.0277778
        k(   69) = (   0.5833333  -0.0833333   0.9166667), wk =   0.0555556
        k(   70) = (   0.5000000   0.0000000   0.8333333), wk =   0.0277778
        k(   71) = (  -0.3333333  -1.0000000   0.0000000), wk =   0.0138889
        k(   72) = (  -0.5000000  -1.0000000   0.0000000), wk =   0.0069444

     Dense  grid:    35557 G-vectors     FFT dimensions: (  45,  45,  45)

     Estimated max dynamical RAM per process >       4.32 MB

     Estimated total dynamical RAM >     103.68 MB

     Initial potential from superposition of free atoms

     starting charge      15.7857, renormalised to      16.0000
     Starting wfcs are random

     total cpu time spent up to now is        1.4 secs

     Self-consistent Calculation

     iteration #  1     ecut=    89.00 Ry     beta= 0.70
     Davidson diagonalization with overlap
     ethr =  1.00E-02,  avg # of iterations =  9.2

     Threshold (ethr) on eigenvalues was too large:
     Diagonalizing with lowered threshold

     Davidson diagonalization with overlap
     ethr =  4.63E-04,  avg # of iterations =  2.8

     total cpu time spent up to now is        4.3 secs

     total energy              =     -94.49331832 Ry
     estimated scf accuracy    <       0.07397417 Ry

     iteration #  2     ecut=    89.00 Ry     beta= 0.70
     Davidson diagonalization with overlap
     ethr =  4.62E-04,  avg # of iterations =  3.6

     total cpu time spent up to now is        5.2 secs

     total energy              =     -94.51157203 Ry
     estimated scf accuracy    <       0.03176451 Ry

     iteration #  3     ecut=    89.00 Ry     beta= 0.70
     Davidson diagonalization with overlap
     ethr =  1.99E-04,  avg # of iterations =  2.2

     total cpu time spent up to now is        6.1 secs

     total energy              =     -94.51896175 Ry
     estimated scf accuracy    <       0.00060518 Ry

     iteration #  4     ecut=    89.00 Ry     beta= 0.70
     Davidson diagonalization with overlap
     ethr =  3.78E-06,  avg # of iterations =  7.6

     total cpu time spent up to now is        7.2 secs

     total energy              =     -94.51905090 Ry
     estimated scf accuracy    <       0.00000367 Ry

     iteration #  5     ecut=    89.00 Ry     beta= 0.70
     Davidson diagonalization with overlap
     ethr =  2.29E-08,  avg # of iterations =  3.0

     total cpu time spent up to now is        8.0 secs

     total energy              =     -94.51905300 Ry
     estimated scf accuracy    <       0.00000036 Ry

     iteration #  6     ecut=    89.00 Ry     beta= 0.70
     Davidson diagonalization with overlap
     ethr =  2.28E-09,  avg # of iterations =  2.0

     total cpu time spent up to now is        8.9 secs

     total energy              =     -94.51905312 Ry
     estimated scf accuracy    <          7.8E-09 Ry

     iteration #  7     ecut=    89.00 Ry     beta= 0.70
     Davidson diagonalization with overlap
     ethr =  4.88E-11,  avg # of iterations =  3.1

     total cpu time spent up to now is        9.7 secs

     total energy              =     -94.51905312 Ry
     estimated scf accuracy    <          2.0E-09 Ry

     iteration #  8     ecut=    89.00 Ry     beta= 0.70
     Davidson diagonalization with overlap
     ethr =  1.27E-11,  avg # of iterations =  2.0

     total cpu time spent up to now is       10.5 secs

     End of self-consistent calculation

          k = 0.0000 0.0000 0.0000 (  4477 PWs)   bands (ev):

   -33.2893 -14.2634 -14.2634 -14.2634  -5.3278   5.9790   5.9790   5.9790
    10.0928  10.1429  10.1429  10.1429  10.7307  10.7307  16.8425  19.0112

          k =-0.0833 0.0833-0.0833 (  4453 PWs)   bands (ev):

   -33.2886 -14.2745 -14.2643 -14.2643  -5.2799   5.6559   5.8735   5.8735
    10.1295  10.2474  10.2474  10.4746  10.9133  10.9133  16.9384  18.8599

          k =-0.1667 0.1667-0.1667 (  4459 PWs)   bands (ev):

   -33.2866 -14.3046 -14.2666 -14.2666  -5.1459   4.9423   5.6168   5.6168
    10.1490  10.5263  10.5263  11.3194  11.4207  11.4207  16.8147  18.3036

          k =-0.2500 0.2500-0.2500 (  4450 PWs)   bands (ev):

   -33.2839 -14.3451 -14.2698 -14.2698  -4.9545   4.1674   5.3189   5.3189
    10.2601  10.9386  10.9386  12.1330  12.1330  12.1975  16.3043  17.3682

          k =-0.3333 0.3333-0.3333 (  4462 PWs)   bands (ev):

   -33.2811 -14.3849 -14.2729 -14.2729  -4.7516   3.5067   5.0624   5.0624
    10.5118  11.4391  11.4391  12.6060  12.9091  12.9091  16.1784  16.3261

          k =-0.4167 0.4167-0.4167 (  4443 PWs)   bands (ev):

   -33.2791 -14.4136 -14.2753 -14.2753  -4.5940   3.0641   4.8936   4.8936
    10.8983  11.9166  11.9166  12.3337  13.6234  13.6234  15.3767  15.3767

          k = 0.5000-0.5000 0.5000 (  4446 PWs)   bands (ev):

   -33.2784 -14.4240 -14.2761 -14.2761  -4.5340   2.9079   4.8352   4.8352
    11.1964  12.0042  12.1353  12.1353  14.0616  14.0616  14.8283  14.8283

          k = 0.0000 0.1667 0.0000 (  4457 PWs)   bands (ev):

   -33.2883 -14.2741 -14.2666 -14.2666  -5.2654   5.5099   5.8819   5.8819
     9.9736  10.3738  10.4020  10.4020  10.7803  11.2589  16.9996  18.6251

          k =-0.0833 0.2500-0.0833 (  4456 PWs)   bands (ev):

   -33.2868 -14.2961 -14.2701 -14.2679  -5.1643   4.9867   5.6704   5.7125
     9.9130  10.5342  10.6895  10.9049  11.0382  11.9547  17.0144  18.2050

          k =-0.1667 0.3333-0.1667 (  4448 PWs)   bands (ev):

   -33.2843 -14.3321 -14.2740 -14.2702  -4.9981   4.3324   5.3455   5.4477
    10.0027  10.8671  11.0554  11.6130  11.6184  12.7577  16.4948  17.4802

          k =-0.2500 0.4167-0.2500 (  4447 PWs)   bands (ev):

   -33.2816 -14.3709 -14.2772 -14.2740  -4.8055   3.7070   5.0524   5.1797
    10.2302  11.3231  11.5265  12.2920  12.3142  13.3480  15.9899  16.6261

          k =-0.3333 0.5000-0.3333 (  4449 PWs)   bands (ev):

   -33.2793 -14.4022 -14.2788 -14.2782  -4.6375   3.2335   4.8529   4.9709
    10.6042  11.8300  11.9892  12.4085  12.9600  13.8070  15.3474  15.8830

          k = 0.5833-0.4167 0.5833 (  4438 PWs)   bands (ev):

   -33.2782 -14.4181 -14.2816 -14.2784  -4.5464   2.9976   4.7694   4.8559
    11.0476  11.9737  12.1679  12.2575  13.6295  13.9983  14.8847  15.3047

          k = 0.5000-0.3333 0.5000 (  4442 PWs)   bands (ev):

   -33.2784 -14.4148 -14.2833 -14.2761  -4.5642   3.0436   4.8073   4.8501
    11.0240  11.9203  12.0086  12.3846  13.3467  14.0562  15.1886  15.3106

          k = 0.4167-0.2500 0.4167 (  4448 PWs)   bands (ev):

   -33.2800 -14.3931 -14.2828 -14.2726  -4.6845   3.3640   4.9545   4.9608
    10.6354  11.4474  11.9546  12.3731  12.8186  13.6128  15.9500  15.9806

          k = 0.3333-0.1667 0.3333 (  4442 PWs)   bands (ev):

   -33.2825 -14.3585 -14.2800 -14.2687  -4.8663   3.9028   5.1557   5.2103
    10.3550  10.9570  11.4502  11.7426  12.7116  12.8424  16.1908  16.6900

          k = 0.2500-0.0833 0.2500 (  4453 PWs)   bands (ev):

   -33.2852 -14.3203 -14.2756 -14.2655  -5.0557   4.5667   5.4214   5.5121
    10.2272  10.5577  10.9219  11.0853  12.0438  12.0949  16.6876  17.3719

          k = 0.1667-0.0000 0.1667 (  4449 PWs)   bands (ev):

   -33.2874 -14.2894 -14.2698 -14.2639  -5.2047   5.2216   5.6912   5.7747
    10.1836  10.3071  10.4575  10.7064  11.2993  11.3627  16.9904  18.1293

          k = 0.0000 0.3333 0.0000 (  4460 PWs)   bands (ev):

   -33.2857 -14.3011 -14.2751 -14.2751  -5.1070   4.6760   5.6662   5.6662
     9.5661  10.7185  10.9198  11.0601  11.0601  12.7192  17.2885  17.8997

          k =-0.0833 0.4167-0.0833 (  4459 PWs)   bands (ev):

   -33.2836 -14.3255 -14.2803 -14.2788  -4.9870   4.2540   5.4345   5.4984
     9.4819  11.0201  11.1123  11.5175  11.5275  13.5286  16.5750  17.1500

          k =-0.1667 0.5000-0.1667 (  4452 PWs)   bands (ev):

   -33.2812 -14.3572 -14.2842 -14.2831  -4.8323   3.8325   5.0858   5.2753
     9.6490  11.5133  11.5224  12.0287  12.0391  14.0553  15.5196  16.8237

          k =-0.2500 0.5833-0.2500 (  4442 PWs)   bands (ev):

   -33.2789 -14.3854 -14.2894 -14.2858  -4.6823   3.4740   4.7881   5.0647
    10.0055  12.0467  12.0563  12.3610  12.4513  14.1621  14.7751  16.4663

          k = 0.6667-0.3333 0.6667 (  4430 PWs)   bands (ev):

   -33.2775 -14.4025 -14.2961 -14.2847  -4.5797   3.2434   4.6213   4.9137
    10.5191  12.0455  12.2590  12.5475  13.0054  13.9919  14.6747  16.0901

          k = 0.5833-0.2500 0.5833 (  4441 PWs)   bands (ev):

   -33.2774 -14.4047 -14.3010 -14.2812  -4.5574   3.1961   4.6005   4.8490
    11.0636  11.6233  12.0120  12.6839  13.3544  13.7141  15.2628  15.8374

          k = 0.5000-0.1667 0.5000 (  4439 PWs)   bands (ev):

   -33.2784 -14.3921 -14.3021 -14.2762  -4.6232   3.3493   4.7178   4.8804
    10.9387  11.5769  11.9293  12.2517  12.9373  14.0486  15.7324  15.8929

          k = 0.4167-0.0833 0.4167 (  4446 PWs)   bands (ev):

   -33.2805 -14.3689 -14.2980 -14.2711  -4.7555   3.6734   4.9525   5.0031
    10.6738  11.1293  11.5313  12.0518  12.8252  13.5900  16.1400  16.1464

          k = 0.3333 0.0000 0.3333 (  4459 PWs)   bands (ev):

   -33.2830 -14.3426 -14.2884 -14.2671  -4.9141   4.1052   5.1966   5.2537
    10.4710  10.7702  11.0712  11.4917  12.7089  12.8141  16.4818  16.4898

          k = 0.0000 0.5000 0.0000 (  4432 PWs)   bands (ev):

   -33.2821 -14.3332 -14.2869 -14.2869  -4.9246   4.0303   5.4495   5.4495
     9.1002  11.1202  11.1419  11.8468  11.8468  14.3375  15.8434  17.4526

          k =-0.0833 0.5833-0.0833 (  4453 PWs)   bands (ev):

   -33.2801 -14.3525 -14.2929 -14.2920  -4.8263   3.8070   5.2303   5.3183
     9.0582  11.3470  11.5144  12.1937  12.2034  14.7584  14.9915  17.1257

          k =-0.1667 0.6667-0.1667 (  4449 PWs)   bands (ev):

   -33.2781 -14.3718 -14.3016 -14.2944  -4.7166   3.6449   4.8622   5.1508
     9.3222  11.7888  12.1191  12.3935  12.4355  14.0297  14.9150  17.0354

          k = 0.7500-0.2500 0.7500 (  4435 PWs)   bands (ev):

   -33.2767 -14.3838 -14.3130 -14.2933  -4.6243   3.5521   4.5245   4.9961
     9.7988  12.2348  12.3420  12.4860  12.7059  13.6010  14.8435  16.7951

          k = 0.6667-0.1667 0.6667 (  4430 PWs)   bands (ev):

   -33.2762 -14.3860 -14.3232 -14.2891  -4.5756   3.5041   4.3546   4.8910
    10.4372  11.8265  12.1769  12.6019  13.1154  13.7375  15.1281  16.3147

          k = 0.5833-0.0833 0.5833 (  4437 PWs)   bands (ev):

   -33.2769 -14.3815 -14.3261 -14.2828  -4.5857   3.4858   4.4101   4.8558
    11.1664  11.4700  11.8103  12.0874  13.6719  13.7794  15.5886  16.0055

          k = 0.5000 0.0000 0.5000 (  4445 PWs)   bands (ev):

   -33.2784 -14.3757 -14.3164 -14.2762  -4.6521   3.5320   4.6435   4.8959
    11.0998  11.4315  11.5843  11.9931  13.1163  14.0453  15.8500  16.0986

          k = 0.0000 0.6667 0.0000 (  4456 PWs)   bands (ev):

   -33.2785 -14.3600 -14.2986 -14.2986  -4.7898   3.7246   5.2913   5.2913
     8.7040  11.3335  11.6160  12.4373  12.4373  14.0737  15.6493  17.6213

          k =-0.0833 0.7500-0.0833 (  4435 PWs)   bands (ev):

   -33.2770 -14.3704 -14.3062 -14.3023  -4.7323   3.6830   5.0852   5.2028
     8.7389  11.5456  11.9836  12.5657  12.5788  13.4165  15.7644  17.3911

          k = 0.8333-0.1667 0.8333 (  4423 PWs)   bands (ev):

   -33.2758 -14.3743 -14.3203 -14.3019  -4.6679   3.7218   4.6743   5.0829
     9.1037  11.9582  12.4566  12.5595  12.6079  12.9402  15.5937  17.0888

          k = 0.7500-0.0833 0.7500 (  4431 PWs)   bands (ev):

   -33.2754 -14.3683 -14.3395 -14.2977  -4.6129   3.8385   4.2304   4.9678
     9.6800  12.1951  12.3775  12.5161  12.5229  13.4046  15.5418  16.4629

          k = 0.6667-0.0000 0.6667 (  4426 PWs)   bands (ev):

   -33.2758 -14.3650 -14.3476 -14.2907  -4.5823   3.7536   4.1361   4.8865
    10.4026  11.8934  12.1013  12.1630  13.1667  13.9736  15.6254  15.8069

          k = 0.0000 0.8333 0.0000 (  4436 PWs)   bands (ev):

   -33.2759 -14.3764 -14.3073 -14.3073  -4.7261   3.6843   5.2025   5.2025
     8.4456  11.4991  11.9651  12.6751  12.6751  12.9802  16.1983  17.7189

          k = 0.9167-0.0833 0.9167 (  4423 PWs)   bands (ev):

   -33.2752 -14.3784 -14.3145 -14.3082  -4.6994   3.7242   5.0052   5.1496
     8.5701  11.6645  12.1859  12.6426  12.6721  12.7421  16.1437  17.5257

          k = 0.8333 0.0000 0.8333 (  4412 PWs)   bands (ev):

   -33.2750 -14.3723 -14.3295 -14.3046  -4.6582   3.8171   4.5786   5.0623
     9.0271  12.0196  12.4842  12.5084  12.5620  12.7854  15.9398  17.0087

          k = 0.0000-1.0000 0.0000 (  4432 PWs)   bands (ev):

   -33.2750 -14.3817 -14.3105 -14.3105  -4.7107   3.7097   5.1747   5.1747
     8.3565  11.5619  11.9895  12.7065  12.7157  12.7157  16.2979  17.7441

          k =-0.1667 0.3333 0.0000 (  4460 PWs)   bands (ev):

   -33.2850 -14.3166 -14.2787 -14.2691  -5.0516   4.5217   5.4703   5.5368
     9.8576  10.8428  10.9421  11.0408  11.5980  12.7399  16.9044  17.1595

          k =-0.2500 0.4167-0.0833 (  4451 PWs)   bands (ev):

   -33.2825 -14.3473 -14.2864 -14.2716  -4.8922   4.0128   5.1814   5.2753
     9.9995  11.1114  11.4149  11.5183  12.2570  13.4252  16.1714  16.6216

          k =-0.3333 0.5000-0.1667 (  4437 PWs)   bands (ev):

   -33.2800 -14.3787 -14.2912 -14.2756  -4.7255   3.5557   4.9033   5.0478
    10.2791  11.5130  11.9689  12.0919  12.6215  13.8327  15.5312  16.2475

          k = 0.5833-0.4167 0.7500 (  4444 PWs)   bands (ev):

   -33.2782 -14.4017 -14.2933 -14.2797  -4.5980   3.2364   4.7193   4.8962
    10.6922  11.9140  12.0580  12.5187  12.8683  14.1054  15.0474  15.8662

          k = 0.5000-0.3333 0.6667 (  4434 PWs)   bands (ev):

   -33.2775 -14.4101 -14.2937 -14.2816  -4.5500   3.1216   4.6565   4.8431
    11.0523  11.6113  12.2374  12.5916  13.4639  13.6996  15.1456  15.6182

          k =-0.1667 0.5000 0.0000 (  4468 PWs)   bands (ev):

   -33.2816 -14.3445 -14.2908 -14.2810  -4.8774   3.9482   5.2782   5.2959
     9.4261  11.1887  11.5075  11.7657  12.0624  14.1985  15.6411  16.7746

          k =-0.2500 0.5833-0.0833 (  4452 PWs)   bands (ev):

   -33.2794 -14.3665 -14.2996 -14.2847  -4.7498   3.6855   4.9508   5.1082
     9.6462  11.5168  12.0728  12.1451  12.3788  14.4548  14.7970  16.5015

          k = 0.6667-0.3333 0.8333 (  4449 PWs)   bands (ev):

   -33.2776 -14.3845 -14.3061 -14.2887  -4.6379   3.4952   4.6484   4.9529
    10.0522  11.9852  12.1822  12.3905  12.7526  14.2284  14.5786  16.3481

          k = 0.5833-0.2500 0.7500 (  4435 PWs)   bands (ev):

   -33.2767 -14.3931 -14.3115 -14.2892  -4.5739   3.3938   4.4862   4.8552
    10.6024  11.6006  12.3725  12.6758  12.9463  13.9170  15.0236  16.3270

          k = 0.5000-0.1667 0.6667 (  4429 PWs)   bands (ev):

   -33.2769 -14.3907 -14.3146 -14.2856  -4.5777   3.3973   4.5003   4.8335
    10.9707  11.3653  12.1324  12.4379  13.2260  13.9937  15.3293  15.9892

          k = 0.4167-0.0833 0.5833 (  4438 PWs)   bands (ev):

   -33.2782 -14.3794 -14.3119 -14.2800  -4.6483   3.5110   4.6794   4.8916
    10.5778  11.6696  11.9420  12.0583  12.9817  14.2070  15.2299  15.9682

          k = 0.3333 0.0000 0.5000 (  4453 PWs)   bands (ev):

   -33.2803 -14.3636 -14.3016 -14.2747  -4.7643   3.7239   4.9681   5.0218
    10.2334  11.3572  11.5595  12.0950  12.6255  13.9011  15.6016  16.2139

          k =-0.1667 0.6667-0.0000 (  4446 PWs)   bands (ev):

   -33.2783 -14.3646 -14.3030 -14.2955  -4.7520   3.6995   5.1162   5.1261
     9.0581  11.4700  11.9801  12.4000  12.4336  14.0519  15.2356  16.9028

          k = 0.7500-0.2500 0.9167 (  4444 PWs)   bands (ev):

   -33.2767 -14.3734 -14.3136 -14.2994  -4.6735   3.6698   4.7558   4.9966
     9.3708  11.7792  12.3094  12.5434  12.6391  13.4936  15.2310  16.7675

          k = 0.6667-0.1667 0.8333 (  4435 PWs)   bands (ev):

   -33.2758 -14.3749 -14.3270 -14.2991  -4.6112   3.7092   4.3919   4.8897
     9.8846  11.9062  12.2757  12.5368  12.7280  13.7304  15.2545  16.5585

          k = 0.5833-0.0833 0.7500 (  4442 PWs)   bands (ev):

   -33.2758 -14.3716 -14.3375 -14.2942  -4.5823   3.7065   4.2363   4.8270
    10.5419  11.4509  12.2396  12.4270  12.8877  14.2998  15.4275  16.0210

          k = 0.5000 0.0000 0.6667 (  4433 PWs)   bands (ev):

   -33.2767 -14.3742 -14.3313 -14.2869  -4.5956   3.5831   4.3993   4.8240
    11.0025  11.2862  11.9161  12.1583  13.3482  14.2409  15.4502  15.7868

          k = 0.8333-0.1667 1.0000 (  4422 PWs)   bands (ev):

   -33.2758 -14.3745 -14.3119 -14.3078  -4.6958   3.7117   5.0119   5.0172
     8.8188  11.6499  12.3785  12.5104  12.6681  12.9530  15.8794  17.2555

          k = 0.7500-0.0833 0.9167 (  4429 PWs)   bands (ev):

   -33.2752 -14.3711 -14.3259 -14.3081  -4.6512   3.8125   4.6090   4.9335
     9.2238  11.8915  12.2479  12.6145  12.6778  13.0568  15.8327  16.9451

          k = 0.6667 0.0000 0.8333 (  4437 PWs)   bands (ev):

   -33.2752 -14.3595 -14.3463 -14.3026  -4.6096   3.9796   4.1479   4.8650
     9.8233  11.8896  12.2442  12.4484  12.5724  13.8327  15.7908  16.2882

          k =-0.1667-1.0000-0.0000 (  4420 PWs)   bands (ev):

   -33.2750 -14.3770 -14.3152 -14.3128  -4.6832   3.7637   4.9715   4.9785
     8.7365  11.7026  12.4049  12.5226  12.6776  12.7177  16.1041  17.3906

          k = 0.6667-0.3333 1.0000 (  4447 PWs)   bands (ev):

   -33.2776 -14.3725 -14.3149 -14.2897  -4.6665   3.6222   4.7522   4.8818
     9.9279  11.6503  12.1384  12.2972  12.8321  14.2731  14.7484  16.2514

          k = 0.5833-0.2500 0.9167 (  4436 PWs)   bands (ev):

   -33.2763 -14.3751 -14.3253 -14.2959  -4.6049   3.6398   4.4748   4.7801
    10.3730  11.5499  12.0068  12.4857  12.9877  14.3277  15.0523  16.1641

          k = 0.5000-0.1667 0.8333 (  4432 PWs)   bands (ev):

   -33.2758 -14.3757 -14.3287 -14.2988  -4.5823   3.6707   4.3445   4.7483
    10.8658  10.9884  12.4360  12.5506  12.5953  14.6121  15.2488  16.2730

          k = 0.6667-0.1667 1.0000 (  4431 PWs)   bands (ev):

   -33.2756 -14.3691 -14.3247 -14.3076  -4.6317   3.7797   4.6241   4.7215
     9.7257  11.8458  11.8909  12.6466  12.7765  13.7181  15.5008  16.5664

          k = 0.5833-0.0833 0.9167 (  4427 PWs)   bands (ev):

   -33.2752 -14.3599 -14.3384 -14.3108  -4.6019   3.9543   4.2929   4.6488
    10.2570  11.3745  12.0672  12.4540  12.6770  14.5691  15.6820  16.3185

          k = 0.5000 0.0000 0.8333 (  4432 PWs)   bands (ev):

   -33.2754 -14.3600 -14.3421 -14.3051  -4.5919   3.8888   4.2538   4.6708
    10.8494  10.8840  12.0703  12.6067  12.6121  15.1065  15.2867  16.0208

          k =-0.3333-1.0000 0.0000 (  4428 PWs)   bands (ev):

   -33.2749 -14.3639 -14.3283 -14.3176  -4.6272   3.9283   4.5822   4.6081
     9.6560  11.8570  11.8635  12.4671  12.7217  13.7924  15.9354  16.7350

          k =-0.5000-1.0000 0.0000 (  4420 PWs)   bands (ev):

   -33.2749 -14.3461 -14.3461 -14.3199  -4.5986   4.2061   4.2061   4.4427
    10.7948  10.7948  11.9629  12.3626  12.7237  15.2399  16.0417  16.1762

     the Fermi energy is     7.6056 ev

!    total energy              =     -94.51905312 Ry
     estimated scf accuracy    <          6.5E-11 Ry
     smearing contrib. (-TS)   =      -0.00000000 Ry
     internal energy E=F+TS    =     -94.51905312 Ry

     The total energy is F=E-TS. E is the sum of the following terms:
     one-electron contribution =     -28.76294648 Ry
     hartree contribution      =      19.08307277 Ry
     xc contribution           =     -14.86882835 Ry
     ewald contribution        =     -69.97035107 Ry

     convergence has been achieved in   8 iterations

     Writing all to output data dir out/mp-1672.save/
 
     init_run     :      0.68s CPU      1.28s WALL (       1 calls)
     electrons    :      8.21s CPU      9.20s WALL (       1 calls)

     Called by init_run:
     wfcinit      :      0.65s CPU      1.23s WALL (       1 calls)
     potinit      :      0.01s CPU      0.01s WALL (       1 calls)
     hinit0       :      0.01s CPU      0.03s WALL (       1 calls)

     Called by electrons:
     c_bands      :      7.20s CPU      7.94s WALL (       9 calls)
     sum_band     :      0.93s CPU      1.06s WALL (       9 calls)
     v_of_rho     :      0.02s CPU      0.02s WALL (       9 calls)
     mix_rho      :      0.06s CPU      0.10s WALL (       9 calls)

     Called by c_bands:
     init_us_2    :      0.08s CPU      0.08s WALL (    1368 calls)
     init_us_2:cp :      0.07s CPU      0.08s WALL (    1368 calls)
     cegterg      :      6.34s CPU      6.71s WALL (     648 calls)

     Called by *egterg:
     cdiaghg      :      0.90s CPU      0.96s WALL (    3143 calls)
     h_psi        :      5.57s CPU      5.95s WALL (    3287 calls)
     g_psi        :      0.03s CPU      0.03s WALL (    2567 calls)

     Called by h_psi:
     h_psi:calbec :      0.19s CPU      0.21s WALL (    3287 calls)
     vloc_psi     :      5.28s CPU      5.64s WALL (    3287 calls)
     add_vuspsi   :      0.07s CPU      0.08s WALL (    3287 calls)

     General routines
     calbec       :      0.19s CPU      0.20s WALL (    3287 calls)
     fft          :      0.01s CPU      0.03s WALL (      90 calls)
     ffts         :      0.00s CPU      0.00s WALL (       9 calls)
     fftw         :      5.76s CPU      6.16s WALL (   75966 calls)
     davcio       :      0.09s CPU      0.87s WALL (    2156 calls)
 
     Parallel routines
 
     PWSCF        :      9.16s CPU     13.84s WALL

 
   This run was terminated on:   4:40:20  18Nov2023            

=------------------------------------------------------------------------------=
   JOB DONE.
=------------------------------------------------------------------------------=
