
     Program PWSCF v.7.1 starts on 17Nov2023 at 21: 7:33 

     This program is part of the open-source Quantum ESPRESSO suite
     for quantum simulation of materials; please cite
         "P. Giannozzi et al., J. Phys.:Condens. Matter 21 395502 (2009);
         "P. Giannozzi et al., J. Phys.:Condens. Matter 29 465901 (2017);
         "P. Giannozzi et al., J. Chem. Phys. 152 154105 (2020);
          URL http://www.quantum-espresso.org", 
     in publications or presentations arising from this work. More details at
     http://www.quantum-espresso.org/quote

     Parallel version (MPI), running on    24 processors

     MPI processes distributed on     1 nodes
     123083 MiB available memory on the printing compute node when the environment starts
 
     Reading input from pw_mp-1672_nscf_k250_E89.in
Warning: card &IONS ignored
Warning: card / ignored
Warning: card &CELL ignored
Warning: card / ignored

     Current dimensions of program PWSCF are:
     Max number of different atomic species (ntypx) = 10
     Max number of k-points (npk) =  40000
     Max angular momentum in pseudopotentials (lmaxx) =  4

     Atomic positions and unit cell read from directory:
     out/mp-1672.save/
     Atomic positions from file used, from input discarded
 
 
     R & G space division:  proc/nbgrp/npool/nimage =      24
     Subspace diagonalization in iterative solution of the eigenvalue problem:
     one sub-group per band group will be used
     scalapack distributed-memory algorithm (size of sub-group:  4*  4 procs)

 
     Parallelization info
     --------------------
     sticks:   dense  smooth     PW     G-vecs:    dense   smooth      PW
     Min          59      59     17                 1481     1481     231
     Max          60      60     18                 1485     1485     234
     Sum        1417    1417    421                35557    35557    5577
 
     Using Slab Decomposition
 


     bravais-lattice index     =            2
     lattice parameter (alat)  =      10.7804  a.u.
     unit-cell volume          =     313.2175 (a.u.)^3
     number of atoms/cell      =            2
     number of atomic types    =            2
     number of electrons       =        16.00
     number of Kohn-Sham states=         1448
     kinetic-energy cutoff     =      89.0000  Ry
     charge density cutoff     =     356.0000  Ry
     Exchange-correlation= PBE
                           (   1   4   3   4   0   0   0)

     celldm(1)=  10.780412  celldm(2)=   0.000000  celldm(3)=   0.000000
     celldm(4)=   0.000000  celldm(5)=   0.000000  celldm(6)=   0.000000

     crystal axes: (cart. coord. in units of alat)
               a(1) = (  -0.500000   0.000000   0.500000 )  
               a(2) = (   0.000000   0.500000   0.500000 )  
               a(3) = (  -0.500000   0.500000   0.000000 )  

     reciprocal axes: (cart. coord. in units 2 pi/alat)
               b(1) = ( -1.000000 -1.000000  1.000000 )  
               b(2) = (  1.000000  1.000000  1.000000 )  
               b(3) = ( -1.000000  1.000000 -1.000000 )  


     PseudoPot. # 1 for Ca read from file:
     /usr/scratch4/magr4985/MG/HTDF/pseudo/SG15/Ca.upf
     MD5 check sum: b43c970dc090f2312d256360aabdb6f1
     Pseudo is Norm-conserving, Zval = 10.0
     Generated using ONCVPSP code by D. R. Hamann
     Using radial grid of  602 points,  6 beta functions with: 
                l(1) =   0
                l(2) =   0
                l(3) =   1
                l(4) =   1
                l(5) =   2
                l(6) =   2

     PseudoPot. # 2 for S  read from file:
     /usr/scratch4/magr4985/MG/HTDF/pseudo/SG15/S.upf
     MD5 check sum: f9d020296ee6110346977bfd66d424f6
     Pseudo is Norm-conserving, Zval =  6.0
     Generated using ONCVPSP code by D. R. Hamann
     Using radial grid of  602 points,  4 beta functions with: 
                l(1) =   0
                l(2) =   0
                l(3) =   1
                l(4) =   1

     atomic species   valence    mass     pseudopotential
        Ca            10.00    40.07800     Ca( 1.00)
        S              6.00    32.06500     S ( 1.00)

     48 Sym. Ops., with inversion, found



   Cartesian axes

     site n.     atom                  positions (alat units)
         1           Ca  tau(   1) = (   0.0000000   0.0000000   0.0000000  )
         2           S   tau(   2) = (  -0.5000000   0.5000000   0.5000000  )

     number of k points=    16  Gaussian smearing, width (Ry)=  0.0005
                       cart. coord. in units 2pi/alat
        k(    1) = (   0.0000000   0.0000000   0.0000000), wk =   0.0092593
        k(    2) = (  -0.1666667   0.1666667  -0.1666667), wk =   0.0740741
        k(    3) = (  -0.3333333   0.3333333  -0.3333333), wk =   0.0740741
        k(    4) = (   0.5000000  -0.5000000   0.5000000), wk =   0.0370370
        k(    5) = (   0.0000000   0.3333333   0.0000000), wk =   0.0555556
        k(    6) = (  -0.1666667   0.5000000  -0.1666667), wk =   0.2222222
        k(    7) = (   0.6666667  -0.3333333   0.6666667), wk =   0.2222222
        k(    8) = (   0.5000000  -0.1666667   0.5000000), wk =   0.2222222
        k(    9) = (   0.3333333   0.0000000   0.3333333), wk =   0.1111111
        k(   10) = (   0.0000000   0.6666667   0.0000000), wk =   0.0555556
        k(   11) = (   0.8333333  -0.1666667   0.8333333), wk =   0.2222222
        k(   12) = (   0.6666667  -0.0000000   0.6666667), wk =   0.1111111
        k(   13) = (   0.0000000  -1.0000000   0.0000000), wk =   0.0277778
        k(   14) = (   0.6666667  -0.3333333   1.0000000), wk =   0.2222222
        k(   15) = (   0.5000000  -0.1666667   0.8333333), wk =   0.2222222
        k(   16) = (  -0.3333333  -1.0000000   0.0000000), wk =   0.1111111

     Dense  grid:    35557 G-vectors     FFT dimensions: (  45,  45,  45)

     Estimated max dynamical RAM per process >     129.29 MB

     Estimated total dynamical RAM >       3.03 GB

     The potential is recalculated from file :
     out/mp-1672.save/charge-density

     Starting wfcs are random

     Band Structure Calculation
     Davidson diagonalization with overlap

     ethr =  5.00E-06,  avg # of iterations = 10.5

     total cpu time spent up to now is     1372.7 secs

     End of band structure calculation

          k = 0.0000 0.0000 0.0000 (  4477 PWs)   bands (ev):

   -33.2894 -14.2635 -14.2635 -14.2635  -5.3278   5.9790   5.9790   5.9790
    10.0928  10.1429  10.1429  10.1429  10.7306  10.7306  16.8425  19.0112
    19.0112  19.0112  21.9489  21.9489  22.5871  22.5871  22.5871  29.8697
    31.4565  31.4565  31.4565  32.6233  32.6233  32.6233  33.1948  33.1948
    34.9099  34.9099  34.9099  43.4203  46.3495  46.3495  46.3495  46.8404
    46.8404  47.0142  47.0142  47.0142  47.7106  47.7106  47.7106  49.6563
    49.6563  49.6563  49.7255  50.3846  50.6569  50.6569  50.6569  52.5951
    52.5951  52.5951  53.2353  53.2353  55.4065  60.3288  60.3288  60.3288
    60.6570  60.6570  60.6570  69.5659  69.5659  70.8371  70.9251  70.9251
    70.9251  72.6316  72.6316  72.6316  79.2198  79.2198  79.2198  80.0822
    80.0822  81.7844  82.6821  82.6821  82.6821  83.0008  83.1346  83.1346
    83.1346  85.7611  85.7611  85.7611  86.9335  86.9335  86.9335  87.3904
    87.3904  87.3904  88.1323  88.1323  88.1323  88.5263  88.5263  88.5730
    88.5730  88.5730  88.9146  88.9146  90.2876  90.2876  91.3457  91.3457
    91.3457  92.2378  94.0945  96.1888  96.1888  96.1888  99.7872  99.8130
   101.0211 101.0211 101.0211 104.5576 104.5576 104.5576 105.8458 105.8458
   106.8472 106.8472 106.8472 108.0748 108.0748 108.0748 108.2702 108.2702
   108.2750 108.2750 108.2750 108.4518 108.4518 108.4518 108.8344 108.8344
   108.8344 110.2980 117.2716 117.2716 117.2716 117.8315 118.0497 119.5125
   119.5125 119.5125 120.0259 120.0259 120.0259 121.4395 121.4395 121.4395
   121.8465 121.8465 121.8465 122.4917 122.4917 125.3489 125.3489 125.3489
   126.2438 126.2438 126.3457 126.3457 126.3457 126.5174 128.7779 135.9851
   135.9851 135.9851 138.0113 138.0113 138.0113 138.7075 138.7075 139.0504
   139.0504 139.0504 144.2669 144.2669 146.2588 146.5807 146.5807 146.5807
   146.5936 146.5936 146.5936 150.4397 150.4397 150.4397 152.2230 152.2230
   152.2230 153.2478 153.8077 153.8077 153.8077 154.0358 154.0358 154.4404
   154.4404 154.4404 156.0654 156.0654 156.0654 156.3657 157.1717 157.1717
   157.1717 157.2160 157.2954 157.6117 157.6117 157.6117 159.0414 159.0414
   160.1608 160.1608 160.1608 160.8518 160.8518 160.8518 161.6440 161.6440
   161.6440 162.3078 162.3078 162.3078 162.4385 162.4385 162.5575 162.7959
   162.7959 162.7959 162.9962 162.9962 162.9962 163.2189 163.2189 163.2189
   163.2704 163.2704 163.3216 163.3732 163.3732 163.3732 163.4527 163.4527
   163.6283 163.6283 163.6283 171.2340 171.2340 172.4966 172.4966 172.4966
   173.7145 175.3867 175.3867 175.3867 176.5538 176.5538 176.5538 176.6545
   176.6545 176.6545 177.0582 177.0582 177.0582 178.9447 178.9447 178.9447
   182.6075 182.6075 182.8214 182.8214 182.8214 182.9113 183.5945 183.5945
   186.6639 187.4630 187.4630 187.4630 187.9016 192.4173 192.4173 192.4173
   195.0681 195.0681 195.0681 195.1485 195.1485 195.1485 195.1619 195.1619
   195.1619 195.4555 195.4555 195.4679 195.4679 195.4679 196.3535 196.3535
   197.4995 197.6965 197.8557 197.8557 197.8557 198.2879 198.2879 198.2879
   198.3346 198.3346 198.6065 198.6065 198.6065 198.8300 198.8300 198.8300
   198.8345 198.8345 198.8345 199.7106 199.7106 207.8357 207.8357 207.8357
   207.8983 208.8223 208.8223 208.8223 212.8183 212.8183 212.8183 213.6046
   213.6046 213.6046 214.7630 217.7590 220.0712 220.0712 220.5549 220.5549
   220.5549 221.3791 221.3791 221.3791 222.0082 222.0082 222.0082 222.3650
   222.4631 222.4631 225.6274 225.6274 225.6274 227.5146 227.5146 227.5146
   230.3379 230.3379 230.3379 230.5777 230.5777 230.5777 230.6138 230.6138
   230.6138 230.8778 230.8778 230.8778 233.3208 233.4948 233.6405 233.6405
   233.6405 234.0217 234.0217 234.2384 234.2384 234.2384 234.4728 234.4728
   234.5104 234.5104 234.5104 235.2330 235.2330 235.2330 235.6782 235.6782
   235.6782 235.8497 235.8497 235.8497 236.0112 237.1391 237.1391 237.1391
   237.1395 237.1395 237.1508 243.9477 243.9477 243.9477 245.9332 246.2326
   246.2326 246.2326 247.0050 247.8811 247.8811 248.2327 248.2327 248.2327
   250.6485 250.6485 250.6485 250.8083 250.8083 251.1607 251.1607 251.2173
   251.2173 251.2173 251.4245 251.4245 251.4245 251.6956 251.6956 251.6956
   253.6070 253.6070 253.6070 256.0716 256.0716 256.0716 256.0759 256.0759
   256.0921 256.0921 256.0921 256.1812 256.1812 256.2116 256.2116 256.2116
   256.2271 256.2271 256.2271 257.8301 257.8301 257.8301 257.8386 257.8386
   257.8386 257.8487 257.8742 258.4428 258.4428 258.4428 258.9573 259.1921
   259.7916 259.7916 259.7916 260.4817 260.4817 260.4817 262.6428 262.6428
   262.6428 263.5964 263.7380 263.7380 263.7380 264.0020 264.0020 264.4409
   264.4409 264.4409 264.7042 267.3932 267.3932 267.9470 267.9470 268.7073
   268.7073 268.7073 269.0035 269.0035 269.0035 269.1163 269.1163 269.1163
   269.9078 269.9078 269.9273 269.9273 269.9273 270.1847 270.5228 270.5228
   270.5228 270.5332 270.5332 272.1140 272.1140 272.1140 272.2637 272.2637
   272.2637 272.4502 272.4502 272.4502 272.5801 272.5801 272.5801 273.5012
   273.5539 273.5539 273.5539 273.5761 273.5761 275.6809 275.6809 275.6809
   279.9979 289.4832 289.4832 289.4832 293.8264 293.8264 293.8264 295.8150
   298.3170 298.3170 298.3170 299.0606 299.5797 299.5797 300.2466 300.2466
   301.9829 301.9829 301.9829 302.0970 302.0970 302.0970 303.3513 303.3513
   303.3513 303.5008 303.5008 303.5008 303.7437 303.7437 303.7437 304.1124
   304.1124 304.4004 304.5065 304.7514 304.7514 304.7514 305.4605 305.4605
   305.4605 305.4656 305.4656 305.4656 305.6378 305.6378 305.6378 305.9735
   305.9735 305.9735 306.0977 310.3361 310.3361 310.5655 310.5655 310.5655
   310.5848 310.5848 310.5848 310.6816 310.6816 310.7575 310.7575 310.7575
   310.9048 310.9048 310.9048 311.9885 311.9885 312.0552 312.0552 312.0552
   312.2246 319.3540 319.3540 319.3540 319.4857 319.4857 319.4857 320.1181
   320.5928 320.5928 320.7229 320.7229 320.7229 320.9128 320.9128 320.9128
   323.0344 323.0344 326.4453 326.4453 326.4453 327.2628 327.4837 327.4837
   327.4984 327.4984 327.4984 327.6051 327.6051 327.6662 327.6662 327.6662
   327.8004 327.8004 327.8004 327.8018 327.9739 327.9739 327.9739 328.1431
   328.1431 328.1431 328.8379 328.8379 328.8379 329.3991 329.3991 329.3991
   330.5946 336.8628 336.9577 336.9577 337.8033 337.8033 337.8033 338.3667
   338.3667 338.3667 338.9820 338.9820 338.9820 339.0726 339.0726 339.0726
   339.1523 339.1523 339.1523 339.3098 339.8929 342.6695 342.6695 342.6695
   343.9168 343.9168 343.9168 343.9464 343.9464 344.0782 344.0782 344.0782
   344.2343 344.2343 344.2343 344.3200 344.7910 344.7910 344.7910 345.0111
   345.0111 345.0707 345.4190 345.6424 345.6424 345.6438 345.6438 345.6438
   345.6586 345.6586 345.6586 345.6670 345.6670 345.6670 345.7738 345.7738
   345.7738 346.6326 346.6326 346.6326 346.6613 346.6613 346.6964 346.6964
   346.6964 346.7318 346.7318 346.7318 346.7951 349.7714 349.7714 353.1272
   353.1272 353.1272 354.7897 357.0214 357.0214 359.4492 359.4492 359.4492
   360.6630 360.6630 360.6630 360.8347 360.8347 360.8347 360.9894 360.9894
   360.9894 361.9664 361.9664 361.9664 362.0530 362.0530 362.0530 362.0616
   362.1058 362.1058 362.8202 366.5616 366.5616 366.5616 369.3558 369.7427
   369.7427 369.7427 370.8840 374.2599 374.2599 374.2599 374.5148 374.5148
   374.5973 374.5973 374.5973 374.9997 374.9997 374.9997 375.2276 375.2276
   375.2276 375.4997 375.4997 376.6277 376.6277 376.6277 378.0750 378.0750
   378.0750 378.1784 378.1784 378.1784 378.3323 378.3323 378.3323 378.3339
   378.3339 378.3339 379.1677 379.3855 379.3855 379.7089 379.7089 379.7089
   380.0737 380.0737 380.1090 380.1090 380.1090 380.4166 380.4166 380.4166
   380.5114 380.5204 380.5204 380.5554 380.5554 380.5880 380.5880 380.5880
   380.5919 380.5919 380.5919 380.6415 380.6415 380.6415 380.7131 380.7131
   380.7131 380.8523 380.8523 380.8523 380.8599 380.8599 380.8599 382.3241
   382.3673 382.3673 382.3673 382.3933 382.3933 382.3933 382.4140 384.9724
   384.9942 384.9942 384.9942 385.0054 385.0054 385.3480 385.3480 385.3480
   385.4251 385.4251 385.4466 385.4466 385.4466 385.4668 385.4668 385.4668
   385.4870 385.5022 385.5022 385.5022 385.5277 385.5277 385.6188 385.6188
   385.6188 385.7359 385.7359 385.7359 385.8392 392.9101 392.9101 392.9101
   394.0144 394.1407 394.1407 394.1407 394.1902 400.9872 400.9872 402.9181
   402.9181 402.9181 403.0286 403.0286 403.0286 403.0463 403.0463 403.0643
   403.0643 403.0643 403.3302 403.3302 403.3302 403.3368 403.3368 404.0059
   404.1806 404.1806 404.1806 405.6003 405.6003 405.6003 407.4862 407.4862
   407.4862 407.6468 407.6468 407.6468 407.9978 407.9978 407.9978 412.1098
   412.1098 412.2449 412.2449 412.2449 412.3960 416.9598 417.0416 417.0416
   417.0416 417.1365 417.1365 419.9181 419.9181 419.9181 419.9393 419.9393
   419.9393 419.9725 419.9725 419.9725 419.9740 419.9740 419.9740 421.3064
   421.3064 421.3317 421.3317 421.3317 421.3743 429.6631 430.2715 430.2715
   430.7665 430.7665 430.7665 433.3668 433.3668 433.3668 434.7582 435.3104
   435.3104 435.3104 436.4008 436.4008 436.4008 436.8451 436.8451 436.8451
   437.2782 437.2782 437.2782 437.3123 437.3123 437.3123 437.6578 437.6578
   440.1847 440.1847 440.5211 440.7608 440.7608 440.7608 440.9921 440.9921
   441.0153 441.0153 441.0153 442.7528 442.7528 442.7528 442.8778 443.9816
   444.1572 444.1572 444.1572 446.1994 446.1994 446.1994 446.5999 446.5999
   446.5999 446.8688 447.9931 447.9931 448.4717 448.4717 448.4717 449.0216
   449.0216 449.0216 449.5238 450.0758 450.0758 450.1840 450.1840 450.1840
   450.6633 450.6633 450.6633 450.7720 450.7720 450.9701 450.9701 450.9701
   451.0972 451.0972 451.0972 452.1922 452.1922 452.1922 452.2530 452.4451
   452.4451 452.4451 452.6432 454.6410 454.6410 454.6410 454.6530 454.6530
   454.7181 454.7181 454.7181 454.7642 454.7642 454.7642 454.8131 454.8131
   454.8131 454.8175 454.8175 456.2592 456.2592 456.2592 456.2713 456.2831
   456.2831 456.2831 456.3109 456.3109 456.3169 456.3169 456.3169 457.1115
   457.1115 457.1115 457.1527 457.1527 457.1922 457.1922 457.1922 457.2030
   457.2030 457.2030 457.2892 468.5133 468.5133 469.1442 469.3639 469.3639
   469.3639 469.6711 469.6711 469.6711 470.8807 470.8807 470.8807 470.9838
   471.0159 471.0159 471.0159 471.1684 471.1684 471.1684 471.9666 471.9666
   471.9666 472.5366 472.5366 472.5366 472.5514 472.5514 472.7102 472.7102
   472.7102 472.9360 473.5455 473.5455 473.7656 473.7656 473.7656 473.7766
   473.7766 473.7766 473.8537 473.8537 473.8537 477.5046 477.5046 477.5326
   477.5326 477.5326 477.5921 477.5921 477.5921 477.6061 477.6061 477.6061
   477.6336 477.6588 477.6588 477.7561 477.7561 477.7561 477.7740 477.8198
   477.8198 477.8198 477.8669 477.8669 477.8669 478.5868 478.5868 478.6582
   478.6582 478.6582 478.7699 479.4124 479.4124 479.4124 479.5129 479.5129
   480.9150 481.3057 481.3057 481.3057 481.9352 481.9352 481.9352 482.2302
   482.2302 482.2302 482.3254 482.3254 482.4266 482.4266 482.4266 482.7644
   482.7644 482.7644 482.9138 485.7211 486.5524 486.5524 486.5524 487.4311
   487.4311 487.4311 488.0089 488.0089 488.0159 488.0159 488.0159 488.9493
   489.3780 489.3780 489.3780 489.4659 489.4659 489.4659 489.6014 489.6014
   489.6206 489.6206 489.6206 491.3020 491.3020 491.3020 491.8943 492.0114
   492.0794 492.0794 492.0794 493.1175 493.1175 493.1175 493.1211 493.1211
   493.2105 493.2105 493.2105 493.3215 493.3215 493.3215 493.4532 493.7641
   493.7641 493.7990 493.8244 493.8244 493.8244 493.8520 493.8520 493.8520
   493.8854 493.8854 493.8976 493.8976 493.8976 493.9205 493.9258 493.9258
   493.9258 493.9596 493.9596 494.2347 494.2347 494.2347 494.3136 494.3136
   494.3136 494.3214 494.3412 494.3412 494.3412 494.3577 494.3577 494.3577
   494.6206 494.6206 494.6206 516.1850 517.2286 517.2286 517.2286 518.4384
   518.4384 518.5032 519.9172 519.9172 519.9172 520.9063 520.9063 520.9063
   521.8072 521.8072 521.8072 522.1976 522.1976 522.1976 522.4465 522.4465
   522.4465 522.7916 522.7916 523.4588 523.4588 523.4588 524.5669 524.5669
   525.0046 525.0094 525.0281 525.0281 525.0281 525.9836 525.9836 525.9836
   526.2716 526.2716 526.2716 526.3260 526.3260 526.3260 526.5409 526.7480
   526.7480 526.7480 527.0477 527.0477 527.5642 527.5642 527.6321 527.6321
   527.6321 527.7339 527.7339 527.7339 528.0183 528.1363 528.1363 528.1363
   528.1692 528.1692 528.1692 528.3602 528.3602 528.3602 528.3957 528.3957
   528.4346 528.4346 528.4346 528.4407 528.4407 528.4407 528.4578 528.5205
   528.5205 528.5205 528.5650 528.5650 528.6003 528.6003 528.6003 528.6195
   528.6195 528.6195 528.6332 528.6398 528.6398 528.6398 528.7255 528.7255
   528.8595 528.8595 528.8595 532.8760 532.8760 532.8760 532.9062 532.9062
   532.9062 532.9101 532.9101 532.9883 532.9883 532.9916 532.9916 532.9916
   533.0150 533.0150 533.0150 534.8044 534.8153 534.8153 534.8153 534.8325
   534.8325 534.8325 534.8561 539.2736 539.2736 540.6719 542.1321 542.1321
   542.1321 546.2183 546.3197 546.3197 546.3197 546.5673 546.5673 546.6062
   546.6062 546.6062 546.7511 546.7511 546.7511 546.8351 546.8351 546.8351
   547.0645 547.0645 547.0645 547.6675 547.6675 548.0360 548.4553 548.4553
   548.4553 551.8046 551.8046 551.8046 551.8309 551.8309 551.8309 551.8336
   551.8336 551.8379 551.8379 551.8379 551.8730 551.9238 551.9238 551.9238
   551.9284 551.9284 551.9617 551.9617 551.9617 552.0607 552.0607 552.0607
   552.1402 554.1135 554.1135 554.1135 554.6270 554.6455 556.0730 556.0730
   556.0730 562.6703 562.6703 562.6703 562.7022 562.7022 562.7022 562.8146
   562.8146 562.8146 562.9026 562.9026 562.9026 564.5076 564.5076 564.5793
   564.5793 564.5793 564.6898 564.6898 564.6898 564.8378 564.8378 564.8378

          k =-0.1667 0.1667-0.1667 (  4459 PWs)   bands (ev):

   -33.2867 -14.3047 -14.2667 -14.2667  -5.1459   4.9423   5.6168   5.6168
    10.1490  10.5262  10.5262  11.3194  11.4207  11.4207  16.8147  18.3036
    18.3036  18.9814  20.3156  20.3156  23.0693  24.9835  24.9835  28.0564
    28.9277  28.9277  31.7397  32.7129  32.7129  33.1059  33.1059  34.4082
    35.2909  38.1010  38.1010  41.8700  42.8832  42.8832  44.3884  44.5293
    45.8250  45.8250  45.9826  45.9826  46.8877  47.4716  47.4716  47.7648
    49.5879  50.2529  50.2529  52.5452  52.5452  52.9036  53.2926  53.2926
    53.7304  56.1026  56.6767  58.6783  58.9071  58.9071  59.2318  59.2318
    62.3679  62.3679  62.9460  67.0587  67.0587  68.4235  69.2711  69.2711
    71.0659  73.2739  73.2739  73.7410  77.0945  77.0945  77.8100  77.8659
    77.8659  79.3459  79.7108  80.3723  80.3723  80.7060  80.7060  82.3264
    82.3264  82.9036  84.7913  84.8415  84.9710  86.3998  86.3998  86.8142
    86.8142  87.6255  88.5620  88.5620  88.9441  88.9441  89.1779  90.1963
    90.1963  90.5961  91.4500  92.8642  92.8642  94.1380  95.3941  95.6059
    95.6059  96.5452  96.5452  97.9952  97.9952  98.1021  98.2670  98.2670
    99.1438 100.3249 100.7228 102.0676 102.0676 102.3908 102.3908 102.7226
   103.7602 103.7602 103.9890 105.7879 105.7879 107.1344 107.3591 108.4276
   108.4276 110.8991 111.4250 111.4250 111.6401 112.2589 112.2589 112.5255
   114.0146 114.0686 114.0686 114.8724 115.1146 115.1146 115.6198 117.7295
   118.2433 118.2433 118.8867 118.8867 120.0721 120.1827 120.1827 122.2384
   122.2384 122.6041 124.7529 124.7529 124.7587 127.3334 127.3334 127.6999
   128.4000 128.4000 128.9374 130.6018 130.6018 132.0432 133.7516 134.9744
   134.9744 135.5880 135.9704 136.2321 136.2321 136.6948 136.6948 139.2357
   139.2357 139.3191 142.6128 142.6128 142.7804 143.2031 144.5290 144.7235
   144.7235 145.7416 145.7416 146.4699 146.9415 147.9260 147.9260 148.6564
   148.6564 149.4683 150.1274 150.1274 150.5582 150.5582 151.0183 152.2118
   152.5265 152.5265 153.3078 153.9367 153.9367 154.6048 155.1026 155.1026
   156.3206 156.6415 156.9420 156.9420 157.5999 157.5999 158.0246 158.3958
   158.3958 159.2647 159.2647 159.5645 159.7595 159.9300 159.9300 160.6356
   160.7574 160.7574 162.8863 163.3391 163.3391 163.5567 164.2669 164.2669
   164.6534 164.9711 164.9711 165.8408 165.8408 166.1693 166.3882 167.0076
   167.0076 167.0839 167.2057 167.2057 168.3414 168.5136 169.2105 169.4968
   169.4968 169.8106 171.1045 171.5450 171.5450 172.1845 172.6311 172.6311
   174.6548 174.6548 175.0815 175.0815 175.1593 175.9837 175.9837 176.1864
   177.6481 177.6481 178.6234 178.6234 179.5055 180.5790 180.7824 180.7824
   182.8781 182.8781 183.3524 183.3524 184.1270 184.1699 184.1699 184.8672
   186.4365 186.4365 187.0874 188.0761 188.3821 188.3821 188.5973 189.1596
   189.1596 189.7368 189.7368 189.9954 189.9974 189.9974 190.1841 192.1326
   193.2008 193.2008 193.4643 193.4643 193.5841 193.5952 194.6827 194.6827
   195.6891 198.4964 199.4141 199.4141 199.6049 200.5520 200.5520 200.9106
   202.5600 202.5600 202.6051 203.3148 203.3263 203.3263 205.0396 205.0396
   205.3320 207.0232 207.2961 207.2961 207.8480 207.8480 208.2848 208.6021
   208.8620 209.5981 209.5981 211.6551 211.6551 212.3939 212.7405 212.7405
   213.8672 213.8672 215.7396 216.6208 216.6208 217.0642 217.0642 217.6288
   218.0698 218.0698 218.5340 219.5753 219.9906 219.9906 220.3405 220.3405
   220.9269 221.7073 221.7073 222.1900 222.5001 222.6102 222.6102 223.1179
   223.6605 223.6605 224.2300 225.7381 225.7381 226.9578 227.3297 227.3451
   227.3451 229.3652 231.0699 231.5202 231.5202 233.0148 233.0148 233.9473
   234.2458 234.2458 234.7751 234.8558 234.8558 235.0315 235.3416 235.3416
   235.7717 235.7717 236.2201 236.8589 237.1673 237.2798 237.2798 238.2131
   238.2131 238.3822 238.3822 238.5611 239.8254 240.8754 241.1238 241.1238
   241.5081 241.5081 241.5845 242.0782 242.0782 242.2001 242.5848 242.5848
   242.8737 244.1666 244.1666 245.3679 246.6276 246.6276 247.1664 247.4096
   247.7089 247.7165 247.7165 248.5462 248.5462 248.8571 248.8972 248.8972
   248.9392 249.6558 249.6558 249.8081 249.8081 250.0021 250.4318 250.4318
   251.0728 251.0728 251.4250 251.5623 251.6199 251.6199 252.5936 252.8411
   252.8411 254.5050 254.8763 255.1241 255.1241 255.6408 256.1702 256.1702
   256.7927 256.8031 256.8031 257.0032 257.0032 257.0884 257.1648 257.1648
   258.1147 258.1147 258.2680 258.6519 258.9400 258.9400 260.0274 260.0274
   260.5013 260.5065 260.9503 260.9503 261.7498 261.7498 262.6363 263.7576
   264.3607 264.3607 264.8025 264.8025 265.0601 265.1996 265.4475 265.4475
   265.6522 266.1396 266.1396 266.5320 267.5000 267.5646 267.5646 268.2236
   268.5536 269.0563 269.0563 269.3393 269.4444 269.4444 269.9705 270.0765
   270.0765 272.6058 272.6058 274.3947 274.3947 274.4653 274.8528 274.8528
   275.3227 276.2430 276.2430 276.6442 277.2507 277.2723 278.4539 278.4539
   279.0930 279.4681 279.4681 280.3177 280.6460 280.6460 281.2744 281.4312
   281.4312 282.2530 283.8253 283.8253 284.1965 284.1965 286.1727 286.1727
   287.2766 287.6131 288.6939 288.6939 288.9088 288.9088 289.1322 289.4775
   289.5857 289.5857 290.4446 290.4446 290.6579 290.6579 290.7650 291.5614
   292.6286 292.6286 293.4442 293.4442 293.9130 293.9614 293.9614 294.3292
   294.9589 300.6879 300.7059 300.7059 300.7560 300.7675 300.7675 301.5430
   301.7731 301.7731 302.1860 302.2594 302.2594 303.2430 303.2430 303.5287
   304.4541 304.4541 304.7163 306.2425 306.2425 306.6779 307.1210 307.1210
   307.9618 310.0704 310.0704 310.1919 311.9198 311.9198 312.4092 312.7711
   312.7711 313.2661 313.6173 313.8640 313.8640 314.6757 314.6757 315.2122
   315.2307 315.2307 315.9332 315.9974 316.0853 316.0853 316.7220 316.9896
   317.4334 317.4334 317.5081 318.6754 318.6754 319.4461 319.4461 319.8408
   319.8408 319.8938 320.2245 320.2314 320.2443 320.2443 320.8315 321.7951
   321.7951 322.3659 322.3877 322.4849 322.4849 323.0282 323.3105 323.3105
   323.7761 323.7761 324.1663 324.7943 324.7943 325.4889 325.4889 325.5948
   325.6452 325.6452 325.9625 326.9131 326.9131 327.1455 328.3584 328.8703
   328.8703 328.9567 329.5413 329.5413 330.1679 332.1471 332.1471 332.3789
   332.3789 332.4118 334.4946 334.4946 334.5336 335.7533 335.7533 337.1299
   337.5338 337.5338 338.6477 339.0238 339.0238 339.4500 339.4500 339.7081
   339.8506 340.1196 340.1196 340.7972 340.9966 340.9966 341.0297 341.6489
   341.7071 341.7071 341.9065 341.9065 342.1069 342.1937 342.1937 342.5970
   342.5975 342.5975 343.1206 343.2219 343.2219 343.7662 343.7983 343.7983
   344.5777 344.7193 344.9447 344.9447 346.3236 346.3236 346.4221 346.7083
   347.1642 347.1642 347.9780 348.4395 348.4395 348.8646 348.8913 348.8913
   348.9186 349.2521 349.2521 349.3806 349.5745 349.6855 349.6855 352.4998
   352.4998 354.4617 354.4617 354.9744 355.3248 355.3248 355.7459 356.6676
   356.6676 357.4011 357.6139 357.7443 357.7443 358.1121 358.1121 359.3615
   359.3615 359.4698 359.6649 359.7607 360.9931 360.9931 361.4063 362.8320
   362.8320 363.3512 363.3512 363.5966 363.7810 363.8266 363.8266 364.1056
   364.3749 364.3749 364.4405 364.4753 364.4753 364.5832 365.3656 365.3656
   365.6877 365.6877 365.7270 365.7270 365.8090 365.9093 366.1151 366.5538
   366.5538 366.5803 367.3016 367.3016 367.3280 367.8350 367.8350 367.9707
   368.4116 368.4116 369.2899 369.3808 369.3808 369.8812 371.1650 371.1650
   371.2574 371.5571 371.9054 371.9237 371.9237 373.8942 373.8942 374.0339
   374.7387 374.7387 374.8869 375.0758 375.0758 375.1748 375.5244 375.5335
   375.5335 377.1177 377.1177 377.4941 378.4583 378.4583 379.0054 379.0054
   379.6011 379.6011 379.6352 379.6919 379.7912 379.7912 379.9283 380.8367
   380.8367 381.0635 381.9598 381.9598 382.6077 382.7309 382.7913 382.7913
   383.5635 383.5635 384.3630 385.6888 385.7600 385.7600 386.1391 386.1391
   386.1708 386.4239 386.4239 386.9733 389.0469 389.0469 389.0681 389.9349
   389.9349 390.1123 390.5470 390.6743 390.6743 391.0868 391.1603 391.1603
   391.5066 391.5066 391.7665 391.8978 391.8978 391.9784 392.5784 392.5784
   392.7947 393.4931 394.5054 394.5319 394.5319 395.1346 395.1346 395.2093
   395.9773 396.0944 396.0944 397.4035 397.5163 397.5163 398.2426 398.2426
   398.8788 398.8788 399.1833 399.7210 399.7210 399.8753 399.8753 399.9064
   399.9170 399.9647 400.0328 400.0328 400.5478 401.2800 401.3448 401.3448
   401.9466 401.9466 402.1123 402.1123 402.3529 403.3558 403.3558 403.3920
   404.0089 404.0089 405.8358 407.2863 407.2863 407.4860 408.3122 409.5617
   409.5617 409.5646 409.7276 409.7276 409.7502 411.9041 411.9041 412.3248
   412.3248 412.3434 413.5847 413.5847 413.8893 414.5076 414.5076 414.6298
   415.4689 416.9895 416.9895 418.2966 418.8382 418.8382 419.1672 420.1671
   421.5766 421.5766 423.1857 423.1857 423.7362 423.7362 423.9747 424.4435
   425.0988 426.2128 426.2128 426.6388 427.1446 427.1446 427.4461 427.4461
   427.7069 427.9139 427.9139 428.0672 428.2369 428.2369 429.0334 429.2318
   429.2318 429.6194 430.2317 430.2317 430.9804 430.9804 431.1507 431.1507
   431.1612 431.6366 434.8114 435.1954 435.1954 435.2957 435.2957 435.4795
   435.9924 435.9924 436.0669 436.5206 436.5206 436.5883 437.1432 437.1698
   437.1698 437.3154 437.3154 437.5324 439.1498 439.1498 439.3133 440.0275
   440.0275 440.0784 440.5833 440.5833 440.5869 440.7629 441.8381 441.8381
   444.0637 444.0637 444.1717 445.2600 445.2600 446.0580 446.6068 446.7947
   446.7947 447.3994 447.5034 447.5034 447.9288 448.0746 448.0746 448.2022
   448.5132 448.5132 449.0004 449.0004 449.0125 449.7915 449.7915 450.2745
   451.9582 451.9582 452.1051 452.1051 452.6386 452.8248 453.4472 453.4472
   453.6114 454.0552 454.0552 454.8007 455.1584 455.1584 455.3937 455.3953
   456.0424 456.0424 456.3962 456.5112 456.5112 456.5598 456.9660 456.9660
   456.9980 457.1639 457.1639 457.9234 458.0373 458.0373 458.3724 458.4775
   458.4775 458.6524 458.7827 458.7827 458.8802 458.9783 458.9783 459.5692
   459.5692 459.6273 460.1073 460.1073 460.4331 460.9894 460.9894 461.2750
   461.4466 462.1959 462.1959 463.1433 463.6104 463.6511 463.6511 463.9240
   463.9240 464.2193 464.2193 464.3549 464.4856 464.4935 464.4935 464.9371
   466.6419 466.6688 466.6688 467.0931 467.1060 467.1060 468.2269 468.2269
   468.2478 469.0033 469.0033 469.0178 469.6541 469.6541 469.8266 470.3499
   470.6414 470.6414 470.7804 472.2645 472.2645 472.3779 473.2864 473.2864
   473.3112 473.4037 473.6176 473.6176 473.8317 473.8441 473.8441 474.1551
   474.1551 474.4572 474.6423 474.6423 475.6019 475.6019 475.6957 476.0185
   476.0185 476.0676 476.2744 476.3068 476.5999 476.5999 476.8253 476.8253
   476.9413 478.2097 478.2097 478.4852 478.8921 478.8921 478.9924 479.1109
   479.1109 479.2537 479.3664 479.3664 479.5205 481.0404 481.0404 481.4046
   481.8272 481.8272 482.1291 482.1291 482.2072 482.2072 482.2299 482.2332
   483.6161 483.6161 483.6812 483.9750 483.9750 484.0847 484.3736 484.3736
   484.4827 485.1163 485.1457 485.1457 486.2028 486.2028 486.2096 487.1023
   487.2630 487.2630 487.4981 487.4981 487.6622 488.7744 488.7744 488.8908
   488.9297 488.9297 489.1249 489.2464 489.2464 489.2966 491.5210 491.5281
   491.5281 492.5962 493.5042 493.5195 493.5195 493.9445 493.9445 493.9782
   495.1758 495.2292 495.2292 495.8798 495.8798 496.6990 496.6990 496.8039
   496.8386 497.6797 497.6797 497.8988 499.9041 499.9041 500.0967 500.1101
   500.1101 500.2291 500.2291 500.2806 500.8156 500.8933 500.8933 501.9546
   501.9546 502.4537 502.4537 502.4989 502.4989 502.6765 502.6931 502.7410
   503.8094 503.8094 503.9695 503.9695 504.0172 504.2078 504.2250 504.2250
   504.4834 504.7295 504.7295 505.7326 505.9034 505.9034 506.7727 507.0674
   507.0674 507.2301 507.5231 507.6216 507.6216 508.1226 508.1226 508.3433
   509.8296 509.8296 509.8711 510.0799 510.0799 510.1613 510.9660 510.9660
   511.1368 512.7868 513.8379 513.8379 514.5207 514.5207 514.6130 514.9618
   515.2616 515.2616 515.5421 515.9169 515.9169 515.9704 516.1171 516.1171
   516.5793 516.5793 516.6139 516.7009 516.8279 516.9751 516.9751 517.0185
   517.0185 518.3732 518.3732 518.7157 518.9422 519.6727 519.6727 519.7464
   521.3625 521.3724 521.3724 521.9601 521.9601 522.0192 522.2572 522.2572
   522.5859 523.9737 524.0249 524.0249 524.9489 524.9489 525.2837 526.3114
   526.3861 526.3861 526.5390 527.1541 527.1640 527.1640 527.7517 527.7517
   527.8539 528.4667 528.7181 528.7181 530.2163 530.2559 530.2559 530.3083
   530.3083 530.3721 530.5444 530.5444 530.6368 530.7751 530.8016 530.8016
   533.1174 533.1174 533.2033 533.8805 534.3183 534.3183 535.5504 535.5504
   535.7745 535.8967 535.8967 536.5371 536.6894 536.6894 537.4148 537.4148
   537.6720 538.4449 538.4649 538.4649 538.4937 538.4937 538.5111 538.5472
   538.5472 538.5626 540.3238 540.3238 540.3758 541.1288 541.2523 541.2523
   543.1987 543.1987 543.3640 543.8729 543.8729 544.0732 544.1151 544.5120
   544.5120 544.8695 544.8695 544.9959 545.4397 545.9223 545.9300 545.9300
   545.9709 545.9709 546.0968 546.2718 546.2718 546.3667 546.3667 546.3811
   548.4457 548.7018 548.7018 549.4145 549.5858 549.5858 550.0406 550.2532
   550.2532 552.0974 552.6168 552.6168 553.0692 553.8244 553.8244 553.8660
   554.0979 554.0979 554.3401 554.7181 554.7181 554.7676 554.7676 554.9995
   555.4041 555.7083 555.7083 557.3255 557.3255 557.3493 558.0993 558.0993
   558.6041 558.6041 558.6046 558.8550 560.9287 560.9287 560.9709 560.9866
   560.9866 561.6640 561.7354 561.7354 561.9642 561.9642 562.5930 562.9072
   564.0543 564.7179 564.7179 567.0731 567.0731 568.6541 569.2002 569.2002
   569.2713 569.3323 569.3323 569.3461 570.0049 570.8420 570.8420 571.2482

          k =-0.3333 0.3333-0.3333 (  4462 PWs)   bands (ev):

   -33.2812 -14.3850 -14.2730 -14.2730  -4.7516   3.5067   5.0624   5.0624
    10.5118  11.4390  11.4390  12.6060  12.9090  12.9090  16.1784  16.3260
    16.3260  19.6913  19.6913  20.6841  23.8492  24.9887  25.9597  25.9597
    27.8552  27.8552  32.6585  32.6585  33.4336  34.3297  34.3297  35.9942
    36.4321  36.7743  37.4497  37.4497  41.0058  41.1831  41.1831  44.2649
    44.2649  44.3251  46.5599  46.5599  46.6234  46.8121  46.8121  48.3808
    50.0532  51.0964  51.0964  51.4271  56.0569  56.0569  56.6798  57.8583
    57.8583  58.1855  58.1855  58.4324  59.3632  62.3237  62.3237  62.3967
    63.8404  63.8404  63.8505  66.7160  66.7160  67.8587  68.3514  68.3514
    69.7560  69.7560  70.4968  71.7072  71.7072  72.7250  73.6798  74.8396
    74.8396  76.7108  76.7108  76.8971  79.3761  79.3761  79.7980  80.1237
    81.3879  81.3879  82.2714  85.6665  85.6665  85.6699  85.9580  86.3230
    86.3230  87.7370  88.3679  88.3679  90.5911  90.5911  91.0372  91.4533
    91.6125  91.6125  92.3869  94.1111  94.1111  95.3091  95.3183  95.3907
    95.3907  96.9862  97.3607  97.3607  97.9821  99.0255 100.1172 100.1172
   100.3981 100.3981 102.8930 103.7439 103.7439 103.9117 105.0069 105.2636
   105.2636 106.0634 107.4298 107.4298 107.7753 108.2688 108.2688 108.4806
   109.1914 109.1914 109.8773 109.8773 110.2799 110.9411 110.9411 112.0077
   113.1982 113.1982 113.6023 114.4805 114.4805 115.2235 117.6637 117.6637
   119.2723 119.2723 119.8830 120.7721 120.7721 120.9232 122.1894 122.5836
   123.0748 123.0748 126.9659 127.0555 127.0555 128.3996 129.4172 129.4172
   131.1109 131.1109 132.1832 132.3042 132.9136 133.9835 133.9835 134.6845
   134.6845 135.2839 135.2839 135.7701 135.7701 136.1120 137.1815 137.1815
   137.5829 137.8350 137.8350 138.0491 139.2762 140.3379 140.6290 140.6290
   140.6789 141.5581 141.5581 142.5798 142.5798 143.1879 145.0270 145.0362
   145.0362 146.0294 146.0294 146.0847 148.7332 149.6827 149.6827 151.8131
   152.1759 152.3886 152.3886 153.7933 153.7933 154.1301 154.1301 154.4087
   154.7312 155.8259 156.1086 156.1086 156.7035 157.7830 157.7830 157.8758
   158.3952 158.3952 158.5943 158.5943 158.9812 159.4523 159.7885 159.7885
   160.4422 160.4422 160.7367 162.0727 162.0727 162.4109 164.0932 164.0932
   166.7978 166.7978 166.8033 167.2358 167.5509 167.5509 168.5013 168.5013
   168.9228 168.9228 168.9470 169.3200 169.4906 169.9877 170.2233 170.2233
   171.1034 171.1034 171.1730 171.2194 171.7786 171.7786 173.7145 173.7145
   176.6738 176.6738 176.7036 178.2559 179.0655 179.0655 180.0306 180.0306
   180.3886 181.5555 181.5928 181.6585 181.6585 181.9297 182.0273 182.0273
   182.1702 182.1903 183.3575 183.3575 183.4837 186.2154 186.2154 186.8600
   187.5071 187.5071 189.1213 189.4173 189.4173 189.8134 189.8134 190.7228
   191.0934 191.0934 191.5636 192.0556 192.0556 192.7831 192.9482 193.1998
   193.1998 193.3045 193.7227 193.7227 195.1349 195.1349 195.3865 195.5738
   195.5738 198.8765 200.3036 200.3817 200.3817 201.5714 201.5714 203.0096
   204.3751 204.3751 205.4252 205.4252 205.4768 205.5530 205.5530 206.0719
   206.6259 206.8579 206.8579 207.2874 207.6011 207.6011 207.6573 207.7327
   207.7327 208.5748 209.3178 209.3178 209.8678 210.8901 210.8901 211.2760
   212.0747 213.4409 213.4409 213.5165 215.5846 215.9564 215.9564 217.0087
   217.0087 217.4219 217.4219 218.4665 218.5835 218.5835 219.3347 219.5848
   220.0883 220.8368 220.8368 220.9073 220.9073 221.1487 221.1487 222.0398
   222.1260 222.1260 222.6188 223.6234 223.6234 225.0667 225.9023 226.5861
   226.5861 226.8522 228.1359 228.1359 228.8004 229.0106 229.0106 229.6618
   230.0205 230.3304 230.3304 231.0907 231.0907 231.4115 231.4115 232.3823
   232.3823 232.4173 232.4356 232.4356 233.5050 233.5295 235.4737 235.4737
   236.1354 236.6848 236.6848 236.7669 236.8445 236.8445 238.6291 239.2442
   239.2442 239.7998 240.3192 240.3327 240.3327 241.4621 241.4621 242.4471
   242.4471 242.9439 243.3894 243.6386 243.6386 243.9483 245.0042 245.2368
   245.2368 246.0105 246.0105 246.4520 246.9273 247.3303 247.3303 248.1939
   248.1939 248.4656 249.9642 249.9642 250.8154 250.9880 250.9880 251.9432
   252.3026 252.3026 253.0456 253.2669 253.4565 253.4565 254.2606 254.9659
   254.9659 255.4348 255.7990 255.7990 256.1316 256.6222 256.6222 256.8914
   256.8914 257.0035 257.6825 258.1932 258.1932 258.2634 258.8062 259.3058
   259.3058 260.3307 261.6840 261.6840 261.7096 262.0132 262.4305 262.4305
   263.3892 263.3892 263.4825 263.5504 264.7408 264.7408 265.5948 265.5948
   266.0426 266.4820 266.4820 266.5791 266.9058 267.3852 267.3852 267.8468
   267.8468 268.5470 268.5470 268.6198 269.1093 269.1093 269.7463 269.7463
   270.9465 273.5098 273.7570 273.7570 274.3939 275.7786 276.4367 276.4367
   276.7328 276.7328 277.9158 277.9158 278.5711 278.7187 279.6036 279.7516
   279.7516 280.1236 280.1236 280.2356 282.1538 282.1538 282.3233 282.6409
   282.6596 282.6596 282.7350 283.1213 283.1213 283.9294 284.1623 284.1623
   284.6236 284.6236 284.7948 285.8582 285.9307 285.9307 286.3014 287.2025
   287.2025 287.5928 288.2314 288.2403 288.2403 288.8837 288.8837 289.5135
   291.0339 291.0339 291.5912 291.6368 291.9161 291.9161 291.9681 291.9681
   293.2152 293.2152 293.5731 293.7826 293.7826 294.0308 294.0734 294.2986
   294.2986 294.5414 294.5414 295.8358 295.8358 296.2365 296.2466 298.5432
   300.3685 300.7255 300.7255 301.9827 302.0490 302.0490 302.6816 302.7806
   302.7806 303.4147 303.6911 303.6911 304.1743 304.1743 304.2952 304.6909
   304.6909 304.7229 304.9820 304.9820 305.2103 305.3250 305.7206 305.7206
   306.3637 306.3637 306.5797 308.2992 308.3853 308.3853 308.9372 308.9372
   308.9418 310.1283 311.1774 311.1774 312.2397 312.2397 312.4175 314.6496
   314.6496 315.2763 316.8174 316.8174 317.1039 317.6303 317.6303 318.4558
   318.4558 319.3595 319.7334 320.3402 320.3402 320.7566 321.4761 321.9914
   321.9914 323.4545 323.4545 324.1915 324.9618 324.9618 325.2043 325.2043
   326.0664 326.0664 326.2741 326.3840 326.5974 326.5974 326.6453 326.7355
   326.9219 326.9219 327.4157 327.7801 328.1093 328.1093 328.2658 328.5709
   328.7645 328.7645 329.0143 329.0143 330.7044 330.7044 330.8341 330.9811
   331.5958 331.5958 332.5871 334.6479 334.6479 335.9944 335.9944 336.5465
   337.7480 339.2338 339.2338 339.5247 339.5247 339.8365 339.9840 339.9840
   340.2209 340.5124 340.5124 340.7337 340.9156 340.9156 341.2992 341.2992
   341.3324 341.5002 341.7076 342.1275 342.1275 342.3129 342.8565 342.8565
   343.0061 343.0061 343.0530 343.2231 344.1967 344.1967 344.3867 344.6652
   344.6652 344.9503 345.9905 345.9905 347.0047 347.0047 347.0799 347.2214
   348.6369 348.6512 348.6512 348.9937 350.6212 350.6212 350.7462 350.9039
   350.9039 351.6930 351.6935 351.8323 351.8323 352.1312 352.1312 353.0709
   353.0709 353.1052 353.2396 353.4835 353.4835 353.6421 353.6421 353.7517
   353.7517 353.7966 353.9212 353.9825 354.0304 354.0304 354.2262 354.4559
   354.4559 354.6518 354.7998 354.7998 355.0130 355.0130 355.0307 355.5967
   355.5967 355.8491 355.8491 356.2428 359.1390 359.3566 359.3566 360.8435
   360.9761 360.9761 362.4808 362.5377 362.5377 363.7192 363.7192 364.1530
   364.1572 364.1572 364.4104 365.8551 365.8551 366.1457 366.4497 366.4497
   366.8538 366.8559 366.8559 367.0146 368.3423 368.4961 368.4961 370.7671
   370.7671 371.0284 373.2538 373.2538 373.8077 373.8077 373.9732 374.1390
   374.1390 374.8061 374.8061 374.8146 374.9009 375.1021 375.1021 375.1153
   375.3555 375.7899 375.7899 376.4797 377.5800 377.9551 377.9551 378.2531
   378.2531 378.7845 379.2535 379.2593 379.2593 380.7340 380.7340 380.7407
   380.8280 381.4914 381.4914 382.9964 382.9964 383.2780 383.4895 383.4895
   384.0771 384.0771 384.1347 384.3902 384.6589 384.6589 384.7126 384.9392
   385.8991 385.8991 386.0329 386.3209 386.3209 386.3749 387.0937 388.6661
   388.7628 388.7628 389.6014 389.6014 389.7299 389.7299 389.9463 390.6473
   390.6473 390.7442 391.5761 391.7958 391.7958 391.8156 392.1189 392.1189
   392.5635 392.8212 392.8212 393.5979 394.0302 394.0420 394.0420 394.3652
   394.7033 394.7033 396.7214 396.7214 397.0542 397.0542 398.0458 398.0458
   398.7638 398.9539 399.7149 401.3616 401.4883 401.4883 401.7521 402.0892
   402.0892 402.4199 402.4199 402.6130 402.8785 402.8785 403.5036 403.5036
   404.9192 405.1267 405.1267 405.1391 405.1399 405.1567 405.1567 406.0881
   406.0881 406.1040 407.0666 407.0666 407.2460 407.3819 407.3819 407.4920
   408.7771 408.7771 409.5268 409.8258 409.8258 410.0050 410.0050 410.0411
   412.0262 413.2024 413.2024 413.6264 414.5467 414.8836 414.8836 415.1953
   415.1953 415.2573 415.3583 415.9357 415.9445 415.9445 416.0763 416.0763
   416.0823 416.1605 416.1605 416.2183 416.3283 416.3283 417.2686 417.2724
   417.2724 417.5477 421.0718 421.0718 421.6449 422.1843 422.1843 423.1420
   423.5270 423.5270 424.4077 424.4092 424.6297 424.6297 424.8534 424.8534
   424.9413 426.1279 426.1279 427.4794 427.4794 427.5949 427.8878 427.8878
   427.9080 428.2093 428.2093 429.4693 429.4693 429.5533 429.9344 429.9344
   429.9419 430.0796 430.0796 430.2682 430.3486 433.7247 433.9431 433.9431
   433.9891 434.7248 434.7248 434.8050 435.9190 435.9190 436.4413 436.4413
   436.5407 436.7101 436.7101 437.4673 437.4673 437.5566 437.9827 438.0342
   438.3326 438.4049 438.4049 438.8012 439.0546 439.0546 439.5084 439.5084
   439.6427 440.0775 440.0775 440.7069 440.9073 440.9859 440.9859 441.2433
   441.2899 441.2899 441.5340 441.7611 441.7611 442.2096 442.2096 442.3292
   443.4346 443.7019 443.7019 443.7227 444.7073 444.8485 444.8485 445.0921
   445.0921 445.1676 445.1676 445.4368 446.1755 446.7306 446.7306 447.2977
   447.3592 447.3592 447.8286 448.0384 448.0884 448.0884 451.5777 451.5777
   451.6979 452.3208 452.4043 452.4043 452.6455 452.6455 452.8016 453.3857
   453.3857 453.4508 453.9466 453.9466 456.1152 456.2497 456.2497 456.9258
   456.9258 456.9305 457.0360 457.0360 457.0723 458.1013 458.1013 458.1058
   459.4741 459.5041 459.5041 459.7836 459.7836 460.2094 460.5457 460.5457
   460.5922 460.7110 460.7110 460.7164 462.4941 462.4941 462.6730 462.7885
   462.7885 463.3208 463.4923 463.4923 463.7157 464.2319 464.3629 464.3629
   464.5360 464.5360 464.6353 465.4791 465.5888 465.5888 465.7706 465.7706
   465.8317 466.4607 469.7383 469.7521 469.7521 470.1479 470.1479 470.6231
   470.9117 470.9117 471.4459 471.4459 471.6092 472.1343 472.5983 472.5983
   473.2252 473.3916 473.3916 474.0184 474.0184 474.7992 475.2569 475.3971
   475.3971 475.7890 476.0341 476.0341 476.6989 476.6989 476.7251 477.4352
   477.4352 477.4793 477.5411 477.5411 477.7053 477.9317 477.9498 477.9498
   477.9683 478.0123 478.0123 478.9077 478.9077 480.1220 480.1220 480.4325
   480.5576 480.5576 480.7834 480.8335 480.8335 480.8805 481.0865 481.2977
   481.3933 481.3933 481.7878 483.0858 483.1143 483.1143 483.4213 483.4213
   483.4604 483.9246 483.9246 484.5163 484.5163 484.9383 485.5936 485.5936
   486.1742 488.1649 488.3304 488.3304 489.1241 489.1241 489.2891 489.2920
   489.4058 489.4058 491.4522 491.4522 491.6683 492.0651 492.0651 492.4453
   492.4453 492.6536 492.9578 494.0169 494.4149 494.4149 495.1568 495.2496
   495.2496 495.3680 496.9120 496.9120 497.0442 497.8828 498.0954 498.0954
   498.4038 498.4283 498.4283 498.9818 499.0235 499.0235 499.5881 499.5881
   499.6005 499.7629 499.7629 500.1843 500.4627 500.6545 500.6545 500.9495
   501.4907 501.4907 501.6842 501.6842 501.8882 501.9754 501.9754 502.1697
   502.1866 504.3971 504.4632 504.4632 504.5838 504.7804 504.7804 505.9488
   505.9488 506.0250 506.7534 506.9658 506.9658 507.7780 507.7780 507.8343
   507.8343 507.9632 508.1032 508.1032 508.1665 508.1665 508.1841 508.3103
   508.3103 508.4715 509.0155 509.0155 509.5750 510.0069 510.0699 510.0699
   510.2970 510.2970 510.8552 512.2901 512.5933 512.5933 513.0246 513.0246
   513.1877 513.3686 513.3686 513.4523 513.6678 513.6678 513.7973 513.9110
   513.9993 513.9993 514.0854 514.1187 514.1187 515.0493 515.0909 515.0909
   516.4826 516.4826 516.5637 520.6248 520.7642 520.7642 521.2955 521.2955
   521.5805 522.3042 522.8550 522.8550 522.8818 523.6846 523.6846 525.2249
   525.2249 525.6373 526.3205 526.5964 526.5964 526.6697 526.6697 526.6827
   526.8981 526.8981 526.9702 527.2014 527.2014 527.2476 527.2476 527.2513
   527.2858 527.2951 527.3001 527.3001 527.5532 527.6252 527.6252 528.3501
   528.3501 528.3884 528.3884 528.4465 528.4978 528.5401 528.5401 528.9602
   529.6516 529.6516 530.4322 530.7874 530.7874 530.9193 531.9289 532.5484
   532.5484 532.9857 532.9917 532.9917 533.5961 533.7060 533.7060 536.7472
   537.3740 537.4100 537.4100 537.6715 537.6715 538.0248 538.0248 538.2096
   538.4178 538.4178 538.6557 538.8661 538.8944 538.8944 539.0524 539.1143
   539.1143 539.7479 539.7479 539.7771 541.4214 541.4214 541.4266 541.8217
   541.8217 542.0087 542.6472 543.2384 543.2384 544.6119 545.0689 545.0689
   545.7184 545.7184 545.9524 546.3498 546.3498 546.4414 547.0872 547.0872
   547.2507 547.8452 548.1200 548.1200 548.3526 548.4975 548.4975 548.7462
   548.7620 549.2039 549.4540 549.4540 549.6937 549.6937 549.7675 550.2373
   550.2373 550.3330 550.3330 550.3993 550.8308 550.8593 550.8593 551.3433
   551.3433 551.7387 553.3376 553.3376 553.5144 554.8776 555.2895 555.2895
   556.4564 558.6785 558.6785 558.7675 559.3398 559.3398 559.6532 561.0483
   561.2245 561.2245 561.4424 561.4424 561.4595 561.5142 561.5142 561.7142
   561.7607 561.7607 561.9267 562.1681 562.1681 562.2304 562.9097 563.1527
   563.1527 564.9319 564.9319 565.0207 565.0207 565.1543 566.0842 566.0863
   566.0863 566.8908 567.2877 567.2877 568.5906 568.5906 569.0197 569.2984

          k = 0.5000-0.5000 0.5000 (  4446 PWs)   bands (ev):

   -33.2785 -14.4241 -14.2762 -14.2762  -4.5340   2.9079   4.8352   4.8352
    11.1964  12.0041  12.1352  12.1352  14.0616  14.0616  14.8283  14.8283
    17.0998  19.4328  19.4328  21.6228  21.7555  24.9004  24.9004  27.1117
    29.3994  29.3994  30.6872  33.2518  33.2518  34.6443  34.6443  35.2217
    35.2217  35.2698  38.1808  38.5030  39.7543  40.5399  40.5399  41.8420
    43.6615  43.6615  46.1781  46.1781  46.9946  47.3979  50.2529  50.2529
    50.5449  50.9490  50.9490  54.4133  54.9340  56.4294  56.4294  56.9641
    57.8587  57.8587  61.0499  61.0499  62.5038  62.5038  64.1812  64.1812
    64.2786  64.2786  64.3123  65.7057  65.7699  66.5279  66.7504  67.1029
    67.1029  69.7952  70.8082  70.8082  73.3437  73.3437  74.3959  74.3959
    75.1323  75.3494  75.9001  75.9001  75.9626  75.9626  80.2662  80.2662
    80.6945  80.7492  80.7961  80.7961  81.8694  83.2474  86.4533  86.4533
    86.9968  87.9986  88.0832  88.0832  88.3985  93.0140  93.2434  93.2434
    93.5753  93.5753  93.8656  93.9768  94.0574  94.6169  94.6169  96.4750
    96.4750  96.6436  97.0042  97.0042  98.0978  98.0978  99.5967 100.0470
   100.6592 102.0872 102.7611 102.7611 104.0153 104.0153 104.2609 105.9118
   105.9118 106.7851 106.7851 107.3810 108.6248 108.6248 109.1971 110.7047
   110.8824 110.8824 110.8845 111.2644 111.2644 111.5317 111.5317 113.2614
   115.0534 115.3159 115.3159 116.7037 118.1163 118.1163 118.2122 119.1351
   119.1351 119.7569 119.7569 120.9642 121.0137 121.4124 121.4124 122.1119
   122.1119 123.0966 123.0966 126.1405 126.4192 126.4192 126.5464 129.0079
   129.0079 129.6380 130.1841 130.4172 130.4172 130.5489 131.2781 131.2781
   131.8820 131.8820 132.4201 133.9092 137.2342 137.6343 138.2638 138.2638
   138.7821 140.2969 140.2969 140.6570 140.8916 140.8916 141.7451 141.7451
   142.9586 143.4454 143.9707 143.9707 144.7493 145.1518 145.1518 145.6116
   145.6116 146.3159 146.3839 146.3839 146.5487 148.0123 148.0123 148.1702
   148.1702 148.4399 151.8612 152.3443 152.3443 153.7698 153.8397 153.8397
   154.3343 154.3343 154.7673 154.9181 156.6592 156.6592 156.8149 156.8149
   157.5555 157.5995 157.5995 157.9584 158.4410 158.6804 158.6804 159.0140
   159.0140 159.9260 159.9260 160.3296 162.8332 163.0576 163.0576 163.9983
   164.7221 164.9479 165.3890 165.3890 165.4292 165.4933 165.4933 167.9762
   167.9762 168.6937 171.9806 172.5180 172.5180 173.7972 173.7972 173.8276
   173.9284 173.9284 174.3883 174.9956 174.9956 175.1951 175.3213 175.6492
   175.6492 175.6927 176.1111 176.1111 176.1635 176.6806 176.6806 176.8404
   178.6783 178.6783 180.0972 180.0972 181.0860 181.2801 181.8764 181.8764
   183.0813 183.5441 183.5441 185.8204 189.6727 189.6727 190.7689 191.4806
   191.4806 191.8261 191.8261 192.4921 192.4921 192.5626 192.5626 192.9849
   193.1459 193.1602 193.2159 193.2159 193.2433 193.2803 194.0066 195.3230
   195.3230 195.4923 196.8609 196.8609 198.1081 198.1324 199.9010 199.9010
   200.0563 200.0563 200.4140 200.4140 200.7874 200.9054 200.9362 201.0363
   201.0363 201.1056 201.1056 201.2935 201.2935 201.3621 202.2357 203.3679
   204.7893 204.7893 204.8371 204.8371 206.2345 206.2356 208.3502 208.3502
   210.0675 210.0675 210.8335 210.8335 211.8331 212.2250 212.4797 212.4797
   212.8332 212.8332 212.9256 213.6352 213.6352 214.4765 214.4765 214.5564
   214.8831 214.8831 215.1563 215.1563 216.0744 217.8278 217.9062 217.9062
   218.3036 218.3036 218.3588 219.4835 219.9327 219.9327 220.0482 220.3855
   221.6970 221.6970 221.7320 222.7221 222.7221 222.9494 223.0510 223.0510
   223.7716 224.2581 224.2581 225.7750 227.2738 227.2738 228.4776 228.7210
   228.7210 229.5211 229.8638 229.8638 230.4094 230.4094 230.5657 230.7415
   232.6367 232.6367 234.6746 235.3130 235.6528 235.6528 235.9901 236.0217
   236.0217 236.8852 237.0502 237.0502 237.5407 237.5407 238.3486 239.0099
   239.0099 239.1219 239.7905 239.7905 239.8709 239.8709 239.9682 239.9776
   240.5875 242.4014 242.4014 242.5151 242.5226 244.5719 244.5719 244.6672
   244.6672 244.8388 245.0059 245.3465 245.3465 245.8918 246.3027 246.9324
   246.9324 247.7053 247.7053 249.2023 249.2023 249.5399 249.5399 250.4593
   252.2529 252.2529 252.5922 253.2029 253.2029 253.9653 255.0590 255.0590
   255.6560 256.1256 256.1256 256.2360 258.4944 258.4944 258.6643 258.8266
   258.8266 259.2813 259.3822 259.3822 260.3240 260.3240 260.3410 260.3410
   260.3552 260.4388 260.5553 261.0447 261.5483 261.5483 263.9386 263.9386
   264.4459 264.4459 265.5180 265.5180 265.6077 265.6980 265.8211 267.3486
   268.6149 268.6149 268.8265 268.8733 268.8733 271.4176 272.4137 273.0097
   273.0097 273.0595 273.0595 273.2061 274.2721 274.2721 274.4247 274.4247
   274.9215 275.1937 276.2697 276.4943 276.6671 276.6671 276.7212 276.7212
   277.1959 277.2292 277.2292 277.3183 277.3183 277.4871 277.4871 277.6202
   278.0636 278.1503 278.1503 278.7841 278.7841 279.0790 280.9885 281.0221
   282.9046 283.7553 283.8500 283.8500 284.0437 284.0437 284.1743 284.1743
   284.5504 284.7129 284.7129 285.0229 285.1771 285.1991 285.6373 285.6373
   285.8145 285.8145 286.4071 286.4071 286.5213 286.5213 286.7693 286.7830
   292.4465 292.4465 292.6304 292.9637 292.9637 293.0343 293.7239 293.7239
   294.3677 294.3677 294.5377 294.6188 294.6656 294.6656 295.0968 295.0968
   295.1908 295.3101 296.1828 296.1828 296.9585 296.9585 297.0478 297.0559
   298.7002 298.7002 299.7444 300.8979 300.9534 300.9534 300.9735 301.3829
   301.4921 301.4921 301.9129 301.9129 303.1928 303.5179 305.1616 305.2217
   305.2217 305.6052 305.6052 306.0310 306.0310 307.2832 307.2832 308.5666
   309.0895 309.4128 309.4128 309.7337 309.7570 309.7570 309.7787 310.3442
   310.3442 310.5145 310.5726 310.5726 310.8167 310.8167 314.4342 314.4342
   314.8770 314.8770 315.2546 315.2546 315.3407 316.1427 316.1537 316.1537
   316.6013 316.6031 317.3595 317.3595 317.4144 317.9198 319.0529 319.1678
   320.2126 320.5103 320.5103 320.7157 320.7157 321.9999 321.9999 322.3750
   322.3750 323.8426 324.0697 324.0697 324.6150 324.8436 324.8436 324.8531
   324.8531 325.0339 325.0353 325.5540 326.2483 326.5164 326.5164 326.9182
   332.8711 332.8711 332.9226 332.9226 334.1230 334.1230 334.1763 334.1763
   334.4399 335.6529 335.6529 335.8774 337.0037 337.1576 337.1576 337.4308
   337.4308 337.5787 337.5787 337.7231 338.1257 338.2068 338.8101 338.8101
   338.9008 338.9008 338.9439 339.3288 339.8609 339.8609 340.1385 340.1416
   340.1416 340.2300 340.7758 340.7791 340.7791 340.9566 340.9566 341.0502
   341.1005 341.2449 341.2449 341.2885 341.3319 341.3319 341.8414 341.8414
   341.8813 341.8813 342.0416 342.2621 344.4131 344.4131 344.8678 345.4581
   345.4984 345.4984 345.9245 346.4348 346.4348 346.5071 346.5071 347.1131
   349.4222 349.9841 350.1431 350.1431 350.6768 350.6768 351.4847 351.4847
   351.9284 352.0031 352.1405 352.1405 356.0362 356.0362 356.4340 356.4340
   356.7086 357.3959 357.6460 357.6504 357.8442 357.8442 357.9723 357.9723
   358.2907 358.2907 358.4113 358.4113 358.4586 358.6864 358.7421 358.7421
   359.6146 359.6975 359.8221 359.8221 359.8950 359.8950 360.0463 360.0561
   360.0561 360.2678 362.4501 362.7901 363.8964 363.8964 364.4729 364.7814
   364.7814 365.2199 366.2428 366.2990 366.2990 366.7616 366.7616 368.0167
   368.0167 368.2034 368.2034 368.4240 368.4481 368.5492 368.5492 368.9703
   368.9703 369.0562 369.1030 369.2685 372.9725 372.9725 373.2808 373.2808
   373.3736 373.4416 376.2560 376.2560 376.2606 376.2606 377.9702 377.9702
   378.5660 378.7994 379.0092 379.3812 379.3812 379.4688 379.6298 379.6428
   379.6428 379.6839 379.6839 379.7331 379.8088 379.8088 379.8592 379.8592
   381.1595 381.1595 382.7377 383.0213 383.0213 383.1245 383.1245 383.3436
   383.6100 383.6100 383.6227 383.9980 383.9980 384.2522 384.8863 385.0817
   385.5791 385.5791 386.2105 386.2105 386.4347 386.5827 386.5827 386.8320
   387.8212 387.8212 388.0646 388.0955 388.0955 388.1087 391.8824 391.8824
   394.1030 394.1030 394.7378 394.8516 394.8622 394.8622 395.0324 395.0324
   395.5211 395.5315 395.7394 395.7394 395.9321 396.0371 396.0487 396.0487
   397.2120 397.2120 398.2760 398.2760 398.8602 398.8921 398.9369 398.9482
   398.9482 398.9718 398.9718 398.9899 401.3546 401.7451 402.5465 402.5465
   402.6312 402.6312 403.7480 404.0867 404.0867 404.0995 404.1028 404.1028
   404.1111 404.1390 404.5416 404.5416 404.5448 404.5448 407.7396 407.7396
   407.7502 407.7502 407.8988 407.9001 409.2321 409.2321 410.3197 410.3653
   410.7024 410.7024 411.5388 411.6091 411.6724 411.6724 412.2933 412.4333
   412.6026 412.6026 412.7551 413.0346 413.0346 413.1828 413.1828 413.5081
   417.5313 417.5561 417.5561 417.5984 417.5984 417.8150 418.6288 418.6288
   418.8128 418.8128 419.0113 419.2716 419.2716 419.5409 419.8314 419.8314
   419.9249 419.9263 420.3276 420.3276 421.1983 421.1983 421.2089 421.4003
   421.5291 421.5312 421.5312 421.5475 421.5475 421.5905 422.7168 422.8543
   422.9738 422.9738 422.9860 422.9860 425.1081 425.1081 425.1126 425.1844
   425.1844 425.2642 425.6620 425.6620 425.6987 425.6987 425.7773 425.7787
   430.9288 432.2267 432.2267 432.4064 432.4064 432.6021 433.2266 433.2266
   433.3191 433.3191 433.3921 433.4874 433.8790 433.8790 433.9392 433.9451
   433.9451 433.9827 434.4688 434.6203 434.6203 434.6405 434.6405 435.1693
   437.5605 438.1534 438.1534 438.2746 438.2746 439.1133 439.6847 440.5217
   440.5217 440.6165 440.6165 440.8028 440.8309 440.8649 441.0304 441.0304
   441.5148 441.5148 441.6017 441.6324 441.6324 441.7307 441.7307 441.7719
   441.8105 441.9405 443.2579 443.5005 443.5005 444.3367 444.3367 444.3570
   445.4501 445.7405 445.7405 446.3718 446.3718 446.5997 446.5997 447.0030
   447.0030 447.1544 447.8140 448.1532 448.3637 448.3637 448.8787 448.8787
   451.3709 451.3709 451.3868 451.3868 451.5095 451.5718 451.9172 451.9172
   452.0622 452.0720 452.0720 452.1831 453.2102 453.2102 453.2126 453.2126
   453.3490 453.3490 453.3788 453.3788 453.5088 453.5091 455.1168 455.1170
   459.6423 459.6423 459.6942 459.7957 459.8857 459.8857 460.2733 460.6150
   460.6150 460.9013 460.9013 461.1923 463.3362 463.3362 463.5227 463.8453
   463.8453 464.2412 464.5813 464.5813 464.6719 464.8698 464.8698 465.1213
   465.3562 465.3562 465.7740 465.8326 465.8326 465.9622 465.9622 465.9841
   466.2111 466.4286 466.4286 466.7593 466.9079 466.9079 466.9853 467.1865
   467.1865 467.2692 468.9928 469.0993 469.0993 469.3339 469.3339 469.3663
   470.6266 470.6439 475.9311 475.9311 476.1273 476.1273 476.3007 476.3127
   477.1333 477.1351 477.1351 477.1743 477.1743 477.3439 477.7341 477.7341
   477.7836 477.7836 477.8093 477.8634 478.2880 478.2880 478.3354 478.3354
   478.3395 478.4422 478.7299 478.7299 478.7549 478.7628 478.7628 478.8948
   479.8474 479.8917 479.8917 480.0482 480.0482 480.0771 480.1571 480.1974
   480.1974 480.2446 480.2446 480.2948 480.5333 480.5333 480.5561 480.5561
   482.0799 482.0799 482.0807 482.0807 482.1428 482.1455 483.3576 483.3576
   483.7214 483.7214 483.9434 484.1349 487.8739 487.8739 488.7677 488.7677
   488.9141 489.0052 489.7119 489.8279 489.8279 489.9549 489.9549 490.8519
   495.4654 495.4654 495.7829 495.9298 495.9298 496.0763 496.5031 496.5031
   496.6614 496.8164 496.9560 496.9560 497.3075 497.3075 497.4380 497.5235
   497.5271 497.5271 497.5575 497.5575 497.6801 497.6801 497.6941 497.7583
   501.0075 501.6887 501.6887 501.8402 501.8402 502.1486 502.2607 502.7006
   502.7006 502.7740 502.7740 503.1218 504.0547 504.7707 505.1088 505.1088
   505.5458 505.5458 505.8396 506.0945 506.1697 506.1697 506.1916 506.1916
   506.2659 506.2659 506.3067 507.1524 507.1524 508.9908 512.1550 512.8319
   512.9912 512.9912 513.1680 513.1680 513.4232 513.6564 513.6564 513.7303
   514.0582 514.0582 514.7119 514.7119 514.9098 514.9098 515.0451 515.0644
   515.9406 515.9406 516.0744 516.0744 516.3768 516.5704 517.1493 517.1493
   517.1667 517.1667 517.1989 517.2055 517.2654 517.2654 517.2688 517.2688
   517.2695 517.3237 519.8185 519.9230 519.9922 519.9922 520.8908 520.8908
   521.4537 521.4876 522.3310 522.3310 522.5072 522.5072 522.6938 522.8896
   522.8896 522.9319 523.0797 523.0797 524.7137 524.7137 524.7900 524.7950
   524.9244 524.9244 525.9804 525.9804 525.9841 525.9841 526.0544 526.0815
   526.6065 526.6400 526.6910 526.6910 526.7067 526.7067 527.1317 527.1720
   527.1720 527.2425 527.2425 527.2830 528.0140 528.0962 528.6086 528.6086
   528.6966 528.7567 528.7567 529.3914 530.4377 530.4408 530.5111 530.5111
   530.7741 530.7741 532.7361 532.7361 532.8654 532.8654 533.2891 533.3234
   533.3252 533.3924 533.8226 533.8226 533.8297 533.8297 536.1485 536.1485
   536.1547 536.1547 536.3291 536.3882 536.3882 536.5027 536.5027 536.5439
   537.1218 537.1218 537.1238 537.1238 537.1969 537.1987 539.9329 539.9329
   539.9622 540.1414 540.5342 540.5342 541.5188 541.5188 541.6046 541.6046
   541.6421 542.3114 543.5637 543.5637 543.9467 543.9786 543.9834 543.9834
   544.0546 544.2934 544.4745 544.4745 544.5310 544.5310 545.0870 545.0870
   545.1026 545.1427 545.1427 545.1895 547.3619 547.9802 547.9802 548.1011
   548.1011 548.6255 548.6255 548.6358 548.6358 548.6359 548.6414 549.2900
   550.1101 550.3723 550.4739 550.4739 550.6772 550.6772 554.7236 554.7236
   554.7335 554.7335 554.9722 554.9973 554.9978 555.5346 555.5346 556.4541
   556.9143 556.9361 556.9361 556.9634 556.9634 558.1631 558.5567 558.5567
   559.2870 559.5635 559.8171 559.8171 560.4410 560.4410 560.5954 560.5954
   560.6508 560.6508 560.8003 560.8011 561.0416 561.2867 561.2867 561.3211
   561.3211 561.4834 561.5075 561.5075 561.5872 561.5872 561.5900 561.6573
   561.6573 561.6618 561.6618 561.6850 561.6876 562.0137 562.6722 562.8041

          k = 0.0000 0.3333 0.0000 (  4460 PWs)   bands (ev):

   -33.2858 -14.3012 -14.2752 -14.2752  -5.1070   4.6760   5.6662   5.6662
     9.5661  10.7185  10.9198  11.0600  11.0600  12.7192  17.2884  17.8851
    17.9186  17.9186  20.1531  22.0087  24.0025  24.0025  24.6053  28.7616
    28.7616  29.1052  29.2470  31.7670  32.5529  33.6666  33.6666  35.7744
    36.6055  36.6055  39.2348  42.6581  42.6581  43.0525  43.8377  44.3385
    44.3385  44.3499  44.8007  46.2820  46.2820  47.1865  48.2781  48.3816
    48.5127  49.0774  51.0544  53.5571  53.5571  53.6652  54.5955  54.5955
    55.5318  56.2950  56.2950  57.5721  57.5721  58.2237  61.0872  61.4024
    62.3273  63.2950  63.2950  65.4463  66.8239  67.3509  67.3509  70.4096
    71.1797  73.9586  73.9586  74.4265  75.5042  75.8930  77.0590  77.0590
    77.6062  78.6817  79.1064  79.1064  79.8198  80.6964  80.6964  81.8030
    81.8286  83.5021  83.5021  84.9078  85.4495  85.4495  85.6652  86.0489
    86.1170  88.0768  88.5488  89.4313  89.4313  89.7696  89.8800  89.8800
    91.7294  92.5117  92.8388  92.8388  93.2110  94.1159  94.8791  96.6250
    96.9526  96.9526  97.4398  98.1154  98.1154  98.2715  98.7196  99.4044
    99.4044  99.7458 101.1590 101.1687 101.1687 101.8599 101.9373 102.8619
   102.8619 102.9767 103.5989 104.4386 104.4386 106.3391 107.1002 107.4009
   107.4009 109.5006 109.5006 111.4019 112.0381 112.7808 113.1118 114.3820
   114.3820 114.6032 114.8974 116.1862 116.2716 116.2716 118.8527 118.8527
   119.2409 119.4367 119.4367 119.6703 119.7008 119.8015 121.8128 122.4881
   122.4881 122.9484 123.0200 125.3124 125.3124 126.4439 127.1089 128.0357
   128.3668 128.3668 129.6702 130.6433 130.6784 130.6784 131.1129 131.5292
   135.0331 135.4573 135.5209 135.5209 135.8551 138.6161 138.6161 139.6450
   139.6450 140.8933 142.1660 142.8244 142.9242 142.9242 143.5341 144.7449
   144.7557 144.7557 145.6316 146.1325 146.1325 146.7702 147.2973 147.7103
   148.4628 148.4628 150.1415 150.7298 150.7298 150.9588 151.6631 151.8222
   152.3306 152.3521 152.3521 152.3813 152.4846 152.4846 153.3804 154.7095
   154.7095 154.9326 154.9326 155.0353 155.6512 155.7669 156.6736 156.8517
   156.8517 157.2127 158.6454 158.6454 159.1877 159.3073 159.6779 160.8019
   160.8019 162.6699 163.0770 163.3789 163.3789 163.4913 163.4913 164.3160
   164.5488 164.9060 165.4374 166.3839 167.1359 167.1359 168.9668 169.9793
   169.9826 169.9826 170.5900 170.5900 170.6565 170.8996 171.6755 172.3753
   173.0023 173.0023 173.0982 173.3620 173.3620 173.9223 174.0782 174.2163
   174.8157 175.2388 175.2388 175.7484 175.9148 177.1896 177.1896 177.3093
   177.3093 177.3523 178.0844 178.5355 178.6377 178.6474 178.6474 179.5379
   180.0042 180.0042 180.1027 181.4704 181.5372 182.3901 183.6013 183.6013
   184.9026 184.9026 185.6343 185.6722 186.4046 186.4046 186.7922 186.8688
   189.3082 189.9041 189.9041 190.6610 190.9246 191.8999 193.0258 193.0904
   193.0904 193.2829 193.2829 193.3950 193.5431 194.8187 194.8187 197.5722
   199.5097 199.8744 199.8744 200.6240 201.7277 202.1961 202.1961 203.3856
   203.7447 203.7860 203.9796 203.9796 204.1161 204.5180 204.5180 204.9553
   205.1561 205.1561 205.2238 205.4751 207.8763 208.4555 208.7112 208.7112
   209.1336 209.1336 209.4300 209.9623 209.9623 210.0242 210.7162 211.0761
   211.0761 211.1461 213.4629 215.8050 215.9854 216.1501 216.1501 216.2510
   218.2408 218.8843 218.9018 218.9018 219.5256 219.6216 220.3149 220.4791
   220.4791 221.2728 221.2728 221.7217 222.4874 224.2188 224.2188 226.0908
   226.0908 226.7397 227.4801 227.4801 228.3549 229.6703 229.9505 230.0154
   230.0154 230.0334 230.2540 230.6473 231.0217 231.2706 231.2706 231.4415
   231.5976 233.7298 233.7298 235.1492 235.1689 235.4934 235.4934 235.7664
   235.9554 235.9554 236.1864 236.3366 236.3366 237.1094 237.2164 237.2164
   237.3026 237.6565 238.3669 238.7335 238.8254 238.8442 238.8442 239.0456
   239.4928 239.4928 240.4434 240.5286 240.9915 240.9915 241.7512 241.7697
   242.1732 242.2598 242.2649 242.2649 243.5590 244.6262 244.6262 246.4605
   247.0521 247.2458 247.2682 247.6096 247.6096 248.6533 249.3536 249.6037
   249.7463 249.7463 250.2760 250.2760 250.3894 250.7631 251.0083 251.0083
   251.0187 251.6670 251.7593 251.7593 251.8827 251.8827 252.1874 252.6446
   252.6446 252.6449 252.8944 253.9274 254.3187 254.4567 254.4567 254.8151
   255.3531 255.3531 255.4475 255.7153 257.8009 257.8009 258.6316 258.6580
   259.1621 259.2134 259.2134 259.4286 259.5671 260.4211 260.4211 260.6375
   261.2880 261.3408 261.3408 261.6734 263.3392 263.8223 263.8223 264.1765
   264.7545 264.7545 264.8477 265.0844 265.4986 265.4986 265.7909 266.8646
   266.9939 266.9939 267.4967 268.3418 268.8396 269.5365 269.8836 270.8157
   270.8157 271.1664 271.3936 271.3936 271.8164 272.4410 273.7450 273.7450
   274.1706 274.2634 274.2634 274.5571 274.5834 274.7538 274.7538 275.4470
   275.5412 275.5412 275.6315 275.6596 275.9543 277.6671 277.9993 277.9993
   279.5909 279.5909 280.9875 281.3440 281.3973 281.3973 281.7700 282.0766
   282.0766 282.4812 282.5364 283.2041 283.5989 284.1701 284.1701 284.4026
   284.4026 284.5090 285.1340 285.5405 285.6782 285.6782 287.3410 287.9078
   291.6576 292.0871 292.0871 292.5238 292.5865 293.5157 293.9890 294.2572
   294.2572 294.4533 294.7520 294.7520 295.1510 295.1510 295.3488 295.5588
   296.0854 297.4402 297.4402 298.0596 298.7799 300.0487 300.3672 300.3672
   300.8253 301.3604 301.6540 301.9798 301.9798 302.9622 302.9622 303.5335
   304.4568 304.4862 304.9742 304.9742 305.1663 305.2853 305.2853 305.7331
   305.7909 306.2286 306.2286 307.3679 308.2468 309.4662 310.4368 310.4368
   311.1788 311.8342 312.2329 312.9168 312.9168 313.3537 313.3537 313.7657
   314.4956 314.5834 315.2097 315.2097 315.8091 318.3017 318.4665 319.0808
   319.0808 320.3718 320.3770 321.0088 321.5187 321.5187 321.8702 321.9911
   321.9911 322.5788 322.6605 322.9258 322.9258 323.1286 323.1346 323.1346
   323.3653 323.4108 323.4108 323.4477 323.8716 324.0166 324.0246 324.0654
   324.1696 324.1696 324.6352 325.0625 325.0625 325.7346 325.8886 325.8886
   326.3376 326.6884 327.4780 327.4780 327.6181 327.7197 327.7795 327.7995
   327.8583 327.8583 328.3677 328.4835 328.4835 329.6014 329.8621 330.7000
   330.7240 330.7240 330.7732 330.8055 330.8055 333.1524 333.6664 333.6664
   333.7997 333.9536 334.2130 334.2354 334.2354 335.4158 336.2272 336.8585
   336.8585 336.9767 338.2001 338.2038 338.2038 338.3994 339.4789 339.4789
   339.6134 339.7704 340.1876 340.1876 340.2190 340.4333 341.6587 341.6587
   342.8880 344.3530 344.5528 345.1984 345.1984 345.8054 347.4881 347.4881
   347.5379 347.8807 348.2930 348.2930 348.3064 348.3176 349.3384 349.3384
   349.9086 351.0564 351.0564 351.2485 351.2706 351.5951 351.8460 352.3674
   352.4168 352.4168 352.6690 352.8719 352.8719 352.8977 353.5781 354.0639
   354.0639 355.1902 355.1902 355.7624 355.8548 355.9528 355.9528 356.4306
   357.7934 358.0443 358.0443 358.0466 358.1436 358.2528 358.8837 358.8837
   359.1404 359.3159 359.6740 360.1864 360.1864 360.6863 360.7004 360.9757
   360.9757 361.1190 361.1999 361.3161 361.3401 361.3401 361.3810 361.5548
   362.0376 362.1752 362.1752 362.2763 362.2763 363.0789 363.0789 363.5010
   363.5613 363.5613 363.5871 364.0704 364.2984 364.5029 364.5854 364.5854
   364.6015 367.4726 367.5727 367.5727 367.7521 367.7719 367.9671 367.9671
   368.0834 368.8657 369.1387 369.1387 369.8877 370.0478 370.1446 370.3269
   370.3269 372.1502 372.1726 372.1747 372.1747 373.3336 373.7124 373.7450
   373.7450 375.3971 376.1230 376.4917 376.4917 376.6975 377.3106 377.3106
   377.4118 377.4678 378.2995 378.2995 378.6304 378.7416 378.7416 378.7951
   378.8024 378.8867 378.8867 378.9706 378.9872 379.1462 379.3362 380.3077
   380.3077 381.2372 382.0941 382.0941 382.7235 384.7643 385.1957 385.1957
   385.3909 385.3909 385.4078 385.4460 386.0457 386.4018 386.5481 386.5481
   386.6207 386.8057 386.8818 387.7157 387.7157 387.9284 388.1592 388.1592
   388.2529 388.3070 388.3520 389.0408 389.0408 389.1027 389.8804 390.1474
   390.1683 390.1747 390.1747 391.6202 391.6202 392.3237 392.5027 392.7515
   392.7515 394.0299 394.1166 394.3378 394.3378 394.4858 396.3366 396.3657
   396.3657 396.3926 396.5215 396.6396 396.6396 396.8303 396.9581 397.8123
   397.8354 397.8354 398.4844 398.4844 398.6582 398.7155 402.9374 402.9374
   402.9928 402.9966 403.8204 403.8204 403.8617 404.3917 404.7263 406.1905
   406.1905 406.5405 406.5405 406.7453 407.0572 407.5502 407.7742 408.1960
   408.1960 409.2361 409.6235 409.6235 410.2944 410.5624 410.6590 410.6590
   410.7172 410.8802 410.8802 411.6868 411.8640 411.8640 411.9288 412.8247
   413.2230 414.1136 415.5150 415.5150 415.9977 416.5055 417.1091 417.3938
   417.3938 417.6359 419.0407 419.0407 419.2005 419.2460 420.0716 420.2058
   420.2058 420.2720 420.8275 421.8597 422.1564 422.1564 422.3274 422.4076
   422.4076 422.4119 422.4186 423.1741 423.1741 423.7967 423.8696 423.9343
   423.9343 424.0980 424.9474 424.9474 425.1500 425.7201 426.4472 426.4472
   426.6024 426.8444 427.2052 427.7466 427.7466 428.0243 429.4596 429.4984
   429.4984 429.5260 431.2438 434.2009 434.2210 434.6906 434.6906 434.7982
   434.9613 434.9613 435.2255 435.2544 435.4546 435.4546 436.5676 436.5676
   436.5973 438.1291 438.2474 438.4510 438.4510 438.5760 438.9930 439.0373
   439.2983 440.0613 440.0613 440.3653 441.2331 441.2331 442.0841 442.0841
   443.0291 443.1260 443.4180 443.4486 443.5381 443.6761 443.6761 444.3445
   444.5926 444.5926 445.2509 447.6853 447.6853 447.9529 448.1782 448.1849
   448.1849 449.0558 449.0558 449.1154 449.5707 449.7028 449.7937 449.7937
   449.8253 450.1509 450.2255 450.3361 450.4533 450.4533 450.4751 450.7678
   450.7678 451.0735 453.9813 453.9813 454.3607 455.4100 455.4911 455.6719
   455.6719 455.7544 457.3150 457.4232 457.4232 457.5163 457.5931 457.5931
   457.6877 457.6945 457.8207 457.9563 457.9563 457.9988 458.0709 458.1941
   458.1941 458.4572 458.8546 460.4179 460.4179 460.8619 460.8952 461.0432
   461.0432 462.0705 463.3213 463.3841 463.3841 463.4478 463.4777 463.7945
   463.9417 463.9417 463.9987 464.4124 464.5824 464.6294 464.6294 464.7515
   464.9928 464.9928 465.3454 465.3454 465.4455 465.6659 466.8567 467.0514
   467.0514 467.0967 467.4010 467.4468 467.4468 467.9599 468.1389 468.2156
   468.2945 468.2945 469.0764 469.0764 469.1309 469.6265 469.7899 469.7899
   469.8125 469.8991 470.0606 470.2046 470.2046 470.3504 471.3329 471.5352
   471.5352 471.6078 471.6825 472.2269 472.5780 472.5780 472.7413 473.2210
   473.2210 473.3255 473.5362 473.6143 473.7283 473.7283 473.8601 473.9656
   474.1741 474.1741 474.6730 476.9592 477.5422 477.9710 477.9710 478.2074
   478.2352 478.2352 478.2667 478.5000 478.5170 478.5408 478.5408 478.9175
   479.3940 479.3940 479.4788 479.5544 479.5544 480.0840 480.3017 480.4398
   480.6625 480.6828 480.6828 481.1995 481.2046 481.2046 481.2778 481.5071
   481.9864 481.9989 481.9989 483.0994 483.2630 483.5413 483.5413 484.2637
   484.2680 484.2859 484.2859 488.7105 488.8705 488.9006 488.9693 488.9693
   488.9834 489.0365 489.0365 491.2523 491.9592 492.2910 492.2910 492.9708
   492.9708 492.9923 493.3114 493.3953 493.7297 493.7702 493.7702 493.8944
   493.8944 494.2198 494.6615 494.6638 494.6703 494.6703 494.8250 496.8423
   497.1516 497.1516 497.4340 497.5927 497.9273 497.9515 497.9515 498.8419
   498.9820 498.9820 499.0093 499.6694 500.0132 500.0132 500.2842 500.4217
   500.4690 500.4690 500.7149 500.7174 500.9001 500.9001 500.9371 501.0429
   501.1224 501.1623 501.1623 501.1841 501.2337 501.3204 501.3204 501.6807
   501.7676 501.7676 501.8103 502.2694 503.3645 503.3645 505.7527 506.4952
   506.5591 506.5591 507.0354 507.1864 507.2801 507.2801 507.4341 507.8541
   508.2714 508.2832 508.2832 508.7359 508.8876 508.9232 508.9232 509.4412
   509.4412 509.5498 509.7374 509.9152 509.9657 510.3713 510.3713 510.7053
   510.8497 511.1567 511.1567 511.2942 511.4031 511.5219 511.5219 511.6560
   512.1844 512.5371 512.5371 512.6803 512.7002 512.7461 512.7461 512.8276
   515.6430 515.7102 515.8083 515.8083 516.3332 516.6307 516.6307 516.7935
   516.8731 517.0727 517.0727 517.6339 517.8648 518.0461 518.0629 518.0629
   518.0651 518.0908 518.1402 518.1402 521.2961 521.3058 521.3215 521.3215
   521.4440 521.5743 521.5865 521.5865 521.6264 521.6264 521.7442 521.7626
   525.1505 525.1994 525.5320 525.5320 525.8050 525.8697 526.1140 526.8734
   526.8734 527.2557 527.4065 527.4065 529.4580 529.4580 532.3697 532.3993
   532.7047 532.7047 532.7665 533.8620 533.8620 534.3010 534.4143 535.2469
   535.4037 535.4037 536.2352 536.4534 536.6924 536.7325 536.7325 536.8116
   536.8509 536.8509 536.9123 538.1422 538.1508 538.1779 538.7513 538.7513
   539.1425 539.1425 539.5753 540.9250 542.1390 542.4212 542.4901 542.4901
   542.5566 542.5566 542.5615 542.6724 542.7159 543.0386 543.0386 543.5450
   543.7061 543.7061 543.8356 543.8906 544.0204 544.0204 544.1296 544.9199
   545.0062 545.0062 545.0405 545.1124 545.1461 545.2039 545.2039 546.4638
   546.6713 546.6713 546.9315 548.4749 548.5077 548.5526 548.5526 549.5898
   549.6876 549.6876 549.7614 549.9224 550.5779 550.5779 551.0946 553.0464
   553.0464 553.2944 553.5803 553.8741 553.8741 553.9633 554.5691 554.7831
   554.9584 555.0131 555.0131 555.2036 555.4897 555.7168 555.7168 556.4181
   556.5228 556.5253 556.5253 556.6020 558.0094 558.0895 558.0895 558.1108
   558.5093 558.8255 558.8255 559.1791 559.1791 559.7746 561.6557 562.0027
   562.1456 562.1493 562.1493 562.4603 562.4603 562.8107 562.9426 562.9740
   562.9912 562.9912 563.0052 563.1082 563.2268 563.2268 564.1060 564.2300
   564.2427 564.2427 564.3987 567.7132 570.5209 570.5427 570.5427 571.3123

          k =-0.1667 0.5000-0.1667 (  4452 PWs)   bands (ev):

   -33.2813 -14.3573 -14.2843 -14.2832  -4.8323   3.8325   5.0858   5.2753
     9.6490  11.5133  11.5223  12.0287  12.0391  14.0553  15.5195  16.8236
    16.9803  18.6742  21.2767  21.5079  24.0489  24.3652  24.9720  26.9999
    27.4098  29.2404  29.2828  31.1761  32.8871  34.3055  35.3079  35.8993
    36.6194  37.9570  38.8235  40.0787  40.3093  41.2595  42.1262  42.2155
    42.6068  44.2594  44.3167  45.9500  47.2584  48.3919  49.0216  49.2793
    50.2409  50.8664  51.7647  53.0294  53.4337  54.0889  55.0618  56.6314
    57.6756  58.0054  59.1206  60.9865  61.3446  61.8126  62.1653  62.2387
    62.4116  62.9214  64.6749  65.6631  66.2738  66.5845  68.2523  68.6282
    69.5305  70.6945  71.7676  72.6002  72.7485  72.7678  73.7713  74.9532
    74.9871  75.9063  77.7719  78.0915  78.4660  79.1816  79.9267  80.5995
    80.9052  82.0632  82.9221  83.4809  83.9615  85.9508  86.1804  86.9186
    87.1129  87.3101  89.1105  89.2063  89.7166  90.1767  90.5705  90.8864
    91.1708  91.9287  93.9810  94.1532  94.5151  94.9450  95.1542  96.2792
    96.5239  97.0410  97.5902  97.8213  98.3139  98.8161  99.0673  99.5504
    99.5793 100.5150 101.7202 101.7968 102.9831 103.7917 103.9694 104.1269
   104.7922 105.6475 106.2156 106.2967 106.4587 107.4284 108.3842 108.7804
   108.9882 109.4131 109.5580 110.0323 110.6036 111.4019 112.2637 112.3026
   113.1471 113.4153 114.1969 115.4533 116.5226 117.7669 118.2582 119.4954
   119.9236 120.1167 120.8614 121.1902 121.5901 122.7483 123.5126 124.8721
   125.5993 126.1719 126.2052 126.3677 126.6253 126.9318 127.5096 128.7801
   129.6039 129.6526 129.9393 130.8621 131.0890 131.8983 132.1349 132.9290
   133.4579 133.8817 134.9376 135.4962 135.8334 136.0430 136.6263 137.5514
   137.6282 138.0215 139.3077 139.5359 139.8738 140.3321 141.5391 141.6797
   142.0797 142.2183 143.0743 143.5867 144.0868 144.5551 144.6982 145.2437
   145.4345 145.8224 146.3731 146.5102 147.4888 148.4156 149.0711 149.4833
   150.1062 151.1326 151.2514 151.3867 152.1542 152.2384 153.5149 153.7731
   154.0756 154.8348 154.9267 155.0937 155.2957 155.6516 155.6822 156.4440
   156.5854 158.0273 158.1370 159.3870 159.4229 159.8207 160.6931 161.0917
   161.7311 162.7261 162.8169 163.5179 165.0791 165.7880 165.8233 166.2507
   166.3248 166.8031 167.3661 167.4352 167.4883 167.6688 168.2775 168.6725
   168.8788 169.3177 169.7075 170.7376 170.8189 171.7335 171.9443 172.2051
   172.7044 172.8666 173.5367 174.1050 174.2597 174.6816 175.0104 176.3731
   176.8124 177.5269 177.5791 177.9699 178.1817 178.5636 178.8154 179.2639
   179.3520 179.8369 180.0080 180.4031 180.5815 180.8732 180.9297 181.4792
   182.3210 182.9261 183.1983 183.4803 184.0555 184.4118 184.6620 184.9917
   185.1482 185.4401 185.6235 186.6271 187.4362 188.7424 188.8794 188.9355
   189.3380 189.6397 190.8043 191.3870 191.6261 191.9918 192.7627 193.0425
   193.5323 195.3147 195.3318 196.0613 196.9372 197.0146 197.5604 198.1404
   198.4462 198.6169 198.9230 199.3367 199.6321 199.8181 200.5364 200.6638
   201.1773 201.4753 202.8208 203.3239 203.7064 204.1434 204.6538 204.9434
   205.5047 205.6777 206.0030 206.2868 206.5046 206.9962 207.6920 208.0090
   208.1786 208.6389 210.1798 210.7854 211.0840 211.7973 212.5309 212.7988
   213.9358 214.2411 214.9035 215.0551 216.6751 217.1291 217.4394 217.7659
   217.9554 218.8832 219.3754 219.4349 219.8697 220.1378 220.2584 220.3199
   220.5695 220.8434 221.3397 221.5773 221.7306 221.7896 222.5746 223.1248
   223.1670 223.5689 223.5899 224.2417 224.4354 224.4876 225.0088 225.0513
   225.7714 226.0674 226.7920 227.4696 229.9548 230.1101 230.1177 230.2886
   230.3357 230.5676 230.8510 231.0768 231.5363 232.0274 232.5565 232.7474
   232.8321 233.3472 233.4492 233.5948 234.0902 234.8367 235.3877 235.8580
   236.0845 236.5831 236.6814 236.9514 237.2598 237.6404 238.0190 238.0796
   238.2855 238.7827 238.8401 239.8731 239.9947 240.3529 240.4891 241.1424
   241.5910 242.0822 242.1636 242.8750 243.5694 243.7940 243.8420 244.2931
   244.5499 244.9775 245.3942 246.1278 246.8658 247.3064 247.6742 247.8679
   248.4138 248.4645 248.9346 249.8107 249.8336 250.1380 250.5307 250.7427
   250.8909 251.0674 251.3774 251.6694 252.1044 252.3491 252.4536 252.8530
   252.9066 253.1930 253.2659 254.4825 255.2719 255.5203 255.5670 256.5605
   256.7911 257.9194 257.9254 258.2987 258.9346 259.4704 260.5019 260.6559
   260.7431 260.9577 262.2016 262.2916 262.8312 263.2328 263.7399 264.0959
   264.1209 264.2990 265.1055 265.4754 265.5534 266.3445 266.3585 266.6223
   266.8190 267.0166 267.4381 267.6668 267.7011 268.2394 268.5006 268.7342
   268.8008 268.8938 269.6784 269.6847 270.8791 270.9263 271.2213 271.4500
   271.7660 273.0476 273.3737 273.7180 274.3526 274.9310 275.1496 275.7547
   275.9005 276.0974 276.3608 276.4093 276.8419 276.9193 277.3877 277.4110
   278.0394 278.0783 278.8276 279.2539 279.8927 280.2713 280.7072 281.0447
   281.2484 281.6474 281.9697 282.7125 283.3025 283.4740 283.6320 284.5074
   284.8812 285.0515 285.9176 286.4301 286.5621 286.5803 287.0010 287.1159
   287.3956 287.7408 288.1329 288.3513 288.6405 288.6969 289.1697 289.4587
   289.8910 290.2928 290.4708 290.6699 290.9218 292.0791 292.1154 292.1219
   292.5424 292.9989 294.4075 294.4199 294.7529 294.8172 294.9913 295.2029
   295.9718 296.6702 296.8093 296.9440 298.0569 298.0606 298.1292 298.4337
   299.7299 300.5839 300.6252 301.2966 301.9610 302.0332 302.2719 302.5985
[...]
   434.1797 434.2340 434.5414 434.6362 434.8546 435.0409 435.4733 435.4980
   435.9448 436.0153 436.1572 436.1770 437.2004 437.4099 437.9776 438.0712
   438.6340 438.6949 439.5904 439.7876 440.2649 440.2793 440.6586 440.6877
   440.9692 441.0166 441.3725 441.4851 441.5174 441.7455 442.0730 442.0836
   442.5280 442.8077 443.0692 443.1211 443.7412 443.7484 444.2744 444.5802
   444.7495 444.9294 445.6959 445.9938 446.0529 446.2854 446.5559 446.6752
   447.5908 447.5976 447.6241 447.6981 447.8072 447.8759 448.3158 448.9367
   449.3878 449.4972 449.7887 450.1381 450.3301 450.3536 451.5141 451.6339
   451.6824 451.8186 452.4565 452.4852 453.0386 453.1169 453.4045 453.6776
   454.7289 454.7559 454.9930 455.0633 455.1278 455.2179 455.3890 455.4678
   455.9679 455.9761 457.0520 457.2012 457.9512 458.0226 458.1990 458.2396
   458.5501 458.7248 459.4529 460.2893 460.3790 460.9557 461.0099 461.2884
   461.4237 461.8036 462.0304 462.1934 462.3685 462.4701 463.1394 463.1716
   463.6797 463.7257 464.0703 464.0903 464.4425 464.4876 464.9642 464.9689
   465.4794 465.5066 466.4145 466.5976 466.8448 467.0165 467.3652 467.6522
   468.5234 468.6099 469.0093 469.1151 469.6222 470.0578 470.4364 470.5083
   471.3307 471.3800 471.9857 472.2041 472.6522 472.6764 473.2891 473.3935
   473.4468 473.5351 474.0748 475.0518 475.1836 475.2078 475.2765 475.4279
   477.6139 477.8103 477.9142 477.9187 478.0162 478.1380 478.8090 478.9550
   478.9739 479.0657 479.3304 479.4054 479.4084 479.5075 480.0132 480.0878
   480.1523 480.2364 481.1596 481.3788 482.0355 482.1034 482.4157 482.4173
   482.7701 483.0919 483.6429 483.7982 484.1073 484.3067 484.8113 485.1337
   485.4194 485.7331 485.7889 486.1169 486.1230 486.3662 486.4088 488.4037
   488.5627 488.6403 488.8291 488.9431 488.9772 489.2258 489.4597 489.5905
   489.7219 490.2045 490.4333 490.8114 491.1689 491.2326 491.7965 491.8719
   491.9564 492.0909 492.2475 492.2480 492.3159 492.3506 493.4872 493.5337
   494.4015 494.4352 494.7834 494.7903 495.2914 495.4429 495.5331 495.5760
   497.8136 498.2738 498.7043 498.7160 499.7378 499.7635 500.2030 500.2739
   501.0892 501.1311 501.2827 501.6059 501.9528 502.3212 503.4569 503.6931
   503.8301 503.9403 505.2327 505.3834 505.5026 506.0210 506.2223 506.2551
   506.4367 506.4818 506.6057 506.6614 507.5692 507.5788 507.5809 507.6033
   507.7151 507.7465 508.5107 509.2496 509.2497 509.7080 509.7727 509.9224
   510.0029 510.2750 511.1039 511.1755 511.2332 511.2593 512.1377 512.1896
   512.8643 513.3201 513.3215 513.4254 513.8911 514.0899 514.4002 514.7631
   514.8663 515.0514 515.2388 515.3256 515.7597 515.9389 516.2358 516.2565
   517.1113 517.1284 517.7536 517.7884 517.9216 518.1290 518.9835 518.9965
   519.1913 519.2152 519.3604 519.4134 519.7314 519.7412 519.9125 519.9211
   520.3643 520.4449 521.3811 521.8045 522.1428 522.3074 522.6066 522.7511
   522.7877 523.2145 523.2708 523.4532 523.7040 523.9972 524.2334 524.4000
   525.3292 525.3664 525.5999 525.6135 526.1969 526.2390 527.1860 527.1958
   527.3199 527.3647 527.5219 527.5793 528.6045 528.6089 528.7747 528.8196
   529.7748 529.8507 530.2029 530.4858 530.5724 530.7173 531.0498 531.4449
   531.8070 532.0937 532.2067 532.4740 532.5192 533.0056 533.0421 533.6316
   533.7724 534.3198 534.3640 534.5871 534.7062 534.8915 535.0473 535.3264
   535.3395 536.0283 536.6817 536.7492 536.9734 537.0653 537.1108 537.2030
   537.6091 537.6947 538.0605 538.1166 538.4067 538.4169 538.4273 538.4641
   538.9133 538.9396 539.6238 539.6963 540.3917 540.4564 541.0778 541.1090
   541.2997 541.5969 541.6711 541.9349 541.9653 541.9895 542.3025 542.4724
   543.0123 543.1102 543.9710 544.0227 544.0640 544.0834 544.3223 544.3416
   544.5210 544.5626 544.9120 544.9355 545.5683 545.6389 546.3159 546.6742
   546.7275 546.7346 546.8264 546.9421 547.0358 547.0679 547.2838 547.4250
   548.5456 548.6006 549.3362 549.5136 549.6263 550.0561 550.2828 550.4398
   550.6366 550.8427 550.8776 551.1275 551.1798 551.1931 551.2484 551.4651
   551.7129 551.7973 552.3985 552.6899 554.0220 554.2543 555.4041 555.5163
   555.6681 555.9001 556.1020 556.5202 556.9300 557.1588 557.2070 557.2112
   557.4504 558.1371 558.1889 558.8383 559.1595 559.4775 559.9350 559.9715
   560.2793 560.4189 561.1937 561.2253 561.2777 561.3516 561.7096 561.7755
   561.9107 561.9539 562.1961 562.4734 563.6991 563.7091 563.7331 563.8542
   564.6910 564.8039 564.8918 564.9049 564.9670 565.0045 565.1322 565.3444

          k =-0.3333-1.0000 0.0000 (  4428 PWs)   bands (ev):

   -33.2750 -14.3640 -14.3284 -14.3177  -4.6272   3.9283   4.5822   4.6081
     9.6560  11.8569  11.8635  12.4671  12.7217  13.7924  15.9354  16.7348
    17.5891  20.2931  20.4756  20.5039  23.3359  25.7957  26.0950  26.9004
    28.2528  28.3823  29.8055  29.8256  31.4839  32.4192  33.4572  34.0853
    35.0635  36.7401  37.5070  37.9284  39.6475  41.1163  42.5103  42.8508
    45.0340  45.9963  46.1587  47.2105  47.7513  48.3090  49.8307  50.0577
    51.6754  52.0927  54.2692  54.9276  55.6103  55.6489  56.2742  56.6842
    56.8465  56.9540  58.9810  59.5816  61.6879  62.2247  62.7339  63.4094
    63.8235  65.0994  65.1355  65.4913  65.7615  66.5288  68.0522  68.5498
    68.6479  70.6033  71.1192  71.4714  72.7460  73.2981  73.6207  74.0392
    75.4141  75.4774  76.4216  77.0175  77.5373  78.0266  78.5542  79.4811
    79.6015  81.0627  82.1272  82.3282  83.0609  83.1845  83.4251  84.3245
    84.8924  86.3149  86.3377  86.4827  86.8883  87.8463  88.4619  88.9221
    89.2679  90.5487  90.9397  91.3957  92.6538  93.4166  95.2829  95.4164
    97.9180  98.0963  98.5962  99.0093  99.1244 100.4860 101.3997 101.7480
   102.5222 103.7017 103.9935 104.0041 105.3013 105.5737 106.2959 106.4787
   106.7305 107.7195 108.4448 108.9540 109.5534 109.8701 110.3250 110.5846
   111.0915 111.4267 111.5448 112.7253 114.6556 114.8849 115.3859 115.5389
   115.8304 116.8332 118.4711 119.2095 119.2463 119.4890 120.1073 120.2736
   120.8197 121.3031 121.4471 122.0380 122.1548 122.4557 122.5143 122.9338
   124.1822 124.7659 125.0488 125.1096 125.5836 125.7253 126.2620 127.1975
   128.0020 128.2425 128.5983 128.9570 129.1250 129.5533 130.1723 131.8849
   131.9719 132.1778 132.6384 132.9976 133.8605 134.7584 135.1193 135.4590
   137.3078 137.9897 138.0107 138.7829 138.9348 139.1060 139.4571 139.7260
   140.1741 140.9542 141.2431 141.6455 141.6567 141.9174 142.0306 142.0624
   142.5034 142.6022 143.1755 143.5516 143.7048 144.6535 146.0624 148.7270
   149.0531 149.7138 150.3640 151.1662 151.5892 152.0649 152.8453 153.1130
   153.7288 154.1145 154.2903 154.3443 154.7554 154.9503 155.8053 157.5124
   157.5296 157.6287 158.0926 159.3323 160.0783 160.3707 160.8104 160.9427
   161.8476 162.1365 162.4624 162.8224 164.0570 164.2559 164.4763 165.0276
   166.1094 166.4406 167.4419 167.4679 167.9448 168.0340 168.3612 169.2466
   169.6446 170.4144 170.4409 171.1158 171.5675 171.6590 171.9881 173.1993
   173.8914 174.6231 175.0754 175.7139 176.6010 176.7430 177.2353 177.9606
   178.2163 178.6978 178.8092 179.5272 180.2837 180.5333 180.5737 180.6370
   180.7983 180.9804 181.3583 182.3256 182.5466 183.0003 183.0384 183.9895
   184.9332 185.2439 186.6174 186.6724 187.1052 188.4504 188.4960 188.6241
   189.3144 189.7149 190.2119 190.6127 190.7308 190.8718 191.3031 193.1556
   193.4043 193.5334 193.6494 193.9498 194.5268 194.9790 195.0278 195.8844
   196.2313 196.4296 196.8038 196.8186 197.1836 197.6293 197.8609 198.0386
   198.1712 199.1496 199.6409 199.9081 200.4540 200.7127 200.9742 201.2590
   201.3537 201.5426 201.7740 203.0578 203.0719 203.8603 204.0950 204.0988
   205.5369 206.3972 206.5993 206.8555 207.1160 207.1433 207.4600 207.6792
   208.0425 208.2151 208.5214 208.8003 209.3446 209.4176 209.6625 209.7971
   210.0269 210.2458 210.6879 211.9863 212.3070 213.5095 214.2578 214.6955
   214.7227 215.0478 215.4421 215.7646 215.7899 215.9618 215.9746 216.2238
   216.4557 216.4853 216.9490 216.9640 217.2414 219.3978 219.7287 220.2717
   220.8578 221.3191 222.0933 222.4009 223.9463 224.1285 224.5935 224.6326
   224.9656 226.1777 226.4954 226.7240 227.0315 227.2234 227.5224 227.5853
   228.1123 229.0367 229.3271 229.5843 229.7109 230.1825 230.3308 230.5633
   231.8151 231.9116 232.2344 233.1449 233.1975 233.5904 234.2887 234.5906
   234.7859 235.9767 236.2295 236.4409 236.8972 237.1815 237.1911 237.1961
   237.9520 238.3099 238.3277 238.8097 239.2219 239.4716 239.7231 239.8827
   241.2202 241.3734 241.4040 241.5314 241.6932 241.8309 242.0837 243.0020
   243.5087 245.0767 245.2513 245.7656 248.3246 248.8518 249.3968 249.6716
   249.9331 250.2856 250.5205 250.6165 251.7086 251.7405 252.2711 252.4028
   252.4436 252.8325 253.1906 253.2154 253.7038 253.8895 254.1313 254.7151
   254.7681 255.3017 255.8887 256.0223 256.8070 257.8254 257.8828 258.0921
   258.2535 258.2552 258.3382 259.5960 259.6978 259.9103 260.1836 260.2903
   260.4244 260.7551 261.0667 261.4780 261.8509 262.4821 262.9648 263.0281
   263.5759 263.6397 264.2575 264.6654 266.4954 266.7583 267.3812 267.6135
   267.9446 268.4487 268.8660 269.0375 269.0924 269.7181 270.2324 270.2999
   270.3870 270.4394 270.7857 271.1457 271.5777 272.0178 272.3840 272.8242
   272.8369 272.9756 273.0513 273.4433 273.9696 274.8776 275.9024 276.2055
   276.6194 277.4876 277.6169 277.6853 279.8069 279.8135 280.4866 280.7014
   280.9485 281.4748 281.5885 282.1428 282.1978 283.4029 283.4837 283.5445
   284.1241 284.4571 285.1257 285.2686 285.4033 285.7953 286.1773 286.3885
   286.3984 287.0786 288.0324 288.4490 288.4493 288.7423 288.8568 289.0030
   289.4781 289.7620 290.1495 290.9340 291.9688 292.3504 292.4627 292.5706
   292.6116 293.4589 293.6131 293.6677 293.8741 294.0148 294.9302 295.2064
   295.5743 296.0463 297.2547 297.8997 297.9902 298.2017 298.3796 298.5449
   298.5626 299.2544 299.6490 300.0149 300.1264 300.1586 300.7221 300.8686
   300.9666 301.0279 301.0360 301.1476 301.2073 301.4517 301.6274 301.8015
   301.8140 302.1896 302.6439 302.8009 303.3544 303.5292 304.1429 304.5749
   304.6256 305.0519 305.1347 305.1396 305.1486 305.2822 305.8620 306.1529
   307.8954 307.9036 308.0439 309.0426 309.1207 309.1937 309.1997 309.2809
   309.6599 309.7318 309.8281 311.2104 311.3135 311.6607 311.6651 311.8702
   311.9839 313.0493 313.1974 313.5079 313.5113 313.5135 314.2050 314.4777
   314.9072 315.0310 315.6266 315.6944 315.8844 317.3766 317.5393 318.2730
   318.5173 318.7060 318.8193 319.0290 319.2619 319.4405 320.0923 322.4732
   322.5078 322.6165 322.8850 323.0099 323.5796 323.6101 324.4500 324.7182
   324.8383 325.1147 325.8707 325.8844 326.1161 326.4263 326.5267 326.6550
   326.9005 327.4090 327.4133 327.4778 327.5482 328.2732 328.3747 328.6016
   328.6695 329.1961 329.2446 329.3689 329.8863 330.2225 330.2762 330.3601
   330.5066 330.5530 332.1476 332.9586 333.3134 333.3554 333.4439 333.4853
   333.4907 333.5344 334.3774 334.3874 334.5304 336.9411 337.4526 337.5944
   337.8324 337.8578 338.0658 338.1877 338.4761 338.5530 338.8847 340.9106
   341.0339 341.1808 341.2026 341.5340 341.7624 341.7820 341.9681 342.2958
   342.8313 343.9273 343.9277 344.0905 344.4002 344.8647 345.1288 345.4675
   345.6285 346.6513 347.0808 348.1292 348.3772 348.5053 348.8033 349.5790
   349.9740 350.0306 350.9408 350.9653 350.9838 351.0916 351.3147 351.5663
   352.0487 352.3801 352.6141 353.0175 353.5135 354.2047 354.5936 354.6777
   355.1660 355.3291 355.3367 355.7976 355.9572 356.2633 356.4919 356.9548
   357.2025 357.5894 357.6159 358.1173 358.8454 358.9143 359.7534 359.8834
   359.9402 360.4640 360.5324 360.7361 361.5906 361.6145 362.2445 363.0051
   363.3374 364.3165 364.7836 364.9320 367.3963 368.1629 368.2671 368.4262
   368.6892 368.8773 369.5160 369.9188 370.0566 370.6251 371.1476 371.9231
   372.8416 373.2913 374.0627 374.2347 374.6429 374.7171 375.0271 375.2916
   375.5642 375.6931 375.7480 375.9648 376.2581 376.3062 376.4696 376.9713
   377.2740 377.4094 377.5616 377.7310 378.0483 378.1666 378.2687 379.0101
   379.1116 379.1763 379.3913 380.3402 380.8059 380.9409 381.0436 381.4921
   381.7764 381.7881 381.9473 381.9845 382.1732 382.4971 382.8417 382.9518
   383.8033 383.9680 384.0386 384.9234 385.1176 385.2385 385.2634 385.3130
   385.5786 385.8875 386.0293 386.0828 386.1725 386.4383 386.5923 386.9601
   387.0834 387.1700 387.4424 387.8925 387.9632 388.0747 388.1265 388.1893
   388.1959 389.1006 389.3861 389.7865 389.8248 392.0010 392.1674 392.6379
   392.6828 392.9221 393.0905 394.5126 394.9845 395.3980 395.5168 396.4277
   396.4580 396.4593 396.5176 397.2541 397.3111 397.3379 397.8397 397.8516
   398.4555 398.5009 398.6337 399.0304 399.1893 399.3724 399.5739 399.6650
   399.6881 399.9241 399.9585 400.0497 400.1675 400.6171 400.6482 400.8870
   401.0129 401.3405 401.3971 401.4092 401.5103 401.7553 401.9015 402.4483
   402.5270 402.6675 402.9387 403.0634 403.1402 403.5216 403.7815 404.1114
   404.1678 404.4556 404.9498 405.0571 406.4484 406.6529 406.9002 407.1714
   407.5571 407.6142 410.7758 411.0761 411.4093 411.4982 411.6164 413.1327
   413.1758 413.1809 413.2074 413.6588 414.4669 414.7174 414.9102 414.9445
   415.4456 415.8676 415.8794 415.8939 415.8940 416.4139 416.7686 417.4571
   417.5650 417.6036 417.6539 417.8636 417.9138 417.9643 418.0627 419.3583
   419.3722 419.4909 419.7846 419.8596 419.9270 420.1535 420.3624 420.7029
   420.7210 420.7227 421.2207 421.4915 421.9758 421.9886 422.5197 422.9025
   422.9791 423.0160 423.1578 423.9671 424.1229 424.3714 424.4059 424.4549
   424.5877 424.6254 424.6757 425.5923 426.2336 426.5196 427.0607 427.7253
   428.2211 429.2776 430.0624 430.4815 430.5126 430.5768 430.8245 430.8362
   430.8573 430.9346 431.1315 431.1741 431.1976 431.3057 431.3590 431.8954
   432.2139 432.3818 432.5586 433.3687 435.5735 435.9246 435.9484 436.2236
   436.5471 436.6094 436.6721 437.4583 437.5807 437.6502 437.8085 438.3671
   438.9566 438.9771 439.0062 439.1039 439.6240 439.6991 439.8653 439.9660
   440.1265 440.5681 440.6670 441.0275 441.0376 441.2105 441.2738 441.3044
   441.5726 441.5989 442.0838 442.2947 443.3291 443.8757 444.0433 444.0867
   444.2178 444.9095 445.2544 445.3484 447.5783 447.6210 448.0827 448.5890
   448.8215 448.8474 449.0430 449.0789 449.1505 449.1954 449.7666 449.7998
   450.0194 450.0793 450.2022 450.2095 450.3429 450.4858 451.6238 451.9403
   452.2306 452.6204 452.8054 453.2472 453.2867 453.2888 453.3009 453.4222
   454.6820 454.9031 454.9799 455.0233 455.2228 455.4860 455.6454 455.7375
   456.1939 456.1984 456.3059 456.5482 456.6293 457.0146 457.1121 457.2427
   457.3413 457.3925 457.3984 457.4049 458.2016 458.2557 458.4252 458.6457
   462.3995 462.7359 463.6865 463.6927 463.7771 464.0033 464.0619 464.0974
   464.1220 464.5839 464.9403 464.9598 465.0951 465.3149 465.9529 466.0092
   466.2334 466.3589 466.4896 466.5256 466.8419 467.0765 467.2502 467.2611
   468.5579 468.7872 469.3307 469.3979 470.0968 470.2853 472.2139 472.3522
   472.5870 472.6083 472.9868 473.0795 473.0970 473.2355 473.8907 474.2138
   474.2668 474.4524 474.4797 474.4870 474.8499 474.9740 474.9785 475.2334
   475.2367 475.5741 475.7090 475.9873 476.2407 477.7305 477.8922 478.2749
   478.3827 478.4027 478.4673 479.4174 479.4826 479.9441 480.1238 480.5269
   480.6813 480.8143 480.8157 481.0014 481.0931 481.2139 481.2235 481.9107
   482.2160 483.1057 483.2111 483.5703 483.8358 485.2799 485.6733 486.0093
   486.3251 486.6578 486.7503 487.0317 487.0351 487.2978 487.3285 487.4638
   487.8173 487.9342 488.1553 488.6667 488.7219 488.7862 488.9674 489.0154
   489.0762 490.6620 490.6813 490.7094 491.2147 491.3580 491.5112 491.7219
   491.7794 492.8478 492.9761 493.0480 493.4504 493.6094 493.6326 494.8935
   494.9671 495.5388 495.9733 496.1509 496.3970 496.4254 497.8046 497.8671
   497.8925 498.3639 499.4573 499.5202 500.2029 500.2066 500.2380 500.2508
   501.6052 502.1441 502.1725 502.3211 502.7283 502.8990 503.4139 503.4788
   503.8212 504.2021 504.2148 504.3251 504.9193 505.0287 505.7455 505.8291
   505.9929 506.0999 506.1422 506.6060 507.1033 507.6757 507.6879 508.2873
   508.3955 508.5083 508.5157 509.2004 509.2618 509.2746 509.4472 510.0426
   510.1564 510.2341 510.3013 510.3215 510.4571 510.5249 510.5679 510.6795
   510.7599 511.7652 511.8194 512.2431 512.3284 512.8610 513.6931 514.0212
   514.0275 514.4269 514.4395 514.4525 514.5163 514.6531 515.1385 515.2735
   515.4297 516.1462 516.4249 516.6222 516.6408 516.6827 516.6958 517.3029
   517.3067 517.7331 518.0192 519.0956 519.1215 519.3807 519.5344 522.5143
   522.7278 523.1719 523.2389 523.7964 523.9528 523.9912 524.0636 524.1698
   524.4068 524.8069 524.8167 525.8687 526.1275 526.1695 526.1789 526.2711
   526.4844 526.8539 527.0043 527.0266 527.3723 527.8678 527.8918 528.1442
   528.2294 528.3985 528.4680 528.8785 529.0686 529.3633 529.3676 529.6299
   529.7490 530.0348 530.7090 530.7374 531.2643 531.3027 531.5594 531.6191
   531.9129 532.0959 532.2729 532.5159 532.5653 532.5947 532.7141 532.8707
   532.9992 533.0830 533.1454 533.3829 533.4786 533.5689 535.1307 535.8582
   536.0856 536.1209 536.2472 536.4056 536.5356 536.6143 536.7024 536.7337
   536.7725 537.0092 537.1333 537.2133 537.5406 537.6993 538.2331 538.6740
   539.2632 539.4505 539.8586 540.5675 540.8878 540.8920 541.1107 541.1558
   541.3311 541.5113 541.5476 541.7701 541.9244 542.0240 542.1883 542.5205
   542.8305 542.8945 543.1179 543.2881 543.4099 543.5381 545.2907 545.3217
   545.4021 545.4101 546.6458 546.7468 546.8728 546.8925 547.0505 547.1931
   547.2715 547.4635 547.6077 547.7430 547.8994 548.3056 548.3399 548.5302
   548.5563 548.6521 548.8820 549.2014 549.2244 549.2598 549.3758 549.4598
   549.4659 549.4832 549.8747 549.9375 550.0137 550.0227 551.4012 551.4254
   552.3231 552.3395 552.6800 553.0448 553.5986 553.6621 554.9471 555.3190
   555.5596 555.9176 558.8082 559.0253 559.0755 559.3638 559.6615 559.8350
   559.8514 559.9914 560.0280 560.0282 560.1842 560.2132 560.2409 560.2782
   560.3587 560.4118 560.4505 560.5451 560.8900 561.1049 561.6336 561.6967
   561.9741 562.0742 562.4839 562.5802 564.1369 564.3614 564.9998 565.7570
   565.8360 565.8473 566.0288 566.3640 566.3783 566.5118 566.5974 566.6265

     the Fermi energy is     6.8057 ev
     (compare with:     6.8057 eV, computed in scf)

     Writing all to output data dir out/mp-1672.save/
 
     init_run     :      0.02s CPU      0.05s WALL (       1 calls)
     electrons    :   1270.83s CPU   1371.83s WALL (       1 calls)

     Called by init_run:
     wfcinit      :      0.00s CPU      0.00s WALL (       1 calls)
     potinit      :      0.00s CPU      0.01s WALL (       1 calls)
     hinit0       :      0.01s CPU      0.03s WALL (       1 calls)

     Called by electrons:
     c_bands      :   1270.83s CPU   1371.80s WALL (       1 calls)
     v_of_rho     :      0.00s CPU      0.00s WALL (       1 calls)

     Called by c_bands:
     init_us_2    :      0.00s CPU      0.00s WALL (      16 calls)
     init_us_2:cp :      0.00s CPU      0.00s WALL (      16 calls)
     cegterg      :   1244.07s CPU   1342.92s WALL (      16 calls)

     Called by *egterg:
     cdiaghg      :   1166.45s CPU   1261.28s WALL (     184 calls)
     h_psi        :     21.46s CPU     22.57s WALL (     200 calls)
     g_psi        :      0.13s CPU      0.13s WALL (     168 calls)

     Called by h_psi:
     h_psi:calbec :      0.33s CPU      0.35s WALL (     200 calls)
     vloc_psi     :     20.62s CPU     21.71s WALL (     200 calls)
     add_vuspsi   :      0.24s CPU      0.24s WALL (     200 calls)

     General routines
     calbec       :      0.33s CPU      0.35s WALL (     200 calls)
     fft          :      0.00s CPU      0.02s WALL (      10 calls)
     fftw         :     19.24s CPU     20.25s WALL (  286420 calls)
 
     Parallel routines
 
     PWSCF        :  21m13.94s CPU  22m56.39s WALL

 
   This run was terminated on:  21:30:30  17Nov2023            

=------------------------------------------------------------------------------=
   JOB DONE.
=------------------------------------------------------------------------------=
