
     Program PWSCF v.7.1 starts on 17Nov2023 at 15:51:30 

     This program is part of the open-source Quantum ESPRESSO suite
     for quantum simulation of materials; please cite
         "P. Giannozzi et al., J. Phys.:Condens. Matter 21 395502 (2009);
         "P. Giannozzi et al., J. Phys.:Condens. Matter 29 465901 (2017);
         "P. Giannozzi et al., J. Chem. Phys. 152 154105 (2020);
          URL http://www.quantum-espresso.org", 
     in publications or presentations arising from this work. More details at
     http://www.quantum-espresso.org/quote

     Parallel version (MPI), running on     8 processors

     MPI processes distributed on     1 nodes
     123380 MiB available memory on the printing compute node when the environment starts
 
     Reading input from pw_mp-1672_nscf_k10_E89.in
Warning: card &IONS ignored
Warning: card / ignored
Warning: card &CELL ignored
Warning: card / ignored

     Current dimensions of program PWSCF are:
     Max number of different atomic species (ntypx) = 10
     Max number of k-points (npk) =  40000
     Max angular momentum in pseudopotentials (lmaxx) =  4

     Atomic positions and unit cell read from directory:
     out/mp-1672.save/
     Atomic positions from file used, from input discarded
 
 
     R & G space division:  proc/nbgrp/npool/nimage =       8
     Subspace diagonalization in iterative solution of the eigenvalue problem:
     one sub-group per band group will be used
     scalapack distributed-memory algorithm (size of sub-group:  2*  2 procs)

 
     Parallelization info
     --------------------
     sticks:   dense  smooth     PW     G-vecs:    dense   smooth      PW
     Min         177     177     49                 4444     4444     650
     Max         178     178     50                 4448     4448     652
     Sum        1417    1417    397                35557    35557    5209
 
     Using Slab Decomposition
 


     bravais-lattice index     =            2
     lattice parameter (alat)  =      10.7804  a.u.
     unit-cell volume          =     313.2175 (a.u.)^3
     number of atoms/cell      =            2
     number of atomic types    =            2
     number of electrons       =        16.00
     number of Kohn-Sham states=         2200
     kinetic-energy cutoff     =      89.0000  Ry
     charge density cutoff     =     356.0000  Ry
     Exchange-correlation= PBE
                           (   1   4   3   4   0   0   0)

     celldm(1)=  10.780412  celldm(2)=   0.000000  celldm(3)=   0.000000
     celldm(4)=   0.000000  celldm(5)=   0.000000  celldm(6)=   0.000000

     crystal axes: (cart. coord. in units of alat)
               a(1) = (  -0.500000   0.000000   0.500000 )  
               a(2) = (   0.000000   0.500000   0.500000 )  
               a(3) = (  -0.500000   0.500000   0.000000 )  

     reciprocal axes: (cart. coord. in units 2 pi/alat)
               b(1) = ( -1.000000 -1.000000  1.000000 )  
               b(2) = (  1.000000  1.000000  1.000000 )  
               b(3) = ( -1.000000  1.000000 -1.000000 )  


     PseudoPot. # 1 for Ca read from file:
     /usr/scratch4/magr4985/MG/HTDF/pseudo/SG15/Ca.upf
     MD5 check sum: b43c970dc090f2312d256360aabdb6f1
     Pseudo is Norm-conserving, Zval = 10.0
     Generated using ONCVPSP code by D. R. Hamann
     Using radial grid of  602 points,  6 beta functions with: 
                l(1) =   0
                l(2) =   0
                l(3) =   1
                l(4) =   1
                l(5) =   2
                l(6) =   2

     PseudoPot. # 2 for S  read from file:
     /usr/scratch4/magr4985/MG/HTDF/pseudo/SG15/S.upf
     MD5 check sum: f9d020296ee6110346977bfd66d424f6
     Pseudo is Norm-conserving, Zval =  6.0
     Generated using ONCVPSP code by D. R. Hamann
     Using radial grid of  602 points,  4 beta functions with: 
                l(1) =   0
                l(2) =   0
                l(3) =   1
                l(4) =   1

     atomic species   valence    mass     pseudopotential
        Ca            10.00    40.07800     Ca( 1.00)
        S              6.00    32.06500     S ( 1.00)

     48 Sym. Ops., with inversion, found



   Cartesian axes

     site n.     atom                  positions (alat units)
         1           Ca  tau(   1) = (   0.0000000   0.0000000   0.0000000  )
         2           S   tau(   2) = (  -0.5000000   0.5000000   0.5000000  )

     number of k points=     3  Gaussian smearing, width (Ry)=  0.0005
                       cart. coord. in units 2pi/alat
        k(    1) = (   0.0000000   0.0000000   0.0000000), wk =   0.2500000
        k(    2) = (   0.5000000  -0.5000000   0.5000000), wk =   1.0000000
        k(    3) = (   0.0000000  -1.0000000   0.0000000), wk =   0.7500000

     Dense  grid:    35557 G-vectors     FFT dimensions: (  45,  45,  45)

     Estimated max dynamical RAM per process >     227.40 MB

     Estimated total dynamical RAM >       1.78 GB

     The potential is recalculated from file :
     out/mp-1672.save/charge-density

     Starting wfcs are random

     Band Structure Calculation
     ParO style diagonalization

     ethr =  5.00E-06,  avg # of iterations =  5.5

     total cpu time spent up to now is     1658.7 secs

     End of band structure calculation

          k = 0.0000 0.0000 0.0000 (  4477 PWs)   bands (ev):

   -33.2894 -14.2635 -14.2635 -14.2635  -5.3278   5.9790   5.9790   5.9790
    10.0928  10.1429  10.1429  10.1429  10.7306  10.7306  16.8425  19.0112
    19.0112  19.0112  21.9489  21.9489  22.5871  22.5871  22.5871  29.8697
    31.4565  31.4565  31.4565  32.6233  32.6233  32.6233  33.1948  33.1948
    34.9099  34.9099  34.9099  43.4203  46.3495  46.3495  46.3495  46.8404
    46.8404  47.0142  47.0142  47.0142  47.7106  47.7106  47.7106  49.6563
    49.6563  49.6563  49.7255  50.3846  50.6569  50.6569  50.6569  52.5951
    52.5951  52.5951  53.2353  53.2353  55.4065  60.3288  60.3288  60.3288
    60.6570  60.6570  60.6570  69.5659  69.5659  70.8371  70.9251  70.9251
    70.9251  72.6316  72.6316  72.6316  79.2198  79.2198  79.2198  80.0822
    80.0822  81.7844  82.6821  82.6821  82.6821  83.0008  83.1346  83.1346
    83.1346  85.7611  85.7611  85.7611  86.9335  86.9335  86.9335  87.3904
    87.3904  87.3904  88.1323  88.1323  88.1323  88.5263  88.5263  88.5730
    88.5730  88.5730  88.9146  88.9146  90.2876  90.2876  91.3457  91.3457
    91.3457  92.2378  94.0946  96.1888  96.1888  96.1888  99.7872  99.8130
   101.0211 101.0211 101.0211 104.5576 104.5576 104.5576 105.8458 105.8458
   106.8472 106.8472 106.8472 108.0748 108.0748 108.0748 108.2702 108.2702
   108.2750 108.2750 108.2750 108.4518 108.4518 108.4518 108.8344 108.8344
   108.8344 110.2980 117.2716 117.2716 117.2716 117.8315 118.0497 119.5125
   119.5125 119.5125 120.0259 120.0259 120.0259 121.4395 121.4395 121.4395
   121.8465 121.8465 121.8465 122.4917 122.4917 125.3489 125.3489 125.3489
   126.2438 126.2438 126.3457 126.3457 126.3457 126.5174 128.7779 135.9851
   135.9851 135.9851 138.0113 138.0113 138.0113 138.7075 138.7075 139.0504
   139.0504 139.0504 144.2669 144.2669 146.2588 146.5807 146.5807 146.5807
   146.5935 146.5935 146.5935 150.4397 150.4397 150.4397 152.2230 152.2230
   152.2230 153.2478 153.8077 153.8077 153.8077 154.0358 154.0358 154.4404
   154.4404 154.4404 156.0654 156.0654 156.0654 156.3657 157.1717 157.1717
   157.1717 157.2160 157.2954 157.6117 157.6117 157.6117 159.0414 159.0414
   160.1608 160.1608 160.1608 160.8518 160.8518 160.8518 161.6440 161.6440
   161.6440 162.3078 162.3078 162.3078 162.4385 162.4385 162.5575 162.7959
   162.7959 162.7959 162.9962 162.9962 162.9962 163.2189 163.2189 163.2189
   163.2704 163.2704 163.3216 163.3732 163.3732 163.3732 163.4527 163.4527
   163.6283 163.6283 163.6283 171.2340 171.2340 172.4966 172.4966 172.4966
   173.7145 175.3867 175.3867 175.3867 176.5538 176.5538 176.5538 176.6545
   176.6545 176.6545 177.0582 177.0582 177.0582 178.9447 178.9447 178.9447
   182.6075 182.6075 182.8214 182.8214 182.8214 182.9113 183.5945 183.5945
   186.6639 187.4630 187.4630 187.4630 187.9016 192.4173 192.4173 192.4173
   195.0681 195.0681 195.0681 195.1485 195.1485 195.1485 195.1619 195.1619
   195.1619 195.4555 195.4555 195.4679 195.4679 195.4679 196.3535 196.3535
   197.4995 197.6965 197.8557 197.8557 197.8557 198.2879 198.2879 198.2879
   198.3346 198.3346 198.6065 198.6065 198.6065 198.8300 198.8300 198.8300
   198.8345 198.8345 198.8345 199.7106 199.7106 207.8357 207.8357 207.8357
   207.8983 208.8223 208.8223 208.8223 212.8183 212.8183 212.8183 213.6046
   213.6046 213.6046 214.7630 217.7590 220.0712 220.0712 220.5549 220.5549
   220.5549 221.3791 221.3791 221.3791 222.0082 222.0082 222.0082 222.3650
   222.4631 222.4631 225.6274 225.6274 225.6274 227.5146 227.5146 227.5146
   230.3379 230.3379 230.3379 230.5777 230.5777 230.5777 230.6138 230.6138
   230.6138 230.8778 230.8778 230.8778 233.3208 233.4948 233.6405 233.6405
   233.6405 234.0217 234.0217 234.2384 234.2384 234.2384 234.4728 234.4728
   234.5104 234.5104 234.5104 235.2330 235.2330 235.2330 235.6782 235.6782
   235.6782 235.8497 235.8497 235.8497 236.0112 237.1391 237.1391 237.1391
   237.1395 237.1395 237.1508 243.9477 243.9477 243.9477 245.9332 246.2326
   246.2326 246.2326 247.0050 247.8811 247.8811 248.2327 248.2327 248.2327
   250.6485 250.6485 250.6485 250.8083 250.8083 251.1607 251.1607 251.2173
   251.2173 251.2173 251.4245 251.4245 251.4245 251.6956 251.6956 251.6956
   253.6070 253.6070 253.6070 256.0716 256.0716 256.0716 256.0759 256.0759
   256.0921 256.0921 256.0921 256.1812 256.1812 256.2116 256.2116 256.2116
   256.2271 256.2271 256.2271 257.8301 257.8301 257.8301 257.8386 257.8386
   257.8386 257.8487 257.8742 258.4428 258.4428 258.4428 258.9573 259.1921
   259.7916 259.7916 259.7916 260.4817 260.4817 260.4817 262.6428 262.6428
   262.6428 263.5964 263.7380 263.7380 263.7380 264.0020 264.0020 264.4409
   264.4409 264.4409 264.7042 267.3932 267.3932 267.9470 267.9470 268.7073
   268.7073 268.7073 269.0035 269.0035 269.0035 269.1163 269.1163 269.1163
   269.9078 269.9078 269.9273 269.9273 269.9273 270.1847 270.5228 270.5228
   270.5228 270.5332 270.5332 272.1140 272.1140 272.1140 272.2637 272.2637
   272.2637 272.4502 272.4502 272.4502 272.5801 272.5801 272.5801 273.5012
   273.5539 273.5539 273.5539 273.5761 273.5761 275.6809 275.6809 275.6809
   279.9979 289.4832 289.4832 289.4832 293.8264 293.8264 293.8264 295.8150
   298.3170 298.3170 298.3170 299.0606 299.5797 299.5797 300.2466 300.2466
   301.9829 301.9829 301.9829 302.0970 302.0970 302.0970 303.3513 303.3513
   303.3513 303.5008 303.5008 303.5008 303.7437 303.7437 303.7437 304.1124
   304.1124 304.4004 304.5065 304.7514 304.7514 304.7514 305.4605 305.4605
   305.4605 305.4656 305.4656 305.4656 305.6378 305.6378 305.6378 305.9735
   305.9735 305.9735 306.0976 310.3361 310.3361 310.5655 310.5655 310.5655
   310.5848 310.5848 310.5848 310.6816 310.6816 310.7575 310.7575 310.7575
   310.9048 310.9048 310.9048 311.9885 311.9885 312.0552 312.0552 312.0552
   312.2246 319.3540 319.3540 319.3540 319.4857 319.4857 319.4857 320.1181
   320.5928 320.5928 320.7229 320.7229 320.7229 320.9128 320.9128 320.9128
   323.0344 323.0344 326.4453 326.4453 326.4453 327.2628 327.4837 327.4837
   327.4984 327.4984 327.4984 327.6051 327.6051 327.6662 327.6662 327.6662
   327.8004 327.8004 327.8004 327.8018 327.9739 327.9739 327.9739 328.1431
   328.1431 328.1431 328.8379 328.8379 328.8379 329.3991 329.3991 329.3991
   330.5946 336.8628 336.9577 336.9577 337.8033 337.8033 337.8033 338.3667
   338.3667 338.3667 338.9820 338.9820 338.9820 339.0726 339.0726 339.0726
   339.1523 339.1523 339.1523 339.3098 339.8929 342.6695 342.6695 342.6695
   343.9168 343.9168 343.9168 343.9464 343.9464 344.0782 344.0782 344.0782
   344.2343 344.2343 344.2343 344.3200 344.7910 344.7910 344.7910 345.0111
   345.0111 345.0707 345.4190 345.6424 345.6424 345.6438 345.6438 345.6438
   345.6586 345.6586 345.6586 345.6670 345.6670 345.6670 345.7738 345.7738
   345.7738 346.6326 346.6326 346.6326 346.6613 346.6613 346.6964 346.6964
   346.6964 346.7318 346.7318 346.7318 346.7951 349.7714 349.7714 353.1272
   353.1272 353.1272 354.7897 357.0214 357.0214 359.4492 359.4492 359.4492
   360.6630 360.6630 360.6630 360.8347 360.8347 360.8347 360.9894 360.9894
   360.9894 361.9664 361.9664 361.9664 362.0530 362.0530 362.0530 362.0616
   362.1058 362.1058 362.8202 366.5616 366.5616 366.5616 369.3558 369.7427
   369.7427 369.7427 370.8840 374.2599 374.2599 374.2599 374.5148 374.5148
   374.5973 374.5973 374.5973 374.9997 374.9997 374.9997 375.2276 375.2276
   375.2276 375.4997 375.4997 376.6277 376.6277 376.6277 378.0750 378.0750
   378.0750 378.1784 378.1784 378.1784 378.3323 378.3323 378.3323 378.3339
   378.3339 378.3339 379.1677 379.3855 379.3855 379.7089 379.7089 379.7089
   380.0737 380.0737 380.1090 380.1090 380.1090 380.4166 380.4166 380.4166
   380.5114 380.5204 380.5204 380.5554 380.5554 380.5880 380.5880 380.5880
   380.5919 380.5919 380.5919 380.6415 380.6415 380.6415 380.7131 380.7131
   380.7131 380.8523 380.8523 380.8523 380.8599 380.8599 380.8599 382.3241
   382.3673 382.3673 382.3673 382.3933 382.3933 382.3933 382.4140 384.9724
   384.9942 384.9942 384.9942 385.0054 385.0054 385.3480 385.3480 385.3480
   385.4251 385.4251 385.4466 385.4466 385.4466 385.4668 385.4668 385.4668
   385.4870 385.5022 385.5022 385.5022 385.5277 385.5277 385.6188 385.6188
   385.6188 385.7359 385.7359 385.7359 385.8392 392.9101 392.9101 392.9101
   394.0144 394.1407 394.1407 394.1407 394.1902 400.9872 400.9872 402.9181
   402.9181 402.9181 403.0286 403.0286 403.0286 403.0463 403.0463 403.0643
   403.0643 403.0643 403.3302 403.3302 403.3302 403.3368 403.3368 404.0059
   404.1806 404.1806 404.1806 405.6003 405.6003 405.6003 407.4862 407.4862
   407.4862 407.6468 407.6468 407.6468 407.9978 407.9978 407.9978 412.1098
   412.1098 412.2449 412.2449 412.2449 412.3960 416.9598 417.0416 417.0416
   417.0416 417.1365 417.1365 419.9181 419.9181 419.9181 419.9393 419.9393
   419.9393 419.9725 419.9725 419.9725 419.9740 419.9740 419.9740 421.3064
   421.3064 421.3317 421.3317 421.3317 421.3743 429.6631 430.2715 430.2715
   430.7665 430.7665 430.7665 433.3668 433.3668 433.3668 434.7582 435.3104
   435.3104 435.3104 436.4008 436.4008 436.4008 436.8451 436.8451 436.8451
   437.2782 437.2782 437.2782 437.3123 437.3123 437.3123 437.6578 437.6578
   440.1847 440.1847 440.5211 440.7608 440.7608 440.7608 440.9921 440.9921
   441.0153 441.0153 441.0153 442.7528 442.7528 442.7528 442.8778 443.9816
   444.1572 444.1572 444.1572 446.1994 446.1994 446.1994 446.5999 446.5999
   446.5999 446.8688 447.9931 447.9931 448.4717 448.4717 448.4717 449.0216
   449.0216 449.0216 449.5238 450.0758 450.0758 450.1840 450.1840 450.1840
   450.6633 450.6633 450.6633 450.7720 450.7720 450.9701 450.9701 450.9701
   451.0972 451.0972 451.0972 452.1922 452.1922 452.1922 452.2530 452.4451
   452.4451 452.4451 452.6432 454.6410 454.6410 454.6410 454.6530 454.6530
   454.7181 454.7181 454.7181 454.7642 454.7642 454.7642 454.8131 454.8131
   454.8131 454.8175 454.8175 456.2592 456.2592 456.2592 456.2713 456.2831
   456.2831 456.2831 456.3109 456.3109 456.3169 456.3169 456.3169 457.1115
   457.1115 457.1115 457.1527 457.1527 457.1922 457.1922 457.1922 457.2030
   457.2030 457.2030 457.2892 468.5133 468.5133 469.1442 469.3639 469.3639
   469.3639 469.6711 469.6711 469.6711 470.8807 470.8807 470.8807 470.9838
   471.0159 471.0159 471.0159 471.1684 471.1684 471.1684 471.9666 471.9666
   471.9666 472.5366 472.5366 472.5366 472.5514 472.5514 472.7102 472.7102
   472.7102 472.9360 473.5455 473.5455 473.7656 473.7656 473.7656 473.7766
   473.7766 473.7766 473.8537 473.8537 473.8537 477.5046 477.5046 477.5326
   477.5326 477.5326 477.5921 477.5921 477.5921 477.6061 477.6061 477.6061
   477.6336 477.6588 477.6588 477.7561 477.7561 477.7561 477.7740 477.8198
   477.8198 477.8198 477.8669 477.8669 477.8669 478.5868 478.5868 478.6582
   478.6582 478.6582 478.7699 479.4124 479.4124 479.4124 479.5129 479.5129
   480.9150 481.3057 481.3057 481.3057 481.9352 481.9352 481.9352 482.2302
   482.2302 482.2302 482.3254 482.3254 482.4266 482.4266 482.4266 482.7644
   482.7644 482.7644 482.9138 485.7211 486.5524 486.5524 486.5524 487.4311
   487.4311 487.4311 488.0089 488.0089 488.0159 488.0159 488.0159 488.9493
   489.3780 489.3780 489.3780 489.4659 489.4659 489.4659 489.6014 489.6014
   489.6206 489.6206 489.6206 491.3020 491.3020 491.3020 491.8943 492.0114
   492.0794 492.0794 492.0794 493.1175 493.1175 493.1175 493.1211 493.1211
   493.2105 493.2105 493.2105 493.3215 493.3215 493.3215 493.4532 493.7641
   493.7641 493.7990 493.8244 493.8244 493.8244 493.8520 493.8520 493.8520
   493.8854 493.8854 493.8976 493.8976 493.8976 493.9205 493.9258 493.9258
   493.9258 493.9596 493.9596 494.2347 494.2347 494.2347 494.3136 494.3136
   494.3136 494.3214 494.3412 494.3412 494.3412 494.3577 494.3577 494.3577
   494.6206 494.6206 494.6206 516.1850 517.2286 517.2286 517.2286 518.4384
   518.4384 518.5032 519.9172 519.9172 519.9172 520.9063 520.9063 520.9063
   521.8072 521.8072 521.8072 522.1976 522.1976 522.1976 522.4465 522.4465
   522.4465 522.7916 522.7916 523.4588 523.4588 523.4588 524.5669 524.5669
   525.0046 525.0094 525.0281 525.0281 525.0281 525.9836 525.9836 525.9836
   526.2716 526.2716 526.2716 526.3260 526.3260 526.3260 526.5409 526.7480
   526.7480 526.7480 527.0477 527.0477 527.5642 527.5642 527.6321 527.6321
   527.6321 527.7339 527.7339 527.7339 528.0183 528.1363 528.1363 528.1363
   528.1692 528.1692 528.1692 528.3602 528.3602 528.3602 528.3957 528.3957
   528.4346 528.4346 528.4346 528.4407 528.4407 528.4407 528.4578 528.5205
   528.5205 528.5205 528.5650 528.5650 528.6003 528.6003 528.6003 528.6195
   528.6195 528.6195 528.6332 528.6398 528.6398 528.6398 528.7255 528.7255
   528.8595 528.8595 528.8595 532.8760 532.8760 532.8760 532.9062 532.9062
   532.9062 532.9101 532.9101 532.9883 532.9883 532.9916 532.9916 532.9916
   533.0150 533.0150 533.0150 534.8044 534.8153 534.8153 534.8153 534.8325
   534.8325 534.8325 534.8561 539.2736 539.2736 540.6719 542.1321 542.1321
   542.1321 546.2183 546.3197 546.3197 546.3197 546.5673 546.5673 546.6062
   546.6062 546.6062 546.7511 546.7511 546.7511 546.8351 546.8351 546.8351
   547.0645 547.0645 547.0645 547.6675 547.6675 548.0360 548.4553 548.4553
   548.4553 551.8046 551.8046 551.8046 551.8309 551.8309 551.8309 551.8336
   551.8336 551.8379 551.8379 551.8379 551.8730 551.9238 551.9238 551.9238
   551.9284 551.9284 551.9617 551.9617 551.9617 552.0607 552.0607 552.0607
   552.1402 554.1135 554.1135 554.1135 554.6270 554.6455 556.0730 556.0730
   556.0730 562.6703 562.6703 562.6703 562.7022 562.7022 562.7022 562.8146
   562.8146 562.8146 562.9026 562.9026 562.9026 564.5076 564.5076 564.5793
   564.5793 564.5793 564.6898 564.6898 564.6898 564.8378 564.8378 564.8378
   564.8522 564.8522 564.8522 564.8638 564.8638 569.8208 569.8267 569.8267
   569.8267 569.8282 569.8282 575.9108 576.3343 576.3343 576.3343 576.8677
   576.8677 576.8677 576.9304 576.9304 581.6137 581.6137 581.6137 585.2239
   585.2239 585.4647 585.5151 585.5151 585.5151 586.4211 586.4211 586.4211
   588.0057 588.0057 588.0057 588.4236 588.4236 589.6955 589.6955 589.6955
   590.5127 591.0179 591.0179 591.0179 592.2773 592.2773 592.2773 592.8733
   592.8733 592.8733 593.1469 593.1469 593.1469 594.2520 595.8526 595.8526
   595.8526 596.1995 596.7123 596.7123 596.7123 596.8278 596.8278 597.5159
   597.5159 597.5159 597.7951 597.7951 597.7951 597.9042 597.9042 598.0838
   598.2762 598.2762 598.2955 598.2955 598.2955 598.6001 598.6777 598.6777
   598.6777 598.8537 598.8537 598.8537 599.1597 599.1597 599.1597 599.2783
   599.2783 599.2783 599.6292 599.6292 599.8022 599.8022 599.8022 601.7385
   601.7385 601.7385 602.0297 602.0741 602.0741 602.0950 602.0950 602.0950
   602.1798 602.3695 602.5187 602.5187 602.5187 602.5400 602.5400 602.5400
   602.5544 602.5544 602.6099 602.6099 602.8170 602.8170 602.8170 602.9751
   602.9751 602.9751 602.9758 603.0075 603.0075 603.0075 603.1595 603.1595
   603.1595 603.2242 603.2242 603.2242 603.3508 603.3508 604.0186 604.0186
   604.0186 604.5451 604.5451 604.5451 604.5866 604.5866 604.5866 604.6062
   604.6062 604.6987 604.6987 604.6987 604.7599 604.7599 604.7599 604.8075
   604.8075 604.8333 604.8333 604.8333 604.8870 604.8870 604.8870 604.8897
   604.8897 604.8897 604.9361 604.9361 604.9361 605.1542 605.3277 605.3277
   605.3277 605.4373 605.4373 605.4373 605.4477 605.4559 605.5047 605.5047
   605.5101 605.5101 605.5101 605.5327 605.5327 605.5327 605.5489 605.5489
   605.5489 606.2174 606.2174 606.2349 606.2349 606.2349 606.2674 615.0526
   615.0657 615.0657 615.0657 615.2981 616.1685 616.1685 616.1685 618.9908
   618.9908 619.4533 619.4533 619.4533 619.4820 619.4820 619.4820 619.5029
   619.5029 619.5029 619.6639 619.6639 619.6639 619.7026 619.8180 619.8180
   619.8180 619.8213 619.8213 619.8377 621.4033 621.4033 621.4033 624.8758
   624.8758 624.9097 624.9097 624.9097 624.9106 624.9106 624.9106 624.9466
   624.9466 624.9466 624.9619 624.9619 624.9619 624.9763 624.9763 631.9168
   632.1484 632.1484 632.1484 632.4747 632.7630 632.7630 633.1701 633.1701
   633.1701 633.2702 633.2702 633.2702 633.4968 633.4968 633.4968 633.7719
   633.7719 633.7719 633.8738 633.8738 634.5977 634.5977 634.5977 634.9077
   634.9077 635.9605 635.9849 635.9849 635.9849 636.1812 636.1812 636.1812
   636.1828 636.1828 636.1828 636.4205 636.4205 636.4205 636.4679 636.4679
   636.8837 636.8837 636.8837 636.9621 637.1022 637.1022 637.1022 639.1501
   639.1766 639.1766 639.1766 639.2154 639.2154 639.2154 639.2607 639.3083
   639.3083 639.3083 639.3173 639.3173 639.3173 639.3379 639.3379 639.3648
   639.3648 639.3682 639.3682 639.3682 639.3795 639.3795 639.3795 641.0940
   641.1671 641.1671 641.1671 641.3576 641.3576 641.3576 641.3792 641.3792
   641.4129 641.4129 641.4129 641.5647 641.5647 641.5647 641.5899 641.6142
   641.6142 641.6278 641.6278 641.6278 641.6774 641.6774 641.7492 641.7492
   641.7492 641.8016 641.8793 641.8793 641.8793 641.9530 641.9530 641.9530
   642.1619 642.1619 642.1619 642.1842 642.1842 642.3241 642.3241 642.3241
   642.4440 642.4440 642.4440 642.5347 642.9571 642.9571 642.9571 646.5381
   646.5381 646.6279 648.6747 648.6747 648.6747 658.2984 658.3429 658.3429
   658.3429 658.4376 659.3233 659.3233 659.3233 659.3768 659.3768 659.4498
   659.4498 659.4498 659.4864 659.4864 659.4864 659.6441 659.6441 659.6560
   659.6560 659.6560 660.0161 660.0161 660.0161 665.8706 665.8706 665.9468
   666.1048 666.1048 666.1048 666.1859 666.1859 666.1859 666.2427 666.2427
   666.2427 666.3745 666.3745 666.3745 667.2459 667.2459 667.4154 667.4154
   667.4154 667.6038 668.7402 668.7402 668.7402 671.0797 671.2069 671.2069
   671.2069 671.3744 672.1676 672.1676 672.1676 673.4596 673.4596 673.5176
   674.3154 674.3154 674.3154 675.0483 675.0483 675.0483 675.0701 675.0701
   675.0701 675.1047 675.1047 675.1047 675.3325 675.3325 675.3325 677.8047
   677.8337 677.8337 677.8337 677.8609 677.8609 678.0794 678.0794 678.0794
   678.0892 678.0892 678.0892 678.0907 678.0907 678.0907 678.1092 678.1092
   678.1092 678.2569 678.2569 678.2629 678.2646 678.2646 678.2646 681.8510
   681.8510 681.8558 681.8558 681.8558 681.8570 690.6972 690.9384 690.9384
   690.9384 691.1265 692.4281 692.4281 692.4489 692.4489 692.4489 692.6252
   692.6252 692.6252 692.8060 692.8060 692.8060 692.8998 692.8998 692.8998
   693.1089 693.1089 695.2199 695.2199 695.2199 697.3370 697.3370 697.3374
   697.3387 697.3387 697.3387 697.6619 697.6737 697.6737 697.7410 697.7410
   697.7410 697.7461 697.7461 697.7461 697.7571 697.7571 697.7571 697.7637
   697.7637 697.7637 698.1963 698.1963 698.1963 698.8976 698.8976 698.9380
   698.9380 698.9380 699.0586 699.0586 699.0586 699.1877 699.1877 699.1877
   699.2177 699.2177 699.2177 699.2340 699.2340 699.2483 699.2810 699.2810
   699.2810 699.3165 699.3165 699.3165 699.3437 701.6773 701.7257 701.7257
   701.7257 701.7983 704.0347 704.0347 704.0347 704.7487 704.7487 704.8434
   704.8434 704.8434 705.1106 705.1106 705.1106 705.1754 705.1754 705.1754
   705.4360 705.4360 706.7071 706.7071 706.7071 708.8003 709.1153 709.1153
   709.1153 709.2445 709.4058 709.4058 709.4058 709.4126 709.4126 709.5999
   709.5999 709.5999 709.6389 709.6389 709.6389 709.6466 709.6466 709.6466
   709.6904 709.6904 709.6904 709.7379 709.7379 712.3516 712.3516 712.3629
   712.3629 712.3629 712.4563 712.4563 712.4563 712.6223 712.6223 712.6246
   712.6246 712.6246 712.6292 712.6292 712.6292 712.8861 712.8919 712.8919
   712.8919 712.9072 712.9072 712.9072 712.9309 714.0585 714.0585 714.0633
   714.0633 714.0633 714.0721 714.0721 714.0721 714.0815 714.0815 714.0815
   714.0952 714.0952 714.0992 714.0992 714.0992 715.3816 715.3818 715.3818
   715.3818 715.3850 715.3850 715.3850 715.3913 727.3458 727.7921 727.7921
   728.9985 728.9985 728.9985 729.2712 729.2712 729.2712 729.4580 729.4580
   729.4580 730.2015 730.2015 730.2015 730.5341 730.5341 731.0414 731.0414
   731.0414 731.3413 731.5532 731.5532 731.5532 735.8060 735.9877 735.9877
   736.0688 736.0688 736.0688 736.0700 736.0700 736.0700 740.5687 740.5687
   740.5687 743.1440 743.3496 743.3496 743.3496 743.4759 744.1333 744.1333
   744.1378 744.1378 744.1378 744.5221 744.5221 744.5221 744.9623 744.9623
   744.9623 745.3596 745.8130 745.8130 745.8130 749.3503 749.3503 749.5025
   749.5025 749.5349 749.5349 749.5349 749.5789 749.6047 749.6047 749.6047
   749.7078 749.7078 749.7078 749.9169 749.9169 749.9169 750.0187 750.1524
   750.1524 750.1524 751.7263 751.7263 751.7338 751.7338 751.7338 751.7436
   751.7436 751.7436 751.7591 751.7591 751.7591 751.7796 752.3192 752.3192
   752.3192 752.8219 752.8524 752.8524 752.8524 752.8811 752.8811 752.8811
   753.0341 753.0341 753.0341 753.0864 753.0864 754.1945 754.1945 754.2123
   754.2123 754.2123 754.2515 754.2515 754.2515 754.2632 754.2632 754.2632

          k = 0.5000-0.5000 0.5000 (  4446 PWs)   bands (ev):

   -33.2785 -14.4241 -14.2762 -14.2762  -4.5340   2.9079   4.8352   4.8352
    11.1964  12.0041  12.1352  12.1352  14.0616  14.0616  14.8283  14.8283
    17.0998  19.4328  19.4328  21.6228  21.7555  24.9004  24.9004  27.1117
    29.3994  29.3994  30.6872  33.2518  33.2518  34.6443  34.6443  35.2217
    35.2217  35.2698  38.1808  38.5030  39.7543  40.5399  40.5399  41.8420
    43.6615  43.6615  46.1781  46.1781  46.9946  47.3979  50.2529  50.2529
    50.5449  50.9490  50.9490  54.4133  54.9340  56.4294  56.4294  56.9641
    57.8587  57.8587  61.0499  61.0499  62.5038  62.5038  64.1812  64.1812
    64.2786  64.2786  64.3123  65.7057  65.7699  66.5279  66.7504  67.1029
    67.1029  69.7952  70.8082  70.8082  73.3437  73.3437  74.3959  74.3959
    75.1323  75.3494  75.9001  75.9001  75.9626  75.9626  80.2662  80.2662
    80.6945  80.7492  80.7961  80.7961  81.8694  83.2474  86.4533  86.4533
    86.9968  87.9986  88.0832  88.0832  88.3985  93.0140  93.2434  93.2434
    93.5753  93.5753  93.8656  93.9768  94.0574  94.6169  94.6169  96.4750
    96.4750  96.6436  97.0042  97.0042  98.0978  98.0978  99.5967 100.0470
   100.6592 102.0872 102.7611 102.7611 104.0153 104.0153 104.2609 105.9118
   105.9118 106.7851 106.7851 107.3810 108.6248 108.6248 109.1971 110.7047
   110.8824 110.8824 110.8845 111.2644 111.2644 111.5317 111.5317 113.2614
   115.0534 115.3159 115.3159 116.7037 118.1163 118.1163 118.2122 119.1351
   119.1351 119.7569 119.7569 120.9642 121.0137 121.4124 121.4124 122.1119
   122.1119 123.0966 123.0966 126.1405 126.4192 126.4192 126.5464 129.0079
   129.0079 129.6380 130.1841 130.4172 130.4172 130.5489 131.2781 131.2781
   131.8820 131.8820 132.4201 133.9092 137.2342 137.6343 138.2638 138.2638
   138.7821 140.2969 140.2969 140.6570 140.8916 140.8916 141.7451 141.7451
   142.9586 143.4454 143.9707 143.9707 144.7493 145.1518 145.1518 145.6116
   145.6116 146.3159 146.3839 146.3839 146.5487 148.0123 148.0123 148.1702
   148.1702 148.4399 151.8612 152.3443 152.3443 153.7698 153.8397 153.8397
   154.3343 154.3343 154.7673 154.9181 156.6592 156.6592 156.8149 156.8149
   157.5555 157.5995 157.5995 157.9584 158.4410 158.6804 158.6804 159.0140
   159.0140 159.9260 159.9260 160.3296 162.8332 163.0576 163.0576 163.9983
   164.7221 164.9479 165.3890 165.3890 165.4292 165.4933 165.4933 167.9762
   167.9762 168.6937 171.9806 172.5180 172.5180 173.7972 173.7972 173.8276
   173.9284 173.9284 174.3883 174.9956 174.9956 175.1951 175.3213 175.6492
   175.6492 175.6927 176.1111 176.1111 176.1635 176.6806 176.6806 176.8404
   178.6783 178.6783 180.0972 180.0972 181.0860 181.2801 181.8764 181.8764
   183.0813 183.5441 183.5441 185.8204 189.6727 189.6727 190.7689 191.4806
   191.4806 191.8261 191.8261 192.4921 192.4921 192.5626 192.5626 192.9849
   193.1459 193.1602 193.2159 193.2159 193.2433 193.2803 194.0066 195.3230
   195.3230 195.4923 196.8609 196.8609 198.1081 198.1324 199.9010 199.9010
   200.0563 200.0563 200.4140 200.4140 200.7874 200.9054 200.9362 201.0363
   201.0363 201.1056 201.1056 201.2935 201.2935 201.3621 202.2357 203.3679
   204.7893 204.7893 204.8371 204.8371 206.2345 206.2356 208.3502 208.3502
   210.0675 210.0675 210.8335 210.8335 211.8331 212.2250 212.4797 212.4797
   212.8332 212.8332 212.9256 213.6352 213.6352 214.4765 214.4765 214.5564
   214.8831 214.8831 215.1563 215.1563 216.0744 217.8278 217.9062 217.9062
   218.3036 218.3036 218.3588 219.4835 219.9327 219.9327 220.0482 220.3855
   221.6970 221.6970 221.7320 222.7221 222.7221 222.9494 223.0510 223.0510
   223.7716 224.2581 224.2581 225.7750 227.2738 227.2738 228.4776 228.7210
   228.7210 229.5211 229.8638 229.8638 230.4094 230.4094 230.5657 230.7415
   232.6367 232.6367 234.6746 235.3130 235.6528 235.6528 235.9901 236.0217
   236.0217 236.8852 237.0502 237.0502 237.5407 237.5407 238.3486 239.0099
   239.0099 239.1219 239.7905 239.7905 239.8709 239.8709 239.9682 239.9776
   240.5875 242.4014 242.4014 242.5151 242.5226 244.5719 244.5719 244.6672
   244.6672 244.8388 245.0059 245.3465 245.3465 245.8918 246.3027 246.9324
   246.9324 247.7053 247.7053 249.2023 249.2023 249.5399 249.5399 250.4593
   252.2529 252.2529 252.5922 253.2029 253.2029 253.9653 255.0590 255.0590
   255.6560 256.1256 256.1256 256.2360 258.4944 258.4944 258.6643 258.8266
   258.8266 259.2813 259.3822 259.3822 260.3240 260.3240 260.3410 260.3410
   260.3552 260.4388 260.5553 261.0447 261.5483 261.5483 263.9386 263.9386
   264.4459 264.4459 265.5180 265.5180 265.6077 265.6980 265.8211 267.3486
   268.6149 268.6149 268.8265 268.8733 268.8733 271.4176 272.4137 273.0097
   273.0097 273.0595 273.0595 273.2061 274.2721 274.2721 274.4247 274.4247
   274.9215 275.1937 276.2697 276.4943 276.6671 276.6671 276.7212 276.7212
   277.1959 277.2292 277.2292 277.3183 277.3183 277.4871 277.4871 277.6202
   278.0636 278.1503 278.1503 278.7841 278.7841 279.0790 280.9885 281.0221
   282.9046 283.7553 283.8500 283.8500 284.0437 284.0437 284.1743 284.1743
   284.5504 284.7129 284.7129 285.0229 285.1771 285.1991 285.6373 285.6373
   285.8145 285.8145 286.4071 286.4071 286.5213 286.5213 286.7693 286.7830
   292.4465 292.4465 292.6304 292.9637 292.9637 293.0343 293.7239 293.7239
   294.3677 294.3677 294.5377 294.6188 294.6656 294.6656 295.0968 295.0968
   295.1908 295.3101 296.1828 296.1828 296.9585 296.9585 297.0478 297.0559
   298.7002 298.7002 299.7444 300.8979 300.9534 300.9534 300.9735 301.3829
   301.4921 301.4921 301.9129 301.9129 303.1928 303.5179 305.1616 305.2217
   305.2217 305.6052 305.6052 306.0310 306.0310 307.2832 307.2832 308.5666
   309.0895 309.4128 309.4128 309.7337 309.7570 309.7570 309.7787 310.3442
   310.3442 310.5145 310.5726 310.5726 310.8167 310.8167 314.4342 314.4342
   314.8770 314.8770 315.2546 315.2546 315.3407 316.1427 316.1537 316.1537
   316.6013 316.6031 317.3595 317.3595 317.4144 317.9198 319.0529 319.1678
   320.2126 320.5103 320.5103 320.7157 320.7157 321.9999 321.9999 322.3750
   322.3750 323.8426 324.0697 324.0697 324.6150 324.8436 324.8436 324.8531
   324.8531 325.0339 325.0353 325.5540 326.2483 326.5164 326.5164 326.9182
   332.8711 332.8711 332.9226 332.9226 334.1230 334.1230 334.1763 334.1763
   334.4399 335.6529 335.6529 335.8774 337.0037 337.1576 337.1576 337.4308
   337.4308 337.5787 337.5787 337.7231 338.1257 338.2068 338.8101 338.8101
   338.9008 338.9008 338.9439 339.3288 339.8609 339.8609 340.1385 340.1416
   340.1416 340.2300 340.7758 340.7791 340.7791 340.9566 340.9566 341.0502
   341.1005 341.2449 341.2449 341.2885 341.3319 341.3319 341.8414 341.8414
   341.8813 341.8813 342.0416 342.2621 344.4131 344.4131 344.8678 345.4581
   345.4984 345.4984 345.9245 346.4348 346.4348 346.5071 346.5071 347.1131
   349.4222 349.9841 350.1431 350.1431 350.6768 350.6768 351.4847 351.4847
   351.9284 352.0031 352.1405 352.1405 356.0362 356.0362 356.4340 356.4340
   356.7086 357.3959 357.6460 357.6504 357.8442 357.8442 357.9723 357.9723
   358.2907 358.2907 358.4113 358.4113 358.4586 358.6864 358.7421 358.7421
   359.6146 359.6975 359.8221 359.8221 359.8950 359.8950 360.0463 360.0561
   360.0561 360.2678 362.4501 362.7901 363.8964 363.8964 364.4729 364.7814
   364.7814 365.2199 366.2428 366.2990 366.2990 366.7616 366.7616 368.0167
   368.0167 368.2034 368.2034 368.4240 368.4481 368.5492 368.5492 368.9703
   368.9703 369.0562 369.1030 369.2685 372.9725 372.9725 373.2808 373.2808
   373.3736 373.4416 376.2560 376.2560 376.2606 376.2606 377.9702 377.9702
   378.5660 378.7994 379.0092 379.3812 379.3812 379.4688 379.6298 379.6428
   379.6428 379.6839 379.6839 379.7331 379.8088 379.8088 379.8592 379.8592
   381.1595 381.1595 382.7377 383.0213 383.0213 383.1245 383.1245 383.3436
   383.6100 383.6100 383.6227 383.9980 383.9980 384.2522 384.8863 385.0817
   385.5791 385.5791 386.2105 386.2105 386.4347 386.5827 386.5827 386.8320
   387.8212 387.8212 388.0646 388.0955 388.0955 388.1087 391.8824 391.8824
   394.1030 394.1030 394.7378 394.8516 394.8622 394.8622 395.0324 395.0324
   395.5211 395.5315 395.7394 395.7394 395.9321 396.0371 396.0487 396.0487
   397.2120 397.2120 398.2760 398.2760 398.8602 398.8921 398.9369 398.9482
   398.9482 398.9718 398.9718 398.9899 401.3546 401.7451 402.5465 402.5465
   402.6312 402.6312 403.7480 404.0867 404.0867 404.0995 404.1028 404.1028
   404.1111 404.1390 404.5416 404.5416 404.5448 404.5448 407.7396 407.7396
   407.7502 407.7502 407.8988 407.9001 409.2321 409.2321 410.3197 410.3653
   410.7024 410.7024 411.5388 411.6091 411.6724 411.6724 412.2933 412.4333
   412.6026 412.6026 412.7551 413.0346 413.0346 413.1828 413.1828 413.5081
   417.5313 417.5561 417.5561 417.5984 417.5984 417.8150 418.6288 418.6288
   418.8128 418.8128 419.0113 419.2716 419.2716 419.5409 419.8314 419.8314
   419.9249 419.9263 420.3276 420.3276 421.1983 421.1983 421.2089 421.4003
   421.5291 421.5312 421.5312 421.5475 421.5475 421.5905 422.7168 422.8543
   422.9738 422.9738 422.9860 422.9860 425.1081 425.1081 425.1126 425.1844
   425.1844 425.2642 425.6620 425.6620 425.6987 425.6987 425.7773 425.7787
   430.9288 432.2267 432.2267 432.4064 432.4064 432.6021 433.2266 433.2266
   433.3191 433.3191 433.3921 433.4874 433.8790 433.8790 433.9392 433.9451
   433.9451 433.9827 434.4688 434.6203 434.6203 434.6405 434.6405 435.1693
   437.5605 438.1534 438.1534 438.2746 438.2746 439.1133 439.6847 440.5217
   440.5217 440.6165 440.6165 440.8028 440.8309 440.8649 441.0304 441.0304
   441.5148 441.5148 441.6017 441.6324 441.6324 441.7307 441.7307 441.7719
   441.8105 441.9405 443.2579 443.5005 443.5005 444.3367 444.3367 444.3570
   445.4501 445.7405 445.7405 446.3718 446.3718 446.5997 446.5997 447.0030
   447.0030 447.1544 447.8140 448.1532 448.3637 448.3637 448.8787 448.8787
   451.3709 451.3709 451.3868 451.3868 451.5095 451.5718 451.9172 451.9172
   452.0622 452.0720 452.0720 452.1831 453.2102 453.2102 453.2126 453.2126
   453.3490 453.3490 453.3788 453.3788 453.5088 453.5091 455.1168 455.1170
   459.6423 459.6423 459.6942 459.7957 459.8857 459.8857 460.2733 460.6150
   460.6150 460.9013 460.9013 461.1923 463.3362 463.3362 463.5227 463.8453
   463.8453 464.2412 464.5813 464.5813 464.6719 464.8698 464.8698 465.1213
   465.3562 465.3562 465.7740 465.8326 465.8326 465.9622 465.9622 465.9841
   466.2111 466.4286 466.4286 466.7593 466.9079 466.9079 466.9853 467.1865
   467.1865 467.2692 468.9928 469.0993 469.0993 469.3339 469.3339 469.3663
   470.6266 470.6439 475.9311 475.9311 476.1273 476.1273 476.3007 476.3127
   477.1333 477.1351 477.1351 477.1743 477.1743 477.3439 477.7341 477.7341
   477.7836 477.7836 477.8093 477.8634 478.2880 478.2880 478.3354 478.3354
   478.3395 478.4422 478.7299 478.7299 478.7549 478.7628 478.7628 478.8948
   479.8474 479.8917 479.8917 480.0482 480.0482 480.0771 480.1571 480.1974
   480.1974 480.2446 480.2446 480.2948 480.5333 480.5333 480.5561 480.5561
   482.0799 482.0799 482.0807 482.0807 482.1428 482.1455 483.3576 483.3576
   483.7214 483.7214 483.9434 484.1349 487.8739 487.8739 488.7677 488.7677
   488.9141 489.0052 489.7119 489.8279 489.8279 489.9549 489.9549 490.8519
   495.4654 495.4654 495.7829 495.9298 495.9298 496.0763 496.5031 496.5031
   496.6614 496.8164 496.9560 496.9560 497.3075 497.3075 497.4380 497.5235
   497.5271 497.5271 497.5575 497.5575 497.6801 497.6801 497.6941 497.7583
   501.0075 501.6887 501.6887 501.8402 501.8402 502.1486 502.2607 502.7006
   502.7006 502.7740 502.7740 503.1218 504.0548 504.7707 505.1088 505.1088
   505.5458 505.5458 505.8396 506.0945 506.1697 506.1697 506.1916 506.1916
   506.2659 506.2659 506.3067 507.1524 507.1524 508.9908 512.1550 512.8319
   512.9912 512.9912 513.1680 513.1680 513.4232 513.6564 513.6564 513.7303
   514.0582 514.0582 514.7119 514.7119 514.9098 514.9098 515.0451 515.0644
   515.9406 515.9406 516.0744 516.0744 516.3768 516.5704 517.1493 517.1493
   517.1667 517.1667 517.1989 517.2055 517.2654 517.2654 517.2688 517.2688
   517.2695 517.3237 519.8185 519.9230 519.9922 519.9922 520.8908 520.8908
   521.4537 521.4876 522.3310 522.3310 522.5072 522.5072 522.6938 522.8896
   522.8896 522.9319 523.0797 523.0797 524.7137 524.7137 524.7900 524.7950
   524.9244 524.9244 525.9804 525.9804 525.9841 525.9841 526.0544 526.0815
   526.6065 526.6400 526.6910 526.6910 526.7067 526.7067 527.1317 527.1720
   527.1720 527.2425 527.2425 527.2830 528.0140 528.0962 528.6086 528.6086
   528.6966 528.7567 528.7567 529.3914 530.4377 530.4408 530.5111 530.5111
   530.7741 530.7741 532.7361 532.7361 532.8654 532.8654 533.2891 533.3234
   533.3252 533.3924 533.8226 533.8226 533.8297 533.8297 536.1485 536.1485
   536.1547 536.1547 536.3291 536.3882 536.3882 536.5027 536.5027 536.5439
   537.1218 537.1218 537.1238 537.1238 537.1969 537.1987 539.9329 539.9329
   539.9622 540.1414 540.5342 540.5342 541.5188 541.5188 541.6046 541.6046
   541.6421 542.3114 543.5637 543.5637 543.9467 543.9786 543.9834 543.9834
   544.0546 544.2934 544.4745 544.4745 544.5310 544.5310 545.0870 545.0870
   545.1026 545.1427 545.1427 545.1895 547.3619 547.9802 547.9802 548.1011
   548.1011 548.6255 548.6255 548.6358 548.6358 548.6359 548.6414 549.2900
   550.1101 550.3723 550.4739 550.4739 550.6772 550.6772 554.7236 554.7236
   554.7335 554.7335 554.9722 554.9973 554.9978 555.5346 555.5346 556.4541
   556.9143 556.9361 556.9361 556.9634 556.9634 558.1631 558.5567 558.5567
   559.2870 559.5635 559.8171 559.8171 560.4410 560.4410 560.5954 560.5954
   560.6508 560.6508 560.8003 560.8011 561.0416 561.2867 561.2867 561.3211
   561.3211 561.4834 561.5075 561.5075 561.5871 561.5871 561.5900 561.6573
   561.6573 561.6618 561.6618 561.6850 561.6876 562.0137 562.6722 562.8041
   562.8041 562.8232 562.8232 562.8580 563.2594 563.2594 563.2866 563.2866
   563.3806 563.3814 569.9313 570.0593 570.0593 570.0736 570.1025 570.3329
   570.3329 570.4638 570.9968 570.9968 571.0118 571.0118 574.3352 574.3805
   574.3805 574.4907 574.4907 574.5211 575.6326 575.7905 575.7905 576.6722
   576.6722 576.7908 577.5820 577.9061 577.9061 577.9967 578.1000 578.3796
   580.0879 580.0879 580.1153 580.1153 580.1269 580.1269 580.2881 580.3838
   580.4406 580.4406 580.4632 580.5489 581.6657 581.6657 582.3725 582.3725
   582.4071 582.4607 582.5178 582.5178 583.3070 583.9076 583.9076 584.3983
   584.3983 584.8636 585.2808 585.2808 585.3989 585.5216 585.5216 585.6052
   586.7958 586.7958 587.2854 588.3948 588.3948 588.6251 588.7168 588.8897
   588.8897 588.9651 589.1781 589.1781 591.4453 591.4453 591.4618 591.4618
   591.4741 591.5248 591.7778 591.7778 591.7826 593.1669 593.1669 593.6617
   594.8764 594.8764 595.0880 595.0880 595.1736 595.4592 595.4592 595.4757
   595.4805 595.8960 595.8977 595.8977 597.0470 597.1512 597.1512 597.1829
   597.8279 597.8279 599.0055 599.1116 599.1116 599.3545 599.4974 599.4974
   599.6852 599.7634 599.7634 599.7710 599.7710 599.8333 602.1453 603.7691
   603.8580 603.8580 604.0821 604.1350 604.2201 604.2201 604.3628 604.3628
   604.7915 604.7915 604.8325 604.8325 604.9755 604.9815 605.0569 605.0569
   607.2368 607.2585 607.2585 607.3030 607.3030 607.3581 607.3758 607.3758
   607.4664 607.7015 608.0359 608.0359 609.3694 609.4017 609.4451 609.4457
   609.4457 609.4682 609.4682 609.4735 609.5134 609.5134 609.5952 609.5952
   610.0080 610.2381 610.2381 610.2444 610.2444 610.4195 610.4198 610.9502
   613.5285 613.5285 613.6050 613.6050 614.9488 614.9913 614.9913 615.0238
   615.0238 615.3402 615.9490 615.9837 615.9837 616.1207 616.1788 616.1788
   616.2046 616.2542 616.3535 616.3535 616.6687 616.6687 616.7878 616.8901
   616.8901 616.9544 616.9767 616.9767 617.0074 617.0074 617.0620 617.0880
   617.1989 617.1989 618.5121 618.5700 618.5700 618.5833 618.8154 618.8221
   618.8221 618.8278 618.8278 618.8699 618.8699 618.8754 619.3161 619.3161
   619.3164 619.3164 621.3834 621.3835 623.8431 624.0801 624.0801 624.1527
   624.1527 624.5150 627.9178 627.9178 627.9437 627.9774 628.1946 628.1946
   629.0102 629.0102 629.0187 629.0187 629.1510 629.1512 629.4994 629.4994
   629.5891 629.9579 630.6092 630.6092 634.1613 634.1613 634.2935 634.5664
   634.7050 634.7050 634.8037 635.0126 635.0126 635.0464 635.8400 635.8400
   636.0939 636.0939 636.1009 636.1297 636.1297 636.1572 638.5353 638.6729
   638.6729 639.5914 639.9034 639.9034 640.1952 640.3198 640.3198 640.7545
   640.8265 640.9772 640.9772 641.2188 641.2188 641.4215 642.2644 642.2644
   643.0153 643.3622 643.3622 643.4702 643.4702 643.5408 643.7124 643.9302
   643.9302 644.1764 644.3118 644.3118 644.7119 644.7119 644.7296 644.7296
   644.7382 644.8100 644.8355 644.8355 644.8813 644.9284 644.9284 644.9701
   645.0911 645.9123 645.9302 645.9302 645.9747 646.1454 646.1454 646.4711
   646.4711 646.4715 646.4839 646.5109 646.5109 647.2493 650.7395 650.7395
   651.0425 652.2014 652.2014 652.7669 652.7669 652.8464 652.8563 653.1823
   653.1823 653.2103 654.5986 654.5986 654.8013 654.8013 655.0412 655.4871
   655.4871 655.5001 655.5069 655.8445 655.8505 655.8505 655.8514 655.8514
   655.8713 655.9730 655.9730 656.5557 656.5557 656.7934 656.7934 658.3758
   658.3758 658.6374 658.6374 658.7299 659.1896 660.0837 660.3820 660.3820
   660.4072 660.5227 660.5260 660.6188 660.6188 660.6936 660.6936 660.9272
   660.9272 660.9942 663.0266 663.0492 663.0492 663.1123 663.2275 663.3609
   663.3609 663.4206 663.4206 663.4259 663.5009 663.5009 663.5195 663.5195
   663.5420 663.5778 663.6442 663.6442 663.8788 663.9238 663.9238 664.5336
   664.5336 665.3553 665.3652 665.3652 665.3662 665.3662 665.3771 665.3844
   671.6122 671.6122 671.6196 671.6196 671.7362 671.9756 672.3847 672.4022
   672.4022 672.4109 672.5396 672.5396 672.5639 672.5639 672.5639 672.8583
   672.8787 672.8829 672.9780 672.9780 672.9805 672.9805 673.1697 673.1697
   673.6523 673.6851 673.6851 673.7448 673.7968 673.7968 676.1865 676.1865
   676.1871 676.1871 676.2302 676.2305 679.9837 680.5314 680.6328 680.6328
   680.6499 680.9425 680.9425 681.0294 681.0294 681.1850 681.5473 681.5473
   681.5633 681.6068 681.6068 681.7157 681.8055 681.8055 684.8037 684.8037
   684.8466 684.8466 685.1026 685.1027 685.8882 687.7110 687.7110 687.7493
   688.3186 688.3186 688.9448 689.1371 689.1371 689.5643 689.5643 689.7875
   689.7875 689.9679 689.9730 690.8141 690.8141 690.8152 690.8152 690.8259
   690.8604 690.8635 690.8635 690.9928 690.9928 690.9998 690.9998 691.6093
   691.6279 691.6617 692.7812 692.8328 692.8745 692.8745 695.1677 695.1677
   695.9097 695.9097 695.9279 696.2845 696.2845 696.3585 696.3585 696.4217
   696.4351 696.5379 696.6433 696.6433 696.7818 696.7818 696.9439 697.2506
   697.3083 697.3752 697.3752 697.3888 697.3888 698.1258 698.2523 698.2523
   698.2593 698.2813 698.2813 698.2856 698.3598 698.3598 698.3945 698.3945
   698.4187 698.7015 698.7635 698.7635 702.5865 702.6233 702.6233 702.6902
   702.6902 702.7075 702.7355 702.7355 702.7471 702.7515 702.7515 702.7606
   702.7691 702.7691 702.7767 702.7901 702.7901 702.8109 703.8875 703.9586
   703.9586 705.1034 705.1034 705.7682 706.6972 706.6974 706.6974 706.9989
   708.5330 708.5330 710.0398 710.2907 710.3417 710.3417 710.4595 710.5693
   710.5693 710.7267 710.7472 710.8514 710.8514 710.8945 710.8945 711.1905
   711.2036 711.2036 711.2153 711.2616 711.2616 711.2743 711.2821 711.2821
   711.3058 711.3573 711.3573 712.9070 717.6658 717.6658 717.7244 717.7244
   717.8564 718.3498 718.5285 718.5339 718.5339 718.7445 718.7445 719.2921
   720.7177 720.7177 720.7215 720.7215 722.9752 723.5080 723.5080 723.7550
   724.1786 724.4897 724.4897 724.6469 724.6469 724.6998 725.0202 725.0202
   725.1148 725.1148 725.1791 725.8190 725.8190 726.2125 726.6247 726.6477
   726.6477 726.6619 726.6619 726.6703 727.0708 727.3550 727.3550 727.4389
   727.5996 727.5996 728.0079 728.0079 728.1154 728.1777 728.1777 728.2769
   728.2769 728.2910 728.2910 728.4231 728.4432 728.8183 728.9244 729.0934
   729.0934 729.7428 729.7517 729.7517 730.3084 730.3084 730.3152 730.3152
   730.3772 730.3787 730.6415 730.6437 730.6437 730.7184 730.7184 730.7265
   733.8564 733.9180 733.9180 733.9319 735.3273 735.3273 735.5899 735.5899
   735.7169 736.3349 736.9358 736.9358 737.2650 737.5169 737.5169 737.6285
   737.9088 737.9088 738.6815 738.6815 738.7986 739.1292 739.4420 739.4420
   740.0518 740.0518 740.0732 741.2894 741.2894 741.7677 741.7677 742.0876
   742.1655 742.2170 742.6794 742.6794 742.6836 742.6836 742.6957 742.7034
   743.1586 743.1955 743.1955 743.3908 743.3908 743.7323 743.7323 744.2053
   744.8409 744.8409 745.0890 745.3451 745.5157 745.5176 745.5176 745.7785
   745.7785 745.7992 746.2022 746.2022 746.2335 746.2335 746.2494 746.2590
   746.3875 746.3875 753.9480 753.9683 754.2271 754.2271 754.2741 754.4347
   754.4347 754.4435 754.4435 754.5295 754.5589 755.1198 755.1198 755.1807

          k = 0.0000-1.0000 0.0000 (  4432 PWs)   bands (ev):

   -33.2751 -14.3818 -14.3105 -14.3105  -4.7107   3.7097   5.1747   5.1747
     8.3564  11.5619  11.9895  12.7064  12.7156  12.7156  16.2979  17.7440
    19.8617  19.8617  20.3656  20.3656  23.0431  23.7645  25.2707  27.5772
    29.1538  29.4241  29.4241  29.5144  30.6284  32.8421  32.8421  34.5904
    34.5904  35.0073  38.8893  40.4781  40.5695  41.8598  41.8598  42.8839
    44.5825  44.5825  45.8802  46.5696  47.7885  48.7167  48.7167  50.0089
    50.0089  52.3655  53.9831  55.4971  55.6076  55.6076  56.2623  56.3793
    57.5964  59.9001  60.0218  61.1234  61.3839  62.9433  62.9433  63.9826
    63.9826  64.1896  64.1896  64.4432  65.4901  65.5213  66.3931  66.3931
    67.2325  71.7273  72.6567  73.2331  73.2331  73.5153  74.8995  74.8995
    76.2417  76.5452  76.5452  76.9268  77.1130  77.1130  77.6255  78.0966
    78.5434  78.5434  78.5663  80.9230  82.3966  83.9352  83.9352  84.4346
    84.5223  85.0064  85.0064  89.4370  90.2012  90.6851  90.6851  90.8294
    91.9096  91.9096  92.8091  94.6048  95.0632  95.4497  95.9586  96.4619
    96.5710  96.5710  96.6964  96.6964  97.2984  98.9251  99.3524  99.6524
    99.6524 101.1459 102.5834 102.5834 102.9138 103.6997 103.8064 103.8064
   107.3846 107.5426 107.6354 108.1898 108.1898 109.7706 109.7706 110.5703
   111.7449 111.9235 112.1276 115.6002 116.8104 117.5071 117.5690 117.5690
   117.6988 118.0194 118.0194 119.4693 119.4693 119.4762 119.6173 119.6173
   120.8351 120.9055 122.2023 122.7012 124.4009 124.4009 124.4496 124.7074
   124.7074 124.8394 127.2220 127.6184 127.6184 127.6554 127.6801 128.0890
   128.0890 128.1158 128.5547 128.8379 130.7087 130.7363 130.7363 131.1774
   131.1878 131.2245 131.2245 131.9135 131.9135 132.3555 132.4579 132.7156
   136.2742 136.5473 136.5473 136.8338 136.8549 136.8549 137.1052 137.2768
   137.7102 139.2823 141.2366 141.2366 141.6540 141.7392 141.7392 143.8334
   145.8536 145.8536 146.6950 146.6950 147.3617 147.5004 147.5891 147.9171
   148.1656 148.1656 150.1214 150.6340 150.6340 150.9840 151.0031 151.0031
   151.0642 151.1438 151.4974 152.0980 152.9381 152.9576 153.0275 153.0275
   154.4330 155.1182 155.1182 157.1352 158.7106 158.7106 162.7959 164.2346
   164.5732 164.5753 164.5753 167.5443 167.7307 167.7602 167.8676 168.3374
   169.3657 169.3657 169.4226 169.4226 170.2949 170.2949 170.9754 170.9754
   171.7118 172.1731 172.1731 172.3060 172.3060 172.4519 172.7301 174.0136
   174.7307 175.0440 176.7897 176.7897 176.9986 177.0081 177.4594 177.4594
   177.9218 178.0896 178.2858 179.0913 179.0913 179.2129 180.7115 180.7115
   181.1401 181.5779 182.0543 182.1889 182.3596 182.3596 183.1616 183.1616
   183.2665 183.8541 184.4681 184.4681 184.7685 186.8585 187.8958 187.8958
   187.8979 188.3571 188.4289 188.8135 188.8135 188.9685 189.5049 190.5025
   192.3059 192.3059 192.4699 192.7358 192.7358 192.9820 193.0376 194.6861
   194.9944 195.6637 195.6637 197.5728 198.3684 198.3684 198.3860 198.3903
   198.5478 198.9805 198.9805 199.1907 199.6768 199.8772 200.5172 200.5172
   201.4086 201.4086 201.5379 201.5379 201.6006 202.0586 204.8327 204.9012
   204.9410 204.9656 205.4136 205.4136 205.4431 205.4431 205.6363 205.8464
   205.8811 208.0988 208.0988 208.7950 209.4885 209.6638 209.8428 211.5122
   211.5122 211.9045 211.9045 211.9448 213.3491 213.3620 214.9725 214.9725
   216.2535 216.2535 217.6700 218.4960 218.8344 219.1603 219.1603 219.4627
   220.0550 220.0550 221.0290 221.2618 221.2919 221.2919 221.3366 221.3366
   221.5834 221.7678 221.8190 222.5016 223.6106 223.6106 223.7771 225.0955
   225.9597 227.1022 227.1301 227.2007 227.2085 227.2085 227.2967 227.2967
   227.3841 227.7840 228.3122 228.3122 228.6342 228.8699 228.9905 228.9905
   232.6714 232.6714 233.1880 233.5941 235.6026 235.6265 235.6265 236.1718
   236.1718 237.0677 237.4223 237.5102 237.5102 237.5591 237.8867 238.0338
   239.4659 239.4659 240.7857 241.1761 241.1761 242.0038 242.0346 242.3101
   242.5444 242.5444 242.7446 242.7633 242.8311 243.6150 243.6150 243.9562
   244.0888 244.0888 244.1171 244.1288 244.1288 244.1395 244.2767 244.6975
   245.0780 245.0780 245.0829 245.0995 247.6824 247.9192 247.9192 248.0268
   248.4860 248.4860 248.5141 248.5233 248.5233 248.5431 251.7948 252.0470
   252.7349 252.7349 253.7367 254.6030 254.6923 257.2647 258.3955 258.4176
   258.5211 258.8840 258.8840 258.9851 259.1713 259.2067 259.4863 259.4863
   259.5348 259.5348 260.3841 260.3841 260.5574 261.4847 262.6655 262.6655
   264.6151 265.4860 265.4860 266.2642 266.2642 267.7028 268.8209 269.3152
   271.0606 271.4551 272.1129 272.1129 272.8130 273.0467 273.5051 273.5051
   274.0400 274.0555 274.0555 274.4495 275.6167 276.5462 276.5462 276.6555
   277.1454 277.7595 278.1859 278.3642 278.4926 278.4926 278.5069 278.6609
   278.9765 278.9765 279.4659 279.7594 279.7594 280.0179 280.2074 280.5490
   280.6658 280.6658 280.8272 280.8839 280.8839 281.0236 281.6263 281.8246
   282.0604 282.0604 284.6946 284.7256 284.8559 284.8559 284.9947 284.9947
   285.2872 285.3194 288.3355 288.3355 288.4939 289.1987 290.1081 290.1081
   291.5775 291.7048 291.8385 291.8385 292.2482 292.7510 293.2338 293.6346
   293.6731 293.6731 294.1637 294.2072 294.4080 294.4080 294.5481 294.5481
   294.6984 294.9571 294.9796 295.5132 295.5132 296.1009 296.3127 296.3172
   296.3274 296.4122 296.4122 296.9368 296.9368 297.1953 297.1953 297.5258
   297.9441 297.9694 297.9694 297.9918 298.0025 298.2698 299.5191 299.5191
   299.6200 299.6200 302.1961 303.8093 303.8260 303.8260 303.8913 303.8924
   303.9227 303.9227 303.9764 305.8189 305.8189 306.3768 306.3771 306.8275
   306.9355 307.4177 308.2188 308.2188 309.9350 309.9350 310.0592 310.4053
   310.5128 310.6282 310.6282 310.6338 312.2920 312.2920 313.0721 313.5466
   313.9677 314.4627 314.4627 314.9125 316.0959 316.0959 316.2135 316.2419
   316.3543 316.3543 316.3863 316.3900 316.5457 316.5457 316.7268 316.7505
   317.7030 317.7030 317.7152 317.7344 318.9477 319.2374 319.7389 319.7389
   319.7838 319.8548 319.8596 319.8596 319.9240 319.9240 320.0798 320.0896
   320.6812 322.7589 325.5802 327.0581 327.1489 327.1489 327.3784 327.7258
   327.7258 328.5391 328.5391 328.6299 328.8162 328.8162 329.1518 329.4183
   329.5872 329.5872 329.9676 333.8346 333.9235 334.1365 334.1365 334.2613
   334.3839 334.8668 334.8668 335.0983 335.0983 335.3014 336.0657 336.0658
   336.1259 336.1298 336.1322 336.1322 336.2312 336.2933 336.2933 336.3998
   337.9165 337.9242 337.9242 337.9360 338.5747 338.5791 340.1268 340.6019
   340.6019 341.4011 341.4011 341.4299 341.4299 342.7740 342.7744 343.0782
   343.0833 343.0833 343.6733 344.0498 346.5552 346.7217 347.8287 347.8287
   348.3070 348.8051 349.3154 349.3154 349.3853 349.4160 349.9329 350.1256
   350.1256 350.4210 350.9284 351.1462 351.1462 351.3143 352.1992 352.1992
   352.2377 352.6630 352.7818 353.0673 353.0673 353.2057 353.2177 353.2452
   353.2626 353.2626 353.2844 353.4326 353.4326 353.5538 353.6528 355.9357
   355.9357 356.6197 357.5617 357.5715 357.5715 357.6037 357.7368 358.2138
   358.2138 358.3041 359.8408 361.5175 361.8481 361.8481 362.2002 363.0372
   363.3518 363.3518 365.6962 365.6962 366.5366 366.5366 366.8320 366.9570
   367.8141 367.8795 367.8795 367.9600 368.2006 368.2862 368.8067 368.8067
   369.5264 369.5680 369.6137 369.6137 370.7928 371.3914 371.8891 371.8891
   372.5929 372.8998 373.1192 373.2093 373.2093 373.2561 373.7654 373.7889
   373.7889 373.8237 375.5376 376.0259 376.0259 376.0974 376.6724 376.9315
   376.9315 377.6606 378.0756 378.1197 378.1197 378.1419 378.3943 378.3943
   381.6264 381.7085 381.7166 383.6724 383.6724 384.2690 384.3770 384.7180
   384.7659 384.7659 384.9826 384.9826 386.1270 386.2117 386.2357 386.2357
   386.3615 387.2716 387.7108 387.9388 387.9388 388.0530 388.9789 388.9789
   389.2237 389.2237 390.1402 390.1468 390.8004 390.8013 394.5052 394.9037
   394.9037 394.9863 395.6960 395.7602 395.7602 395.8209 396.1571 396.1987
   396.1987 396.2692 396.4803 396.4803 396.4844 396.4987 397.9749 398.5725
   398.5725 399.5871 400.1773 400.1773 400.2656 400.5057 400.5636 401.2245
   402.6650 402.6756 402.6756 402.8516 403.1137 403.1137 403.2197 403.2463
   403.2463 403.7572 403.7572 404.2595 404.2964 404.4466 404.6704 404.6947
   404.8582 405.1634 405.3156 405.3156 405.4340 405.4534 405.4534 405.6201
   405.6388 405.7878 405.7878 405.9834 405.9834 406.0277 406.1177 406.1872
   406.4365 406.4708 406.4708 406.6214 406.7129 406.7323 406.7323 406.7659
   406.8381 406.8381 407.0489 407.0631 407.0631 407.3030 407.3548 407.3981
   407.5410 407.5410 407.5710 407.6125 407.6125 407.7140 407.9267 407.9702
   407.9702 408.1992 408.7963 408.9288 408.9288 408.9846 411.9998 412.0219
   412.0219 412.1084 412.2089 412.2897 412.2897 412.2913 414.3271 414.3477
   414.5038 414.5038 414.5690 414.5690 414.7773 414.7950 423.8845 424.0010
   424.0010 424.0108 424.0984 424.3212 424.4053 424.5251 424.5870 424.5870
   424.6563 424.6563 424.6705 424.6705 424.7001 424.7179 425.8201 425.8201
   426.1137 426.6487 427.0670 427.2887 427.3792 427.4553 427.4553 427.5554
   427.9131 427.9131 427.9698 427.9698 428.2655 428.2678 428.3739 428.9829
   428.9829 429.1838 429.2077 429.2077 429.2704 429.2897 429.4409 429.4746
   429.4861 429.4861 429.5031 429.6959 429.6959 429.8504 433.6712 435.6999
   436.0090 436.9538 436.9538 437.0709 438.2533 438.2533 438.2886 438.7913
   438.7913 439.4453 439.4607 440.0027 440.1906 440.1906 440.2804 440.3388
   440.3622 440.3622 440.4972 440.6962 441.0856 441.0856 441.3889 441.4211
   441.7298 441.9925 442.0542 442.0542 443.8752 443.8752 444.1290 444.1385
   444.5026 444.5026 444.6063 444.8817 445.3710 445.3710 446.4784 446.6697
   446.7092 448.8808 448.8808 449.0935 449.8739 449.8739 449.8774 449.8837
   449.9176 449.9194 449.9194 449.9367 451.7150 451.7612 451.7716 451.7863
   451.7863 451.8023 451.8023 451.8405 454.6980 454.6980 455.4179 455.5058
   455.7740 455.9204 455.9204 456.7713 458.6589 458.8334 458.8334 458.8988
   460.6682 460.6708 460.8044 460.8044 460.8833 460.8833 461.0278 461.1425
   462.2161 462.2624 462.3534 462.3534 462.4730 462.4730 462.5681 462.5719
   463.3179 463.3179 463.3601 463.5921 463.7319 463.9384 463.9384 464.0522
   464.1989 464.5670 464.5793 464.5998 464.5998 464.6142 464.6142 464.7058
   464.7192 465.0891 465.0891 465.1632 465.2862 465.3173 465.5617 465.5617
   465.8636 465.8636 466.0047 466.0047 466.7493 466.7700 466.7700 466.7916
   471.9758 472.2171 472.2564 472.2564 472.7788 472.7806 473.3757 473.9120
   475.1105 475.1105 476.7917 476.7917 477.6036 477.7036 477.7508 477.9188
   478.0934 478.5246 478.5246 478.6155 478.8194 478.8194 478.9426 479.0408
   479.0408 479.1417 479.4276 479.4293 480.4090 480.7168 480.7168 480.7276
   481.1185 481.1185 481.8803 481.8803 482.5016 482.6485 483.2163 483.2163
   483.2345 483.6780 483.7419 483.7419 483.8398 483.9393 484.0078 484.0491
   484.1602 484.1732 484.1732 484.1890 484.2604 484.2882 484.2882 484.4085
   484.4085 484.4956 489.1573 492.4233 492.6760 492.6760 493.9041 493.9638
   494.2748 494.3015 494.4641 494.4641 494.8439 494.8439 494.9669 494.9669
   495.0348 495.2654 495.4630 495.5440 495.5440 495.7593 495.7593 495.9510
   496.3215 497.2107 497.2393 497.2393 497.4557 497.8284 497.8284 497.8752
   499.6027 499.6352 500.4719 500.5270 500.5270 500.5292 500.5953 500.6106
   500.6106 500.6310 503.0005 503.0460 503.0460 503.1243 503.1259 503.1267
   503.1267 503.1305 503.1515 503.2370 503.2826 503.3651 503.3651 503.5482
   503.6958 503.6958 504.3401 504.5512 504.6072 504.6072 504.7971 504.8017
   504.8851 504.8851 504.9686 505.0678 506.9304 507.1056 507.1056 507.7387
   507.7387 507.7421 507.7421 507.9790 508.0553 508.7974 508.7974 509.1346
   509.1368 510.3107 512.7283 512.7283 513.4451 513.8365 513.9586 513.9586
   514.0228 514.1525 514.8434 515.1693 515.3736 515.4891 515.4891 515.4947
   515.4947 515.7904 515.8293 515.9259 515.9510 516.0187 516.0187 516.2989
   516.5413 516.5643 516.5643 516.5912 516.8802 516.8802 517.2137 517.2137
   517.2871 517.2994 520.3079 520.3603 520.5721 520.5721 520.6793 520.6793
   520.7341 520.7535 520.9800 521.0424 521.0953 521.0953 521.1218 521.2449
   521.2449 521.4011 525.3503 525.3528 525.4120 525.4120 525.4240 525.4240
   525.4848 525.4876 527.7512 527.9149 528.2498 528.7610 528.7610 529.0503
   529.0579 529.0579 529.4303 530.2292 530.2292 530.5761 530.6698 531.1740
   531.1740 531.9475 532.5033 532.8127 532.8723 533.0565 533.0565 533.5211
   533.7276 533.7276 534.0559 534.0760 534.3689 534.3689 534.5672 534.5672
   534.6323 534.6485 536.1580 536.2539 536.4033 536.4033 536.4962 536.5878
   536.5878 536.6104 537.2255 538.7662 539.1932 539.1932 539.3136 539.3136
   539.4740 539.5034 539.5034 539.5507 539.5717 539.5780 539.5807 539.5807
   539.5855 539.5956 539.6774 540.0996 541.6844 542.0290 542.0290 542.5476
   543.5430 543.5825 543.7272 543.7272 543.8588 543.8647 543.8805 543.8805
   548.8215 548.9952 548.9952 549.1089 549.3751 550.8993 550.8993 551.1800
   554.0245 554.0403 554.0478 554.0478 554.0480 554.0879 554.0879 554.1573
   554.2356 554.2356 554.2579 554.2579 554.3379 554.3623 554.3954 554.7022
   555.0914 555.6587 555.6587 555.8733 556.2773 556.2773 556.2830 556.3463
   556.3780 556.5074 556.7127 556.7127 556.8448 556.9458 557.4390 557.4390
   557.6127 557.8502 557.8502 557.8827 557.9774 557.9774 558.1921 558.1932
   558.2293 558.2434 558.2722 558.2722 558.3394 558.3697 558.3697 558.4466
   560.8550 560.8644 560.8770 560.8770 564.9678 565.2305 565.2625 565.2625
   565.3645 565.7923 565.8591 565.8910 567.1122 567.2697 567.2697 567.5520
   567.5520 567.7236 567.7236 567.9461 567.9461 568.0510 568.7946 568.7988
   568.7988 568.9627 569.9084 570.2791 570.4788 570.6036 570.6165 570.6817
   570.6817 570.8601 570.8708 570.8708 570.8730 570.9071 570.9071 570.9993
   570.9993 571.1789 571.1789 571.4073 571.4598 571.7188 572.2413 572.3395
   572.5633 572.6104 572.6840 572.6840 572.8587 572.8587 573.0189 573.2583
   573.3058 573.3058 574.7714 574.7834 574.7898 574.7898 574.8021 574.8021
   574.8047 574.8078 575.5774 575.5806 576.7900 576.8184 576.8184 576.8927
   576.9691 576.9788 576.9830 576.9830 576.9918 576.9932 576.9932 577.0168
   577.0447 577.1250 577.1250 577.2275 578.6137 579.3121 579.9989 579.9989
   580.2220 580.8012 580.8275 580.8389 580.9609 580.9609 581.0266 581.0266
   581.1589 581.1624 581.1624 581.1627 581.2410 581.2434 581.3684 581.3684
   586.3010 586.6675 587.2151 587.2151 588.0519 588.0519 588.2047 588.2534
   588.3402 588.7817 588.7817 588.8948 589.0068 589.0132 589.0425 589.0425
   589.1058 589.3808 589.7642 589.7642 590.8231 590.8235 590.8766 591.1613
   591.1613 591.1752 591.1752 591.4747 591.8744 591.9415 591.9690 591.9840
   592.0187 592.0187 592.0678 592.0947 592.0947 592.1515 592.1515 592.1758
   592.3545 592.4114 592.4114 592.4764 592.5092 592.6383 592.6453 592.6453
   593.0707 593.3449 593.4347 593.4347 594.6150 594.6230 594.6230 594.6578
   596.1502 596.1875 596.1875 596.2260 603.9823 604.2510 604.2510 604.6936
   604.7678 605.1644 605.1644 606.7660 608.5549 608.5549 608.7770 608.9574
   609.1123 609.2281 609.8452 610.1703 610.1703 610.2362 610.2362 610.6078
   610.6613 610.7590 610.7590 611.3067 611.3086 611.3245 611.4769 611.4769
   611.5382 611.5382 611.5776 611.5855 612.0804 612.5054 612.5125 612.5637
   612.5637 612.6116 612.6724 612.8655 612.8655 612.9191 613.0042 613.0042
   613.3667 613.4483 613.5721 613.6486 613.6615 613.6615 613.7390 613.7390
   613.7797 614.4681 614.5737 614.5737 615.9739 615.9807 616.0452 616.0452
   616.0854 616.0854 616.1263 616.1267 616.2673 616.3068 616.3068 616.3458
   616.5654 616.5866 616.5866 616.6079 619.3657 619.5779 620.3314 620.3314
   620.6488 620.7682 621.0650 621.0650 621.9755 623.5302 623.9435 623.9435
   624.2243 624.2243 624.8126 624.8617 625.1245 625.2331 625.2331 625.2571
   625.5479 625.7979 626.0896 626.0896 626.3088 626.4823 626.4823 626.4935
   627.8323 627.8576 628.2084 628.2084 628.8066 628.8066 628.8108 628.8817
   628.9136 629.4847 629.4847 629.8148 631.7740 631.7883 631.7883 631.8038
   632.4363 632.4598 632.4598 632.4909 633.7218 633.7341 633.8375 633.8375
   633.9064 633.9064 633.9318 633.9437 636.5237 636.5368 636.5482 636.5482
   636.5783 636.5904 636.5904 636.6024 641.8724 642.3980 642.5049 643.0301
   643.1146 643.1146 643.3238 643.3380 643.5641 643.5641 643.8725 643.9048
   643.9048 644.0508 644.2510 644.2689 644.2689 644.6559 644.6966 644.6966
   644.9616 645.9171 645.9171 645.9444 647.0846 647.1448 648.0432 648.0432
   648.6932 648.7389 648.7389 648.7579 648.7736 648.8306 648.8618 648.8683
   648.9240 648.9240 649.0958 649.0958 649.1494 649.1782 649.2388 649.6165
   649.7789 649.8244 649.8244 649.8798 649.8798 649.9725 650.0316 650.8519
   650.9857 650.9857 655.2900 655.2900 655.3336 655.4277 655.4784 657.0201
   657.0201 660.7094 660.7323 661.4737 661.8154 661.8154 661.8595 661.8933
   661.8933 661.9020 661.9319 662.0831 662.7449 662.8508 662.8508 663.4606
   663.4981 663.5017 663.5017 664.1714 664.6166 664.6358 664.6358 664.6658
   665.1970 665.1970 665.6069 665.6786 665.7130 665.7130 665.7182 665.7394
   666.2979 666.2979 666.2993 666.2993 666.3212 666.4554 666.7636 666.8376
   666.8376 666.9517 667.0513 667.0750 667.1361 667.1361 668.5179 668.5564
   668.5564 668.6390 668.9396 668.9438 668.9438 668.9869 669.0256 669.0256
   669.0417 669.0417 669.3166 669.3418 669.3674 669.3783 669.3783 669.3800
   669.7003 669.7003 671.6519 671.6676 671.6676 671.6791 671.6838 671.7046
   671.7046 671.7292 672.8776 672.8807 673.0524 673.0524 673.1574 673.1574
   673.2034 673.2147 675.6530 675.7772 675.7772 675.9235 675.9403 676.1963
   676.1983 676.3685 676.3883 676.3883 676.4237 677.2742 677.2742 677.9870
   678.1593 678.2223 678.4950 678.7184 678.7184 679.0185 679.1220 679.1220
   679.3606 679.5794 680.4394 680.4394 680.4907 680.7970 680.7970 681.2289
   681.2289 681.4973 681.5495 682.2144 682.2214 682.4254 682.4254 682.4314
   682.4314 682.4993 682.5185 682.7330 684.2044 684.2053 684.2741 684.2741
   684.2996 684.2996 684.4164 684.5700 685.1974 685.2211 685.2867 685.2867
   685.2906 685.2906 685.3744 685.3826 686.3031 686.3109 686.4685 686.4685
   686.4770 686.5219 686.6897 686.6897 686.7733 686.7733 687.0272 687.3906
   687.3916 687.3916 687.3939 687.6209 688.0634 688.0634 688.0634 688.1366
   688.1404 688.1501 688.1501 688.1600 688.4276 688.4421 688.6065 688.6065
   688.6291 688.6374 689.1764 689.1764 691.8511 691.8533 691.9003 691.9003
   691.9052 691.9052 691.9504 691.9598 694.3420 696.7018 697.4387 697.4387
   697.5845 697.5845 698.2233 698.2256 698.6661 698.6661 698.6769 698.6886
   698.7023 699.1530 699.2694 699.3388 699.3388 699.9657 699.9657 700.0325
   700.0325 700.2460 700.7300 700.8440 700.8539 700.9182 700.9182 701.5444
   701.5877 701.5877 701.5923 701.6263 701.6559 701.6559 701.6817 701.6817
   701.6872 701.7301 702.1818 702.1854 702.2042 702.2213 702.2213 702.7585
   702.7795 702.7795 702.8163 702.8354 702.8496 702.8630 702.8630 702.8679
   702.8679 703.0685 703.4146 703.4206 705.1692 705.1768 705.1946 705.1946
   705.2490 705.3917 705.4082 705.4090 705.4090 705.4223 705.4223 705.4813
   705.4966 705.8448 705.8448 706.3744 708.2482 708.2535 711.1080 711.1080
   711.1088 711.1088 712.4906 712.4909 716.2005 716.2982 716.2982 716.3534
   716.3534 716.4579 716.4777 716.8008 716.8573 716.9724 717.3160 717.3160
   717.3207 718.1435 718.1435 718.7642 718.8731 718.9672 719.3309 719.3309
   719.8045 719.8143 719.8143 719.8350 719.9269 720.0232 720.6245 720.6245
   720.8083 720.8083 720.8151 720.8274 724.0874 724.0881 724.1078 724.1078
   724.1398 724.3997 724.3997 724.7262 724.7267 724.7983 724.7983 724.8119
   724.8119 724.8631 724.8769 725.5148 727.8239 728.4580 728.7258 728.7549
   728.7676 728.7676 728.7908 728.7908 728.8108 729.3489 731.3097 731.3154
   731.3154 731.6853 732.6616 732.6616 733.5692 733.7061 733.7061 734.0060
   734.1087 735.8720 735.8961 735.8961 735.9079 736.0290 736.0290 736.0357
   736.0861 736.0861 736.1229 736.1485 736.1969 736.2829 736.9862 736.9862
   737.0255 737.7353 737.8002 737.8002 737.8242 737.8534 737.8534 737.8677
   737.9707 738.1426 738.2298 738.2298 738.2676 738.3295 738.6551 738.6551
   739.7651 739.8647 739.8697 739.8846 739.8846 739.8975 739.8975 739.9497
   739.9650 740.0461 740.1614 740.1614 740.1705 740.1705 740.3362 740.3451
   740.6956 740.7010 740.7010 740.8007 740.8343 741.2011 741.2246 741.2246
   741.8557 741.9195 741.9403 741.9885 741.9885 742.0859 742.1119 742.1119
   742.2062 742.2110 742.2874 742.2936 742.2936 742.3320 742.3718 742.7122
   742.7122 742.7989 742.7989 742.9759 742.9763 743.0319 743.0321 743.0374
   743.0374 743.0530 743.0530 743.0544 743.0601 743.3763 743.3763 743.9180

     the Fermi energy is     6.6939 ev
     (compare with:     7.6056 eV, computed in scf)

     Writing all to output data dir out/mp-1672.save/
 
     init_run     :      0.08s CPU      0.09s WALL (       1 calls)
     electrons    :   1544.20s CPU   1658.29s WALL (       1 calls)

     Called by init_run:
     wfcinit      :      0.00s CPU      0.00s WALL (       1 calls)
     potinit      :      0.02s CPU      0.02s WALL (       1 calls)
     hinit0       :      0.02s CPU      0.02s WALL (       1 calls)

     Called by electrons:
     c_bands      :   1544.19s CPU   1658.28s WALL (       1 calls)
     v_of_rho     :      0.01s CPU      0.01s WALL (       1 calls)

     Called by c_bands:
     init_us_2    :      0.00s CPU      0.00s WALL (       3 calls)
     init_us_2:cp :      0.00s CPU      0.00s WALL (       3 calls)
     paro_k       :   1492.26s CPU   1602.26s WALL (       3 calls)

     Called by paro_*:
     h_psi        :     12.53s CPU     12.94s WALL (     491 calls)
     g_psi        :      0.21s CPU      0.24s WALL (   52033 calls)

     Called by h_psi:
     h_psi:calbec :      0.22s CPU      0.23s WALL (     491 calls)
     vloc_psi     :     12.07s CPU     12.45s WALL (     491 calls)
     add_vuspsi   :      0.16s CPU      0.17s WALL (     491 calls)

     General routines
     calbec       :      0.22s CPU      0.23s WALL (     491 calls)
     fft          :      0.01s CPU      0.01s WALL (      10 calls)
     fftw         :     10.94s CPU     11.28s WALL (   85524 calls)
 
     Parallel routines
 
     PWSCF        :  25m45.03s CPU  27m39.60s WALL

 
   This run was terminated on:  16:19: 9  17Nov2023            

=------------------------------------------------------------------------------=
   JOB DONE.
=------------------------------------------------------------------------------=
