
     Program PWSCF v.7.1 starts on  7Dec2023 at 15:26:48 

     This program is part of the open-source Quantum ESPRESSO suite
     for quantum simulation of materials; please cite
         "P. Giannozzi et al., J. Phys.:Condens. Matter 21 395502 (2009);
         "P. Giannozzi et al., J. Phys.:Condens. Matter 29 465901 (2017);
         "P. Giannozzi et al., J. Chem. Phys. 152 154105 (2020);
          URL http://www.quantum-espresso.org", 
     in publications or presentations arising from this work. More details at
     http://www.quantum-espresso.org/quote

     Parallel version (MPI), running on     8 processors

     MPI processes distributed on     1 nodes
     122829 MiB available memory on the printing compute node when the environment starts
 
     Reading input from pw_mp-938_nscf_k10_E53.in
Warning: card &IONS ignored
Warning: card / ignored
Warning: card &CELL ignored
Warning: card / ignored

     Current dimensions of program PWSCF are:
     Max number of different atomic species (ntypx) = 10
     Max number of k-points (npk) =  40000
     Max angular momentum in pseudopotentials (lmaxx) =  4

     Atomic positions and unit cell read from directory:
     out/mp-938.save/
     Atomic positions from file used, from input discarded
 
 
     R & G space division:  proc/nbgrp/npool/nimage =       8
     Subspace diagonalization in iterative solution of the eigenvalue problem:
     one sub-group per band group will be used
     scalapack distributed-memory algorithm (size of sub-group:  2*  2 procs)

 
     Parallelization info
     --------------------
     sticks:   dense  smooth     PW     G-vecs:    dense   smooth      PW
     Min         122     122     35                 2465     2465     380
     Max         123     123     36                 2467     2467     382
     Sum         983     983    283                19731    19731    3047
 
     Using Slab Decomposition
 


     bravais-lattice index     =            5
     lattice parameter (alat)  =       8.3200  a.u.
     unit-cell volume          =     377.2923 (a.u.)^3
     number of atoms/cell      =            2
     number of atomic types    =            2
     number of electrons       =        30.00
     number of Kohn-Sham states=         1200
     kinetic-energy cutoff     =      53.0000  Ry
     charge density cutoff     =     212.0000  Ry
     Exchange-correlation= PBE
                           (   1   4   3   4   0   0   0)

     celldm(1)=   8.320040  celldm(2)=   0.000000  celldm(3)=   0.000000
     celldm(4)=   0.547379  celldm(5)=   0.000000  celldm(6)=   0.000000

     crystal axes: (cart. coord. in units of alat)
               a(1) = (   0.475721  -0.274658   0.835615 )  
               a(2) = (   0.000000   0.549315   0.835615 )  
               a(3) = (  -0.475721  -0.274658   0.835615 )  

     reciprocal axes: (cart. coord. in units 2 pi/alat)
               b(1) = (  1.051036 -0.606816  0.398908 )  
               b(2) = (  0.000000  1.213632  0.398908 )  
               b(3) = ( -1.051036 -0.606816  0.398908 )  


     PseudoPot. # 1 for Ge read from file:
     /usr/scratch4/magr4985/MG/HTDF/pseudo/SG15/Ge.upf
     MD5 check sum: 9f45083245c564cb2163622d60d05ca9
     Pseudo is Norm-conserving, Zval = 14.0
     Generated using ONCVPSP code by D. R. Hamann
     Using radial grid of  602 points,  6 beta functions with: 
                l(1) =   0
                l(2) =   0
                l(3) =   1
                l(4) =   1
                l(5) =   2
                l(6) =   2

     PseudoPot. # 2 for Te read from file:
     /usr/scratch4/magr4985/MG/HTDF/pseudo/SG15/Te.upf
     MD5 check sum: dd4de4dac1e38587f63aaf3700bb29d3
     Pseudo is Norm-conserving, Zval = 16.0
     Generated using ONCVPSP code by D. R. Hamann
     Using radial grid of  602 points,  6 beta functions with: 
                l(1) =   0
                l(2) =   0
                l(3) =   1
                l(4) =   1
                l(5) =   2
                l(6) =   2

     atomic species   valence    mass     pseudopotential
        Ge            14.00    72.64000     Ge( 1.00)
        Te            16.00   127.60000     Te( 1.00)

      6 Sym. Ops. (no inversion) found



   Cartesian axes

     site n.     atom                  positions (alat units)
         1           Ge  tau(   1) = (   0.0000000  -0.0000000   0.0194953  )
         2           Te  tau(   2) = (   0.0000000   0.0000000   1.1812836  )

     number of k points=     4  Gaussian smearing, width (Ry)=  0.0005
                       cart. coord. in units 2pi/alat
        k(    1) = (   0.0000000   0.0000000   0.0000000), wk =   0.2500000
        k(    2) = (   0.5255180   0.3034079  -0.1994539), wk =   0.7500000
        k(    3) = (   0.5255180  -0.3034079  -0.3989078), wk =   0.7500000
        k(    4) = (   0.0000000   0.0000000  -0.5983616), wk =   0.2500000

     Dense  grid:    19731 G-vectors     FFT dimensions: (  40,  40,  40)

     Estimated max dynamical RAM per process >      75.77 MB

     Estimated total dynamical RAM >     606.20 MB

     The potential is recalculated from file :
     out/mp-938.save/charge-density

     Starting wfcs are random

     Band Structure Calculation
     ParO style diagonalization

     ethr =  5.00E-06,  avg # of iterations =  6.0

     total cpu time spent up to now is      309.0 secs

     End of band structure calculation

          k = 0.0000 0.0000 0.0000 (  2453 PWs)   bands (ev):

   -26.5382 -26.5382 -26.5184 -26.5184 -26.5109 -14.3932 -14.3932 -14.3779
   -14.3779 -14.3721  -2.6046   5.4683   8.6053   8.7791   8.7791  12.9175
    13.6417  13.6417  16.4614  16.4614  16.6667  18.2986  18.2986  18.4655
    18.6516  31.2331  31.2331  31.2681  31.9678  31.9678  32.1847  33.5242
    33.7110  33.7110  35.4345  35.4345  38.1751  39.2296  39.2296  40.6400
    40.6400  41.1819  42.5171  44.1118  44.1118  44.1285  44.2229  44.4181
    45.5318  45.5318  45.8017  45.8017  46.2501  46.2989  46.2989  46.8028
    47.6478  49.0124  49.7052  49.7052  50.2247  50.2247  51.7233  52.3468
    52.3468  52.6395  52.6395  53.0492  54.9558  62.9188  62.9188  63.8571
    65.2019  65.2019  66.6185  66.6185  68.4138  70.1854  70.9433  70.9433
    71.8660  74.2179  74.9583  74.9583  75.7394  75.7394  75.7904  76.8090
    76.9124  76.9124  77.1137  77.4101  77.4101  77.5850  77.5850  78.7949
    78.8682  78.8682  78.8792  80.1997  80.1997  80.6602  81.8188  81.8995
    81.8995  81.9424  83.0108  83.3278  83.3278  83.8691  83.8691  84.8702
    85.2293  85.2293  85.6148  85.6148  86.0375  86.2709  86.2709  86.3560
    87.4094  87.4094  87.7888  89.9515  90.8860  91.1452  91.1452  91.4962
    91.4962  94.2034  96.8209  96.8209  97.4819  98.4124  99.6531  99.7016
    99.7016  99.8579 100.1480 100.2810 100.2810 101.2015 101.2015 101.6687
   101.7209 101.7209 102.5003 102.6079 102.6079 104.4034 104.9202 104.9202
   106.4018 106.4018 107.8955 107.9074 108.2639 108.3469 108.3469 108.8611
   110.2502 110.2502 110.7488 111.1218 111.1218 111.5682 111.5822 111.5822
   114.7426 114.7426 115.3231 115.3231 115.7221 115.7221 116.0317 116.3662
   116.5351 116.5351 118.4401 118.4401 119.2603 121.6709 122.8246 123.1424
   123.1424 126.6013 127.6936 128.0825 128.0825 128.5388 129.1040 129.1040
   130.5067 130.5067 130.9391 130.9391 131.7295 131.7295 131.8791 132.6170
   132.8815 133.1887 134.6146 134.6146 135.3411 135.3411 135.9437 135.9437
   136.1874 136.9172 137.4886 138.1409 138.1409 138.4266 138.4266 140.4409
   140.7026 140.7122 140.7122 140.7264 140.8858 140.8858 141.1825 141.9864
   142.2181 142.2181 143.3610 143.3610 144.2336 144.3751 144.3751 145.2009
   145.2009 145.3526 146.0912 146.5019 146.7513 146.7513 148.1012 148.1012
   148.1870 148.5017 148.5017 148.7738 148.7738 149.8640 149.9773 150.7655
   150.7655 151.2289 151.2289 151.3156 151.7142 151.7142 151.9817 152.4104
   152.5855 152.9012 152.9012 153.2721 153.2721 153.2837 153.6384 153.6384
   154.3865 154.4196 154.4196 155.0134 155.0134 155.7617 155.9701 155.9701
   156.2101 157.7892 158.4019 158.5765 158.5765 159.7114 159.7114 160.3559
   160.3907 160.3907 161.9710 161.9710 162.2580 162.2580 162.8317 163.8960
   163.8960 166.1563 166.3583 166.3583 166.3876 168.0477 168.0477 168.3478
   168.6704 168.6705 169.2783 169.4092 169.4092 170.1875 171.6781 172.1020
   172.1020 173.5599 174.4563 174.4563 175.2231 177.4702 177.6359 177.6359
   177.6438 177.7524 178.1159 178.1159 179.0763 180.0958 180.1348 180.1348
   180.5390 180.5390 180.7900 180.7900 180.8560 180.8920 180.9470 181.2598
   181.2598 182.5082 182.5903 182.5903 183.1183 183.1183 183.7046 185.0967
   185.0967 186.0407 186.1870 186.1870 186.5069 187.1478 187.1478 188.7155
   188.9753 188.9753 190.5289 192.7239 192.7239 194.6069 194.6069 195.2321
   195.9912 195.9912 196.5278 198.8688 198.8688 199.2330 199.4223 199.4223
   199.7650 200.2244 200.2244 200.4212 200.6241 201.0113 201.3357 201.3357
   201.4399 201.9075 201.9075 201.9345 202.3815 202.3815 202.6396 202.8467
   202.8467 204.3339 204.3339 205.4165 205.6906 205.8875 206.2354 206.2354
   206.5802 206.5802 206.6720 206.7968 206.8674 206.8748 206.8748 208.7773
   208.7773 208.9689 208.9689 211.1212 211.3912 211.3912 212.6126 212.6127
   212.6755 212.6755 214.0382 214.1042 214.1103 214.1192 214.1192 214.2856
   214.3853 214.5789 214.7201 214.7201 215.3418 215.3418 216.1514 216.1514
   218.4250 218.9274 218.9274 219.1668 219.1668 219.2314 219.5761 219.5761
   219.7341 219.9791 219.9791 220.3392 220.4148 220.4148 220.9803 220.9803
   221.0717 221.3999 221.3999 221.7044 221.7044 221.8251 222.7510 223.1821
   223.1821 223.9001 223.9751 223.9751 224.5481 224.6656 225.8747 225.8747
   226.7808 226.7808 227.2305 227.3460 227.8917 227.8917 228.3475 228.3475
   229.3814 230.0143 230.6053 230.6053 231.2533 232.3267 232.3267 232.9383
   232.9383 233.5129 234.0664 234.0664 234.5721 234.5721 234.6467 234.8495
   235.1455 235.9732 235.9732 236.1946 236.2063 236.2063 236.2490 236.5838
   236.6343 236.6343 236.8594 237.0369 237.0369 238.2757 238.2757 238.6512
   239.3201 239.3672 239.3672 239.4868 239.4868 239.9078 239.9078 239.9442
   240.0844 240.8141 240.9466 240.9466 241.3691 241.7427 241.7427 242.3934
   242.6634 242.6634 242.7779 242.8494 242.8494 244.2486 244.9323 244.9323
   245.6906 246.4945 246.4945 246.7171 246.8747 247.5370 247.5370 248.2987
   249.5833 249.9996 249.9996 250.1257 250.3331 250.3331 250.4200 250.4200
   250.6385 250.8222 250.8222 251.0180 251.0325 251.0325 251.3242 251.3834
   251.3834 252.5999 253.0358 253.1458 253.1458 253.3058 253.3058 253.4847
   253.4847 253.5154 253.8197 253.8197 260.3474 260.3474 260.7998 260.7998
   262.5310 263.9870 265.1777 265.1777 266.3747 266.3747 266.8417 267.5247
   267.5247 267.8844 267.8951 268.5424 268.5424 269.7090 270.2567 270.2567
   270.3130 270.7250 270.7250 272.5086 272.9255 272.9337 272.9337 273.3617
   273.3617 273.7488 273.9870 273.9870 274.2416 274.2416 274.2794 274.3422
   274.4532 275.6376 275.6376 276.3399 276.7024 276.9692 277.5640 277.5640
   277.6462 278.7055 278.7055 279.9530 279.9530 280.2136 280.2136 280.3852
   280.3852 280.4097 280.4532 280.9439 281.2226 281.2226 281.3248 281.3287
   281.3287 281.5168 282.4827 282.4827 282.5781 283.0135 283.0135 283.3437
   283.5500 283.5500 283.6208 283.6208 283.7861 283.8166 285.1843 285.1843
   285.4207 285.5202 285.5202 285.6792 285.6930 286.4321 286.4555 286.4555
   286.6351 286.6351 287.9676 287.9676 287.9698 288.9323 288.9323 289.1506
   292.7981 292.7981 293.0210 293.0210 293.4940 293.4940 293.6093 293.8162
   293.8162 293.9277 294.2399 294.2399 294.3972 294.5108 294.5464 294.7762
   294.9301 294.9301 295.3113 295.3113 295.9583 296.4953 296.9428 296.9428
   297.6509 297.6509 298.1948 298.1948 298.2840 298.3032 299.3533 299.4471
   299.4471 300.7077 300.7077 301.1285 302.9591 303.0838 303.0838 303.2041
   303.4014 303.4690 303.4690 303.5020 303.5020 303.9764 304.1213 305.2343
   305.2343 305.8917 305.8917 306.1484 306.8382 306.8382 308.1116 308.1116
   308.1135 308.4478 308.4478 308.8419 308.9657 308.9719 309.0517 309.0517
   309.7168 309.7168 311.3713 311.3713 311.5511 311.5511 311.7219 311.8263
   311.8263 312.0112 312.0112 312.2365 312.2365 312.6796 313.6063 313.6069
   313.6408 314.1462 314.1462 315.0266 315.0595 315.0680 315.0680 316.3255
   316.6107 316.6107 317.2635 317.5792 317.9678 317.9995 317.9995 318.1756
   318.1756 318.3254 319.2974 319.2974 319.3238 319.3238 320.7333 320.7333
   321.3939 321.5047 321.5969 321.7271 321.7271 321.7473 321.8028 322.0918
   322.0918 322.8124 322.8124 322.8239 322.8239 323.0061 323.0210 323.2793
   323.3313 323.3313 324.4936 324.4936 324.5615 324.6291 324.6291 324.6532
   327.1058 327.1058 327.1651 327.1651 330.2335 330.4362 330.4362 331.4995
   331.4995 331.9513 332.0105 332.0105 332.3578 332.5308 332.6114 332.6114
   333.0467 333.0467 333.1660 333.4531 333.6855 333.6855 333.7059 334.1080
   334.1080 335.3683 335.3683 336.1548 336.1822 336.2403 336.3145 336.3145
   336.4057 336.4057 336.8578 336.8578 337.4068 337.5086 337.5086 337.6133
   337.6133 337.7932 337.8365 338.4879 338.4929 338.4929 339.6182 339.6182
   339.8868 339.8868 339.9126 339.9183 340.8917 344.0372 344.0372 344.8888
   345.3225 345.3225 345.4106 345.7427 345.7427 345.9001 346.0404 346.0404
   346.2580 347.1043 347.1043 347.2694 347.3484 347.3484 347.5169 348.0909
   348.0909 349.1568 349.4373 349.4373 349.5339 349.6497 349.7971 349.7971
   350.1766 350.1766 350.4936 350.8562 350.8562 351.6803 351.7625 351.7625
   351.8004 351.8004 351.9000 351.9073 352.0296 352.0296 352.3578 353.4418
   353.4418 353.6536 353.6536 353.7627 353.7717 354.5324 354.5324 354.6842
   354.7056 354.7266 354.7266 354.7899 354.7899 354.8305 355.5839 355.5839
   355.6041 356.0303 356.5149 357.8868 357.8868 358.3861 358.3861 359.1735
   359.1735 359.4322 359.6077 359.6077 359.6278 359.6303 359.6303 359.6394
   359.7366 359.7366 360.0830 360.7995 361.1876 363.9758 363.9758 364.3192
   364.3192 364.6811 364.7949 364.8546 364.8546 365.0379 365.0379 365.1721
   365.1813 366.9172 366.9172 367.1739 367.1739 369.2470 369.3093 369.3093
   369.4080 369.4080 369.6661 369.8083 369.8083 370.1681 370.1681 370.3570
   370.5651 370.9826 370.9826 372.4045 372.5689 372.5689 373.0267 373.2444
   373.2444 373.2775 373.2856 373.2856 373.2956 374.0632 374.0632 374.3611
   374.3611 374.4265 374.4453 377.6411 377.6411 378.2453 378.2504 378.2504
   378.4494 378.6676 378.6676 379.8614 380.7776 380.7776 380.9248 383.0484
   383.0484 383.2238 383.2238 383.2503 383.2717 386.0850 386.0850 386.4358
   386.4365 386.4962 386.4962 386.5285 386.5285 386.5772 386.5772 386.6140
   386.6201 388.4894 388.4894 388.6484 388.8520 388.9211 388.9211 391.0304
   391.0304 392.4538 392.7813 393.1909 393.1909 393.2679 393.2679 393.5052
   393.5052 393.6667 394.1964 394.6821 394.6821 394.9498 394.9498 395.0341
   395.1028 395.1399 395.1910 395.1910 395.2130 395.2130 395.2610 396.4811
   396.5943 396.8337 396.8337 396.8410 396.8410 396.9600 396.9629 399.2147
   399.8116 399.8116 400.1200 400.1200 400.2524 402.4759 402.4759 403.7599
   403.7599 404.2569 404.4907 404.4907 404.5140 404.8853 405.0216 405.0216
   405.0584 405.5861 405.5861 405.6124 405.7880 405.7880 406.0749 407.4550
   407.4550 407.6716 407.8330 407.8330 408.1026 408.4917 408.4917 408.5304
   408.5304 408.5312 408.6657 408.6657 408.7555 408.8834 408.9183 408.9183
   408.9456 409.0632 409.1783 409.1783 409.4397 409.4397 409.4808 412.3753
   412.3753 412.5434 412.8344 412.8344 412.9065 413.1563 413.1563 413.3340
   413.3711 413.3711 413.4347 413.9217 413.9217 413.9257 414.0444 414.0444
   414.0573 414.3972 414.3972 414.4886 414.5150 414.5152 414.5152 417.0200
   417.0200 417.3616 417.3616 417.4239 417.4368 417.4368 417.4383 417.9174
   418.2143 418.3725 418.3725 418.6104 418.6104 419.0313 419.3166 419.4906
   419.4906 421.3196 421.3196 421.3244 421.3772 421.3772 421.4261 423.4874
   423.4986 423.4986 423.6401 423.8034 423.8034 424.1758 424.1758 424.3431
   424.3431 424.3580 424.4890 424.5418 424.5535 424.5865 424.5865 424.6107
   424.6107 424.8279 424.8849 424.8849 424.9966 424.9966 425.0061 425.2251
   425.3156 425.3190 425.3190 425.3557 425.3557 425.4205 425.7065 426.3248
   426.3248 426.6693 426.7584 426.7584 426.9482 428.0964 428.0964 428.1129
   428.1129 429.8430 429.8430 429.8903 429.9125 429.9125 429.9787 432.0823
   432.1710 432.1710 432.3553 432.3553 432.4523 432.4523 432.5584 432.5640
   432.5640 432.5925 432.8393 434.0034 434.0034 434.0721 434.0721 435.0383
   435.0383 436.9038 436.9038 436.9217 436.9217 437.2326 437.2326 437.4939
   437.4939 437.6063 437.6063 437.6179 437.6327 439.8096 439.8096 439.8719
   439.8719 439.9056 439.9555 440.9677 440.9677 441.1542 441.3303 441.3303

          k = 0.5255 0.3034-0.1995 (  2476 PWs)   bands (ev):

   -26.5381 -26.5360 -26.5187 -26.5184 -26.5095 -14.3951 -14.3908 -14.3791
   -14.3791 -14.3700  -0.9241   1.5735   8.4667   8.5481  10.1651  10.9415
    11.1965  11.6947  18.9669  19.5393  20.5605  20.6483  20.9361  21.6133
    27.1419  27.2358  27.2771  27.5734  29.1820  29.3998  30.2202  30.5893
    33.3715  33.7600  34.8448  34.9918  35.3800  35.7316  35.9671  36.3556
    36.9641  37.7621  38.4811  39.5686  40.8994  42.7398  44.2006  45.9702
    46.8370  46.8680  47.9913  49.1133  49.6456  50.5451  51.0373  51.6400
    52.9043  53.0234  53.6980  54.2100  54.8945  55.7025  56.1408  56.9041
    56.9954  58.0773  58.7402  59.1680  59.9116  60.3260  60.5385  61.6486
    62.1431  62.4851  62.7268  63.9746  64.3468  64.5856  65.5306  66.3350
    68.4553  68.5648  70.1132  70.2681  70.7395  71.2323  72.2765  72.4375
    72.5049  73.2398  74.0137  74.6143  75.2288  75.4453  76.2058  76.6223
    78.2640  78.9093  79.0739  79.3648  79.6189  79.9432  80.6277  81.5193
    81.6216  82.6396  84.3116  84.5777  84.9196  85.6675  86.0015  86.5230
    86.5245  87.0964  87.1355  87.9959  88.5315  88.6014  88.9809  89.2111
    89.3734  90.2354  90.3520  90.8240  91.9939  92.2303  92.2828  92.8981
    94.2369  95.0048  95.0390  95.3331  95.3598  96.8536  97.3422  99.1415
    99.1991 100.0019 101.1277 101.4476 102.0740 102.1365 102.7058 103.4842
   103.5671 104.0324 104.7430 105.1790 105.3274 105.6827 106.2079 106.3995
   108.1258 108.3343 109.1945 109.5125 109.8660 110.5521 111.0408 111.4439
   111.7320 112.0475 112.2951 112.5913 112.9743 113.5180 114.5198 114.6816
   114.9132 115.1727 115.2672 117.0730 117.3941 117.7528 118.2168 119.1020
   120.1216 120.4458 120.6486 120.7551 120.9455 121.7820 122.1728 122.7051
   122.8437 123.1917 124.1488 124.8831 125.9375 126.3038 126.6810 126.7328
   127.3794 128.3034 128.3901 129.0325 129.6637 129.7869 130.0926 130.3524
   130.8089 131.0394 131.0453 131.6233 132.1298 132.2274 132.8255 133.2280
   133.3516 133.4457 133.7942 133.9103 134.8966 135.9638 136.1422 136.2178
   137.4063 137.5482 137.9325 138.1888 138.5448 138.5506 139.2225 139.2422
   139.3497 139.4605 140.7368 141.6428 141.8592 141.9050 142.1339 142.1770
   142.9318 143.0548 143.4786 143.7910 144.0781 144.2309 145.1178 145.1365
   145.5440 146.0089 146.4266 146.8290 147.3155 148.2449 148.8180 149.0411
   149.2268 149.5500 149.8812 150.0877 150.5063 150.7551 151.6529 152.1896
   152.5079 153.2727 153.8502 153.9891 154.4269 155.2427 155.7086 155.9847
   157.6405 157.7393 158.6724 158.7701 158.8899 160.2959 160.6760 160.8888
   161.2884 161.8635 162.0323 162.0457 162.2885 162.5881 162.7189 162.7408
   163.7060 163.7323 164.4898 164.7513 164.9996 165.5543 165.8352 166.7715
   167.4774 167.6123 169.3248 170.2353 171.0748 171.1632 172.8212 173.8271
   173.9339 174.1077 174.7262 175.1687 175.5803 175.6997 176.2525 176.3048
   176.6515 176.7172 177.1586 177.2749 178.2070 178.4789 178.8278 178.9781
   179.4774 179.5198 179.8744 180.1977 180.4898 180.5528 180.7917 180.8860
   181.4580 181.8105 182.0264 182.3603 182.6843 182.9263 183.2508 183.7955
   183.9852 184.4485 184.4617 184.4663 184.8113 185.1973 185.7064 185.7261
   185.8263 186.4268 186.5147 187.3024 188.0794 188.0925 188.1604 188.8946
   189.5296 189.7162 190.0063 190.2960 190.5915 191.2309 191.6271 192.0534
   192.2273 192.3669 192.3750 192.3839 192.4975 193.4670 194.2064 194.4745
   194.5105 195.0712 196.0996 196.4980 196.5077 197.0922 197.1388 197.5175
   197.8682 198.6258 198.9416 199.0316 199.0426 199.7958 200.2727 200.4083
   200.5590 200.7556 201.0630 201.3296 201.6586 201.7420 201.7503 202.2609
   202.6208 203.4114 204.5400 204.5536 204.7460 205.3371 206.2752 206.6010
   206.7682 206.8878 207.2662 207.8057 208.3788 208.5536 208.9186 208.9947
   209.5071 210.1501 210.5873 210.6659 211.4373 211.7464 212.1397 212.2413
   212.6625 212.8332 213.1736 213.3534 213.4566 213.6515 213.8467 214.1793
   214.6075 216.5058 216.6614 217.0293 217.2169 217.5892 217.9347 218.2125
   219.1249 219.2344 219.4468 219.7460 220.1710 220.3892 220.7119 220.7892
   221.0254 222.1475 222.6214 223.0569 223.6097 223.6392 223.8975 224.2064
   225.0531 225.4922 225.5578 225.7089 226.4818 226.6660 226.7585 227.0417
   227.4278 227.5365 227.8830 228.1808 228.3855 228.5049 228.9982 229.0680
   229.1696 229.4540 229.8276 230.2118 230.3215 230.5930 231.4106 231.4974
   232.4492 232.8378 233.0349 233.3339 233.4092 233.6421 233.6481 234.7172
   235.2562 236.1591 236.3623 236.6324 236.8747 237.3295 237.4057 237.4748
   238.1937 238.3069 238.3592 238.4915 239.4088 239.7011 239.8290 240.3531
   240.7307 241.3517 241.4503 242.1815 242.5078 242.7672 242.8531 243.2798
   244.2226 244.7038 244.7771 245.3963 245.5044 245.6135 245.8791 246.0907
   246.3004 246.4855 246.6757 247.7816 247.9800 248.3640 248.3885 248.6067
   248.7081 248.9541 249.3029 249.4827 249.7102 249.9214 250.1498 250.2100
   250.2571 251.0576 251.0615 251.8615 252.5338 252.7157 253.0385 253.3706
   253.9560 254.0487 254.7704 254.9580 255.0349 255.3033 255.3803 255.8888
   256.7132 256.9389 257.3461 257.4849 257.7192 258.5591 258.8004 258.9910
   259.4750 260.6666 260.8714 261.2967 261.4506 261.7364 262.2217 262.4675
   262.8467 262.9818 263.6149 263.7614 263.9457 264.5509 264.5986 264.9961
   265.0152 265.1788 265.3127 265.3187 265.6578 266.2846 266.4965 266.8039
   267.1430 268.1314 268.2274 268.9861 269.5624 270.5717 271.3143 271.3356
   271.8764 272.4875 272.6879 272.8627 272.9674 273.2832 273.3873 273.8417
   274.0799 274.3698 274.6818 274.7527 274.7864 274.9548 275.1175 276.2650
   276.5172 276.5674 276.7170 277.0477 277.7879 278.0969 278.1411 278.1913
   278.5539 278.7241 278.8494 278.9699 279.8527 280.4656 280.7438 280.8308
   280.9701 281.4997 281.5741 281.7624 281.8127 281.8577 282.2368 282.6178
   282.7300 282.8794 283.1179 283.1782 283.8476 284.0165 284.6257 285.1117
   285.2731 285.9304 286.0291 286.1113 286.1901 286.2316 286.5246 286.5247
   286.6292 286.7011 287.2543 287.9251 288.3271 289.6052 289.8774 289.9691
   290.5116 290.8189 291.1271 291.4645 292.3603 292.4023 292.6956 292.8503
   292.9576 293.0717 293.2263 293.7762 293.8028 294.2815 294.3612 294.4048
   294.7165 295.0657 295.1677 295.3851 295.7604 296.1074 296.2648 296.9984
   297.1184 297.1741 297.1901 297.3421 297.4713 297.5578 297.6934 297.7283
   297.7989 297.9735 297.9850 298.1262 298.1818 299.1490 299.4238 299.7757
   299.8453 300.7018 302.4180 302.4757 303.3011 303.3681 303.8544 304.1794
   304.4000 304.4570 304.6221 304.8472 305.4030 305.7598 305.9407 305.9655
   306.2481 306.6456 306.8078 306.9510 307.3228 307.5764 307.6904 308.0460
   308.4004 308.5624 308.8229 308.9530 309.1014 309.1536 309.4149 310.8701
   311.1061 311.1531 312.2676 312.5276 313.2138 313.4224 313.4228 313.5062
   313.8253 314.1258 314.5332 314.5697 314.6045 314.7619 314.9180 315.0788
   315.3147 315.8300 315.9088 316.0174 316.1775 316.3070 316.4790 316.6300
   316.6389 316.7442 317.0384 317.2820 317.7335 317.8447 317.8834 318.3121
   318.6134 318.7646 318.8364 319.2454 319.2619 319.4355 320.3361 320.4771
   320.6618 322.0658 322.1877 322.3165 323.2891 323.9969 324.1097 324.2872
   324.8163 325.0087 325.5187 326.2551 326.4712 326.6046 326.9063 327.1580
   328.1030 329.3880 329.4352 329.6829 329.7034 329.7936 330.3761 330.4535
   330.9598 331.1146 331.1772 331.3634 331.3698 331.4981 332.3779 332.6524
   332.9042 333.0597 333.5423 333.5482 333.5964 333.7669 333.8396 333.9223
   333.9343 334.3018 334.4256 334.8574 335.8496 335.9625 335.9996 336.1363
   336.7188 337.3688 337.6188 337.7029 337.7248 337.8756 338.1753 338.4794
   338.5073 339.2538 339.5087 339.7877 339.9893 339.9993 340.0816 340.5635
   341.6908 342.0946 342.4850 343.2006 343.5746 344.1075 344.4500 344.4674
   344.5232 344.7610 345.4125 345.5891 345.6715 346.0714 346.2702 346.3721
   346.4003 346.7303 346.7419 346.8464 347.0051 347.0669 347.3154 347.4578
   347.8640 347.9509 348.4078 348.5789 348.6127 348.8837 349.2561 349.4490
   349.6881 349.8724 350.4766 350.6135 350.6823 350.7781 351.5632 351.6124
   351.8134 351.9109 352.8092 353.0327 353.1992 353.9119 354.3995 354.4749
   355.0188 355.1227 356.0325 356.3629 356.7692 356.8389 356.9418 357.3817
   357.7589 357.7831 358.0594 358.1438 358.4085 358.6059 358.7143 359.8929
   360.0562 360.4705 360.9026 361.4244 361.9341 362.0604 362.1699 362.2905
   363.5742 363.5976 363.6416 363.6914 364.3119 364.5980 364.9730 365.2000
   366.8962 367.2301 367.4320 367.5118 367.5756 367.9119 367.9434 368.1850
   368.3187 368.4182 368.4373 368.4664 368.9975 369.3164 369.4047 369.4981
   369.8377 369.9949 370.0249 370.2738 370.7306 370.8785 371.0368 371.0716
   373.8857 374.3569 374.4124 374.7195 374.8918 375.2341 375.5211 375.6534
   375.6679 375.8882 376.1677 376.4340 376.6156 376.8590 376.9306 377.3190
   377.3531 377.3945 377.6967 377.8863 378.1919 378.5025 378.9082 378.9488
   379.1348 379.2249 379.2383 379.2865 379.3240 379.4799 380.5042 381.1038
   381.4534 381.5233 381.5289 381.7846 381.8538 382.0194 383.9213 384.0455
   384.1148 384.2379 384.6249 384.7613 384.8178 384.8754 384.9229 384.9521
   387.1381 387.1708 387.1753 387.2511 387.2882 387.5036 387.5830 387.6882
   388.6956 388.7832 388.8152 388.8165 389.0478 389.1226 389.1241 389.2270
   389.4363 389.4570 389.4746 389.5177 389.9546 389.9785 390.4555 390.4838
   390.5973 390.6258 390.9131 391.3977 391.8314 392.0662 392.1789 392.2165
   392.4421 392.7530 393.0448 393.2319 393.3126 393.4757 393.6580 393.9800
   394.4900 394.8725 394.9218 395.1801 395.2105 395.2499 395.4226 395.4298
   395.4580 395.4741 395.8109 395.9653 396.3094 396.5181 396.5394 396.6025
   396.6064 396.7185 397.2494 397.3081 397.5178 397.6222 397.7240 397.8304
   398.2764 398.4634 398.6879 398.7689 398.8491 398.9581 399.1562 399.3397
   399.5802 399.6014 399.6070 399.6246 399.7261 400.0747 400.1614 400.3292
   400.6443 400.6687 400.7125 400.7481 400.8987 401.2999 401.3885 401.4932
   401.5368 401.5654 403.2244 403.3939 403.4082 403.4463 404.6517 404.7327
   405.3177 405.3233 405.4158 405.4830 407.6921 407.8981 409.7590 409.8832
   409.9184 409.9434 410.3042 410.3634 410.4559 410.4796 410.7882 410.9363
   411.7887 411.8354 412.7476 413.1052 413.2402 413.2427 413.2890 413.4152
   414.5808 414.7010 414.8819 414.9462 414.9968 415.0892 415.8963 415.9050
   415.9580 416.0008 416.0334 416.2542 416.8783 417.0056 417.1229 417.1667
   417.2183 418.3117 419.5359 419.5949 420.1098 420.1379 420.1946 420.2202
   420.4180 420.4661 420.5913 420.6223 420.6618 420.6858 420.6934 420.7515
   420.7939 420.8417 420.9142 420.9682 423.7974 423.8723 425.1167 425.2581
   425.7183 425.8566 425.9232 425.9654 426.1063 426.5038 426.6072 426.6941
   426.8226 427.0792 427.1670 427.2576 427.3427 427.4639 427.7066 427.8849
   427.9703 428.4038 428.4305 428.4813 429.0267 429.2192 429.2915 429.3545
   429.7029 429.8252 429.8693 430.0097 431.8581 431.9547 432.0555 432.0642
   432.8612 432.9422 433.0771 433.1651 434.1713 434.3439 434.4665 434.6400
   435.7623 435.8064 435.9841 436.1860 436.5869 437.0417 437.1274 437.3677
   438.1032 438.1222 438.1349 438.1384 438.7913 438.8356 438.8452 438.8646
   439.7499 439.7615 439.7714 439.7721 440.3911 440.5753 441.0384 441.0697
   441.5639 441.5891 441.8480 441.9297 442.9980 443.0173 443.1936 443.2680

          k = 0.5255-0.3034-0.3989 (  2468 PWs)   bands (ev):

   -26.5383 -26.5359 -26.5191 -26.5176 -26.5093 -14.3964 -14.3902 -14.3805
   -14.3768 -14.3696  -0.7303   2.8507   5.3929   7.0404   7.0559  12.5509
    15.6600  16.4239  17.3382  20.2680  21.5634  21.6681  22.9664  23.0730
    23.3985  23.8243  25.7304  25.9787  26.1182  26.4871  28.8617  29.8098
    33.1525  33.8688  35.4056  35.5765  36.7126  37.7292  37.7304  38.1167
    38.8305  39.0719  40.8137  41.0298  41.2007  42.3058  42.8548  43.5869
    44.5148  44.6087  47.9337  49.3985  49.8663  51.2980  51.3603  51.8901
    52.7637  53.9718  54.3201  55.1235  55.3095  56.1223  57.5375  57.7375
    58.2800  58.3559  58.4445  58.9673  59.5565  60.1682  61.5750  61.6787
    61.9770  62.5916  62.9069  64.0523  64.8841  65.7345  67.4415  67.5749
    68.2004  69.0191  69.6771  69.8160  70.5374  70.7858  71.3753  71.6360
    71.9737  72.1916  72.8285  72.8287  73.3166  73.6346  74.6810  74.8415
    75.5565  75.6872  76.6494  78.3489  78.5692  79.1434  79.4605  79.5892
    80.8205  82.3117  83.0186  83.4336  84.3418  85.4340  85.8341  86.2650
    86.6942  86.7365  87.4645  87.8495  88.1215  89.7236  90.3431  90.5094
    90.6181  92.2291  92.5419  92.8895  93.3923  93.5157  94.2231  95.1272
    95.8513  96.1161  96.2508  96.4951  97.4402  97.6888  98.8787  99.5846
   100.1734 102.3166 102.4667 103.0086 103.1117 104.3359 104.7064 104.8116
   105.5838 105.7235 106.0261 106.5123 106.9804 107.1517 107.8885 108.0876
   108.2944 108.4677 109.4165 109.6072 109.9474 110.4399 110.7967 110.9213
   111.3196 112.1076 112.3351 112.8407 113.1163 113.4865 113.5100 113.7945
   114.2511 114.8370 115.7632 115.8868 116.7772 118.2502 118.4711 119.1158
   119.6036 119.9594 120.0753 120.2909 120.8487 120.9493 121.2429 121.5460
   121.5562 121.6387 122.1698 122.3845 122.7680 122.9908 123.3537 123.6646
   123.9231 124.4374 124.6769 125.0870 125.9925 126.4824 127.5125 127.5792
   127.9327 128.4007 128.5660 129.1600 129.1719 130.2037 130.3060 131.2328
   131.3405 131.3916 132.5217 132.8347 133.0369 134.1699 134.5947 136.0939
   136.7816 137.4362 138.0944 138.9670 139.5295 139.9518 140.0937 140.5511
   140.6941 141.1894 142.1902 142.3443 142.8602 142.9149 143.6183 143.7207
   143.7950 144.0539 144.5261 145.0883 145.0891 145.6291 147.5638 148.3604
   148.5356 148.5478 149.8544 150.7327 151.3550 151.4435 151.9840 152.0363
   152.3445 152.6512 152.7215 153.2122 154.1775 154.3173 154.3963 154.8477
   154.8869 155.8329 155.9311 156.4444 156.6960 157.1579 157.5817 157.8454
   157.9109 158.9177 159.6152 159.7455 160.3132 160.8885 160.9820 161.3089
   161.7691 162.1295 162.6993 163.2441 163.4481 163.9901 164.1798 164.9762
   165.1046 165.4258 165.9525 166.2329 166.4407 166.5873 166.9992 167.2203
   167.2562 167.7326 167.9315 168.7284 169.2353 169.2686 169.6139 170.1463
   170.4858 170.9678 171.4743 171.7194 171.8519 172.6516 172.7704 172.9799
   173.7357 173.8217 174.0692 174.3646 174.4988 174.7412 175.0984 175.6081
   175.8441 177.7235 178.0789 178.3556 179.1095 179.2829 179.8713 179.9218
   180.3409 180.8282 180.8436 181.2637 181.3187 181.8776 182.2444 182.5347
   183.4807 183.8653 184.1693 184.1887 184.3472 184.7078 185.4825 185.5506
   186.4490 186.4590 186.5801 186.9849 187.2941 187.4130 187.5940 187.7850
   188.1019 188.1257 188.5106 189.5308 189.6903 189.7526 190.6326 191.6631
   192.1891 192.7315 192.7811 193.4327 194.0480 194.4743 194.7668 195.5222
   195.7381 196.8269 197.1357 197.6310 197.9742 197.9876 198.6462 198.7471
   199.2208 199.8448 200.3794 200.4600 200.6944 200.9959 201.5756 202.3711
   202.5197 202.5856 202.9361 202.9461 203.5368 203.5921 203.8522 204.1540
   205.0087 205.1694 205.2722 206.0491 206.0660 206.0891 206.5072 206.5121
   206.5708 206.5895 207.2329 207.2674 207.6120 207.6414 208.4148 208.6454
   208.8008 209.3654 209.5835 210.0242 210.4751 210.8131 211.8225 211.9051
   212.0940 212.3150 212.3464 213.3337 213.6247 214.2070 214.7611 215.5432
   216.0823 216.3674 216.6358 217.2697 217.8538 217.9538 218.0229 218.3114
   218.8248 218.9771 219.0520 219.5453 220.2204 220.2639 220.2791 220.6496
   220.7744 221.0886 221.4023 222.0495 222.4074 222.5417 222.7927 223.1618
   223.1772 223.5217 224.0223 224.1663 225.3434 225.5472 225.6753 225.8427
   226.4029 227.0614 227.5433 227.7648 227.8663 228.1838 228.2380 228.3655
   228.7472 229.1660 229.5588 229.7823 230.3174 230.5773 230.6221 231.3538
   231.7679 231.9181 233.7396 233.9583 234.4019 234.4482 234.8705 235.0594
   235.6159 235.6346 236.1016 236.2119 236.2503 236.5975 236.7512 238.1492
   238.2458 239.0718 239.7460 240.1640 240.4417 240.8959 241.0558 241.6476
   241.7952 242.3352 242.7374 242.9770 243.5832 243.9741 244.0731 244.4679
   244.4945 245.1270 245.7586 245.7930 245.9433 246.1554 246.4906 246.9808
   247.0986 247.6739 248.1499 248.2958 249.2809 249.4485 249.5425 249.6773
   249.7718 250.1071 250.3959 250.4018 250.7621 250.8219 251.2872 251.5818
   251.8340 251.9824 252.3897 252.9847 253.1185 254.5216 255.6480 255.8775
   256.2353 256.5262 256.5593 257.0424 257.1030 257.3430 257.3942 258.1685
   258.2961 258.8159 260.1156 260.2259 260.2619 260.3342 260.6581 261.0014
   261.1758 261.3373 261.6281 262.4566 262.6462 262.8255 262.8302 263.0146
   263.3298 263.4145 263.9993 264.1540 264.1705 264.4787 264.7378 264.9152
   265.1949 265.2512 265.3018 265.3745 265.7461 265.8164 266.2139 266.2776
   266.6719 266.7530 267.3484 267.5826 268.0977 269.5375 270.0129 270.0237
   270.6399 271.1018 271.1110 271.3338 271.6962 271.9953 272.4836 272.7479
   272.7873 273.2670 273.5921 273.7111 273.9962 274.5975 274.7498 274.8470
   274.9012 275.3185 275.4431 275.5556 275.9632 276.0228 276.4078 276.4705
   276.6562 276.6605 276.9594 277.0889 277.1553 277.2712 277.3844 277.5752
   278.2024 278.2711 278.4725 279.3888 279.6245 279.7363 279.9585 280.3872
   280.6540 280.8860 281.6502 281.9175 282.6017 282.8422 282.8823 282.9365
   283.2521 283.7472 284.0114 284.2031 284.2663 284.4603 284.7180 285.5723
   285.8329 285.9213 285.9729 286.0700 286.0814 286.9170 287.4190 287.7387
   287.9875 288.7350 288.7823 289.0004 289.1471 289.7739 290.1032 290.4291
   290.4552 290.7856 292.7691 293.2656 293.2746 293.6239 293.9482 294.1414
   294.3234 294.6650 294.6952 294.9623 295.2786 295.3283 295.3996 295.7466
   296.0482 296.0609 296.1631 296.5230 296.6949 296.8366 297.0512 297.1901
   298.4907 298.6392 298.8601 298.8892 299.8145 299.9762 300.1690 300.2814
   300.8841 300.9055 301.3136 301.5483 301.7185 301.9032 302.4846 302.5579
   303.8615 304.0003 304.3013 304.5548 304.6240 306.1687 306.8643 307.0189
   307.2424 307.8189 308.2748 308.5091 308.9130 309.1850 309.8712 310.0857
   310.3786 310.4181 311.0781 311.1048 311.1560 311.4602 311.8065 312.1677
   312.3696 312.4696 312.5815 313.1102 313.4704 313.5891 314.1202 314.4761
   314.5194 314.6090 314.7216 314.7675 314.8797 314.9023 315.2664 315.3931
   315.6649 315.6952 315.9955 316.2300 316.3778 316.5767 317.3304 317.4146
   317.4679 317.6736 318.0476 318.2642 318.5989 319.3834 319.5093 321.8462
   322.2707 322.6814 322.9539 323.1161 323.2828 323.3267 324.0613 324.0808
   324.1705 324.6730 324.6789 326.4614 326.5169 326.5858 326.6009 326.9582
   327.0360 327.0731 327.0901 328.0368 328.7845 329.0387 329.2270 329.6091
   329.7481 331.0679 331.2395 331.6948 331.8407 331.8862 332.2096 332.3112
   332.4367 332.6994 333.0256 333.0359 333.2564 333.5459 334.0083 334.2909
   334.4055 334.6321 334.9275 334.9496 335.2180 335.6634 335.7011 335.9413
   336.0816 336.1554 336.1645 336.3627 336.4929 336.5648 336.5846 336.7011
   336.7727 336.8996 337.0652 337.0952 337.1818 337.2509 337.7548 338.4328
   338.5632 338.6659 338.7107 338.9769 340.3141 340.9460 341.1820 341.3939
   341.7022 341.8462 341.9738 342.0070 342.5950 342.9784 343.2149 343.2622
   343.2824 343.4215 345.1640 345.6285 345.7085 345.7916 346.0802 346.3463
   346.5320 346.7355 347.3571 347.5330 348.2341 348.3584 348.4140 348.6235
   349.1099 349.1936 349.2728 349.5337 349.6791 349.8463 350.1307 350.2384
   350.3258 350.4662 350.4919 350.8994 351.5171 351.9521 352.2691 352.5158
   352.7765 352.9102 353.1239 353.2424 353.7216 353.7754 354.0860 354.5175
   354.5230 354.6965 355.2483 355.4178 355.7485 356.1070 356.7240 356.7460
   357.5432 357.7302 357.8797 357.8855 358.3854 358.6459 358.7923 359.7323
   360.3305 360.4415 360.6160 360.6592 360.7225 360.9629 362.0448 362.0625
   362.1659 362.4258 363.3059 363.5700 363.6034 363.7182 363.8008 363.8405
   363.9813 364.1297 364.5711 364.8528 366.3762 366.5543 366.6116 366.6513
   367.7722 368.3166 368.3486 368.5012 368.5500 368.5735 369.9617 369.9785
   370.0153 370.2668 370.4800 371.1502 371.6085 371.8429 371.9022 372.1699
   372.2421 372.4335 372.6057 372.8042 373.1052 373.1463 373.1916 373.1941
   373.2720 373.4383 373.4818 373.8802 374.0254 374.2427 374.3004 374.4770
   374.5986 374.7029 374.7239 375.1963 375.3264 375.5641 375.8046 375.9201
   375.9946 376.1982 376.2959 376.3619 376.5678 376.7018 376.7226 376.7665
   377.1600 377.2549 377.2656 377.3734 377.5088 377.5500 378.6158 379.6092
   379.7308 379.8756 379.9996 380.4991 380.7570 380.7885 380.8521 381.0180
   381.0348 381.0703 381.1614 381.2596 382.9410 383.0682 383.2348 383.2787
   385.4375 385.4893 385.5844 385.6500 385.6799 385.8852 386.1570 386.3506
   386.6946 386.8082 387.4293 387.4384 387.5162 387.5683 389.4625 390.0227
   390.2899 390.3099 390.3104 390.5974 390.6086 390.8152 391.2845 391.4011
   391.4177 391.6516 391.9827 392.0010 392.0047 392.0059 392.9553 393.0432
   393.3803 393.6072 394.3553 394.5960 394.5985 394.6243 395.7122 395.9784
   396.1971 396.3000 396.5727 396.6210 396.6630 396.9281 396.9910 397.1388
   397.3060 397.3833 397.4440 397.4709 399.0963 399.4469 399.9625 399.9712
   400.0435 400.0467 400.1664 400.3914 401.3202 401.3255 401.5644 401.9282
   403.0782 403.1447 403.4522 403.7128 403.9354 404.0188 404.9678 404.9745
   405.1589 405.4625 405.7956 405.8278 405.8866 406.0508 406.0793 406.1657
   406.4348 406.5949 406.6499 406.7365 406.8095 406.8500 407.7775 407.8986
   408.0449 408.0546 408.5763 408.6761 410.1097 410.3763 410.7927 410.8704
   410.9258 410.9264 411.1406 411.2182 412.1222 412.5759 413.0427 413.0524
   413.1610 413.1982 413.3611 413.4334 413.5132 413.5586 413.6098 413.6650
   414.1195 414.3424 414.5223 414.5504 414.5913 414.6457 416.9989 417.0059
   417.0286 417.0357 418.0666 418.9414 418.9558 419.4398 420.4303 420.5271
   420.8916 420.9985 421.2571 421.2816 421.3546 421.3654 421.5410 421.6829
   423.3529 423.7798 423.8489 423.9272 423.9492 424.1491 424.3190 424.3982
   424.6002 424.6526 425.1846 425.3403 425.4486 425.5050 425.5837 425.6099
   425.6440 425.7808 425.9479 425.9646 426.2444 426.3181 426.6648 426.7621
   427.0410 427.2911 427.3042 427.5949 428.2933 428.3719 428.5561 428.5861
   429.1985 429.2702 429.4446 429.5072 429.7949 429.8378 430.0197 430.1610
   430.3316 430.4379 430.6791 430.7175 431.5812 431.5853 432.3081 432.5607
   432.9131 433.0434 433.3963 433.4411 433.5168 433.5538 434.4754 434.8616
   434.9022 434.9262 434.9315 434.9665 435.4044 435.4260 435.9813 436.0058
   437.9624 438.5416 438.8614 438.9526 438.9622 438.9869 439.0018 439.1774
   439.9631 439.9955 440.0236 440.0354 440.2574 440.2685 441.3001 441.4080
   441.8584 441.8673 441.8943 441.9484 442.7905 442.9673 443.0159 443.0252

          k = 0.0000 0.0000-0.5984 (  2446 PWs)   bands (ev):

   -26.5383 -26.5383 -26.5175 -26.5175 -26.5104 -14.3943 -14.3943 -14.3770
   -14.3770 -14.3716  -1.4378   1.9662   9.0068   9.0068  10.0389  11.3838
    11.3838  11.9382  18.2171  20.2382  20.2382  20.7360  21.0383  21.0383
    26.1699  26.1699  26.4951  26.4951  26.5508  26.8130  27.8064  29.6417
    34.7335  35.5716  35.5716  36.4796  36.4796  38.2616  38.4109  38.4109
    38.7169  38.7169  38.8568  40.1503  43.6991  46.5425  46.5425  47.3176
    47.3535  47.3535  47.5931  47.5931  48.7067  49.5324  49.5324  50.9866
    51.2235  51.2235  53.0840  53.0840  55.0687  56.0561  56.7722  56.7722
    58.3616  58.3616  58.4346  59.2179  59.3724  59.3724  59.3873  60.1150
    60.1150  61.4105  61.7180  61.7180  62.6177  62.6177  63.1842  64.2326
    64.4444  65.9986  65.9986  66.1378  66.1378  68.9005  69.7038  71.6320
    71.7623  75.6147  75.6147  77.3859  78.2156  78.2156  78.4989  80.0768
    80.0768  80.2621  80.2621  80.3874  81.9361  81.9361  83.1441  84.0921
    84.0921  84.7908  86.8163  86.9428  86.9428  87.7332  87.7498  87.7498
    88.4603  89.3217  89.3769  89.3769  89.8695  89.8695  90.2149  90.2149
    91.3966  92.2448  93.0259  93.5722  93.5722  93.7768  94.4077  94.4077
    96.1513  96.1513  96.8184  97.3470  97.3470  97.5884  97.5884  98.2374
    99.3985  99.3985  99.8216 100.4725 101.1333 101.5618 101.5618 102.0241
   102.0241 102.7668 102.7668 102.9769 102.9769 104.0706 104.0778 104.8830
   104.8830 105.2973 105.8778 106.4186 106.4186 106.5580 106.5580 106.7024
   107.3708 107.5396 107.5396 108.3821 108.3821 110.3067 113.3231 114.1313
   115.3503 115.3503 116.6500 116.8740 116.8740 117.2533 118.2779 118.2779
   118.8511 118.8511 119.1246 119.7547 119.7547 120.3843 121.3414 122.8091
   122.8091 123.7200 123.8326 123.8326 125.2109 125.8425 126.3767 126.3767
   127.1580 127.1580 127.8581 127.8581 128.3933 128.3933 129.0977 129.8210
   129.8210 130.0769 130.0769 130.2059 130.7529 131.3852 131.3852 131.6228
   132.6124 133.9282 136.2243 136.2243 136.3938 136.7972 136.8672 136.8672
   137.0520 137.0520 137.4131 137.5891 138.0221 138.0221 140.5119 140.5119
   141.4874 141.5414 141.5414 142.5062 144.4699 145.0443 145.0443 146.8977
   147.3687 147.3687 147.4811 147.7657 147.7657 147.8645 148.6018 148.6018
   149.4199 149.7834 149.7834 150.2795 151.7669 151.9009 151.9009 152.4087
   152.4087 153.0350 153.0350 153.5350 153.5496 156.0056 156.3314 156.3314
   156.7339 156.7339 157.9938 157.9938 159.0897 159.0897 159.1633 159.6634
   160.0928 160.4646 160.5911 160.5911 161.0857 161.3429 161.3429 161.5248
   162.3749 162.4524 162.4524 163.3531 163.3531 163.7330 163.7330 163.7828
   164.2457 164.5879 164.5879 164.6854 164.6854 164.8691 166.1861 166.2037
   166.7276 166.7276 166.7337 167.6346 167.6346 167.8921 169.3388 169.3388
   169.7724 169.7724 169.8601 169.8601 170.7553 171.1387 171.7485 171.7485
   172.7335 172.7335 172.9576 172.9576 173.0877 173.0877 173.7934 173.7949
   174.1549 174.1549 174.3118 174.6302 174.6302 174.7296 175.7472 176.2285
   176.2285 177.9546 178.0020 178.0020 179.0351 179.0351 180.8788 181.2071
   181.2071 181.3093 181.4063 181.7626 181.7626 182.3767 183.5883 183.5883
   184.3459 184.5864 184.5864 184.9046 186.1421 186.1421 187.7397 187.7397
   188.0026 189.3022 189.4420 189.4420 189.7760 189.7760 189.9330 189.9735
   191.6918 191.6918 192.7975 193.2066 193.2066 195.4217 196.3987 196.4129
   196.4129 196.5225 197.1715 197.1715 197.3768 197.3768 197.4879 198.4239
   198.4543 198.4543 199.1684 199.3486 199.3486 199.4783 201.4461 201.4461
   201.8240 202.3953 202.3953 203.1545 203.1545 203.2827 203.2827 203.4093
   203.6401 204.3103 204.3103 204.9195 204.9639 204.9639 205.0097 205.6096
   205.9939 205.9939 206.9073 207.1086 207.1086 207.3557 207.3557 208.3428
   208.4236 208.4236 212.9361 213.2334 213.2334 213.3526 213.7001 213.7001
   215.6324 216.3687 216.3687 216.8542 216.9860 217.0869 217.0869 218.2405
   218.2600 218.2600 219.1745 220.8759 220.8759 221.4219 221.8335 221.8335
   222.1219 222.4075 222.7914 222.7914 223.2661 223.2661 223.7966 224.4905
   224.7007 224.7007 224.8678 224.8678 225.2304 225.2516 225.2516 226.2591
   226.7464 227.3408 227.3408 227.7102 227.7102 228.1171 228.3091 228.8212
   228.8212 229.3045 231.8380 231.8380 232.9872 233.1914 233.1914 233.7872
   234.1252 234.1252 234.5703 234.6531 234.7331 234.7331 235.0536 235.0794
   235.0794 235.7938 235.7938 236.1837 236.1837 236.3124 237.3489 237.9910
   237.9910 238.5366 239.4922 239.5250 239.5250 239.9617 239.9617 240.0254
   240.1941 240.1941 240.2482 240.4507 240.4507 240.6099 240.6099 240.6127
   240.8286 240.8623 240.8623 240.9182 241.2563 241.3997 241.3997 242.0376
   242.0376 242.0475 242.1051 242.1094 242.1094 244.0441 244.0825 244.0825
   244.2265 244.2265 244.6260 247.1568 247.1568 247.5688 248.0973 248.5537
   248.5537 248.8528 248.8528 249.7943 249.7943 251.0224 251.0224 251.0952
   251.1807 251.1923 251.1923 251.3309 251.7317 253.4170 254.0529 254.0529
   254.5243 254.5243 255.2255 255.5103 255.5103 256.0855 256.0855 256.1841
   256.6092 256.9358 257.1726 257.1726 258.4220 258.6219 258.6219 258.8975
   258.8975 258.8978 259.0820 259.0872 259.0872 259.1894 259.6218 259.6218
   259.7262 259.7262 259.8860 259.8860 260.0939 260.1280 260.2303 260.2303
   260.8180 260.8180 260.9997 261.0060 261.7187 262.2234 262.2234 264.0982
   264.0982 264.2799 264.2799 264.3389 264.4313 264.5020 264.8853 265.0379
   265.0379 265.3617 265.3617 265.8182 265.8700 268.2065 268.2065 268.4985
   268.4985 268.5286 268.6445 269.4965 269.4965 269.8505 269.8505 269.9974
   270.0682 270.1019 270.1019 270.1264 270.1264 270.2973 270.3090 270.4231
   270.4231 270.9396 270.9396 271.0867 271.0867 274.3582 274.3582 274.4057
   274.4057 274.5578 274.6452 276.0451 276.0488 276.1314 276.1314 276.1613
   276.1613 278.9349 279.5389 279.5389 279.6900 280.5701 280.5701 280.7324
   280.7878 280.7878 281.9653 285.1339 285.1339 285.7683 289.3573 289.3573
   289.4018 292.1812 292.1812 293.3247 294.0583 294.2900 294.2900 295.0817
   295.0817 295.2516 295.3424 296.3416 296.5758 296.5758 297.9365 297.9365
   298.4498 299.0648 299.0648 299.8723 299.9428 299.9428 300.0737 301.1074
   301.1074 301.2147 301.2606 301.2606 301.5584 301.5584 301.7158 302.1906
   302.1906 302.2624 302.3911 302.3911 302.6622 302.7913 303.4775 303.4775
   303.5362 304.1950 304.1950 304.3682 304.6452 304.6645 304.6645 304.7084
   304.9401 305.1519 305.1519 305.3860 305.3860 305.6934 305.9269 305.9269
   306.1379 306.4532 306.4532 306.7512 307.0757 307.2797 307.2797 307.7097
   307.7097 307.7217 307.7217 308.7910 308.7940 308.7940 308.8778 308.8778
   308.9954 310.9637 310.9637 310.9701 310.9701 311.1229 311.2142 315.4450
   315.6566 315.6566 316.1987 316.1987 316.3154 316.3154 316.5800 317.0331
   317.4864 317.4864 317.7309 317.7969 317.7969 317.9182 318.2283 318.2283
   318.4595 319.3221 319.3221 319.4415 319.9856 319.9856 320.0927 320.9173
   321.1141 321.1141 321.2823 321.6076 321.6076 321.7462 322.6221 322.6221
   322.7028 322.7028 323.0117 323.0986 323.4546 323.4546 325.4442 325.4806
   325.4806 325.5982 325.5982 325.7461 326.5374 326.5374 326.6641 326.6641
   326.6684 326.7109 326.9537 326.9537 327.1581 327.1581 327.1917 327.3820
   328.3010 328.5354 328.5354 329.1925 329.7416 329.7416 330.2241 330.2241
   330.8957 330.9758 331.5595 331.5595 331.8103 331.8103 331.8696 332.0133
   332.2668 332.8618 333.1658 333.1658 333.4372 333.5336 333.5336 333.7216
   333.7216 333.7329 334.1171 334.1171 334.1572 334.3186 334.3186 334.5767
   334.6110 334.6110 334.6758 334.6758 334.7700 334.7856 334.7856 334.8147
   334.8228 337.3080 338.3634 338.3634 338.4730 338.4730 338.5274 339.2055
   340.9017 341.3326 341.3326 341.4566 341.4566 341.5465 343.0548 343.0548
   343.2785 343.2785 343.3690 343.3690 343.3776 343.3782 344.1455 344.1455
   344.2693 344.5897 345.5232 345.5232 345.8790 345.8790 346.7101 347.0649
   347.0649 347.3375 349.6010 349.6010 350.6062 350.6256 350.6256 350.9805
   351.0233 351.0233 351.2622 351.2702 352.5134 352.5134 353.7746 353.7746
   353.9440 353.9748 353.9748 354.0548 354.0548 354.1068 354.1956 354.9383
   355.1815 355.1815 355.7289 356.0914 356.0914 356.2211 356.2296 356.4319
   356.4319 356.6753 356.6753 356.9261 356.9261 357.1913 357.3062 357.3062
   357.3945 359.1290 360.8847 360.8847 360.9690 361.0106 361.0106 361.0563
   361.3928 361.6783 364.5019 364.5019 364.8148 364.8148 365.0995 365.0995
   365.2829 365.4061 365.4061 365.6044 365.8245 365.8245 366.5452 366.6404
   366.6404 367.2212 367.7890 367.8518 367.8518 367.9324 368.0150 368.0150
   369.6657 369.6657 369.6926 369.6926 369.8278 369.8278 369.8632 369.8654
   369.8654 369.9449 370.2822 370.9003 370.9003 371.5517 371.5517 371.5832
   371.6372 371.6373 371.8481 371.8481 372.2718 372.2718 372.3572 372.5263
   372.6670 372.6793 372.6807 372.6807 372.7926 372.7926 372.8037 372.9962
   372.9962 373.1765 373.2959 373.2960 374.0654 374.0654 374.1999 374.1999
   374.5703 374.5703 374.8225 374.8260 374.9029 375.0417 375.0417 375.5079
   376.0317 376.0317 376.0965 376.1036 376.1367 376.1367 376.8537 376.8537
   376.8790 376.8790 377.0269 377.0278 379.3825 379.3825 379.4586 379.5801
   379.6181 379.6181 379.7946 379.7946 379.8150 379.8150 379.9006 379.9074
   380.2233 380.2264 380.2485 380.2485 380.2543 380.2543 380.9491 381.5935
   383.3416 383.3416 384.3179 384.3526 384.3526 384.4281 388.8679 388.8679
   388.9032 388.9032 390.7860 390.7860 390.8514 390.8621 390.8621 390.8722
   394.6091 394.6091 394.9022 394.9022 395.1139 395.1169 395.1169 395.1667
   396.3122 396.3959 396.3959 396.6870 397.7981 397.7981 398.3300 398.3300
   398.3754 398.5864 398.8299 398.8299 399.1903 399.2462 399.2462 399.3232
   402.0580 402.0580 402.1227 402.1241 402.1241 402.2167 406.3210 406.3682
   406.3682 406.4220 406.4220 407.0198 407.4399 407.4399 407.5000 407.5000
   407.5076 407.9480 408.2098 408.6724 408.6724 409.4457 409.4457 409.5235
   409.8712 409.8712 409.9206 409.9235 409.9235 409.9337 411.1753 411.1764
   411.1764 411.2206 411.2206 411.2276 412.3936 412.3936 412.3965 412.3965
   412.4069 412.4102 412.8652 412.8652 413.2437 413.4636 413.5467 413.5467
   416.9499 416.9499 417.4180 418.1789 418.3191 418.3191 418.9361 418.9926
   420.0216 420.0216 420.1200 420.1200 424.1142 424.4601 424.4601 425.0176
   425.0176 425.0360 425.5334 426.0853 426.0853 426.1433 426.2228 426.3020
   426.3020 426.9048 426.9819 426.9819 427.2398 427.2398 427.3427 427.6705
   428.3510 428.3679 428.3679 428.3707 428.3707 428.5753 429.4368 429.4368
   429.7526 429.7526 429.7668 429.9397 430.7340 430.7340 431.2909 431.3076
   431.3076 431.3545 431.4283 431.4283 431.6046 431.6104 431.6104 431.7520
   431.9442 431.9442 432.6866 432.6866 432.7884 432.7884 432.9287 433.1420
   433.1420 433.3615 433.4759 433.4759 433.6652 433.7917 433.7917 433.9479
   434.7689 434.7689 435.0267 435.0832 435.0832 435.2517 436.0963 436.0963
   436.3620 436.8363 436.9383 436.9383 436.9711 436.9711 437.0127 437.0270
   437.0270 437.1928 438.7837 438.7837 438.9469 438.9791 438.9791 439.0643
   440.2410 440.2410 440.3311 440.4572 440.5432 440.5432 442.1274 442.1952
   442.1952 442.2036 442.2454 442.2454 442.2591 442.2591 442.2876 442.2876
   442.3264 442.3264 442.3409 442.3873 442.3900 442.3900 442.4389 442.4634

     the Fermi energy is    10.5715 ev
     (compare with:    10.6815 eV, computed in scf)

     Writing all to output data dir out/mp-938.save/
 
     init_run     :      0.04s CPU      0.06s WALL (       1 calls)
     electrons    :    287.01s CPU    308.44s WALL (       1 calls)

     Called by init_run:
     wfcinit      :      0.00s CPU      0.00s WALL (       1 calls)
     potinit      :      0.01s CPU      0.02s WALL (       1 calls)
     hinit0       :      0.02s CPU      0.03s WALL (       1 calls)

     Called by electrons:
     c_bands      :    287.01s CPU    308.44s WALL (       1 calls)
     v_of_rho     :      0.00s CPU      0.01s WALL (       1 calls)

     Called by c_bands:
     init_us_2    :      0.00s CPU      0.00s WALL (       4 calls)
     init_us_2:cp :      0.00s CPU      0.00s WALL (       4 calls)
     paro_k       :    277.79s CPU    298.49s WALL (       4 calls)

     Called by paro_*:
     h_psi        :      5.21s CPU      5.47s WALL (     420 calls)
     g_psi        :      0.11s CPU      0.13s WALL (   40816 calls)

     Called by h_psi:
     h_psi:calbec :      0.13s CPU      0.14s WALL (     420 calls)
     vloc_psi     :      4.95s CPU      5.19s WALL (     420 calls)
     add_vuspsi   :      0.10s CPU      0.10s WALL (     420 calls)

     General routines
     calbec       :      0.13s CPU      0.14s WALL (     420 calls)
     fft          :      0.00s CPU      0.01s WALL (      10 calls)
     fftw         :      4.41s CPU      4.62s WALL (   66654 calls)
 
     Parallel routines
 
     PWSCF        :   4m47.68s CPU   5m 9.49s WALL

 
   This run was terminated on:  15:31:58   7Dec2023            

=------------------------------------------------------------------------------=
   JOB DONE.
=------------------------------------------------------------------------------=
