
     Program PWSCF v.7.1 starts on 21Dec2023 at  4:22:33 

     This program is part of the open-source Quantum ESPRESSO suite
     for quantum simulation of materials; please cite
         "P. Giannozzi et al., J. Phys.:Condens. Matter 21 395502 (2009);
         "P. Giannozzi et al., J. Phys.:Condens. Matter 29 465901 (2017);
         "P. Giannozzi et al., J. Chem. Phys. 152 154105 (2020);
          URL http://www.quantum-espresso.org", 
     in publications or presentations arising from this work. More details at
     http://www.quantum-espresso.org/quote

     Parallel version (MPI), running on    24 processors

     MPI processes distributed on     1 nodes
     123248 MiB available memory on the printing compute node when the environment starts
 
     Reading input from pw_mp-24084_scf_k3000_E80.in
Warning: card &CELL ignored
Warning: card / ignored

     Current dimensions of program PWSCF are:
     Max number of different atomic species (ntypx) = 10
     Max number of k-points (npk) =  40000
     Max angular momentum in pseudopotentials (lmaxx) =  4
 
     K-points division:     npool     =       2
     R & G space division:  proc/nbgrp/npool/nimage =      12
     Subspace diagonalization in iterative solution of the eigenvalue problem:
     a serial algorithm will be used

 
     Parallelization info
     --------------------
     sticks:   dense  smooth     PW     G-vecs:    dense   smooth      PW
     Min         106     106     30                 2482     2482     389
     Max         107     107     31                 2485     2485     393
     Sum        1273    1273    367                29795    29795    4693
 
     Using Slab Decomposition
 


     bravais-lattice index     =            2
     lattice parameter (alat)  =      10.7195  a.u.
     unit-cell volume          =     307.9353 (a.u.)^3
     number of atoms/cell      =            2
     number of atomic types    =            2
     number of electrons       =        10.00
     number of Kohn-Sham states=           10
     kinetic-energy cutoff     =      80.0000  Ry
     charge density cutoff     =     320.0000  Ry
     scf convergence threshold =      1.0E-10
     mixing beta               =       0.7000
     number of iterations used =            8  plain     mixing
     Exchange-correlation= PBE
                           (   1   4   3   4   0   0   0)

     celldm(1)=  10.719466  celldm(2)=   0.000000  celldm(3)=   0.000000
     celldm(4)=   0.000000  celldm(5)=   0.000000  celldm(6)=   0.000000

     crystal axes: (cart. coord. in units of alat)
               a(1) = (  -0.500000   0.000000   0.500000 )  
               a(2) = (   0.000000   0.500000   0.500000 )  
               a(3) = (  -0.500000   0.500000   0.000000 )  

     reciprocal axes: (cart. coord. in units 2 pi/alat)
               b(1) = ( -1.000000 -1.000000  1.000000 )  
               b(2) = (  1.000000  1.000000  1.000000 )  
               b(3) = ( -1.000000  1.000000 -1.000000 )  


     PseudoPot. # 1 for H  read from file:
     /usr/scratch4/magr4985/MG/HTDF/pseudo/SG15/H.upf
     MD5 check sum: bf21e08b90ac4ce7d0149ac4e8138190
     Pseudo is Norm-conserving, Zval =  1.0
     Generated using ONCVPSP code by D. R. Hamann
     Using radial grid of  602 points,  2 beta functions with: 
                l(1) =   0
                l(2) =   0

     PseudoPot. # 2 for K  read from file:
     /usr/scratch4/magr4985/MG/HTDF/pseudo/SG15/K.upf
     MD5 check sum: 254690d02b26e0029262a4c77e854448
     Pseudo is Norm-conserving, Zval =  9.0
     Generated using ONCVPSP code by D. R. Hamann
     Using radial grid of  602 points,  6 beta functions with: 
                l(1) =   0
                l(2) =   0
                l(3) =   1
                l(4) =   1
                l(5) =   2
                l(6) =   2

     atomic species   valence    mass     pseudopotential
        H              1.00     1.00790     H ( 1.00)
        K              9.00    39.09830     K ( 1.00)

     48 Sym. Ops., with inversion, found



   Cartesian axes

     site n.     atom                  positions (alat units)
         1           K   tau(   1) = (   0.0000000   0.0000000   0.0000000  )
         2           H   tau(   2) = (  -0.5000000   0.5000000   0.5000000  )

     number of k points=    72  Gaussian smearing, width (Ry)=  0.0005
                       cart. coord. in units 2pi/alat
        k(    1) = (   0.0000000   0.0000000   0.0000000), wk =   0.0011574
        k(    2) = (  -0.0833333   0.0833333  -0.0833333), wk =   0.0092593
        k(    3) = (  -0.1666667   0.1666667  -0.1666667), wk =   0.0092593
        k(    4) = (  -0.2500000   0.2500000  -0.2500000), wk =   0.0092593
        k(    5) = (  -0.3333333   0.3333333  -0.3333333), wk =   0.0092593
        k(    6) = (  -0.4166667   0.4166667  -0.4166667), wk =   0.0092593
        k(    7) = (   0.5000000  -0.5000000   0.5000000), wk =   0.0046296
        k(    8) = (   0.0000000   0.1666667   0.0000000), wk =   0.0069444
        k(    9) = (  -0.0833333   0.2500000  -0.0833333), wk =   0.0277778
        k(   10) = (  -0.1666667   0.3333333  -0.1666667), wk =   0.0277778
        k(   11) = (  -0.2500000   0.4166667  -0.2500000), wk =   0.0277778
        k(   12) = (  -0.3333333   0.5000000  -0.3333333), wk =   0.0277778
        k(   13) = (   0.5833333  -0.4166667   0.5833333), wk =   0.0277778
        k(   14) = (   0.5000000  -0.3333333   0.5000000), wk =   0.0277778
        k(   15) = (   0.4166667  -0.2500000   0.4166667), wk =   0.0277778
        k(   16) = (   0.3333333  -0.1666667   0.3333333), wk =   0.0277778
        k(   17) = (   0.2500000  -0.0833333   0.2500000), wk =   0.0277778
        k(   18) = (   0.1666667  -0.0000000   0.1666667), wk =   0.0138889
        k(   19) = (   0.0000000   0.3333333   0.0000000), wk =   0.0069444
        k(   20) = (  -0.0833333   0.4166667  -0.0833333), wk =   0.0277778
        k(   21) = (  -0.1666667   0.5000000  -0.1666667), wk =   0.0277778
        k(   22) = (  -0.2500000   0.5833333  -0.2500000), wk =   0.0277778
        k(   23) = (   0.6666667  -0.3333333   0.6666667), wk =   0.0277778
        k(   24) = (   0.5833333  -0.2500000   0.5833333), wk =   0.0277778
        k(   25) = (   0.5000000  -0.1666667   0.5000000), wk =   0.0277778
        k(   26) = (   0.4166667  -0.0833333   0.4166667), wk =   0.0277778
        k(   27) = (   0.3333333   0.0000000   0.3333333), wk =   0.0138889
        k(   28) = (   0.0000000   0.5000000   0.0000000), wk =   0.0069444
        k(   29) = (  -0.0833333   0.5833333  -0.0833333), wk =   0.0277778
        k(   30) = (  -0.1666667   0.6666667  -0.1666667), wk =   0.0277778
        k(   31) = (   0.7500000  -0.2500000   0.7500000), wk =   0.0277778
        k(   32) = (   0.6666667  -0.1666667   0.6666667), wk =   0.0277778
        k(   33) = (   0.5833333  -0.0833333   0.5833333), wk =   0.0277778
        k(   34) = (   0.5000000   0.0000000   0.5000000), wk =   0.0138889
        k(   35) = (   0.0000000   0.6666667   0.0000000), wk =   0.0069444
        k(   36) = (  -0.0833333   0.7500000  -0.0833333), wk =   0.0277778
        k(   37) = (   0.8333333  -0.1666667   0.8333333), wk =   0.0277778
        k(   38) = (   0.7500000  -0.0833333   0.7500000), wk =   0.0277778
        k(   39) = (   0.6666667  -0.0000000   0.6666667), wk =   0.0138889
        k(   40) = (   0.0000000   0.8333333   0.0000000), wk =   0.0069444
        k(   41) = (   0.9166667  -0.0833333   0.9166667), wk =   0.0277778
        k(   42) = (   0.8333333   0.0000000   0.8333333), wk =   0.0138889
        k(   43) = (   0.0000000  -1.0000000   0.0000000), wk =   0.0034722
        k(   44) = (  -0.1666667   0.3333333   0.0000000), wk =   0.0277778
        k(   45) = (  -0.2500000   0.4166667  -0.0833333), wk =   0.0555556
        k(   46) = (  -0.3333333   0.5000000  -0.1666667), wk =   0.0555556
        k(   47) = (   0.5833333  -0.4166667   0.7500000), wk =   0.0555556
        k(   48) = (   0.5000000  -0.3333333   0.6666667), wk =   0.0277778
        k(   49) = (  -0.1666667   0.5000000   0.0000000), wk =   0.0277778
        k(   50) = (  -0.2500000   0.5833333  -0.0833333), wk =   0.0555556
        k(   51) = (   0.6666667  -0.3333333   0.8333333), wk =   0.0555556
        k(   52) = (   0.5833333  -0.2500000   0.7500000), wk =   0.0555556
        k(   53) = (   0.5000000  -0.1666667   0.6666667), wk =   0.0555556
        k(   54) = (   0.4166667  -0.0833333   0.5833333), wk =   0.0555556
        k(   55) = (   0.3333333   0.0000000   0.5000000), wk =   0.0277778
        k(   56) = (  -0.1666667   0.6666667  -0.0000000), wk =   0.0277778
        k(   57) = (   0.7500000  -0.2500000   0.9166667), wk =   0.0555556
        k(   58) = (   0.6666667  -0.1666667   0.8333333), wk =   0.0555556
        k(   59) = (   0.5833333  -0.0833333   0.7500000), wk =   0.0555556
        k(   60) = (   0.5000000   0.0000000   0.6666667), wk =   0.0277778
        k(   61) = (   0.8333333  -0.1666667   1.0000000), wk =   0.0277778
        k(   62) = (   0.7500000  -0.0833333   0.9166667), wk =   0.0555556
        k(   63) = (   0.6666667   0.0000000   0.8333333), wk =   0.0277778
        k(   64) = (  -0.1666667  -1.0000000  -0.0000000), wk =   0.0138889
        k(   65) = (   0.6666667  -0.3333333   1.0000000), wk =   0.0277778
        k(   66) = (   0.5833333  -0.2500000   0.9166667), wk =   0.0555556
        k(   67) = (   0.5000000  -0.1666667   0.8333333), wk =   0.0277778
        k(   68) = (   0.6666667  -0.1666667   1.0000000), wk =   0.0277778
        k(   69) = (   0.5833333  -0.0833333   0.9166667), wk =   0.0555556
        k(   70) = (   0.5000000   0.0000000   0.8333333), wk =   0.0277778
        k(   71) = (  -0.3333333  -1.0000000   0.0000000), wk =   0.0138889
        k(   72) = (  -0.5000000  -1.0000000   0.0000000), wk =   0.0069444

     Dense  grid:    29795 G-vectors     FFT dimensions: (  45,  45,  45)

     Estimated max dynamical RAM per process >       4.89 MB

     Estimated total dynamical RAM >     110.04 MB

     Initial potential from superposition of free atoms

     starting charge       9.7330, renormalised to      10.0000
     Starting wfcs are random

     total cpu time spent up to now is        0.7 secs

     Self-consistent Calculation

     iteration #  1     ecut=    80.00 Ry     beta= 0.70
     Davidson diagonalization with overlap
     ethr =  1.00E-02,  avg # of iterations =  8.5

     total cpu time spent up to now is        1.5 secs

     total energy              =     -57.96647993 Ry
     estimated scf accuracy    <       0.19898752 Ry

     iteration #  2     ecut=    80.00 Ry     beta= 0.70
     Davidson diagonalization with overlap
     ethr =  1.99E-03,  avg # of iterations =  2.1

     total cpu time spent up to now is        1.9 secs

     total energy              =     -58.02050574 Ry
     estimated scf accuracy    <       0.01551363 Ry

     iteration #  3     ecut=    80.00 Ry     beta= 0.70
     Davidson diagonalization with overlap
     ethr =  1.55E-04,  avg # of iterations =  4.8

     total cpu time spent up to now is        2.3 secs

     total energy              =     -58.02349965 Ry
     estimated scf accuracy    <       0.00028722 Ry

     iteration #  4     ecut=    80.00 Ry     beta= 0.70
     Davidson diagonalization with overlap
     c_bands:  1 eigenvalues not converged
     ethr =  2.87E-06,  avg # of iterations = 10.3

     total cpu time spent up to now is        2.9 secs

     total energy              =     -58.02359702 Ry
     estimated scf accuracy    <       0.00000584 Ry

     iteration #  5     ecut=    80.00 Ry     beta= 0.70
     Davidson diagonalization with overlap
     ethr =  5.84E-08,  avg # of iterations =  2.2

     total cpu time spent up to now is        3.2 secs

     total energy              =     -58.02359941 Ry
     estimated scf accuracy    <       0.00000021 Ry

     iteration #  6     ecut=    80.00 Ry     beta= 0.70
     Davidson diagonalization with overlap
     ethr =  2.08E-09,  avg # of iterations =  2.9

     total cpu time spent up to now is        3.6 secs

     total energy              =     -58.02359956 Ry
     estimated scf accuracy    <       0.00000002 Ry

     iteration #  7     ecut=    80.00 Ry     beta= 0.70
     Davidson diagonalization with overlap
     ethr =  2.09E-10,  avg # of iterations =  2.2

     total cpu time spent up to now is        3.9 secs

     total energy              =     -58.02359957 Ry
     estimated scf accuracy    <          2.7E-09 Ry

     iteration #  8     ecut=    80.00 Ry     beta= 0.70
     Davidson diagonalization with overlap
     ethr =  2.71E-11,  avg # of iterations =  2.2

     total cpu time spent up to now is        4.2 secs

     End of self-consistent calculation

          k = 0.0000 0.0000 0.0000 (  3719 PWs)   bands (ev):

   -27.5151 -10.8669 -10.8669 -10.8669  -0.3918   9.2251   9.2251   9.2251
     9.4443  10.7334

          k =-0.0833 0.0833-0.0833 (  3728 PWs)   bands (ev):

   -27.5130 -10.8905 -10.8695 -10.8695  -0.2950   8.8795   9.2712   9.2712
     9.3562  10.6011

          k =-0.1667 0.1667-0.1667 (  3737 PWs)   bands (ev):

   -27.5071 -10.9540 -10.8764 -10.8764  -0.0181   7.9570   9.3188   9.3188
     9.3535  10.4258

          k =-0.2500 0.2500-0.2500 (  3717 PWs)   bands (ev):

   -27.4990 -11.0385 -10.8859 -10.8859   0.3993   6.9142   9.1679   9.1680
     9.4702  10.5828

          k =-0.3333 0.3333-0.3333 (  3723 PWs)   bands (ev):

   -27.4909 -11.1208 -10.8953 -10.8953   0.8887   5.9623   8.9103   8.9103
     9.7474  11.0335

          k =-0.4167 0.4167-0.4167 (  3726 PWs)   bands (ev):

   -27.4849 -11.1797 -10.9022 -10.9022   1.3307   5.2462   8.7158   8.7158
    10.1497  11.5263

          k = 0.5000-0.5000 0.5000 (  3750 PWs)   bands (ev):

   -27.4828 -11.2010 -10.9047 -10.9047   1.5246   4.9622   8.6462   8.6462
    10.4019  11.7587

          k = 0.0000 0.1667 0.0000 (  3735 PWs)   bands (ev):

   -27.5123 -10.8903 -10.8743 -10.8743  -0.2647   8.9774   9.0789   9.2662
     9.2662  10.4916

          k =-0.0833 0.2500-0.0833 (  3717 PWs)   bands (ev):

   -27.5076 -10.9372 -10.8832 -10.8791  -0.0537   8.2687   8.7649   9.3158
     9.5703  10.3402

          k =-0.1667 0.3333-0.1667 (  3723 PWs)   bands (ev):

   -27.5003 -11.0127 -10.8938 -10.8871   0.3072   7.2637   8.5893   9.2621
    10.0261  10.1648

          k =-0.2500 0.4167-0.2500 (  3713 PWs)   bands (ev):

   -27.4922 -11.0933 -10.9032 -10.8982   0.7601   6.3064   8.4715   9.0635
    10.1150  10.6111

          k =-0.3333 0.5000-0.3333 (  3729 PWs)   bands (ev):

   -27.4855 -11.1578 -10.9095 -10.9090   1.2086   5.5338   8.3906   8.8547
    10.3140  11.2393

          k = 0.5833-0.4167 0.5833 (  3725 PWs)   bands (ev):

   -27.4821 -11.1903 -10.9178 -10.9095   1.4895   5.1084   8.3459   8.7351
    10.6295  11.7665

          k = 0.5000-0.3333 0.5000 (  3723 PWs)   bands (ev):

   -27.4828 -11.1834 -10.9209 -10.9048   1.4309   5.1967   8.3423   8.7458
    10.6084  11.4680

          k = 0.4167-0.2500 0.4167 (  3722 PWs)   bands (ev):

   -27.4875 -11.1387 -10.9178 -10.8960   1.0744   5.7594   8.3678   8.8971
    10.3435  10.9082

          k = 0.3333-0.1667 0.3333 (  3712 PWs)   bands (ev):

   -27.4949 -11.0672 -10.9090 -10.8854   0.6099   6.6147   8.4148   9.1734
    10.1706  10.3494

          k = 0.2500-0.0833 0.2500 (  3713 PWs)   bands (ev):

   -27.5029 -10.9873 -10.8965 -10.8759   0.1777   7.6163   8.5081   9.4629
     9.9662   9.9974

          k = 0.1667-0.0000 0.1667 (  3723 PWs)   bands (ev):

   -27.5096 -10.9221 -10.8820 -10.8701  -0.1401   8.5802   8.7058   9.3938
     9.6398  10.2174

          k = 0.0000 0.3333 0.0000 (  3703 PWs)   bands (ev):

   -27.5044 -10.9509 -10.8943 -10.8943   0.0753   8.1023   8.4272   9.4073
     9.4073  10.5496

          k =-0.0833 0.4167-0.0833 (  3707 PWs)   bands (ev):

   -27.4983 -11.0038 -10.9069 -10.9049   0.3472   7.4554   8.0960   9.4618
     9.7131  10.6216

          k =-0.1667 0.5000-0.1667 (  3715 PWs)   bands (ev):

   -27.4910 -11.0704 -10.9183 -10.9174   0.7155   6.6761   7.9037   9.3577
    10.0912  10.8064

          k =-0.2500 0.5833-0.2500 (  3730 PWs)   bands (ev):

   -27.4843 -11.1284 -10.9353 -10.9232   1.1048   5.9757   7.8428   9.1615
    10.3525  11.3102

          k = 0.6667-0.3333 0.6667 (  3718 PWs)   bands (ev):

   -27.4802 -11.1629 -10.9516 -10.9227   1.4007   5.5107   7.8222   8.9976
    10.7024  11.9124

          k = 0.5833-0.2500 0.5833 (  3711 PWs)   bands (ev):

   -27.4796 -11.1662 -10.9621 -10.9160   1.4673   5.4231   7.7675   8.9346
    11.1225  11.4702

          k = 0.5000-0.1667 0.5000 (  3724 PWs)   bands (ev):

   -27.4829 -11.1390 -10.9626 -10.9050   1.2632   5.7567   7.6828   9.0006
    10.8958  11.0960

          k = 0.4167-0.0833 0.4167 (  3721 PWs)   bands (ev):

   -27.4890 -11.0901 -10.9507 -10.8924   0.8965   6.4018   7.6516   9.1991
    10.3191  10.9154

          k = 0.3333 0.0000 0.3333 (  3719 PWs)   bands (ev):

   -27.4963 -11.0346 -10.9264 -10.8818   0.5026   7.1455   7.8322   9.4940
     9.8738  10.5524

          k = 0.0000 0.5000 0.0000 (  3727 PWs)   bands (ev):

   -27.4937 -11.0268 -10.9217 -10.9217   0.5079   7.2330   7.8461   9.6843
     9.6843  10.8893

          k =-0.0833 0.5833-0.0833 (  3709 PWs)   bands (ev):

   -27.4877 -11.0706 -10.9374 -10.9342   0.7563   6.8641   7.5652   9.7559
     9.9623  11.1122

          k =-0.1667 0.6667-0.1667 (  3721 PWs)   bands (ev):

   -27.4818 -11.1111 -10.9602 -10.9411   1.0406   6.4364   7.4189   9.6217
    10.2170  11.5164

          k = 0.7500-0.2500 0.7500 (  3717 PWs)   bands (ev):

   -27.4776 -11.1337 -10.9882 -10.9406   1.2915   6.0659   7.3823   9.4207
    10.4227  11.8791

          k = 0.6667-0.1667 0.6667 (  3715 PWs)   bands (ev):

   -27.4763 -11.1341 -11.0126 -10.9328   1.4280   5.8877   7.2991   9.2617
    10.8012  11.5503

          k = 0.5833-0.0833 0.5833 (  3719 PWs)   bands (ev):

   -27.4783 -11.1198 -11.0191 -10.9198   1.3899   5.9595   7.1688   9.1854
    11.0380  11.4356

          k = 0.5000 0.0000 0.5000 (  3733 PWs)   bands (ev):

   -27.4829 -11.1054 -10.9949 -10.9050   1.1871   6.1939   7.2071   9.1841
    10.5767  11.4105

          k = 0.0000 0.6667 0.0000 (  3711 PWs)   bands (ev):

   -27.4831 -11.0952 -10.9489 -10.9489   0.8673   6.8185   7.3762  10.1240
    10.1240  11.3115

          k =-0.0833 0.7500-0.0833 (  3722 PWs)   bands (ev):

   -27.4784 -11.1211 -10.9668 -10.9577   1.0230   6.7310   7.1901  10.1952
    10.3321  11.6050

          k = 0.8333-0.1667 0.8333 (  3727 PWs)   bands (ev):

   -27.4750 -11.1297 -10.9984 -10.9583   1.1915   6.5923   7.1045   9.9834
    10.2848  12.0963

          k = 0.7500-0.0833 0.7500 (  3729 PWs)   bands (ev):

   -27.4737 -11.1136 -11.0403 -10.9506   1.3354   6.4470   7.0088   9.6961
    10.2922  11.7044

          k = 0.6667-0.0000 0.6667 (  3717 PWs)   bands (ev):

   -27.4749 -11.0862 -11.0718 -10.9365   1.4128   6.2589   6.9340   9.4222
    10.7214  11.3322

          k = 0.0000 0.8333 0.0000 (  3728 PWs)   bands (ev):

   -27.4753 -11.1409 -10.9688 -10.9688   1.0517   6.8350   7.0780  10.7137
    10.7138  11.6555

          k = 0.9167-0.0833 0.9167 (  3722 PWs)   bands (ev):

   -27.4731 -11.1475 -10.9842 -10.9713   1.1223   6.8767   6.9907  10.6211
    10.6488  12.0071

          k = 0.8333 0.0000 0.8333 (  3738 PWs)   bands (ev):

   -27.4726 -11.1333 -11.0148 -10.9647   1.2236   6.8396   6.9050  10.1918
    10.2210  11.9077

          k = 0.0000-1.0000 0.0000 (  3692 PWs)   bands (ev):

   -27.4724 -11.1568 -10.9760 -10.9760   1.0976   6.9300   6.9764  11.1797
    11.1799  11.7738

          k =-0.1667 0.3333 0.0000 (  3719 PWs)   bands (ev):

   -27.5022 -10.9814 -10.9030 -10.8835   0.1925   7.7811   8.2192   9.5767
     9.6134  10.3467

          k =-0.2500 0.4167-0.0833 (  3720 PWs)   bands (ev):

   -27.4949 -11.0461 -10.9223 -10.8915   0.5588   6.9474   7.9722   9.3738
    10.0062  10.5772

          k =-0.3333 0.5000-0.1667 (  3724 PWs)   bands (ev):

   -27.4875 -11.1115 -10.9361 -10.9025   0.9771   6.1302   7.9138   9.1044
    10.4170  10.8946

          k = 0.5833-0.4167 0.7500 (  3728 PWs)   bands (ev):

   -27.4821 -11.1591 -10.9438 -10.9124   1.3376   5.5282   7.9292   8.9207
    10.7440  11.3736

          k = 0.5000-0.3333 0.6667 (  3726 PWs)   bands (ev):

   -27.4801 -11.1764 -10.9460 -10.9165   1.4880   5.2983   7.9446   8.8569
    10.9901  11.5559

          k =-0.1667 0.5000 0.0000 (  3711 PWs)   bands (ev):

   -27.4923 -11.0465 -10.9315 -10.9114   0.6130   7.0372   7.7176   9.5786
     9.8488  10.8778

          k =-0.2500 0.5833-0.0833 (  3717 PWs)   bands (ev):

   -27.4856 -11.0936 -10.9540 -10.9215   0.9371   6.5109   7.5017   9.4057
    10.2303  11.1989

          k = 0.6667-0.3333 0.8333 (  3725 PWs)   bands (ev):

   -27.4803 -11.1303 -10.9726 -10.9308   1.2419   6.0149   7.4812   9.2064
    10.5733  11.5925

          k = 0.5833-0.2500 0.7500 (  3714 PWs)   bands (ev):

   -27.4775 -11.1468 -10.9872 -10.9324   1.4284   5.7336   7.4871   9.0814
    10.9415  11.5589

          k = 0.5000-0.1667 0.6667 (  3718 PWs)   bands (ev):

   -27.4783 -11.1402 -10.9933 -10.9254   1.4137   5.7700   7.4166   9.0643
    11.1191  11.4314

          k = 0.4167-0.0833 0.5833 (  3721 PWs)   bands (ev):

   -27.4822 -11.1154 -10.9845 -10.9130   1.2023   6.1096   7.3385   9.1529
    10.6412  11.3844

          k = 0.3333 0.0000 0.5000 (  3707 PWs)   bands (ev):

   -27.4883 -11.0816 -10.9584 -10.9002   0.8833   6.5847   7.4566   9.3096
    10.1983  11.0765

          k =-0.1667 0.6667-0.0000 (  3718 PWs)   bands (ev):

   -27.4823 -11.1005 -10.9600 -10.9434   0.9557   6.6994   7.3054   9.7497
    10.2706  11.3747

          k = 0.7500-0.2500 0.9167 (  3725 PWs)   bands (ev):

   -27.4777 -11.1200 -10.9863 -10.9524   1.1662   6.5024   7.1693   9.5189
    10.5780  11.7040

          k = 0.6667-0.1667 0.8333 (  3726 PWs)   bands (ev):

   -27.4750 -11.1205 -11.0188 -10.9525   1.3358   6.2992   7.1465   9.2980
    10.7064  11.7919

          k = 0.5833-0.0833 0.7500 (  3727 PWs)   bands (ev):

   -27.4749 -11.1061 -11.0452 -10.9432   1.4130   6.2055   7.0459   9.2041
    10.9601  11.4223

          k = 0.5000 0.0000 0.6667 (  3724 PWs)   bands (ev):

   -27.4776 -11.1063 -11.0312 -10.9283   1.3653   6.1729   7.0203   9.1809
    10.9802  11.5366

          k = 0.8333-0.1667 1.0000 (  3720 PWs)   bands (ev):

   -27.4751 -11.1339 -10.9807 -10.9690   1.1239   6.7822   7.0401   9.9354
    10.8481  11.7092

          k = 0.7500-0.0833 0.9167 (  3726 PWs)   bands (ev):

   -27.4731 -11.1275 -11.0104 -10.9705   1.2394   6.7684   6.9686   9.4899
    10.9407  11.9610

          k = 0.6667 0.0000 0.8333 (  3729 PWs)   bands (ev):

   -27.4730 -11.1014 -11.0510 -10.9601   1.3455   6.6345   6.8931   9.2684
    10.7871  11.7046

          k =-0.1667-1.0000-0.0000 (  3720 PWs)   bands (ev):

   -27.4724 -11.1449 -10.9883 -10.9788   1.1630   6.9137   6.9490   9.9709
    11.3330  11.8219

          k = 0.6667-0.3333 1.0000 (  3730 PWs)   bands (ev):

   -27.4803 -11.1087 -10.9902 -10.9331   1.1689   6.4063   7.1562   9.2775
    10.6091  11.5241

          k = 0.5833-0.2500 0.9167 (  3715 PWs)   bands (ev):

   -27.4764 -11.1146 -11.0171 -10.9460   1.3463   6.2480   7.1078   9.1033
    10.9919  11.7181

          k = 0.5000-0.1667 0.8333 (  3718 PWs)   bands (ev):

   -27.4749 -11.1156 -11.0273 -10.9517   1.4131   6.1619   7.1558   9.0168
    11.1583  11.5063

          k = 0.6667-0.1667 1.0000 (  3736 PWs)   bands (ev):

   -27.4745 -11.1145 -11.0134 -10.9679   1.2834   6.6475   6.9635   9.1280
    11.1572  11.8413

          k = 0.5833-0.0833 0.9167 (  3723 PWs)   bands (ev):

   -27.4730 -11.0945 -11.0453 -10.9738   1.3649   6.6529   6.9453   8.8284
    11.3687  11.8354

          k = 0.5000 0.0000 0.8333 (  3726 PWs)   bands (ev):

   -27.4737 -11.0858 -11.0576 -10.9637   1.3895   6.5485   6.9071   8.8898
    11.4601  11.4676

          k =-0.3333-1.0000 0.0000 (  3730 PWs)   bands (ev):

   -27.4723 -11.1122 -11.0218 -10.9844   1.3014   6.8819   6.8971   8.9303
    11.6918  11.9629

          k =-0.5000-1.0000 0.0000 (  3704 PWs)   bands (ev):

   -27.4723 -11.0672 -11.0672 -10.9872   1.3749   6.8693   6.8693   8.5466
    12.0256  12.0360

     the Fermi energy is     2.2247 ev

!    total energy              =     -58.02359957 Ry
     estimated scf accuracy    <          9.2E-12 Ry
     smearing contrib. (-TS)   =      -0.00000000 Ry
     internal energy E=F+TS    =     -58.02359957 Ry

     The total energy is F=E-TS. E is the sum of the following terms:
     one-electron contribution =     -26.92616824 Ry
     hartree contribution      =      15.16638109 Ry
     xc contribution           =      -9.36142595 Ry
     ewald contribution        =     -36.90238647 Ry

     convergence has been achieved in   8 iterations

     Writing all to output data dir out/mp-24084.save/
 
     init_run     :      0.24s CPU      0.35s WALL (       1 calls)
     electrons    :      3.23s CPU      3.67s WALL (       1 calls)

     Called by init_run:
     wfcinit      :      0.21s CPU      0.26s WALL (       1 calls)
     potinit      :      0.01s CPU      0.01s WALL (       1 calls)
     hinit0       :      0.01s CPU      0.04s WALL (       1 calls)

     Called by electrons:
     c_bands      :      2.73s CPU      2.98s WALL (       8 calls)
     sum_band     :      0.46s CPU      0.53s WALL (       8 calls)
     v_of_rho     :      0.04s CPU      0.04s WALL (       9 calls)
     mix_rho      :      0.01s CPU      0.01s WALL (       8 calls)

     Called by c_bands:
     init_us_2    :      0.05s CPU      0.05s WALL (     612 calls)
     init_us_2:cp :      0.05s CPU      0.05s WALL (     612 calls)
     cegterg      :      2.40s CPU      2.49s WALL (     288 calls)

     Called by *egterg:
     cdiaghg      :      0.19s CPU      0.20s WALL (    1508 calls)
     h_psi        :      2.20s CPU      2.30s WALL (    1544 calls)
     g_psi        :      0.01s CPU      0.01s WALL (    1220 calls)

     Called by h_psi:
     h_psi:calbec :      0.05s CPU      0.05s WALL (    1544 calls)
     vloc_psi     :      2.11s CPU      2.20s WALL (    1544 calls)
     add_vuspsi   :      0.03s CPU      0.04s WALL (    1544 calls)

     General routines
     calbec       :      0.05s CPU      0.05s WALL (    1544 calls)
     fft          :      0.02s CPU      0.04s WALL (      89 calls)
     ffts         :      0.00s CPU      0.00s WALL (       8 calls)
     fftw         :      2.29s CPU      2.40s WALL (   22930 calls)
     davcio       :      0.04s CPU      0.22s WALL (    1004 calls)
 
     Parallel routines
 
     PWSCF        :      3.56s CPU      5.16s WALL

 
   This run was terminated on:   4:22:38  21Dec2023            

=------------------------------------------------------------------------------=
   JOB DONE.
=------------------------------------------------------------------------------=
