
     Program PWSCF v.7.1 starts on 19Nov2023 at 17:45:36 

     This program is part of the open-source Quantum ESPRESSO suite
     for quantum simulation of materials; please cite
         "P. Giannozzi et al., J. Phys.:Condens. Matter 21 395502 (2009);
         "P. Giannozzi et al., J. Phys.:Condens. Matter 29 465901 (2017);
         "P. Giannozzi et al., J. Chem. Phys. 152 154105 (2020);
          URL http://www.quantum-espresso.org", 
     in publications or presentations arising from this work. More details at
     http://www.quantum-espresso.org/quote

     Parallel version (MPI), running on    24 processors

     MPI processes distributed on     1 nodes
     123273 MiB available memory on the printing compute node when the environment starts
 
     Reading input from pw_mp-10695_nscf_k690_E81.in
Warning: card &IONS ignored
Warning: card / ignored
Warning: card &CELL ignored
Warning: card / ignored

     Current dimensions of program PWSCF are:
     Max number of different atomic species (ntypx) = 10
     Max number of k-points (npk) =  40000
     Max angular momentum in pseudopotentials (lmaxx) =  4

     Atomic positions and unit cell read from directory:
     out/mp-10695.save/
     Atomic positions from file used, from input discarded
 
 
     K-points division:     npool     =       2
     R & G space division:  proc/nbgrp/npool/nimage =      12
     Subspace diagonalization in iterative solution of the eigenvalue problem:
     one sub-group per band group will be used
     scalapack distributed-memory algorithm (size of sub-group:  3*  3 procs)

 
     Parallelization info
     --------------------
     sticks:   dense  smooth     PW     G-vecs:    dense   smooth      PW
     Min          96      96     29                 2156     2156     356
     Max          97      97     30                 2159     2159     359
     Sum        1159    1159    349                25893    25893    4279
 
     Using Slab Decomposition
 


     bravais-lattice index     =            2
     lattice parameter (alat)  =      10.1806  a.u.
     unit-cell volume          =     263.7946 (a.u.)^3
     number of atoms/cell      =            2
     number of atomic types    =            2
     number of electrons       =        26.00
     number of Kohn-Sham states=         1200
     kinetic-energy cutoff     =      81.0000  Ry
     charge density cutoff     =     324.0000  Ry
     Exchange-correlation= PBE
                           (   1   4   3   4   0   0   0)

     celldm(1)=  10.180645  celldm(2)=   0.000000  celldm(3)=   0.000000
     celldm(4)=   0.000000  celldm(5)=   0.000000  celldm(6)=   0.000000

     crystal axes: (cart. coord. in units of alat)
               a(1) = (  -0.500000   0.000000   0.500000 )  
               a(2) = (   0.000000   0.500000   0.500000 )  
               a(3) = (  -0.500000   0.500000   0.000000 )  

     reciprocal axes: (cart. coord. in units 2 pi/alat)
               b(1) = ( -1.000000 -1.000000  1.000000 )  
               b(2) = (  1.000000  1.000000  1.000000 )  
               b(3) = ( -1.000000  1.000000 -1.000000 )  


     PseudoPot. # 1 for S  read from file:
     /usr/scratch4/magr4985/MG/HTDF/pseudo/SG15/S.upf
     MD5 check sum: f9d020296ee6110346977bfd66d424f6
     Pseudo is Norm-conserving, Zval =  6.0
     Generated using ONCVPSP code by D. R. Hamann
     Using radial grid of  602 points,  4 beta functions with: 
                l(1) =   0
                l(2) =   0
                l(3) =   1
                l(4) =   1

     PseudoPot. # 2 for Zn read from file:
     /usr/scratch4/magr4985/MG/HTDF/pseudo/SG15/Zn.upf
     MD5 check sum: 732f41c0cd6489a4b50a33b4ec99a2d3
     Pseudo is Norm-conserving, Zval = 20.0
     Generated using ONCVPSP code by D. R. Hamann
     Using radial grid of  602 points,  6 beta functions with: 
                l(1) =   0
                l(2) =   0
                l(3) =   1
                l(4) =   1
                l(5) =   2
                l(6) =   2

     atomic species   valence    mass     pseudopotential
        S              6.00    32.06500     S ( 1.00)
        Zn            20.00    65.40900     Zn( 1.00)

     24 Sym. Ops. (no inversion) found



   Cartesian axes

     site n.     atom                  positions (alat units)
         1           Zn  tau(   1) = (   0.0000000   0.0000000   0.0000000  )
         2           S   tau(   2) = (  -0.2500000   0.2500000   0.2500001  )

     number of k points=    29  Gaussian smearing, width (Ry)=  0.0005
                       cart. coord. in units 2pi/alat
        k(    1) = (   0.0000000   0.0000000   0.0000000), wk =   0.0039062
        k(    2) = (  -0.1250000   0.1250000  -0.1250000), wk =   0.0312500
        k(    3) = (  -0.2500000   0.2500000  -0.2500000), wk =   0.0312500
        k(    4) = (  -0.3750000   0.3750000  -0.3750000), wk =   0.0312500
        k(    5) = (   0.5000000  -0.5000000   0.5000000), wk =   0.0156250
        k(    6) = (   0.0000000   0.2500000   0.0000000), wk =   0.0234375
        k(    7) = (  -0.1250000   0.3750000  -0.1250000), wk =   0.0937500
        k(    8) = (  -0.2500000   0.5000000  -0.2500000), wk =   0.0937500
        k(    9) = (   0.6250000  -0.3750000   0.6250000), wk =   0.0937500
        k(   10) = (   0.5000000  -0.2500000   0.5000000), wk =   0.0937500
        k(   11) = (   0.3750000  -0.1250000   0.3750000), wk =   0.0937500
        k(   12) = (   0.2500000   0.0000000   0.2500000), wk =   0.0468750
        k(   13) = (   0.0000000   0.5000000   0.0000000), wk =   0.0234375
        k(   14) = (  -0.1250000   0.6250000  -0.1250000), wk =   0.0937500
        k(   15) = (   0.7500000  -0.2500000   0.7500000), wk =   0.0937500
        k(   16) = (   0.6250000  -0.1250000   0.6250000), wk =   0.0937500
        k(   17) = (   0.5000000   0.0000000   0.5000000), wk =   0.0468750
        k(   18) = (   0.0000000   0.7500000   0.0000000), wk =   0.0234375
        k(   19) = (   0.8750000  -0.1250000   0.8750000), wk =   0.0937500
        k(   20) = (   0.7500000   0.0000000   0.7500000), wk =   0.0468750
        k(   21) = (   0.0000000  -1.0000000   0.0000000), wk =   0.0117188
        k(   22) = (  -0.2500000   0.5000000   0.0000000), wk =   0.0937500
        k(   23) = (   0.6250000  -0.3750000   0.8750000), wk =   0.1875000
        k(   24) = (   0.5000000  -0.2500000   0.7500000), wk =   0.0937500
        k(   25) = (   0.7500000  -0.2500000   1.0000000), wk =   0.0937500
        k(   26) = (   0.6250000  -0.1250000   0.8750000), wk =   0.1875000
        k(   27) = (   0.5000000   0.0000000   0.7500000), wk =   0.0937500
        k(   28) = (  -0.2500000  -1.0000000   0.0000000), wk =   0.0468750
        k(   29) = (  -0.5000000  -1.0000000   0.0000000), wk =   0.0234375

     Dense  grid:    25893 G-vectors     FFT dimensions: (  45,  45,  45)

     Estimated max dynamical RAM per process >     132.55 MB

     Estimated total dynamical RAM >       3.11 GB

     The potential is recalculated from file :
     out/mp-10695.save/charge-density

     Starting wfcs are random

     Band Structure Calculation
     Davidson diagonalization with overlap

     ethr =  5.00E-06,  avg # of iterations = 10.7

     total cpu time spent up to now is     1191.9 secs

     End of band structure calculation

          k = 0.0000 0.0000 0.0000 (  3287 PWs)   bands (ev):

  -117.2632 -71.4312 -71.4312 -71.4312  -5.5554   1.2805   1.2805   1.2805
     1.7886   1.7886   7.6477   7.6477   7.6477   9.7982  14.0635  14.0635
    14.0635  19.3996  19.3996  19.5807  22.2416  22.2416  22.2416  25.3464
    33.4709  33.4709  33.4709  35.9648  35.9648  35.9648  36.9852  36.9852
    39.8251  39.8251  39.8251  47.4946  48.6667  48.6667  50.7544  50.7544
    50.7544  52.4339  52.4339  52.4339  54.3827  55.2557  55.2557  55.2557
    55.8286  55.8286  55.8286  57.2692  57.2692  57.2692  57.2701  57.2701
    57.2701  59.0362  59.0362  60.5311  63.7025  63.7025  63.7025  64.2756
    64.2756  64.2756  64.5462  72.6566  75.7112  75.7112  78.4015  78.4015
    78.4015  81.6119  81.6119  81.6119  83.8365  87.8561  87.8561  87.8561
    88.4803  88.4803  91.6337  91.6337  91.6337  94.2870  94.2870  94.2870
    96.3035  96.5556  96.5556  96.5556  96.5689  96.5689  98.9830  98.9830
    98.9830  99.5114 100.1264 100.1264 100.4363 100.4363 100.4363 101.6835
   101.6835 101.6835 103.0510 103.0510 103.0510 104.6333 104.7094 104.7094
   104.7094 104.7246 105.4549 105.4549 105.4549 105.5796 105.5796 106.8127
   106.8127 106.8127 113.4307 115.7945 115.7945 115.7945 118.2202 118.2202
   118.2202 118.5202 118.5202 120.2199 120.2199 120.2199 121.1210 121.1210
   121.1210 122.0488 122.0488 122.0488 122.9730 122.9730 123.4011 127.2527
   127.2527 127.2527 131.0565 131.0565 131.9162 134.0487 134.0487 134.0487
   135.4471 135.4471 135.4471 135.7602 136.8345 136.8345 136.8345 137.2538
   138.3795 138.3795 138.3795 138.5630 138.5630 138.5630 139.4279 139.4279
   139.4279 140.5065 140.5065 140.5065 141.3901 141.3901 145.5921 145.5921
   145.5921 146.8969 150.4043 150.4043 150.4043 153.6900 153.6900 154.3270
   154.3270 154.3270 156.0403 162.6917 162.6917 162.6917 166.7236 166.7236
   166.8778 166.8778 166.8778 167.7755 170.9369 170.9369 170.9369 171.7205
   171.7205 171.7205 173.0122 173.0122 173.0122 174.3815 174.3815 174.3815
   175.8263 175.8263 176.0532 177.3648 177.3648 177.3648 177.4335 177.4335
   177.4335 178.1079 178.1079 178.1079 178.8073 178.8073 179.4123 179.4123
   179.4123 179.5230 179.5230 179.5230 180.3498 180.4314 180.5869 180.5869
   180.5869 180.9979 180.9979 180.9979 181.4543 181.4671 181.4671 182.7414
   182.8021 182.8021 182.8021 183.4752 183.4752 186.1207 186.1207 186.1207
   186.4369 186.4369 186.4369 186.6738 186.6738 186.6738 187.1118 187.1118
   187.2829 187.2829 187.2829 188.3016 188.3016 188.8089 188.8089 188.8089
   193.9042 193.9042 193.9042 194.5613 199.6789 199.6789 200.5027 200.5027
   200.5027 203.5907 203.5907 203.5907 203.8381 203.8381 203.8381 204.4252
   204.4252 204.4252 204.6178 205.3567 205.3567 205.3567 207.2357 207.2357
   207.2987 207.2987 207.2987 207.3891 207.8328 211.9173 211.9173 211.9173
   213.1243 213.1243 213.1243 215.8678 215.8678 215.8678 216.6117 216.6117
   216.6117 216.8479 216.8479 218.0091 218.0091 218.0091 219.4773 220.1334
   220.1334 220.1334 221.5518 221.5518 224.6618 224.6618 224.6618 225.3527
   225.9328 225.9328 225.9328 226.0958 226.0958 226.0958 226.1671 226.1671
   226.8095 226.8095 226.8095 228.5613 228.5613 228.5613 229.4062 229.4062
   234.8926 234.8926 234.8926 237.3620 240.2558 240.2558 240.2558 241.7006
   241.7006 241.7006 242.3533 242.9818 242.9818 245.9234 246.3263 246.3263
   246.3263 247.6656 247.6656 247.6656 248.6516 248.6516 248.6516 252.6251
   252.7152 252.7152 253.8803 253.8803 253.8803 254.8444 254.8444 254.8444
   256.4096 256.8457 256.8457 257.5332 257.5332 257.5332 258.1292 260.9230
   260.9230 260.9230 261.4407 261.4407 261.4407 261.6773 261.6773 261.6773
   261.8585 261.8585 261.8585 264.8082 264.8082 264.8082 266.1495 266.1495
   266.5207 266.5207 266.5207 266.5504 266.5504 266.5504 266.5556 266.5556
   266.5556 266.6054 267.4882 267.4882 267.4882 267.7226 268.7942 268.7942
   269.2876 269.2876 269.2876 270.2947 270.2947 270.2947 270.8779 270.8779
   271.0748 271.0748 271.0748 272.2253 275.1362 278.4604 278.4604 278.4604
   278.6929 278.6929 278.6929 279.5119 279.5119 279.5119 280.3469 280.3469
   280.3469 281.7875 281.7875 281.7875 281.8323 281.8323 285.0488 285.0488
   285.7023 285.7023 286.1094 286.1094 286.1094 286.4767 286.4767 286.4767
   286.4779 286.4779 286.4779 286.8938 286.8938 286.8938 288.0510 288.0510
   288.0510 288.3376 288.7544 288.7544 289.3497 289.3497 289.3497 289.8369
   289.8369 289.8369 290.1709 291.2013 293.0756 296.3831 296.3831 296.3831
   296.6455 296.6455 298.5589 298.5589 298.5589 298.6359 298.6359 298.6359
   299.1409 299.1409 299.1409 299.8047 300.4521 300.4522 300.4522 300.6265
   300.6265 300.6265 301.3947 302.9022 302.9022 302.9022 303.2061 303.2061
   303.3631 303.3631 303.3631 303.5835 303.5835 303.5835 303.7368 303.7368
   303.7368 303.8393 303.8393 304.1361 304.2612 304.2612 304.2612 304.5230
   304.5230 304.5230 304.8344 304.9712 304.9712 304.9712 305.0183 305.0183
   305.2339 305.2339 305.2339 305.2704 305.2704 305.2704 305.5574 305.5574
   305.5830 305.5830 305.5830 315.7601 315.7601 316.1304 316.1304 316.1304
   323.6101 323.6101 323.6101 324.2714 324.5458 324.5458 325.3438 325.3438
   325.3438 329.5976 332.3077 333.3853 333.3854 333.3854 335.7053 335.7053
   335.7053 335.8466 335.8466 336.7350 336.7350 336.7350 337.1006 337.1006
   337.1006 337.9803 337.9803 337.9803 340.1372 341.1584 341.1584 341.1584
   342.4842 342.4842 342.6863 342.6863 342.6863 344.0529 345.8220 347.7728
   347.7728 348.0855 348.0855 348.0855 348.5393 348.5393 348.5393 348.7151
   348.7151 348.7151 348.8779 348.8779 348.8779 350.8676 350.8676 350.8676
   351.1182 351.1182 351.1182 351.1258 351.1258 351.1258 351.1927 351.1927
   351.5563 351.5563 351.5563 352.0076 352.0076 352.0254 352.0254 352.0254
   352.0772 353.0163 353.0163 353.0163 353.9676 353.9676 355.4171 355.4171
   355.4171 357.4259 358.0275 358.0275 358.0275 361.7659 361.7659 362.3054
   362.3054 362.3054 364.4421 364.4421 364.4421 366.3806 367.3164 367.3164
   367.8197 367.8197 367.8197 367.9509 367.9509 367.9509 368.2342 368.2342
   368.2342 368.3046 368.3046 368.3046 368.5077 368.5077 368.5077 370.0838
   370.3517 370.3517 370.3517 370.4554 370.4554 371.2452 371.4418 371.4418
   371.4418 377.9759 377.9759 377.9759 378.5526 379.3254 379.3254 379.3254
   381.5077 381.5077 381.5077 381.7865 381.9591 381.9591 382.2563 382.2563
   382.2563 382.2636 382.2636 382.2636 383.1893 383.9167 383.9167 384.0381
   384.0381 384.0385 384.0385 384.0385 384.3080 384.3080 384.3080 384.4238
   384.4238 384.4238 384.4887 385.8697 385.8697 385.8697 386.0262 386.0262
   386.0262 386.0935 386.0935 386.0935 386.1902 389.6683 389.6683 389.9320
   389.9320 389.9320 390.7512 390.7512 390.7512 390.8760 390.8760 390.8760
   391.1727 392.7245 392.7245 392.7245 392.7654 392.7654 392.9205 392.9205
   392.9205 392.9253 392.9253 392.9253 393.0317 398.9620 398.9620 402.4047
   402.4047 402.4047 404.4000 404.4000 405.0177 405.6507 405.6507 405.6507
   407.2568 407.2568 407.2568 409.0378 409.0378 409.0378 409.6240 409.6240
   409.6240 410.3935 410.3935 410.3935 410.5249 410.5249 410.5570 410.6090
   410.6090 410.6090 410.6821 410.7904 410.7904 410.7904 413.7496 414.2246
   414.2246 414.2247 416.5258 416.5258 416.5258 417.1410 417.1410 417.1410
   417.3831 417.3831 417.3831 418.0862 418.0862 418.3044 420.3965 420.3965
   420.4173 420.4173 420.4173 421.4124 421.4124 421.4124 421.5621 421.5621
   422.8641 422.8641 422.8641 422.9920 424.7167 424.7167 424.7167 424.7269
   424.7269 424.7269 425.0614 425.0614 425.0614 425.2197 425.2197 425.7478
   425.7478 425.7707 425.7707 425.7707 426.7027 426.7027 426.7027 427.4123
   427.5755 427.5755 427.5755 427.9712 427.9712 427.9712 428.0614 428.0614
   428.0614 428.3398 428.3398 428.3398 428.3719 428.3812 428.3812 428.3812
   428.4278 428.8705 428.8705 428.8705 429.2121 430.1295 430.1295 430.9772
   430.9772 430.9772 431.1544 431.1544 431.1544 431.3828 431.3828 431.3828
   431.4849 431.4849 431.5201 431.5201 431.5201 433.8274 433.8274 434.0379
   434.0379 434.0379 434.4650 434.5180 434.5180 434.5180 434.7351 434.7351
   434.7351 434.8294 434.8294 434.8294 435.1150 435.1150 435.1150 435.2620
   435.2620 435.5002 435.5002 435.5002 435.6637 441.4904 441.4904 441.4904
   444.0050 444.0050 444.0050 444.3201 444.6223 452.0238 452.0238 453.8601
   453.8601 453.8601 453.9173 453.9173 453.9173 454.0850 454.0850 454.0850
   454.1567 454.1567 454.1825 454.1825 454.1825 456.5268 456.5268 459.5283
   459.5283 459.5772 460.5800 460.5800 460.5800 461.2134 461.2134 461.2134
   462.4673 462.4673 462.4673 462.9566 462.9566 462.9566 463.3458 463.3458
   463.3458 463.7175 463.7175 463.7175 464.6197 468.2825 468.2825 468.2825
   469.0075 469.0075 469.0297 469.0297 469.0297 469.1795 469.1795 469.1795
   469.3003 469.4122 469.4122 469.4122 469.4508 469.4508 469.4508 470.0295
   470.0295 470.0670 470.0696 470.0696 470.0696 478.9559 478.9559 478.9559
   482.1131 483.5060 483.5060 483.5060 484.3394 484.3394 485.0609 486.7395
   486.7395 486.7395 486.8105 486.8105 486.8105 488.4064 488.4064 488.4064
   488.4121 488.4121 488.8751 488.8751 488.8751 488.9579 488.9579 488.9579
   491.0005 491.0005 493.6420 493.6420 493.6420 493.7837 494.0768 494.0768
   494.0768 498.3236 498.3236 498.3236 499.1816 499.1816 499.4578 501.0823
   501.0823 501.0823 501.6577 501.6577 501.6577 502.1403 503.0406 503.0406
   503.0406 503.0745 503.0745 503.0745 503.8011 503.8011 503.8420 505.6921
   505.6921 505.6921 506.5550 506.5550 507.0174 507.0174 507.0174 507.1649
   507.4188 507.4188 507.4189 507.5881 507.5881 507.5881 508.6868 508.6868
   508.6868 509.0067 509.0067 509.0067 509.1198 511.2315 511.2315 511.4867
   511.4867 511.4867 511.5121 511.5121 511.6740 511.6740 511.6740 511.6814
   511.6814 511.6814 511.7364 511.7364 511.7364 512.5002 512.5002 512.6088
   512.7940 512.7940 512.7940 514.6682 514.7287 514.7287 514.7287 514.7891
   514.7891 514.7891 514.8289 514.8289 514.8756 514.8756 514.8756 517.2998
   517.2998 517.2998 517.4093 517.4093 517.5370 517.5635 517.5635 517.5635
   517.5701 517.5701 517.5701 520.4212 520.4212 524.1975 524.3492 524.3492
   524.3492 525.2432 525.2432 525.2432 526.8029 526.8029 526.8029 527.4336
   527.4336 527.9362 527.9362 527.9362 528.0045 529.6333 529.9954 529.9954
   529.9954 530.1979 530.1979 530.1979 530.3486 530.3486 530.3486 530.3539
   530.3539 532.1322 532.1322 532.1322 532.6879 532.6879 532.6879 532.8305
   532.8305 532.8305 533.3183 533.4291 533.4291 534.8794 534.8794 534.8794
   535.3441 535.3441 535.3441 535.4031 535.4031 535.4031 535.6885 535.6885
   535.6885 536.3124 536.3124 536.3415 536.3415 536.3415 536.4239 536.4239
   536.4239 536.4933 536.4933 536.4933 536.5763 538.5353 538.5353 538.5915
   538.5915 538.5915 538.6872 539.6863 539.6863 539.6863 540.2033 540.2033
   543.7030 545.4930 546.2802 546.2802 546.2802 546.7668 546.7668 546.7668
   546.8200 546.8200 546.8200 547.7937 547.7937 547.7937 548.1383 548.1383
   548.1383 548.4917 548.4917 548.8997 548.8997 548.8997 548.9256 548.9256
   549.0968 549.3445 549.3445 549.3445 549.5899 549.5899 549.5899 550.2029
   550.3696 550.3696 550.3696 550.8161 550.8161 551.0664 551.0664 551.0664
   551.2916 551.2916 551.2916 551.3806 551.3806 551.3806 551.4748 551.4748
   551.4748 551.5534 551.6199 552.1636 552.1636 552.2378 552.2379 552.2379

          k =-0.1250 0.1250-0.1250 (  3248 PWs)   bands (ev):

  -117.2632 -71.4313 -71.4312 -71.4312  -5.4367   1.2808   1.3019   1.3019
     1.7869   1.7869   6.5293   7.4983   7.4983  10.6177  13.9714  14.3189
    14.3189  18.8129  18.8129  20.3649  21.6426  23.5140  23.5140  26.8959
    31.2643  31.7780  31.7780  35.4770  35.4770  37.2942  37.2942  37.5595
    40.0140  41.6670  41.6670  46.8507  47.2265  47.2265  48.6058  49.8178
    49.8178  51.9340  52.0111  52.0111  52.9856  53.9914  53.9914  54.8028
    55.1411  55.1411  55.8021  57.6553  57.6553  57.8019  59.0730  59.3401
    59.3401  60.6405  62.0128  62.0128  62.0907  63.4735  63.4735  65.0579
    66.8993  66.8993  69.7616  73.4692  73.4692  74.3496  76.4359  77.2447
    77.2447  79.0472  81.9695  81.9695  86.5415  86.5415  87.3391  87.5599
    88.6029  88.6029  91.0146  91.0785  91.0785  92.2455  92.2455  92.8277
    94.2395  94.2395  94.5975  95.8799  96.2739  97.1296  97.1296  97.5115
    97.5115  98.6107  99.3363  99.3363  99.4636 100.7733 100.7733 101.6144
   101.8902 101.8902 102.3691 102.7552 103.9051 103.9051 105.6450 105.6450
   106.4755 107.0807 108.0064 108.0064 108.6614 108.6614 109.2589 111.2838
   111.2838 111.4823 112.0461 112.9775 112.9775 114.5578 114.5578 115.6128
   115.8364 116.6070 116.6070 118.7403 118.7403 119.5360 122.3652 122.3652
   122.4060 124.1413 124.1413 124.9819 125.4198 125.8912 125.8912 126.0087
   127.5321 129.1329 129.1329 130.9411 131.2665 131.2665 131.5669 131.5669
   132.3801 133.0168 133.0168 133.1919 134.0305 134.4745 134.4745 137.2346
   137.4689 137.4689 138.5301 138.5301 139.9667 141.5960 141.8090 141.8090
   144.2145 145.0174 145.0174 145.0206 145.4279 145.4279 146.4484 146.4484
   147.6648 149.2878 149.3438 149.3438 150.4956 152.0704 152.0704 154.3899
   157.9228 157.9228 158.6330 160.4006 160.4006 161.3587 163.7555 163.7555
   164.7622 165.2685 165.7235 165.7235 166.8612 166.8612 168.2348 168.5516
   168.5516 169.1551 170.1977 170.9731 171.2357 171.2357 172.4358 172.4358
   173.3423 173.6332 173.6332 174.0792 174.5744 174.5744 175.3690 175.3690
   175.5500 175.6618 175.6618 176.3626 176.8973 178.0301 178.0301 178.2495
   178.9040 178.9040 179.7048 179.8011 179.8011 180.4918 180.4918 180.7117
   181.6589 181.6589 182.5456 182.5456 182.7596 183.6565 184.7935 184.7935
   184.9394 184.9829 185.7373 185.7373 186.6199 186.6199 187.0823 187.9576
   187.9576 188.2422 189.5524 189.5889 189.5889 189.6821 189.8319 189.8319
   190.5858 191.4340 191.4340 192.6773 193.0919 193.0919 193.6967 193.6967
   194.1434 195.0262 195.6444 195.6444 196.7501 196.9481 196.9481 198.7485
   198.7485 198.8735 199.5883 200.1240 200.1240 201.1717 201.2181 201.2181
   202.8257 202.8257 203.6187 205.5387 205.5387 207.5267 209.5065 209.8571
   209.8571 210.3100 210.3215 210.9690 210.9690 211.3943 211.3943 212.3769
   212.3769 212.8747 213.3898 213.3898 214.1003 215.5920 215.5920 216.6582
   216.6582 216.6996 217.4237 218.1757 218.1757 218.8536 219.0522 219.3110
   219.3110 220.2162 220.8254 220.8254 223.1396 223.1396 223.2886 224.3436
   225.2722 225.5738 225.5738 227.1919 227.7187 227.7187 228.8683 228.8683
   229.8455 231.6014 231.6014 232.2856 232.2856 232.7556 233.4999 233.7967
   233.7967 234.3468 236.7698 237.3646 237.3646 239.2206 239.2206 239.8556
   239.8556 240.8620 242.2378 242.3831 242.3831 244.7693 244.7693 245.8731
   245.8731 246.1586 246.2123 246.9239 246.9239 247.5113 249.2892 251.3332
   251.3332 252.1882 252.2718 252.8380 252.8380 253.5607 253.5607 254.1726
   254.3737 254.4771 254.4771 254.6711 255.3177 255.3177 255.7627 256.3971
   256.4454 256.4454 256.9091 256.9091 257.8735 260.6559 260.6559 260.6816
   262.0128 262.0128 263.3148 263.6628 263.6628 264.9738 265.4407 265.4407
   265.7712 265.9582 266.0247 266.0247 266.7772 266.7772 266.9742 268.8391
   268.8391 269.4695 269.5084 269.9007 269.9007 270.4414 270.4414 270.9443
   271.5382 271.5382 271.7101 272.0659 272.0659 272.2871 272.2871 272.4485
   272.4906 274.0317 274.0317 274.6518 275.0388 275.2307 275.2307 276.7290
   276.7290 277.1643 279.0606 279.0606 279.5163 279.7057 279.7057 279.7681
   280.1748 280.7592 280.7592 281.3416 281.7522 281.7522 282.3250 282.3250
   282.9173 284.0800 284.0800 284.5580 284.6304 284.7256 284.7256 285.5982
   285.5982 286.0942 287.3939 287.4640 287.8265 287.8265 288.0262 288.0262
   289.4106 289.4106 289.4616 289.8909 289.8909 289.9708 290.1319 290.5004
   290.5004 290.6741 291.2364 291.2364 292.4437 292.7437 292.7437 294.3274
   294.3274 294.3565 295.3564 295.3564 295.7054 295.9673 295.9673 296.4573
   296.4906 296.4906 297.3172 297.5931 297.5931 297.7857 298.1882 298.1882
   299.0934 300.1634 300.1634 300.6707 300.7384 300.8812 300.8812 301.1203
   301.3048 301.3048 302.7279 302.7279 302.9027 303.6267 303.6267 305.0691
   306.2106 306.6931 306.6931 306.7175 308.0447 308.0447 308.4310 308.8452
   308.8452 309.1807 309.1807 309.1950 309.6031 311.8602 311.8602 311.8662
   312.9366 312.9366 313.8735 313.8735 313.9991 314.5193 314.7829 314.7829
   314.7976 315.4954 315.4954 316.0045 316.5450 316.5450 318.6969 318.6969
   318.9080 319.8871 321.6623 321.6623 322.2419 322.2419 322.9619 326.4033
   326.4033 328.7645 328.7645 328.7996 328.8511 330.8006 331.7986 331.7986
   332.5168 332.5168 333.7988 333.7988 333.8754 334.6344 334.9742 334.9742
   336.1131 336.9984 336.9984 337.5031 337.8495 337.8495 338.9190 339.6786
   339.6786 339.9098 341.0466 341.0466 341.7036 342.3857 342.3857 343.1722
   343.2137 343.3854 343.3854 343.5933 343.5933 343.7253 344.8823 344.8823
   346.1961 347.3329 347.3550 347.3550 348.6253 348.6253 348.6484 350.3411
   350.5059 350.5059 351.9732 352.0840 352.0840 352.3934 353.6596 353.6596
   353.6677 354.3493 354.3493 355.5384 355.5384 356.0213 356.4349 356.4349
   356.7026 357.5457 357.5457 357.9410 358.0151 358.4639 358.4639 359.2520
   359.5565 359.6913 359.6913 360.0165 360.0165 360.2719 360.5608 360.6993
   360.6993 361.5146 363.1226 363.1226 363.8304 363.8304 363.9208 364.0720
   364.3095 364.3095 365.9436 366.1918 366.1918 366.9960 366.9960 367.8596
   368.1624 368.1624 368.5401 368.5401 368.5699 369.9141 369.9141 370.9654
   371.0374 371.2588 371.2588 371.5353 371.5353 371.5636 371.9826 373.3406
   373.3406 373.8035 374.8097 374.8202 374.8202 377.2295 377.2295 378.3420
   378.6691 378.6691 379.0744 379.5033 379.5033 379.5123 380.2196 380.2196
   380.5878 381.0254 381.0254 381.5662 381.8449 381.8449 382.2933 383.5462
   383.5462 384.0254 384.1255 384.1255 384.4316 384.5455 384.5455 384.6738
   385.4298 385.4298 385.9177 387.1391 387.1391 387.2789 387.3074 387.5318
   387.5318 389.0138 389.1959 389.1959 389.7943 389.7943 390.1338 390.1426
   391.1636 391.1636 393.3571 393.3571 393.8012 394.2255 394.2255 394.8034
   394.8436 394.8436 395.0162 395.1933 395.1933 395.2626 396.6047 397.9117
   397.9117 398.0905 399.0933 399.0933 399.3868 399.9495 399.9495 400.1807
   401.1335 401.1335 401.6273 401.6273 402.5736 402.5853 402.5853 403.6829
   404.2860 404.2860 404.7048 404.8603 405.4291 405.5757 405.5757 406.6053
   406.6053 407.8953 407.9920 408.8914 408.8914 409.1277 409.1277 409.3739
   410.0167 410.0167 410.2075 410.8513 410.9285 410.9285 411.3506 411.8682
   411.8682 412.9058 412.9058 413.5299 413.8663 413.8663 414.7169 414.7169
   415.0686 415.2697 415.2697 415.6178 416.3564 416.5247 416.5247 416.9215
   417.0768 417.0768 417.4241 417.5913 417.5913 417.8222 417.8862 417.8862
   418.3502 418.5320 418.5320 419.3397 420.3315 420.3315 420.5538 421.1887
   421.1887 421.5898 421.6882 421.6882 422.0784 422.8042 422.8042 423.4895
   424.0670 424.8583 424.9095 424.9095 425.3492 425.3492 425.4238 425.8414
   425.8414 426.1349 426.5026 426.5026 426.8037 426.8037 427.0766 427.8927
   428.0952 428.0952 428.2520 429.0600 429.6558 429.6558 430.1239 431.2512
   431.2512 432.2737 432.2737 432.5285 433.3679 433.3679 433.3874 433.6944
   433.6944 434.2287 434.3134 434.3134 434.8299 435.1682 435.1682 436.2471
   436.2471 436.4709 436.9794 436.9794 437.3392 437.4556 437.5108 437.5108
   438.2993 438.2993 438.8439 439.5821 439.8926 439.8926 440.4202 440.5609
   440.5609 441.0330 441.1981 441.1981 443.6876 444.0655 444.0655 444.5659
   444.5659 445.0347 445.1924 445.1924 446.0547 446.2244 446.3248 446.3248
   446.6908 446.7345 446.7345 447.5645 447.5645 447.6081 448.8390 448.8390
   449.0083 449.4350 449.6267 449.6267 450.2098 450.2098 450.6142 450.6142
   451.0229 451.0323 452.8668 452.8668 453.1555 453.2522 453.2522 453.8659
   455.5102 455.5102 456.0672 458.2475 458.4460 458.4460 458.9813 458.9882
   458.9882 459.4733 459.4733 459.5608 461.9170 462.8898 462.8898 463.2794
   463.2822 463.2822 463.5270 464.3109 466.6283 466.6283 467.8438 467.8758
   467.8758 470.3631 470.4558 470.4558 471.2240 471.2240 472.8393 472.8393
   473.6463 474.0698 474.4644 474.4644 475.0262 475.0262 475.5609 476.2401
   476.2401 476.3795 477.7452 477.7452 478.4213 478.8652 478.8652 478.9551
   480.4046 481.3958 481.3958 481.8109 482.2212 482.2212 482.4378 482.8873
   482.8873 483.3552 485.1559 485.1559 485.2198 486.4079 486.4079 486.6274
   486.6659 486.6659 487.2443 487.3359 487.3359 487.9361 487.9361 489.2561
   489.7846 490.3528 490.3528 491.2431 491.7466 491.7466 494.2032 494.2032
   494.3803 494.6954 494.6954 495.7206 495.7206 495.7509 496.4549 496.8483
   496.8483 497.0922 497.4009 497.4009 497.6534 498.1042 498.1042 499.1489
   499.2735 499.2735 499.6322 499.7835 499.7835 499.8008 500.6843 500.9676
   500.9676 502.5039 502.7937 502.7937 503.0107 503.0107 503.8312 504.0584
   504.6468 504.6468 505.3164 505.6757 505.6757 505.9737 506.0115 506.0115
   507.1054 507.1054 507.4081 508.4893 508.6080 508.6080 510.0420 510.0420
   510.5055 511.2785 511.2785 511.5405 511.8703 511.8703 512.5877 513.4895
   513.4895 513.9358 514.0433 514.0433 514.0891 514.1571 514.2301 514.2301
   514.3971 514.5936 514.5936 516.6587 516.6587 516.9538 517.3273 517.3273
   517.7504 518.4199 518.6260 518.6260 518.9732 518.9732 519.3323 519.3333
   519.3378 519.3378 519.4732 519.7494 519.7494 520.1760 520.7681 520.7681
   521.0360 521.0360 521.2218 521.3726 521.3726 521.5595 521.8673 522.1150
   522.1150 522.4211 523.6057 523.7272 523.7272 524.4591 524.4591 524.7744
   525.0457 525.3096 525.5870 525.5870 526.8211 526.8211 527.1906 527.1906
   527.3641 527.5135 527.5135 528.9616 529.0989 529.0989 529.9956 530.2875
   530.2875 530.6062 530.7942 530.7942 531.2088 531.2417 531.2949 531.2949
   532.0814 532.0814 532.1954 532.4495 532.6915 532.6915 532.8627 532.9330
   532.9547 532.9547 533.0915 533.0915 533.1322 533.4779 533.4779 533.6767
   533.6767 534.1263 535.7932 535.7932 535.9137 536.0201 536.0201 536.0921
   536.8441 536.8441 537.0662 537.1842 537.1842 537.7705 538.0501 538.0501
   538.5913 538.7313 539.0967 539.0967 539.3118 539.3118 539.4921 540.1132
   540.1132 540.6517 542.3269 542.3604 542.3604 543.2846 543.2846 543.9939
   544.4919 544.4919 544.5570 544.7086 544.9957 544.9957 545.5911 545.5911
   545.7742 546.3155 546.5282 546.5282 547.1825 547.1825 547.2788 547.4657
   547.4657 547.6736 547.7479 547.7479 548.1693 548.7002 548.7692 548.7692
   548.9585 548.9585 549.0863 549.9037 549.9037 549.9395 550.0007 550.7197
   550.7197 551.5980 551.6479 551.6479 552.5135 552.5135 553.1408 553.1408
   553.2262 553.5217 553.6583 554.3425 554.3425 554.8251 554.8251 555.0303

          k =-0.2500 0.2500-0.2500 (  3251 PWs)   bands (ev):

  -117.2632 -71.4313 -71.4312 -71.4312  -5.1265   1.3262   1.3489   1.3489
     1.7902   1.7902   4.7980   7.1730   7.1730  11.1579  14.6162  14.6897
    14.6897  18.6162  18.6162  19.8819  23.5950  25.9510  25.9510  27.8465
    28.6318  28.6318  30.2370  35.4257  35.4257  37.7788  37.7788  38.4872
    40.5444  41.4892  41.4892  43.2483  46.9484  46.9484  48.1200  48.5523
    48.5523  49.6919  49.6919  50.1023  50.1157  53.7171  53.7858  53.7858
    54.7449  55.9663  55.9663  57.8630  59.0227  59.0227  61.1267  61.4209
    61.4209  64.2698  64.2698  64.3230  65.1284  67.6128  68.6182  68.6182
    70.0978  70.0978  70.9916  70.9916  72.3008  73.4611  73.4611  74.3318
    75.5477  80.3762  80.3762  80.6598  82.9943  82.9943  86.1164  86.7036
    86.7144  86.7144  88.2450  89.2824  89.2824  90.0621  91.4537  91.4537
    91.9923  91.9923  92.6389  94.8916  95.4699  96.0914  96.0914  97.5053
    97.5053  97.7701  99.1626  99.1626  99.8109 101.3031 101.3031 101.5894
   101.6960 102.6269 102.6269 103.5273 104.3126 104.3126 105.6493 106.8706
   106.8706 109.3811 109.5241 109.5241 111.1362 111.1362 111.6187 112.5839
   112.5839 112.7656 113.6619 113.6619 114.1283 116.1231 116.4942 116.4942
   117.7175 118.0500 118.0500 119.7814 119.8214 120.5011 120.5011 121.7193
   121.7193 121.7450 123.3895 123.3895 124.8312 126.2030 126.2030 126.7639
   126.8999 126.8999 128.1470 129.0406 129.1967 129.1967 130.4655 131.8046
   132.1641 132.1641 133.0079 133.0079 133.1922 134.0758 134.0758 138.4166
   138.4166 138.5207 141.0978 141.0978 143.3089 143.5018 143.5019 144.0594
   145.5788 147.1655 147.1655 150.0161 150.0161 150.1880 150.7675 150.7675
   151.3206 151.6713 151.9269 151.9269 153.1150 153.1150 154.5597 154.8812
   155.3697 155.3697 156.7714 156.7714 157.9806 158.3514 159.2299 159.2299
   160.0665 160.4065 161.0677 161.0677 161.5405 161.5405 163.3010 163.3010
   164.6168 165.9231 167.2156 167.2156 167.2172 167.9845 168.6418 168.6418
   170.3355 170.3355 170.3904 172.2097 172.6247 172.6247 173.4291 173.4291
   174.0744 174.3892 175.4836 175.4836 175.8489 177.1989 177.1989 178.2371
   178.2371 179.7220 179.8270 179.8270 180.0531 180.4490 180.6362 180.6362
   182.8311 183.0345 183.3775 183.3775 183.9895 183.9895 185.0111 185.6656
   185.6656 185.9360 186.1037 186.3945 186.3945 188.1782 188.1782 189.1772
   189.1772 190.2343 191.1224 191.1224 192.5796 192.6787 192.6787 192.7961
   193.5655 193.5655 193.7302 194.9969 194.9969 195.2204 196.4005 196.4005
   196.6268 196.8218 196.8218 197.7834 198.0862 199.2387 199.2834 199.2834
   200.1261 200.1261 201.1189 201.1189 201.6308 202.5947 202.5947 203.4172
   203.4957 203.4957 204.8223 204.8223 204.9640 205.1158 206.9123 206.9123
   206.9594 209.4299 211.8164 211.9788 211.9788 212.6587 212.8580 212.8580
   213.0640 213.0640 214.3726 214.3726 214.6349 215.4118 215.4118 216.1252
   216.3265 217.7703 217.7703 219.2240 219.8489 219.8489 220.5280 220.9852
   220.9852 221.7527 223.0765 223.0765 225.6135 225.6135 225.7364 227.1787
   227.1787 227.3120 227.3729 229.4699 229.4699 229.7241 230.7895 230.9433
   230.9433 231.9462 231.9462 232.4467 232.6234 232.6234 234.7284 234.7284
   235.1216 236.5191 237.6728 238.2055 238.2055 239.8855 240.8757 241.1034
   241.1034 241.4303 241.9066 241.9066 242.4947 242.4947 242.9053 243.6759
   243.6759 244.1567 244.5072 244.6731 244.6731 245.2570 245.2570 245.8639
   246.1699 246.1699 247.1673 247.2184 247.2184 248.0213 248.0213 248.8936
   249.5504 249.5504 249.8800 252.7978 252.7978 253.9122 254.2569 254.2569
   255.6714 256.2293 256.2293 256.7234 256.8951 256.8951 259.0534 259.2602
   260.0897 260.0897 262.6321 263.3962 263.3962 263.7704 264.0256 264.0256
   264.7922 265.2962 265.2962 265.5713 265.7811 265.7811 266.6299 266.8321
   266.8321 268.8380 268.8380 269.0666 270.3961 270.4684 270.4684 272.0012
   272.2707 272.2707 272.6491 272.6491 272.7118 273.0581 273.0581 273.1802
   273.3988 273.3988 275.1048 275.1970 275.1970 275.3952 276.2229 276.3481
   276.3481 276.7539 276.8592 276.8592 277.9416 277.9572 277.9572 278.9958
   278.9958 279.1955 279.5407 280.8938 281.0620 281.0620 281.3290 281.7957
   281.7957 282.4150 282.4150 283.0005 283.5589 283.5589 284.3036 284.7401
   284.7401 286.1529 286.6425 286.6763 286.6763 287.5077 287.5077 287.7833
   289.3214 289.3214 289.9415 289.9415 290.0542 290.8146 291.1609 291.8635
   291.8635 292.7256 292.7256 292.9480 293.4114 293.4114 293.8238 293.8238
   293.8379 294.1523 294.3587 295.0997 295.0997 295.3302 297.5071 297.5071
   297.8234 297.8234 297.8943 298.1795 298.1795 298.2130 299.6089 300.4447
   300.4447 302.0232 302.9642 302.9642 303.4607 303.4607 303.8800 305.3537
   305.3537 305.7217 306.7988 306.8831 306.8831 308.3464 308.3555 309.1639
   309.1639 309.9117 309.9117 311.5601 311.5601 311.7750 311.9955 312.5740
   312.5740 313.0052 313.5583 313.5583 313.9737 313.9737 314.2351 315.7503
   315.7503 315.8797 316.2048 316.3359 316.3359 318.2754 318.2754 318.8184
   318.8184 320.1863 320.4421 321.1710 321.2912 321.2912 321.4167 321.5657
   321.5657 323.7736 324.4867 324.4867 325.4663 325.4663 325.8950 326.0638
   326.1294 326.1294 326.7327 326.8156 326.8156 327.6869 327.6869 327.9931
   328.7771 330.0001 330.0001 331.5917 332.2498 332.2498 333.0419 333.3128
   333.3128 333.8949 335.3810 335.3810 335.8785 335.8785 335.9752 336.5534
   336.5735 336.5735 336.5933 337.0364 337.0364 337.5612 337.5612 337.8524
   338.6163 339.0750 339.0750 340.3891 340.3891 342.3880 343.3023 343.3023
   345.0298 345.6396 345.6396 346.1609 346.7965 346.7965 347.6511 347.8425
   348.1672 348.1672 348.8263 349.8495 349.8495 351.1513 351.1513 351.5246
   352.5114 352.5114 352.7937 352.9318 352.9318 352.9939 354.3744 355.8647
   356.0376 356.0376 356.7949 356.7949 357.3326 357.6795 357.6795 357.8587
   357.8587 357.8892 359.0237 359.3854 359.3854 359.7215 359.7645 360.1692
   360.1692 360.4438 361.8912 361.8912 364.1601 364.1601 364.4153 364.5497
   364.5497 365.3390 366.6237 366.7264 366.7264 367.2035 367.6647 367.6647
   368.4930 368.5628 368.5628 369.1233 369.1233 370.1474 370.6617 370.8797
   370.8797 371.7971 373.1823 373.1823 373.4929 375.7019 375.7019 375.9189
   376.6140 376.6140 377.2153 377.2153 377.4134 377.4878 378.5159 378.5159
   379.2730 379.2730 379.3558 380.2402 380.2455 380.2455 380.3339 380.6569
   380.6569 380.7374 382.6017 382.6017 383.2907 383.2907 383.2965 383.9771
   383.9771 384.1229 385.4472 385.4472 385.4898 386.4190 386.8228 386.8228
   387.7294 387.7294 388.3212 388.3582 388.3582 388.6619 388.6933 388.6933
   389.9024 389.9208 389.9208 390.0837 390.3713 390.3713 390.6374 390.7779
   390.7779 391.4090 391.6873 391.9539 391.9539 392.5086 392.5086 392.8242
   393.1311 393.1311 393.5784 394.2696 394.2696 395.2801 396.2271 396.2271
   396.7931 397.7059 397.7059 397.9434 398.2507 398.4319 398.4319 398.8329
   398.9231 398.9231 399.5380 399.7173 399.7173 399.9987 399.9987 400.1633
   400.2747 400.2747 400.7146 401.2370 401.2370 401.6356 401.6435 401.6435
   401.7207 403.6664 403.8897 403.8897 405.9049 406.1941 406.1941 406.3106
   406.8395 406.8395 407.1197 408.1015 408.1015 408.9733 409.1552 409.1552
   409.2213 410.5232 410.5232 410.5517 413.1452 413.3851 413.3851 413.6927
   413.6927 413.9997 414.2715 414.2715 414.4199 414.4573 414.4573 415.0376
   415.0376 415.9580 417.4018 417.4858 417.4858 418.1962 418.1962 418.5246
   419.0434 419.0434 419.0722 419.2963 419.2963 419.8284 419.9004 420.2970
   420.2970 420.9690 420.9690 421.0309 421.2704 424.4016 424.4016 425.3034
   425.3034 425.5922 425.7660 425.8265 425.8265 426.1998 426.2759 426.2759
   427.5953 427.5953 427.6994 428.6129 428.6129 428.8755 429.1935 429.7536
   429.7536 431.5275 431.9301 432.2192 432.2192 433.0607 433.0607 434.4419
   434.9433 434.9433 435.5672 435.8429 435.8429 436.2799 436.2799 436.5891
   436.7651 437.6246 437.6246 438.1695 438.1695 438.5369 439.0005 439.4961
   439.4961 439.7613 439.7988 440.5085 440.5085 441.3259 441.3259 442.0605
   442.0605 442.1788 442.2987 442.8490 443.9008 443.9008 444.5854 444.5854
   444.7089 444.8049 445.1967 445.1967 445.4085 445.6186 445.6186 446.9005
   447.4505 447.9923 447.9923 448.4850 448.4850 448.5864 448.8065 448.8065
   449.4191 450.0442 450.0442 450.1854 450.3048 450.3048 450.5211 450.5211
   450.7104 451.1883 452.2996 452.2996 452.6509 452.6509 452.6968 452.8429
   454.7913 454.7913 455.2238 456.3597 456.3597 456.8138 457.4270 457.4270
   457.5093 457.5853 457.5853 459.4774 459.4774 459.5964 459.6215 459.7544
   459.7544 460.3359 461.8730 461.8730 463.6652 464.3127 464.3127 464.8783
   465.2475 465.2475 465.4631 466.8816 467.1031 467.1031 467.5712 467.5712
   468.6082 468.7881 468.7881 468.8498 469.1383 469.1383 470.4871 470.4871
   470.7685 472.4381 472.4381 473.2189 473.6761 473.6761 473.9951 474.0889
   474.0889 474.7868 477.9108 477.9108 479.0488 479.0488 479.1362 480.3032
   480.4323 480.4323 482.0444 482.4392 482.5607 482.5607 482.7055 482.7055
   482.9351 483.8195 483.8195 484.0388 484.0388 484.1109 484.7031 484.9434
   485.3568 485.7983 485.7983 486.4352 486.4352 486.9782 487.4769 487.6265
   487.6265 488.3019 488.3019 488.4300 489.7034 489.7034 489.9911 491.3177
   491.3177 492.3084 492.3097 493.2520 493.2520 493.8986 493.8986 494.3305
   494.3305 494.4495 494.6591 495.3609 495.3609 495.5351 495.9622 495.9622
   496.3684 496.3684 496.7309 496.7309 496.7816 497.3431 497.8485 497.8782
   497.8782 498.1968 498.1968 499.2050 499.8339 499.8339 500.1127 501.7173
   501.8124 501.8124 503.0473 503.0639 503.0639 503.2124 503.5363 503.5363
   503.5948 503.9965 503.9965 504.1560 504.2551 504.7228 504.7228 505.9693
   505.9693 506.3873 506.3873 506.6535 507.1919 507.1919 507.6834 510.0983
   510.1075 510.1075 510.7020 510.7020 510.7267 511.5355 511.6002 511.6002
   512.2527 512.6193 512.6193 512.7751 513.3658 513.3658 513.6213 513.6736
   513.6736 513.9287 514.1715 514.1715 514.6705 515.7444 515.7444 515.9724
   516.3528 516.3528 516.4506 516.9158 516.9158 516.9466 517.3506 517.3506
   518.1383 519.4955 519.7033 519.7033 520.1573 520.1573 520.3793 520.5845
   520.7198 520.7198 522.1139 522.1139 522.2772 522.3695 522.3695 522.5754
   523.0178 523.0178 523.0428 524.2967 524.2967 525.2329 525.6463 526.9659
   526.9659 527.9296 528.2065 528.2065 528.8129 528.8129 529.0444 529.1661
   529.1661 529.2968 529.3481 530.3302 530.3302 530.7361 530.7361 531.2475
   531.6962 531.6962 531.7562 531.8156 532.2524 532.2524 532.6154 532.6360
   532.6360 532.7257 533.0553 533.0553 533.4880 533.6752 533.6752 534.3726
   535.5339 535.5339 536.6730 536.9311 536.9311 537.6262 537.6262 537.9329
   538.5745 538.6614 538.6614 538.8312 539.1764 539.1764 539.3981 539.4696
   539.4696 540.0414 540.0414 540.2737 542.6947 542.6947 542.8614 542.9601
   542.9601 543.1180 543.9326 544.5129 544.5129 544.5439 544.9250 544.9250
   545.0909 545.1676 545.1676 545.4465 545.5766 545.7816 545.7816 546.6915
   546.6915 546.8987 546.9019 546.9019 548.7542 549.1051 549.1276 549.1276
   550.2982 551.6441 551.6441 551.8016 552.0414 552.0414 553.8734 553.8734
   554.9452 555.0160 555.0160 555.4720 555.4720 555.9922 555.9967 555.9967
   556.3721 556.3721 556.7846 556.8413 556.9466 556.9548 556.9548 557.1945
   557.1945 557.4928 558.1734 558.2704 558.2704 558.8339 559.0389 559.0389

          k =-0.3750 0.3750-0.3750 (  3254 PWs)   bands (ev):

  -117.2632 -71.4314 -71.4313 -71.4313  -4.7735   1.3860   1.3860   1.5431
     1.8076   1.8076   3.2596   6.8828   6.8828  11.0689  14.6739  14.6739
    15.9452  19.5256  19.7213  19.7213  24.4903  25.2917  25.2917  27.4873
    29.1569  29.1569  33.5439  35.1578  35.1578  36.5366  37.7678  37.7678
    39.2662  39.2662  41.2505  41.7864  44.3279  45.7022  45.7022  47.2670
    47.2670  47.9922  48.6120  52.3443  52.3443  53.5378  53.5378  53.5913
    56.1338  56.1338  56.5930  58.3080  60.8351  60.8351  62.6508  64.1236
    64.1236  65.3225  66.0770  66.0770  68.5251  68.5251  69.5257  69.5257
    70.1113  70.2715  71.3629  73.1431  74.0391  74.0391  75.5714  75.5714
    77.0364  77.0364  78.7931  79.3480  79.3480  81.3084  81.9342  83.3897
    83.3897  83.6127  85.1086  85.1086  88.0297  88.1744  90.7061  90.7061
    91.5785  92.1849  92.1849  95.3819  95.3819  95.4250  96.0644  97.5638
    97.5638  98.3374  98.6658  98.6658  99.5895 100.1742 100.1742 101.9721
   102.2711 102.9248 102.9248 103.1923 106.2305 106.2305 107.4888 107.8961
   107.9350 107.9350 108.3734 110.5775 110.5775 111.3565 111.3565 112.6888
   112.6888 112.8308 113.0129 114.4456 114.4456 114.9899 117.0293 118.3510
   118.3510 119.6461 120.3192 120.3192 121.2728 121.2728 121.6689 122.2390
   122.2390 122.7676 124.8904 125.1148 125.1148 126.3994 126.3994 127.2251
   127.7315 127.7315 128.6652 128.8339 129.6564 129.6564 131.1194 131.1194
   131.6966 132.0580 132.0580 134.6807 136.3847 136.3847 138.0170 139.3893
   139.6853 139.6853 141.5699 141.5699 142.2762 144.7411 144.7411 145.2373
   146.4739 146.4739 147.8943 148.2276 148.2276 148.2607 150.1107 151.0294
   151.5988 151.5988 151.9020 151.9021 152.0469 153.1476 153.1476 154.5491
   154.5491 155.7074 155.7074 155.9545 156.2876 158.0398 158.0398 158.0537
   159.8560 160.0262 160.0262 160.1950 161.3578 162.1763 162.1763 162.3193
   162.3193 164.6856 164.6856 165.5553 165.8814 166.3321 166.3321 168.4233
   168.5927 168.5927 170.4155 171.0479 171.0479 172.4070 172.5272 172.5272
   172.8234 174.0768 174.0768 174.8309 175.1759 176.6332 176.6333 177.1617
   177.1617 177.2466 177.7127 177.7127 178.4830 178.9686 178.9686 179.4527
   180.5063 180.5063 180.9354 182.6715 182.6715 183.0273 184.7020 184.7020
   186.2989 186.6358 186.9215 186.9215 187.6963 188.1308 188.1308 188.7452
   188.7452 189.5244 190.9831 190.9831 191.1764 192.0837 192.0837 192.5773
   192.6154 193.1097 193.1097 194.3773 195.4607 195.4607 196.3749 196.3749
   196.9652 197.7236 198.2785 198.2785 200.2468 200.2468 200.6822 201.8990
   203.6793 203.6793 204.3156 204.3156 204.8755 206.6541 206.8505 206.9689
   206.9689 207.8529 208.3265 208.6478 208.6478 209.3769 209.3769 209.9181
   210.6685 210.6685 211.4371 211.4371 212.0140 212.5782 212.5782 213.5087
   214.6229 214.8954 214.8954 216.0073 216.0073 216.6636 216.6636 217.7257
   217.9760 221.4436 221.4436 221.6643 222.7805 222.8809 222.8809 223.1112
   223.1112 223.9684 223.9684 224.7231 225.7230 226.2130 226.5127 226.5127
   228.6771 228.6771 229.5651 229.5968 230.3033 230.3033 231.2856 231.6019
   231.6019 232.6768 232.8015 232.8015 233.5510 233.6068 233.6068 234.5182
   234.5182 234.5550 235.5491 235.5491 236.5462 236.6382 236.8577 236.8577
   237.5663 237.6264 237.6264 239.2433 239.2433 239.8012 240.2058 240.2058
   241.0071 241.7189 241.7189 242.6935 242.6935 243.1717 244.7862 245.2075
   245.2075 245.7413 245.9973 246.0377 246.0377 247.2968 247.5951 247.5951
   250.0868 250.2665 250.2665 250.7089 251.6707 251.6707 251.7759 253.9289
   253.9289 254.5635 255.8174 255.8174 257.2265 257.2265 257.9346 257.9977
   258.6520 258.6520 258.9445 259.3352 259.3352 261.1803 261.2158 261.2158
   262.9491 262.9491 263.8042 263.9586 263.9586 264.1878 265.4657 265.4657
   265.4669 265.8435 266.4492 266.4492 268.1200 268.1200 268.4611 268.5483
   268.5483 269.1403 269.6076 269.6076 270.5122 271.1988 271.1988 271.5339
   272.6428 272.6428 272.9585 272.9585 273.5469 275.0608 275.0608 275.3991
   276.3982 276.4612 277.7821 277.7821 278.8602 279.1327 279.1327 279.5533
   280.5293 280.5293 280.9128 281.4550 281.4550 283.2462 283.3374 283.3374
   283.7574 283.7574 284.3363 284.8027 285.6533 285.6533 286.9580 287.5752
   287.5752 287.6250 287.9675 287.9675 288.6187 288.6187 288.9874 289.1984
   289.4586 289.4586 290.5334 290.5334 290.7976 291.2175 291.8287 292.7226
   292.7226 294.3626 294.4702 294.4702 295.4353 295.4659 295.4659 295.8412
   295.8412 296.0718 296.1358 296.1358 296.7915 297.0036 299.1194 299.1194
   299.2686 299.6331 299.6331 300.0793 300.0793 300.4923 300.5320 300.5320
   302.3669 302.4537 302.4537 305.0130 305.7619 305.7619 307.1550 307.1550
   307.2804 308.4699 308.4699 308.8610 309.8198 309.9561 309.9561 311.0023
   311.0023 311.4389 311.5809 312.3349 313.2778 313.2778 313.7895 313.7895
   314.0614 314.4615 314.4615 315.5014 315.5977 316.2543 316.2543 317.4037
   317.6107 317.6107 318.1204 318.3293 318.3293 319.5804 319.7452 319.9480
   319.9480 320.4986 320.4986 321.7416 321.7416 321.7426 322.0404 322.7958
   322.7958 323.0738 323.0738 323.2888 323.5330 324.0452 324.3581 324.3581
   326.5725 326.9291 326.9291 328.5877 328.5877 329.3159 329.4581 329.4581
   329.8792 330.2185 330.2185 330.6951 331.8657 331.8657 332.5024 334.8165
   334.8165 335.4951 335.4951 335.8913 336.0866 336.0866 336.5454 336.7909
   336.7909 337.4148 337.4969 337.9267 337.9267 338.1044 338.1044 338.1198
   339.1779 339.1849 339.1849 339.4211 339.6409 339.6497 339.6497 339.8288
   340.6230 341.2227 341.2227 341.7988 341.7988 343.5083 343.5083 344.7627
   344.7627 344.9998 346.1038 347.3904 347.3904 348.5476 348.9335 348.9335
   349.3849 350.4178 351.3168 351.3168 352.1336 352.4894 352.4894 353.4175
   354.0586 354.0586 355.2541 356.4455 356.4455 356.9806 356.9806 357.2767
   357.4993 357.4993 357.8932 359.0054 359.3420 359.3420 359.6483 359.6483
   361.2344 361.2344 361.3421 362.9069 362.9069 363.1258 365.0417 365.1032
   365.1032 365.7357 365.9792 365.9792 366.0548 367.1096 367.1096 367.1423
   368.5658 368.5658 368.6449 369.6936 369.6936 370.1723 370.1723 370.4173
   370.6571 372.1458 372.1458 372.6917 374.3898 374.4547 374.4547 375.6975
   375.6975 375.7191 377.0712 377.0712 377.7987 377.8056 378.5788 378.5788
   379.1089 379.1089 380.0214 380.4053 380.4685 380.4685 381.1731 381.1731
   381.3309 381.8458 382.0370 382.0370 382.3155 382.4841 382.4841 383.0149
   383.0149 383.3158 383.3158 383.4657 383.6786 383.8962 383.8962 384.0853
   385.2463 385.2463 385.3891 387.0650 388.0454 388.0454 388.2640 388.3844
   389.4993 389.4993 390.0576 391.1003 391.1003 391.2181 391.2181 391.4050
   391.4794 391.4794 391.7726 392.3247 392.4328 392.4328 392.8336 392.8336
   393.6939 393.6939 393.7935 393.8792 394.3156 394.3156 394.6445 394.6445
   395.0854 395.0854 395.1093 395.5002 396.2123 396.4755 396.4755 397.5610
   397.9461 397.9461 398.5193 398.5193 398.6878 398.7338 399.3113 399.3113
   400.4824 400.4824 400.5391 400.7090 401.6735 401.6735 401.7386 402.7884
   402.7884 403.1856 403.1856 403.3475 403.3909 404.3091 404.3091 404.5266
   404.6737 404.6737 405.0070 405.8787 405.8787 406.8001 407.8695 407.8695
   408.7644 408.7644 409.6875 411.0431 411.0431 412.1449 412.2457 412.2457
   412.5292 414.2677 414.2677 414.4680 415.8294 415.8294 416.3672 416.3672
   416.4111 416.7419 416.7419 416.9719 417.4822 418.9595 418.9595 420.4593
   420.9287 420.9287 421.1673 421.8602 421.8602 421.9301 424.2688 424.2688
   424.3268 424.5699 424.9037 424.9037 425.5366 425.7201 425.7201 425.9991
   426.4728 426.4728 426.5937 426.6264 426.6264 428.1304 428.6455 428.7701
   428.7701 429.2208 429.2208 429.5536 429.5536 429.9338 430.0557 431.5293
   431.5293 432.1213 432.1213 432.4088 433.5608 433.5608 433.9252 434.5368
   434.6022 434.6022 434.7112 436.4116 436.4116 437.8144 437.8660 437.8660
   438.0948 438.8890 439.0089 439.0089 439.6627 439.6627 440.2939 440.6038
   440.6038 441.0698 441.3693 441.3693 441.9607 442.1058 442.1058 442.1340
   442.1830 442.4628 442.4628 442.4876 443.6870 443.6870 443.8123 443.8123
   444.2341 445.6466 445.6466 445.9671 447.1362 447.1362 447.5827 447.5827
   448.1907 448.5108 450.3307 450.3307 451.0378 451.4018 451.4018 452.1240
   452.1240 452.2541 452.3758 453.1297 453.1297 453.7788 453.7788 454.8986
   455.5517 455.5517 455.8627 455.8764 457.3268 457.3268 458.0395 458.0554
   458.0554 458.6603 458.8332 459.0208 459.0208 459.5965 459.6103 459.7389
   459.7389 459.9736 459.9736 462.1658 462.1658 462.4799 463.1364 463.1364
   463.3738 463.4173 463.4173 463.8195 465.3015 465.3015 465.4678 465.5856
   465.8162 465.8162 466.7036 467.6010 467.6010 468.4808 468.8450 468.8450
   470.6995 470.6995 470.9809 471.5361 471.5361 471.7413 471.9495 471.9495
   472.1740 472.6835 472.6835 473.0552 473.5418 473.5843 473.5843 474.1698
   474.1698 474.6715 474.8343 475.6258 475.9994 475.9994 476.6326 476.6326
   477.1631 477.3085 477.3085 478.3500 480.1071 480.1071 482.1979 483.3170
   483.3170 483.6281 483.8207 483.8207 484.2532 484.3638 484.3638 485.1084
   485.1084 485.3455 485.4537 485.8642 485.9514 485.9514 486.3822 486.3822
   486.7855 487.2714 487.4130 487.4130 488.0496 488.0496 488.8721 488.9513
   488.9513 489.5262 489.8109 489.8443 490.1679 490.1679 490.4275 490.4275
   491.2803 491.2803 491.8739 491.9589 491.9589 492.2141 492.2660 492.2660
   492.5616 492.5616 492.5989 493.2170 493.6279 493.6279 493.8555 494.8067
   494.8067 494.9049 495.1067 495.1067 495.2692 495.5232 495.5232 495.9482
   498.5913 498.5913 499.0962 499.7331 499.7331 500.4339 500.4339 500.4659
   501.0577 501.3664 501.3664 501.8963 501.8963 502.3200 502.6290 503.1016
   503.3139 503.3139 503.4752 503.5738 503.5738 503.6680 504.1507 504.1507
   507.3040 507.9711 507.9711 507.9966 509.4070 509.4070 509.8774 510.1807
   510.1807 510.6974 511.0715 511.0715 511.8449 512.2969 512.8056 512.8056
   513.5725 513.5725 513.6127 513.9073 514.1124 514.1124 515.4137 515.4137
   515.4204 516.2265 516.4871 516.4871 516.9587 516.9587 517.0608 517.3094
   517.4068 517.4068 518.3284 518.3284 518.5132 518.5132 518.7239 518.9421
   518.9421 518.9826 520.4755 520.5667 520.5667 521.3089 521.3089 521.5620
   522.2992 522.2992 522.7421 522.9838 522.9838 523.0216 524.5142 524.5142
   524.7276 524.8595 524.9168 524.9168 525.5283 525.6057 525.6057 527.7274
   528.0990 528.0990 528.8851 530.0240 530.0240 530.7500 530.9579 530.9579
   531.5803 531.5803 531.6990 532.1681 532.1681 532.4848 532.8048 532.8048
   533.0172 533.2665 533.5051 533.5051 533.8316 533.8316 534.4645 534.4645
   534.8959 534.8959 535.0075 535.0605 535.1783 535.4605 535.4605 535.5251
   539.5227 539.5227 540.1095 540.3933 540.3933 541.1460 541.1460 541.5065
   541.6848 541.9036 542.3586 542.3586 542.6737 542.6737 542.7356 542.7659
   542.7659 542.8897 543.1660 543.1660 543.5980 544.1067 544.1067 544.1773
   544.1773 544.2443 544.9090 546.0326 546.1788 546.1788 546.9182 546.9964
   546.9964 547.3781 548.3038 548.3038 549.6477 549.6477 550.1007 550.1078
   550.1078 550.3637 550.3676 551.1724 551.1724 552.0964 552.4701 552.4701
   553.1953 553.2944 553.2944 554.2750 555.8478 555.8478 557.2404 558.3336
   558.5881 558.5881 559.6138 559.6138 559.6949 559.8161 559.8161 560.3539
   561.6405 561.6405 562.0133 562.0140 562.2308 562.2308 563.2740 563.2740

          k = 0.5000-0.5000 0.5000 (  3214 PWs)   bands (ev):

  -117.2631 -71.4314 -71.4313 -71.4313  -4.6110   1.3976   1.3976   1.8199
     1.8199   1.9948   2.3013   6.7701   6.7701  10.9881  14.5902  14.5902
    16.5522  19.8551  21.0304  21.0304  23.0821  23.4200  23.4200  30.0980
    31.3794  31.3794  32.7655  33.9187  33.9187  36.9750  36.9750  38.4623
    38.9286  39.2425  39.2425  41.6430  42.8611  44.9255  44.9255  46.8059
    46.8059  47.1260  48.1246  53.3300  53.3300  53.4080  54.0544  54.0544
    56.6688  56.6688  57.8106  59.7492  62.1796  62.1796  62.3112  63.6775
    63.6775  64.5569  65.5412  65.5412  68.8950  68.8950  69.5177  71.2069
    71.2069  73.1188  73.6690  73.6690  74.6857  74.6857  75.1563  75.1946
    75.9661  78.5103  78.9022  78.9022  79.1140  79.1140  79.8820  82.4662
    82.4662  83.1837  84.9061  84.9061  85.6838  85.6838  87.8864  88.2116
    90.7303  90.7303  93.5281  95.8574  96.1129  96.1129  96.2329  97.7300
    98.2318  98.2318  98.5242  98.5242  99.7177 101.7895 102.5347 102.5347
   103.1739 103.1739 103.4039 103.9608 105.3351 105.3351 105.3354 105.8015
   107.0960 107.0960 107.2623 108.9868 108.9868 112.3998 113.0756 113.0756
   114.5782 114.8088 114.8088 115.7308 115.7308 115.8927 116.8228 117.3237
   118.2916 118.2916 118.5964 118.5964 119.7448 119.7586 119.7586 122.3786
   122.3786 123.1327 125.2144 125.2144 125.6196 127.2102 127.9223 127.9223
   129.4272 129.4272 129.8360 131.4142 131.4142 133.7459 133.7459 134.1419
   135.1696 135.3525 135.3525 135.8793 135.8793 137.7365 138.0316 138.0773
   139.5201 139.5201 140.9302 140.9302 141.2141 141.2141 141.2802 143.5449
   144.0293 144.4099 144.4100 145.1202 145.1202 145.2037 147.7490 147.7490
   149.6741 151.2198 151.2198 151.8769 153.9980 153.9980 154.4001 155.2110
   155.9967 156.3325 156.3325 157.2130 158.5591 158.5591 158.6519 159.2825
   159.2825 161.0455 161.0455 161.4863 163.1718 163.1718 164.3283 164.9710
   165.0896 165.0896 165.6187 165.6187 166.5018 166.8321 166.8321 167.6584
   167.6584 167.8230 168.2456 169.3661 169.3661 170.3021 170.3021 171.1669
   171.7835 171.7835 172.2851 172.8666 173.9206 173.9206 175.6557 175.6557
   175.9509 176.5387 177.1995 177.1995 178.3570 178.3570 178.5235 178.5235
   179.1321 180.6372 180.7924 180.7924 182.6486 184.4158 185.4608 185.4608
   186.2218 186.7421 186.7421 187.3951 188.2226 188.2226 188.4468 189.1470
   189.1470 189.4605 189.8101 189.8877 189.8877 191.1343 191.1343 192.0405
   192.0601 192.8171 194.6516 194.6516 196.0285 196.4692 196.4692 197.0312
   199.3583 199.5914 199.5914 200.1741 200.1741 200.9549 200.9549 201.4771
   201.4771 201.5544 201.7000 201.8710 203.3218 203.3218 204.6785 204.6785
   209.9768 209.9768 210.2660 211.3160 212.4155 212.4155 213.0089 213.0089
   213.7000 213.7000 214.1618 215.2919 215.8996 215.8996 216.0219 216.7357
   216.7357 217.1772 218.2313 218.4569 218.4812 219.5051 219.5051 219.9992
   220.4649 220.4649 220.8743 222.4166 222.4166 222.7978 222.7978 224.3161
   224.3161 224.5869 224.6284 224.7985 224.7985 225.1196 225.1196 226.0567
   227.4553 228.6331 228.6331 228.7573 228.7573 229.1303 229.4563 229.4563
   229.5816 229.9077 229.9077 230.0539 230.0991 230.0991 231.2847 231.3031
   231.8258 231.8258 233.8527 233.8527 234.9727 236.7342 238.8001 238.8001
   239.4968 239.4968 239.7632 240.2308 240.2308 240.5635 241.2805 241.2805
   241.4134 242.0971 242.0971 242.9986 243.5532 243.5532 244.7309 244.7309
   245.4211 245.8023 245.8780 245.8780 246.4646 247.2700 247.2700 247.7867
   249.1750 249.5545 249.5545 250.7859 250.7859 251.2081 251.2081 251.4034
   251.5225 251.5225 251.5415 253.1883 253.1884 253.7365 257.0748 257.0771
   257.0771 257.1052 258.2606 258.2606 258.7020 258.7020 259.4022 259.4218
   259.7716 262.0222 262.0222 263.1466 263.2858 263.2858 264.2641 264.5534
   264.5534 264.7164 266.8654 267.3947 267.3947 268.4337 268.4337 268.5616
   269.5338 269.7186 269.7186 270.2897 270.3521 270.3521 271.8406 272.8508
   272.8508 273.0411 273.0411 274.0191 275.3330 275.3330 276.2525 276.4406
   276.4406 278.1246 278.1246 278.4058 278.4058 278.5089 279.7862 280.0052
   280.7748 280.7748 281.0123 281.3521 281.3521 281.5271 283.9161 283.9161
   284.2308 284.2308 285.1540 285.1540 285.4249 287.5004 287.5004 287.5283
   287.8598 287.8598 288.1890 288.5101 288.5312 288.5312 289.1549 289.1549
   289.1828 289.3062 289.3062 290.8822 291.4563 292.4490 293.3011 293.3011
   293.7328 294.0735 294.0735 294.5289 294.6401 294.6401 295.0770 295.2257
   295.2257 295.2602 296.4504 296.4504 297.0525 297.0525 300.0793 300.5395
   300.5395 301.4413 301.6217 302.6571 302.6571 302.8821 303.6165 303.6165
   304.3714 304.3714 304.8156 305.3442 306.5750 306.5750 307.0714 307.6020
   308.2395 308.2395 308.7373 308.7373 309.2295 309.8902 309.8902 310.0736
   310.3795 311.0571 311.0571 311.4521 311.4521 311.4644 313.4655 313.4655
   314.5748 315.6047 316.3060 316.3060 317.4762 317.7444 317.7444 318.0431
   320.2200 320.2200 321.4099 321.4099 321.5596 321.6794 322.5931 322.5931
   322.8119 323.0310 323.0367 323.0367 323.4016 323.4016 323.4662 323.7216
   323.7216 323.8033 323.8742 323.8742 323.8749 324.4237 325.3140 325.3140
   325.4200 325.4200 325.7407 325.7407 325.8264 326.1316 326.1316 326.3730
   328.0391 328.2630 328.2630 329.8979 329.8984 329.8984 330.1189 330.2357
   330.6451 330.6451 332.0648 332.0648 332.2239 332.5922 332.5922 333.0277
   333.1226 335.1109 335.1109 336.4914 336.5697 336.5697 336.6153 337.5217
   338.6624 338.6624 340.4603 340.4603 341.6043 341.6043 341.7486 342.3435
   343.5780 343.5780 344.2584 344.2584 344.8543 347.8993 347.8993 349.0305
   349.0305 350.0656 350.7857 350.9499 350.9499 351.1392 351.1392 351.4701
   351.4754 351.4754 352.0793 352.1443 352.2222 352.6448 352.6448 353.3700
   353.3700 354.1350 354.3311 354.3311 355.2509 355.2785 355.3728 355.3728
   355.8313 355.8313 356.7012 357.5708 357.5708 357.6775 358.7821 358.8888
   358.8888 360.1356 360.1356 361.1841 362.8968 362.8968 364.2401 364.7247
   364.7247 364.9856 364.9856 365.3817 365.4074 365.7791 365.7791 366.5045
   367.7029 367.7029 367.9331 368.5065 369.2827 369.2827 369.4375 370.4779
   370.4779 370.7454 372.5309 373.0250 373.0250 374.0218 374.0218 374.0348
   375.3961 375.3961 375.4336 375.4336 375.6010 375.6010 376.2442 377.3358
   377.3846 378.0325 378.6410 378.6410 379.0492 379.0492 379.7293 379.7293
   379.8182 380.3481 380.3481 380.3725 381.1416 381.1416 382.7804 382.8914
   382.8914 383.0630 383.0630 383.1287 383.4714 383.4714 384.0569 384.4441
   384.8212 384.8212 385.3096 385.3700 385.4128 385.4128 385.6910 385.6910
   387.4314 387.6554 387.6554 387.7522 387.9134 388.7125 388.7125 389.6687
   389.6687 389.9388 392.6901 392.6901 393.3023 393.4435 393.6337 393.6337
   394.8948 394.9054 394.9592 394.9592 395.6577 395.6577 395.9812 395.9823
   395.9823 396.6381 396.9676 396.9676 397.8789 397.8789 398.2960 398.7532
   398.7532 398.8280 399.5391 399.5391 399.5527 399.5998 399.5998 399.7420
   400.7689 400.7689 402.4034 403.5986 403.5986 404.5190 404.8730 404.8730
   405.3098 405.5507 405.7959 405.7959 405.8825 405.8825 406.0581 406.0708
   406.8841 407.0321 407.0321 407.2300 408.2350 408.2350 409.3644 409.6244
   409.6244 410.5201 410.6297 410.6297 411.7634 411.7634 411.7693 412.0656
   412.0656 412.5181 412.8070 412.8070 413.0334 413.0334 413.3245 413.3245
   413.5142 413.5301 413.9328 415.7027 415.7027 416.4343 416.7408 416.7408
   417.0308 417.3629 420.6950 420.6950 422.6341 422.6341 423.4365 424.5106
   424.6249 424.6249 424.9766 425.0991 425.0991 425.4619 425.9212 425.9212
   427.0265 427.0265 427.5968 427.5968 428.3791 428.4758 428.4758 430.3957
   430.3957 431.0296 432.0523 432.4826 432.4826 433.0826 433.2942 433.2942
   433.6917 433.6917 434.1016 434.2913 434.2913 434.2926 434.3357 434.3357
   434.4427 434.7578 434.7739 434.8486 434.8663 434.8663 434.8993 434.8993
   437.2134 437.2134 437.3367 437.4445 437.4445 437.5118 439.1058 439.1058
   440.9414 441.3405 441.3405 441.8622 445.3484 445.3484 445.6324 445.6324
   445.7203 445.7249 445.7249 445.7657 447.1730 447.1730 447.3134 447.3894
   447.6624 447.6624 447.6674 448.3269 448.5619 448.5619 448.9784 449.2864
   449.2864 449.3547 450.0738 450.0738 450.1447 450.1448 450.9107 450.9107
   450.9947 451.0844 451.3924 451.5277 451.5277 451.5714 451.6518 451.6518
   455.7365 455.7365 455.9249 455.9249 456.2955 456.3783 456.3797 458.8578
   458.8578 459.4938 460.0143 460.0143 461.3555 461.9050 462.0152 462.0152
   463.1698 463.1698 463.8174 463.8174 464.8892 465.1841 465.3475 465.4655
   465.8444 465.8444 466.0433 466.0433 466.5542 466.5542 467.2151 467.2151
   467.7809 467.8001 468.3476 468.3476 468.4013 468.7745 468.8611 468.8611
   470.6387 470.6387 470.7916 471.4282 471.9036 471.9036 472.1904 472.8280
   472.8280 473.0889 474.7026 474.7318 474.8996 474.8996 475.4326 475.4326
   475.7378 475.7378 475.9012 476.0823 476.2605 476.2605 477.0777 477.0777
   477.2217 477.2217 477.5481 477.5693 478.6788 478.6788 478.7271 478.7458
   478.7458 478.8297 478.8297 478.9000 478.9177 478.9177 478.9690 479.0642
   482.6559 482.8986 482.8986 484.3164 484.3164 484.6080 484.8146 484.8146
   484.9044 486.0753 486.0753 486.7135 486.7135 487.0553 487.5067 487.6308
   487.7359 487.7738 487.7738 487.7861 488.1661 488.1661 488.2337 488.2337
   488.4417 489.6346 489.6346 491.4075 492.2077 493.1051 493.6480 493.6480
   494.1200 494.1200 494.4777 494.4932 494.4932 494.7630 495.8711 495.8711
   496.4081 496.4081 496.7607 496.7607 497.2151 497.2151 497.3150 497.4106
   497.9439 497.9439 499.0917 499.1262 499.1262 499.3032 499.8265 499.8265
   499.9234 500.4819 500.5464 500.5464 501.2574 501.6867 501.6867 503.7090
   503.7090 503.8447 504.3834 504.3834 504.7311 504.7311 504.8122 504.8224
   504.8224 505.0819 505.6295 505.6295 505.9771 506.0044 506.0044 506.0125
   506.2707 506.3609 506.3609 506.5018 507.1242 507.1434 509.0387 509.0387
   509.4950 509.4950 512.7412 512.7412 512.7608 512.7608 513.8377 513.8383
   514.0603 514.0603 514.2969 514.6548 514.6871 514.6871 516.8613 516.8613
   517.1134 517.3007 517.3007 517.3810 519.2574 519.2574 521.1435 522.8483
   523.3726 523.3726 524.2739 524.2739 525.3983 525.5079 525.5079 525.8518
   525.8518 526.0369 526.2840 526.7360 526.7360 526.8686 527.0389 527.2343
   527.2343 527.4135 527.4135 527.4456 527.6027 527.6027 527.8222 528.0967
   528.0967 528.2203 528.6221 529.2970 529.4489 529.4489 529.7202 529.7202
   529.8706 530.4782 530.4782 530.9105 531.2931 531.2931 532.6188 532.6746
   533.3599 533.3599 533.4062 533.4865 533.4865 533.5730 533.7237 533.7237
   533.8933 534.0552 534.0552 534.1268 534.1268 534.1987 534.4271 534.4892
   534.4892 534.7841 535.0553 535.0553 535.1084 535.1878 535.2862 535.2862
   540.2132 540.2132 540.4093 540.4093 540.7788 540.7908 540.8100 540.8100
   540.9341 540.9341 541.3430 541.3430 541.4207 541.7198 541.7777 541.7777
   542.0397 542.0397 542.0792 542.1016 542.1016 542.1127 544.5147 544.5147
   545.7938 545.9635 545.9635 546.1738 550.8849 550.8849 551.1380 551.1418
   551.1418 551.1966 554.0249 554.0249 554.6614 554.6614 554.7743 555.3767
   555.4861 555.5348 555.5348 555.8158 556.2090 556.2090 557.8302 557.8302
   558.0657 558.1417 558.1418 558.5771 558.5771 558.8429 558.9928 558.9928
   559.1908 559.2743 563.5242 563.5242 564.3722 564.7304 565.1291 565.9564

          k = 0.0000 0.2500 0.0000 (  3255 PWs)   bands (ev):

  -117.2632 -71.4313 -71.4312 -71.4312  -5.3971   1.2594   1.3203   1.3203
     1.7718   1.7999   6.5804   7.2336   7.2336  10.9806  13.3495  14.6978
    14.6978  17.7338  19.5973  20.8837  22.8406  22.8406  22.9652  27.6519
    30.8790  30.8790  32.6617  34.2302  34.4049  37.4491  37.4491  38.6756
    41.2550  41.2550  42.0831  45.2415  47.6509  47.6509  47.8381  49.2067
    50.2234  51.0820  51.0820  51.9831  53.1660  53.5930  53.5930  55.3263
    55.7074  55.8769  55.8769  57.3246  57.6606  58.9046  58.9046  59.2188
    60.4894  60.4894  60.7802  61.5301  62.7678  62.7678  64.6196  65.2991
    68.8848  69.2504  69.2504  70.5773  74.7126  75.1039  76.2093  76.2093
    78.3581  80.3503  81.5083  81.5083  83.7615  85.9218  87.5856  87.5856
    87.7914  88.7052  90.5142  90.5142  91.0516  92.9028  92.9028  93.3218
    93.4930  93.4930  93.6267  94.7479  95.1218  96.6610  96.6860  96.6860
    97.6015  98.3299  99.5007  99.7267  99.7267 101.6341 101.7500 101.7500
   102.0188 102.4483 102.9294 104.3937 104.4553 104.4553 104.7909 105.5005
   107.1854 107.1854 108.0742 108.8426 108.8794 108.8794 109.7332 110.2866
   110.2866 111.2185 113.2302 113.9183 113.9183 115.2002 115.2002 115.3052
   115.3777 115.9923 116.9544 116.9544 117.1884 118.6090 120.1266 121.3371
   122.9728 124.5506 125.1562 125.1562 126.1462 126.1462 127.5107 128.0588
   128.6342 128.6342 129.5061 129.5061 129.5638 130.9117 131.1167 131.3961
   131.3962 131.9726 133.7436 134.1185 134.1185 135.3061 137.6103 137.7792
   137.7792 139.0878 139.6183 139.7196 139.7196 139.8381 141.7212 141.7212
   141.7341 142.3648 143.5021 145.2892 145.8134 145.8134 146.0113 148.3279
   148.7276 148.7276 150.0544 151.0755 151.9358 151.9358 152.4649 156.8978
   156.8978 158.3220 158.4204 160.1399 160.7032 160.7032 163.5643 163.7820
   163.7820 163.8741 165.3107 165.3107 165.7828 166.4384 167.3256 167.4618
   168.0886 168.0886 169.4388 170.0834 170.2771 170.2771 170.5125 171.2083
   171.2083 171.9259 172.8927 173.6463 174.2353 175.5608 175.8115 175.8115
   176.0595 176.6023 176.6023 176.6945 177.1901 177.1901 177.7113 177.9494
   178.1555 178.1988 178.1988 180.6366 180.6366 181.0545 181.8545 181.8545
   181.8581 182.0670 182.1182 182.8522 182.8522 182.9778 183.5802 184.6771
   184.7594 185.0371 185.7204 185.7204 186.2053 186.4420 186.4420 187.1530
   187.9755 187.9755 189.5317 189.5317 190.2033 190.5260 191.7164 191.7976
   191.7976 191.8385 192.1750 192.4902 193.5375 193.5550 193.5550 195.2487
   195.6481 195.6481 197.0210 197.4320 197.4946 197.8053 197.8053 198.7805
   199.0149 199.4228 200.1353 200.1353 202.6266 202.8137 202.8137 203.1901
   203.8745 203.8745 204.1628 204.6989 205.8127 205.9305 205.9305 207.2614
   208.3875 208.3875 209.5462 209.9157 210.2043 210.2822 210.3201 210.3201
   211.2666 211.2666 212.1838 212.3649 213.0747 214.5801 214.5801 214.7417
   217.8992 218.1420 218.1420 218.5989 219.7886 219.7886 220.3552 220.8680
   221.0074 221.0074 221.2337 222.9290 223.5085 223.5085 223.8753 223.9902
   226.5402 226.5402 226.7578 227.1627 227.8570 228.7474 228.7474 230.0978
   230.8632 230.8632 231.8232 232.1208 232.4446 232.4878 232.4878 233.5650
   233.9614 235.2097 235.6514 236.6376 236.6376 238.5861 238.8882 238.8882
   240.9361 242.2098 242.2126 242.2126 242.9451 243.2479 243.7683 243.9536
   243.9536 244.6371 244.6371 245.0848 248.5170 249.2457 249.2457 249.5626
   251.2198 251.2198 252.0426 252.9094 252.9094 253.3221 253.4701 253.5089
   253.5089 255.0597 255.6515 256.7569 256.7569 257.1071 257.4177 257.7758
   258.1582 258.2909 258.2909 259.2781 259.3202 259.3202 260.3593 260.7294
   261.6245 261.6245 262.1200 262.7473 263.3743 263.3743 263.3878 263.4305
   264.3902 264.3902 265.4398 266.1506 266.6967 266.9432 266.9957 266.9957
   268.0188 268.0188 268.1670 268.3196 269.1785 269.1785 269.3205 269.3471
   270.0983 270.0983 270.3056 270.8125 271.3799 272.4300 273.3009 273.3009
   273.3384 274.6374 274.6374 275.2271 275.3338 277.3093 277.3093 277.9143
   277.9374 278.1953 278.1953 278.7408 278.8970 278.8970 278.9583 279.4365
   279.7780 280.8528 280.8733 280.8733 282.2044 282.2044 282.2374 282.4076
   283.1424 283.1966 283.3715 283.3715 283.4607 283.9151 283.9151 284.5212
   286.1206 286.2659 286.2659 287.0245 287.0252 287.5325 287.7256 287.7256
   289.2834 289.2834 289.3277 290.2780 290.2780 290.8039 291.0687 291.2444
   292.0180 292.0180 292.6539 292.7419 293.2572 293.4666 293.4666 293.6785
   293.8445 293.8445 295.0280 295.4228 295.8012 295.8012 295.8554 296.2452
   296.2452 296.5995 296.8010 297.5830 297.8672 297.8672 298.4365 299.8727
   300.2300 300.3000 300.3000 300.3232 300.5292 300.5292 300.6472 301.0999
   302.1248 302.7202 303.0325 303.0325 303.4683 304.1042 304.1042 304.5063
   304.6524 304.6850 304.6850 306.5423 307.9524 309.4265 309.7333 309.7333
   310.3177 310.3740 310.3740 310.5773 310.7600 311.5630 311.5630 311.6069
   313.7961 314.1586 314.1586 314.5258 315.7510 315.9362 316.6277 317.4728
   317.4728 317.5861 318.1468 318.1468 318.4674 318.8998 320.1005 320.1005
   320.5544 322.4376 322.5522 322.5522 323.2338 323.3162 323.3162 323.3962
   324.0458 325.1938 326.9679 326.9966 326.9966 328.7528 328.7528 329.5876
   329.5876 330.0600 330.9214 331.6519 332.3306 333.4423 333.4423 334.0246
   335.0401 337.3609 337.3609 337.7819 338.9095 339.0504 339.0504 339.3284
   339.6609 340.5524 340.6595 340.6595 341.7696 342.2211 342.2211 343.1653
   343.2706 343.9857 343.9857 344.0601 344.1795 345.2659 345.3928 347.0055
   347.0055 347.3674 348.5290 348.5290 348.6314 348.6314 349.0282 349.2029
   349.4649 349.6095 349.8296 349.8296 350.1343 350.4015 351.1291 351.1291
   352.7202 353.6263 354.2527 354.2527 354.7977 355.0541 355.0541 355.1470
   355.2176 356.7112 356.8189 357.1486 357.1486 357.1823 360.7277 360.7278
   361.1654 361.4908 361.6664 361.6664 361.8940 362.0119 362.5201 363.5532
   363.5532 364.0260 364.1234 364.8676 364.8676 364.9242 365.6340 365.6444
   365.6444 366.0265 366.2201 366.2201 366.5348 367.0772 367.4905 368.0351
   368.2406 368.2406 369.4837 369.4837 369.7311 370.0329 370.0714 370.1110
   370.1110 370.4780 370.4780 370.7674 370.8976 371.1365 371.1365 371.2705
   372.8359 373.9250 374.4545 374.4545 374.6147 374.7768 375.0274 375.0274
   375.4387 375.7007 375.9528 375.9528 376.1967 377.9698 377.9698 378.0300
   378.0866 379.8598 379.8598 380.5692 381.6151 382.2990 382.7441 382.7696
   382.7696 383.0986 383.3948 383.3948 383.4985 384.3576 385.0680 385.9164
   386.9426 387.2596 387.2596 387.8877 388.0379 388.0379 388.0945 388.0945
   388.1223 388.1527 388.9285 388.9285 390.3875 390.6196 391.5200 391.6334
   391.6334 392.4190 393.8851 393.8851 395.1501 396.2113 396.4964 396.6266
   396.6266 396.9651 397.3318 397.3993 397.4251 397.4251 397.8359 398.2230
   398.2230 398.3162 398.5845 399.7633 400.3938 400.5847 400.5847 400.9472
   401.4700 401.7582 401.7582 402.1411 402.2359 402.2359 402.6850 404.1864
   404.1864 404.3689 405.1991 405.6458 405.6458 405.9184 406.1294 406.1294
   406.3845 406.9721 407.4874 408.0580 408.1600 408.1600 408.2908 408.7371
   408.7371 408.8738 409.2046 409.2921 409.2921 409.7976 409.8527 409.8527
   409.9033 410.4869 410.4869 410.6440 410.8240 412.1798 413.4702 414.4802
   414.4802 414.8246 414.9847 415.2840 415.2840 415.4246 415.4246 415.4901
   415.6119 416.9805 417.0571 417.5073 417.5073 418.2748 418.5156 418.5167
   418.5167 419.2285 419.2285 419.4990 420.2614 421.1316 421.1706 421.2153
   421.2153 421.8956 422.0537 422.0537 422.2324 422.3486 422.7311 423.2622
   423.2622 425.3672 425.6806 426.0172 426.0172 426.2854 426.3071 426.3071
   426.4575 426.8628 428.0377 428.2086 428.2086 428.4349 428.8069 428.8069
   428.8535 429.3768 429.4277 429.4277 429.7881 430.0501 430.0501 430.1734
   430.2591 430.4557 430.4774 430.4774 430.8413 431.3978 433.0639 433.0639
   433.7570 434.7212 434.7212 434.9394 435.2581 436.2130 436.2623 436.7361
   436.8287 436.8287 436.8778 438.1939 438.1939 438.3296 438.8764 438.8764
   438.8847 439.0485 439.0634 439.2100 439.2100 439.2625 439.5350 440.0918
   440.0918 441.3956 442.5995 442.8536 442.8536 442.8818 443.1009 443.1009
   443.1897 443.7902 443.7902 444.0714 444.1894 445.0425 445.3126 445.5599
   446.1277 446.1277 446.1751 446.2369 446.2369 446.4846 447.0801 448.3437
   448.3437 450.4186 450.7451 452.0423 452.0423 452.4622 454.0058 454.4158
   455.0486 455.0486 455.1926 455.5042 455.5042 455.6002 456.0706 456.2837
   456.2837 457.3174 457.4687 457.4687 457.5605 463.8491 464.0680 464.1965
   464.4301 464.4301 464.7933 465.0208 465.0208 465.3077 465.3113 465.3581
   465.3696 465.3696 466.7322 466.8571 466.8571 467.1088 467.2272 467.3227
   467.5440 467.5440 467.5490 467.8056 467.8056 469.8862 469.8862 469.9186
   470.0771 470.7221 470.7221 472.8143 473.1054 474.6120 474.6963 474.6963
   475.1800 475.3033 475.6234 475.7497 475.8411 475.8411 476.3744 476.3744
   476.4672 477.9369 478.0744 478.0744 479.3804 479.8707 480.9823 482.4547
   482.4547 482.6382 484.1768 484.8504 484.9987 484.9987 485.3075 486.2176
   486.2229 486.2229 487.0820 487.1542 487.1542 488.1472 490.1810 490.9228
   492.3717 492.6029 492.6029 492.6143 492.8853 492.8853 493.5719 494.4507
   494.6112 495.1641 495.1641 496.0148 496.1911 496.1911 496.2401 496.3407
   496.3407 496.3940 496.4999 497.0001 497.4880 497.4880 497.8956 498.2981
   499.0957 499.0957 499.3666 499.8471 499.9652 499.9652 500.2662 500.3580
   500.4245 500.7843 500.7843 501.0628 501.2511 501.3442 501.3442 502.2237
   503.1276 503.2517 503.2517 505.7797 505.7797 506.5724 506.8102 506.8102
   507.0530 508.0391 508.3409 508.3409 508.6685 509.2100 510.0935 510.0935
   510.4766 511.1927 511.4673 511.4673 511.5033 511.6891 511.8817 511.9368
   511.9368 512.3854 512.6035 513.2782 513.9657 513.9657 514.7490 515.0109
   515.0109 515.0392 515.3161 516.0493 516.0493 516.1744 516.4076 516.8707
   516.8707 517.1013 517.1964 517.7541 517.7898 517.7898 518.1246 518.2008
   518.2377 518.2377 519.0341 519.2170 519.2170 519.3943 520.1236 520.1329
   520.1329 520.3084 521.1921 522.4570 522.7230 522.9160 523.1562 523.1562
   524.2110 524.2110 524.5669 524.5669 524.5806 524.7465 524.7724 524.9267
   524.9267 526.6211 526.6897 527.1873 527.5293 527.5293 527.8253 527.9979
   527.9979 528.3680 529.0036 529.6025 529.6710 529.7895 529.7895 529.8887
   529.8887 529.9682 530.1080 530.8069 530.8069 531.0694 531.3271 531.3423
   531.3423 531.4512 531.8800 532.2318 532.6426 532.6426 532.8113 532.8447
   532.8971 532.8971 533.0837 533.3387 533.5620 533.5620 533.7959 534.2697
   534.2697 534.7982 535.0188 535.5021 535.5021 535.6650 536.1852 536.4866
   536.6475 536.6475 536.7955 536.8788 536.9871 536.9871 537.1017 537.7937
   537.7937 537.8641 538.2866 538.4633 538.7329 538.7329 538.8268 540.3246
   540.3893 540.3893 540.4461 540.8468 540.9036 540.9036 541.0083 542.1809
   542.4217 543.0527 543.0527 543.5087 544.3612 544.3612 544.7647 544.9181
   546.0356 546.2950 546.2950 546.8082 546.9093 547.4675 547.5437 547.5437
   547.8240 547.8240 547.9340 548.9523 549.6005 549.6178 549.7982 549.7982
   550.6633 551.0961 551.1760 551.1760 551.6636 551.6636 551.7650 552.0368
   552.5149 552.5149 552.6384 553.0167 553.6275 553.6275 553.7339 553.7346
   555.3426 555.3617 555.3617 555.5839 556.3543 556.3543 556.8061 557.2030

          k =-0.1250 0.3750-0.1250 (  3248 PWs)   bands (ev):

  -117.2632 -71.4313 -71.4313 -71.4313  -5.1499   1.2670   1.3700   1.3706
     1.7639   1.8102   5.2814   6.8500   6.9275  11.7170  13.2389  15.0787
    15.2644  17.3810  19.5788  21.3645  23.1222  24.4465  25.5060  28.1642
    28.3207  29.9749  31.5214  33.4460  33.7028  37.7791  38.0275  39.8055
    40.9120  41.6434  42.6117  44.7758  45.1602  46.2117  46.7468  48.4173
    48.7149  49.9348  50.3270  51.1722  51.9641  52.4009  53.4378  55.2229
    55.5771  55.8498  56.4216  57.2408  58.5320  59.1169  59.9119  60.4723
    61.5213  62.0535  63.4726  64.9994  65.7682  66.6084  66.6502  67.6262
    69.1931  70.0854  71.4442  72.8183  72.9063  74.7343  74.7703  76.3087
    77.1060  79.7931  79.8459  80.8367  81.9528  84.1824  85.1647  85.4660
    86.7117  87.6587  88.0977  88.6156  89.6266  90.1906  90.9766  91.4306
    91.8493  92.9613  93.4188  93.4775  94.8903  95.3517  96.1067  97.1030
    97.5990  98.1801  98.9587  99.5691 100.2800 100.8926 101.0631 101.6195
   102.7262 102.7967 104.3389 105.2089 105.4512 106.0217 106.2485 107.1806
   107.3298 108.0460 108.3716 108.7244 109.5291 109.6672 109.9977 112.0767
   112.2407 112.9429 113.3575 113.7492 114.6066 115.8421 116.3025 116.3830
   117.0420 117.0646 118.1888 118.5638 119.7817 120.4241 120.7300 120.9157
   121.4845 121.5893 122.8322 122.9890 124.2896 124.8498 126.2053 126.7254
   127.1356 127.9877 128.5827 129.9792 130.4994 130.7757 132.2658 132.6405
   133.1259 133.9205 134.5426 134.7585 135.6540 135.7562 136.7399 137.0837
   137.7141 138.9095 139.5955 140.0516 140.9377 141.4392 143.1015 143.6367
   144.8222 145.0054 145.6403 146.3161 147.8680 147.9662 149.0967 149.6891
   150.7311 151.4470 151.7878 152.8372 153.2570 154.3905 155.3196 155.3730
   156.4641 156.6866 157.1542 157.3776 159.0717 159.1654 159.7282 159.7622
   160.3133 161.2287 161.4418 161.9602 162.7872 163.5764 163.6923 165.0629
   165.3019 165.6530 166.0359 166.3780 167.4293 167.9341 169.1835 169.3344
   169.5311 169.9996 170.2370 171.4098 171.5269 172.2652 172.4181 173.6994
   173.9008 174.0512 174.9599 175.5864 175.9562 176.9810 177.1119 177.5048
   178.1958 178.8485 179.0542 179.7395 179.9512 180.3191 180.7421 180.8248
   182.3594 182.5779 182.6330 183.4983 184.3275 184.3330 185.0187 185.3672
   185.8563 186.5563 186.6782 187.1545 187.8255 188.1481 188.4247 189.9477
   190.4949 190.7859 190.8431 191.5790 191.8836 192.6494 192.7038 193.2893
   193.6169 194.1925 194.3895 195.2352 195.2357 195.4254 196.4357 197.1766
   197.2123 197.8398 197.8751 198.4006 198.4304 199.0245 199.4481 199.7557
   200.0461 200.0777 200.8671 201.1879 202.2744 202.9770 203.5542 204.1407
   204.2479 204.5782 204.7100 205.3501 205.6478 206.0145 206.8819 207.1554
   207.7133 207.7627 208.2603 208.8025 209.0901 210.1750 210.2467 210.5836
   211.4136 212.4128 213.0606 213.9307 213.9908 215.0635 215.4340 215.6997
   216.5112 217.7653 218.4652 218.8501 220.0994 220.3642 220.4652 221.1778
   221.2172 221.8220 223.1035 223.6827 224.9023 225.8607 226.1235 226.2381
   226.9294 227.0523 228.1164 228.1345 228.5594 228.6377 229.7726 231.0926
   231.2793 231.7823 232.3229 232.5897 233.0234 233.5065 234.2513 234.4668
   235.6751 235.8665 236.4686 237.3913 238.2505 238.4673 238.6693 238.7656
   239.3183 239.9999 240.1175 241.3624 241.5719 241.7872 242.7706 242.9957
   243.7124 244.9508 245.1811 246.0487 246.0501 246.8145 246.8617 247.2843
   248.5685 248.7072 249.2163 249.9615 251.0135 251.6659 251.8009 252.0470
   252.8362 253.1038 253.8128 254.2034 254.5679 254.6884 255.3230 255.4099
   256.0573 256.2561 256.9882 257.6744 257.6800 258.1572 258.5432 258.7373
   259.2729 259.6308 261.0158 261.2404 261.9812 262.2938 262.5157 262.9606
   263.3515 263.6962 264.4894 264.9694 265.0737 265.8606 266.0478 266.6262
   266.9675 267.1079 267.5368 267.7131 269.1081 269.3119 269.9102 269.9718
   271.0691 271.1050 271.4377 271.9058 272.1704 272.7423 272.8845 273.3885
   273.9506 274.1596 274.4017 274.4363 274.8309 274.9602 275.6050 275.8784
   276.5203 276.8972 277.3665 277.5966 278.1099 278.1415 278.6588 278.9226
   279.0190 279.5953 279.7350 280.1957 280.3893 280.7817 281.0474 281.1085
   281.8924 281.9225 282.7262 283.0353 283.1298 283.5081 284.1794 285.0528
   285.4669 285.8919 286.0639 286.4882 286.5291 287.5112 287.8705 288.2733
   288.6102 288.6474 289.5290 290.2927 290.4499 291.0742 291.3677 291.4435
   292.1727 292.1787 292.7315 292.8700 293.2271 293.7554 294.3457 294.3905
   294.5966 294.9262 295.3540 295.6623 296.1260 296.2694 296.6649 297.0336
   297.4035 297.8551 298.4131 298.4602 299.4955 299.5675 300.2797 301.7842
   301.7921 302.7612 303.3970 303.4029 303.9318 304.4165 304.5482 304.5620
   305.2083 305.5345 306.2042 306.2629 306.6022 306.7256 307.1885 307.5584
[...]
   300.3688 300.7504 301.5841 301.8624 302.7498 303.4944 303.6312 304.1346
   304.7761 305.5324 305.7356 306.2135 306.8330 307.0159 307.4863 308.2222
   309.1274 309.8479 310.0694 310.6932 311.4182 311.6409 311.7478 312.9862
   313.3778 313.5556 314.0296 314.3083 314.3842 315.0445 315.8038 316.3891
   317.1228 317.2500 317.5392 318.0045 318.4337 319.2261 319.6462 319.7103
   320.4719 321.8273 321.9697 322.2154 322.5530 322.6388 322.7281 323.0432
   323.7937 323.9371 324.2550 324.4016 325.0757 325.4987 325.5094 325.6138
   326.6391 326.7764 327.1116 327.2087 327.2893 328.6679 328.8438 329.1479
   329.2636 329.4687 330.4795 330.5423 331.2017 331.3488 331.6030 331.6320
   332.1402 332.4335 333.3177 333.4903 333.9064 333.9298 334.7437 334.8347
   335.1598 335.3090 335.3382 335.4423 335.9117 335.9817 336.1822 336.4998
   336.6026 336.8447 336.9557 337.1180 338.0082 338.9305 339.3018 339.4838
   340.0781 340.6772 340.8822 341.1224 341.3357 341.6707 341.8311 342.6912
   343.0402 343.5409 343.5919 344.2497 344.6884 344.7152 345.2142 345.8406
   345.8424 345.9065 346.2486 346.4901 346.8133 346.8150 347.3735 347.4024
   347.8040 347.9758 348.2259 348.3204 349.0919 349.3370 350.0736 351.2863
   352.0423 352.1381 352.3981 352.5609 352.6274 352.8300 353.2936 353.4198
   354.0264 354.0386 354.8984 355.3756 355.9825 356.0061 356.2734 356.4871
   357.2102 357.4763 358.3761 358.4543 358.5259 358.6170 360.4871 361.2816
   361.8087 362.0618 362.9497 363.2836 363.3918 363.9858 364.0216 364.1735
   364.5851 364.8870 365.2371 365.7973 366.4294 366.8602 367.5211 368.0520
   368.3051 368.3136 368.8716 369.5968 369.7086 369.9515 370.6947 370.7997
   371.3451 371.8904 372.7551 372.8650 373.0904 373.2726 373.5439 373.5559
   373.7232 373.9533 374.2259 374.4554 375.1614 375.4034 375.9587 376.0171
   376.5843 376.9994 377.1738 377.3110 377.5159 377.5317 378.0779 378.4905
   379.6377 379.6450 380.0244 380.3671 380.8394 380.8480 381.6610 382.0057
   382.4022 383.4211 383.8297 384.0221 384.5561 384.6005 385.2565 385.3075
   386.3930 386.6989 387.0951 387.3567 387.6037 387.9848 388.5751 388.9626
   389.0739 389.3820 389.7689 389.8582 390.7671 390.8279 390.8656 392.1443
   393.8581 393.9255 394.4061 394.5765 394.7569 394.9913 396.2295 396.3873
   396.5822 397.0348 397.2022 397.5993 397.7264 398.2246 398.6801 398.9906
   399.2632 399.4586 399.7504 400.2355 400.3028 400.6987 400.7832 400.9879
   401.8969 402.1436 403.1256 403.2257 404.7947 404.8178 405.5464 405.8623
   407.0696 407.1042 407.9951 408.7319 408.8379 410.1419 410.1986 410.2614
   410.4441 410.9638 410.9640 411.4894 411.5119 412.6104 412.6676 412.7959
   413.2875 414.3759 414.6638 414.8590 414.8954 415.2674 415.5481 415.6465
   416.6491 416.7551 417.2290 417.3095 417.4148 418.3208 418.4953 418.7444
   418.7704 419.1659 419.4395 419.8187 419.8305 420.8859 421.1022 421.9083
   423.0192 423.0547 423.6446 423.8244 424.3350 424.6240 425.4344 425.5306
   426.3380 426.5164 427.2385 427.2743 428.1591 428.2251 428.5714 429.3511
   430.0493 430.7041 430.7501 430.9586 431.0243 431.2276 431.2329 431.5782
   431.7356 432.0315 432.1338 432.5459 434.4401 434.6563 434.8220 435.4126
   435.4694 436.0116 436.0801 436.1035 436.5204 436.6993 436.7649 437.0344
   437.1697 437.4847 438.2461 438.2754 438.8109 438.8990 439.2593 439.2734
   439.4892 439.7661 440.3958 440.5180 440.8613 441.0241 441.1303 441.1590
   441.2785 442.2368 442.3797 442.5085 442.8639 443.1858 443.3377 443.3811
   443.6537 443.7996 443.9932 444.3217 444.3319 444.7858 445.1829 445.5764
   446.7695 448.1788 448.9534 449.0734 449.1610 449.3318 449.5338 449.6323
   450.3777 450.4036 450.5476 450.6470 451.1548 451.2019 451.5185 451.6539
   451.8361 451.8487 452.1178 452.2335 452.9728 453.0089 454.6080 454.6473
   454.9526 455.4715 456.0364 456.2887 456.4024 456.4520 456.7683 456.8631
   458.0354 458.0628 458.7870 459.1689 459.4113 459.4773 459.7418 459.7431
   459.9559 460.0424 460.3055 460.3267 460.6950 460.8163 461.1480 461.1739
   461.2082 461.5102 461.6314 461.9304 462.9096 462.9516 463.6463 464.2382
   464.7312 465.1379 465.2553 465.2792 466.9489 467.1632 467.4148 467.5561
   467.5931 467.6801 467.8625 468.2362 468.2873 468.3466 468.5689 468.9494
   469.4587 469.9059 470.2622 470.3698 470.4495 470.6138 471.1116 471.2436
   473.2623 473.6068 473.8635 474.2943 475.0026 475.0610 475.5973 475.6516
   476.0221 476.0481 476.1424 476.5660 476.9437 477.0262 478.3609 478.4906
   478.5636 478.7018 479.0684 479.1219 479.6809 479.7883 479.9212 480.0866
   480.3741 480.4650 480.6840 480.9843 481.2258 481.3249 481.9925 482.4237
   482.5473 482.8658 482.9972 483.0452 483.5903 483.8353 484.2401 485.4667
   485.8682 486.2052 486.7712 487.1499 488.5445 488.9934 489.2533 489.5757
   489.7394 490.7689 490.9904 491.6336 492.1083 492.1084 492.6292 492.7237
   494.2329 494.2607 494.4212 494.4235 494.9527 494.9816 496.6021 496.9773
   497.2251 497.2877 497.7103 497.9146 498.3773 499.0652 499.1684 499.2849
   499.3377 499.5493 500.3505 500.4851 500.8695 500.9129 501.1524 501.2765
   501.4017 501.6270 502.2988 502.8080 503.2517 503.2763 504.1828 504.4023
   505.1683 505.2622 505.3963 505.7419 505.9395 506.1806 506.3130 506.5090
   506.7808 506.9359 507.2231 507.2550 507.7456 507.7538 508.0922 508.4666
   508.9111 508.9650 509.2635 509.2806 509.5707 509.5876 509.8521 509.8526
   509.9421 510.3290 510.4832 511.2971 511.4683 512.3077 512.4582 512.8769
   513.9925 514.1519 514.2425 514.5831 514.6182 515.0262 515.2266 515.2401
   515.3528 515.4346 515.6351 515.7608 516.2282 516.4258 516.5496 517.3789
   517.6931 518.4355 518.8764 519.5344 520.2734 521.2741 521.6048 521.7878
   522.1833 522.5919 522.6707 522.6800 522.8247 522.9031 523.1220 523.4902
   523.7718 523.9552 523.9769 524.3978 525.4038 525.6255 526.8866 527.0028
   527.3178 527.5190 527.7941 527.9109 528.6195 528.6446 528.9528 529.1125
   530.2692 530.2810 530.3751 530.5955 531.6788 531.7370 532.3063 532.4985
   533.5197 533.5265 533.7514 533.8282 534.0005 534.1412 534.5542 534.6796
   535.4352 535.5752 535.6072 535.7010 535.7499 535.8380 536.5421 536.9268
   537.1216 537.2133 537.6709 537.6913 538.5779 538.9131 539.8525 540.1808
   540.1969 540.5422 540.5437 540.8823 541.1490 542.0488 542.5386 543.2463
   543.2929 543.7674 543.8388 544.3365 544.5219 544.6314 545.2484 545.3495
   545.4443 545.4956 545.7254 545.8203 546.4225 546.4412 546.8746 546.8943
   547.7382 548.1020 550.6785 551.8577 552.3579 552.5287 552.7756 552.8727
   553.1208 553.3169 553.5194 553.6194 553.8842 554.0576 554.1163 554.4090
   554.5967 554.8563 555.0130 555.2566 555.3140 555.4097 555.4982 555.6338
   555.8124 556.0195 558.1510 558.3199 558.3963 559.3209 560.1675 560.3346
   560.3359 560.6715 561.4907 561.8195 561.9198 562.1705 562.6684 563.2451

          k =-0.5000-1.0000 0.0000 (  3248 PWs)   bands (ev):

  -117.2632 -71.4314 -71.4313 -71.4313  -4.2869   1.4116   1.5695   1.7252
     1.7519   2.1978   3.0225   4.8605   4.9029  13.3578  13.7402  15.5504
    15.8931  20.1619  21.5469  22.5351  22.8164  25.6839  28.1408  28.5388
    29.2361  29.6254  31.0139  31.2002  33.9923  37.1020  37.1642  37.4654
    37.9029  38.6947  39.8340  40.0522  41.9697  44.2782  46.1137  47.0866
    47.5341  48.0319  48.9886  50.0068  52.3126  52.7989  57.1388  58.4248
    58.4667  58.6242  58.9152  59.4282  59.7168  60.9224  62.3240  62.9138
    63.0414  66.8123  66.9110  67.1107  67.8974  68.2948  68.8910  70.1957
    71.0159  71.5115  72.1297  72.5970  74.6558  75.5104  76.5312  76.9298
    76.9750  77.4665  78.4602  79.4522  79.7795  83.6738  83.8637  85.7168
    85.7202  86.2029  86.3769  86.9246  87.3485  87.4200  88.1081  88.5290
    88.6970  90.1591  90.4229  90.8776  91.4654  92.7945  93.3950  93.5115
    94.3519  94.7869  96.0526  96.7705  98.6276  99.7591 100.0905 100.1724
   100.2337 100.7738 101.2318 101.6406 102.9049 103.2850 103.3360 104.6280
   105.0467 106.6415 106.9108 108.7923 109.2619 109.7907 110.2092 114.0948
   116.1139 117.1503 118.2798 118.7790 119.0265 119.2774 119.3714 121.1370
   121.2419 121.6158 122.7399 122.8831 123.3076 124.0363 124.4539 124.7379
   126.2119 126.7442 127.0697 128.1459 128.4476 129.0454 129.2575 129.8707
   130.5801 130.8611 131.6342 131.9477 131.9499 132.3210 132.9958 133.7240
   134.1580 134.7302 135.8949 135.9545 136.7238 136.7805 137.7765 138.1172
   138.3022 139.3048 139.9011 140.3738 140.9510 141.7157 141.8369 142.2763
   143.6422 145.6838 146.2952 147.1565 147.8349 147.9959 149.1071 149.2941
   149.6523 150.0444 150.4169 151.0968 151.3069 151.6109 151.9539 152.4683
   152.6126 153.2929 153.6558 153.6955 154.4656 155.0373 156.1272 156.6811
   157.7233 157.9934 158.4731 158.8860 159.4472 159.9867 160.3388 160.4653
   161.4742 161.6669 161.8101 162.1702 162.9483 163.2017 164.0761 165.4231
   165.7223 166.8544 166.8673 167.1767 168.3682 169.5743 169.7947 170.7298
   171.0703 174.7014 174.7704 175.0806 175.2557 176.4004 176.8102 177.7873
   177.8946 178.2707 178.5237 178.6516 179.0655 179.3597 179.9418 180.7259
   180.9230 181.2363 182.8026 182.8865 183.2479 184.9761 185.8420 186.3047
   186.5437 186.6970 186.7339 188.0785 188.7283 188.7436 189.0849 189.4525
   191.1297 191.2951 192.0091 193.2715 193.3851 193.4776 193.4799 193.6208
   193.9944 194.0644 194.5469 197.5129 197.9644 198.3939 198.5985 198.9005
   199.0147 199.5858 199.7413 200.2444 200.4030 200.7895 201.1234 201.2826
   201.6628 202.0692 202.1713 203.6194 204.3987 206.6966 206.8175 206.8966
   207.8174 208.4113 209.1317 209.3589 209.8029 210.6133 211.8404 212.8588
   213.2710 213.7845 214.8425 214.8468 216.5326 216.9837 217.1248 217.2721
   217.9612 218.0217 218.6530 218.7827 219.5999 219.6561 219.7305 219.8408
   219.8921 220.0144 220.1820 220.3899 220.9760 220.9770 220.9919 221.6634
   222.3941 222.5601 222.8438 223.2719 225.0955 225.7101 226.0510 226.0525
   226.8225 227.4356 229.3785 230.3053 230.4930 230.7571 230.9892 231.1756
   231.2993 231.7363 232.1130 232.2425 232.8896 232.9265 234.3307 234.4323
   235.3979 235.4372 235.5363 235.8658 235.9530 236.5910 236.6396 237.0113
   238.2759 238.6073 239.4640 239.7689 240.4586 240.6813 240.9733 241.0761
   241.9073 241.9563 242.0433 242.0760 242.2107 242.5292 242.7169 243.4287
   243.5251 245.6427 245.6690 245.9526 246.1755 247.2527 247.2599 247.9790
   248.3419 248.8497 249.0164 249.2635 249.3262 249.5662 249.6393 249.7193
   250.5938 250.6696 250.6864 251.5058 253.1838 254.6294 254.9335 255.1113
   255.2676 255.2752 255.5181 255.6469 257.2870 257.6096 257.9593 258.6308
   259.5666 260.2143 260.4014 260.5478 261.1453 261.1844 261.3141 262.6189
   263.6066 263.9467 265.5713 265.7004 265.7456 266.3885 267.2948 268.4727
   268.5777 269.6739 270.0257 270.2731 270.5746 271.2292 272.0521 272.1545
   272.3844 272.6103 272.8559 273.5479 274.2617 275.7305 276.0014 276.0835
   276.1083 277.2798 277.4690 277.7855 279.1145 279.3971 280.2284 281.0410
   281.2804 281.7015 281.8131 281.9650 282.0319 282.5602 282.6170 282.7469
   282.7793 282.9086 283.3360 284.3668 284.5346 284.5593 284.7084 284.8105
   285.9141 286.6338 286.8364 286.8710 287.5666 288.4042 288.9786 289.0645
   289.3196 289.5857 289.6055 290.5134 291.4251 291.9251 292.5769 292.6785
   292.8375 292.8714 295.1629 295.2128 295.8308 296.2058 297.5761 298.0367
   298.0624 298.8365 298.8851 298.9974 299.0156 299.3731 299.9690 300.3369
   300.4451 301.0114 301.1866 302.0029 302.1200 303.4149 303.6534 303.9035
   304.6934 304.7012 305.2203 305.2963 306.4818 306.6499 307.0304 307.2216
   307.7518 308.5223 308.7263 309.8733 309.9207 310.0589 310.1302 310.5810
   310.9717 311.1089 311.2417 311.9839 312.5467 312.8135 312.9195 313.0367
   313.0420 313.2705 313.6591 313.9073 313.9669 317.9619 318.7771 318.7994
   319.3884 319.7556 319.9420 321.5910 321.8369 323.0601 323.2390 323.2403
   323.4698 323.7753 324.2230 324.3776 325.2337 325.4729 325.9021 325.9458
   326.1009 326.5613 327.2027 327.8668 327.9260 329.1095 329.7237 330.0042
   330.7770 331.3843 331.4155 331.7222 332.6588 332.7360 333.1050 333.1555
   333.6901 334.1176 334.4369 334.6402 334.7018 334.8556 335.2352 335.5682
   335.6450 335.9221 336.0406 336.1277 336.2398 336.2425 336.6234 336.6601
   338.3533 338.9681 339.1547 339.3514 339.7466 340.1122 340.1364 340.3610
   340.4386 340.5537 340.6433 341.0126 341.3644 341.6375 341.7247 341.9991
   342.9041 343.1225 343.1385 343.2057 343.2460 343.6363 343.6906 343.9959
   345.2061 345.2740 346.3590 346.6884 346.8694 346.8783 347.0442 347.2120
   347.5528 347.9631 348.0290 348.0330 349.6234 350.1717 350.8604 351.1578
   351.6039 353.4687 353.7256 353.8789 354.6012 354.6130 354.6897 354.9857
   355.3855 355.5221 355.9979 356.7750 356.8198 357.4948 357.7624 358.3065
   358.4470 358.9217 359.0675 360.2799 360.9470 361.0612 361.2536 361.3722
   362.1620 362.2384 362.2866 362.4039 362.8297 362.9732 363.0461 363.3099
   363.6292 364.2969 364.3691 364.4635 364.7437 364.7525 364.8552 364.9689
   368.3583 369.4525 369.4556 370.2571 371.3226 371.6083 372.0915 372.1409
   372.1610 372.2699 372.3686 373.3921 373.6270 373.7245 374.0436 374.3262
   374.3450 374.7680 375.0072 375.0240 375.0935 375.2164 375.4044 375.4576
   375.5136 375.5654 375.6296 375.6881 375.7334 375.9931 376.0988 376.2302
   377.2910 377.4703 377.7565 377.8345 379.6273 381.6759 381.6919 382.1597
   382.3994 382.9366 383.7128 383.8558 384.0869 384.3128 385.2007 385.4681
   386.1912 386.3071 386.3166 386.4289 386.9443 386.9833 387.1880 387.3027
   387.8118 387.8686 388.2656 389.2203 389.6911 391.0025 391.1690 391.4303
   391.8224 391.9093 392.7014 393.2713 394.7859 395.1323 395.3720 395.4982
   395.5771 395.7936 395.9541 396.2574 396.2698 396.7103 396.7732 397.1291
   398.2320 398.3575 398.9672 399.5382 399.7130 403.0975 403.4445 403.9016
   404.0518 404.4206 404.5681 404.8426 407.2227 407.4221 407.9293 408.1421
   408.3963 408.8107 408.9571 409.4461 410.3265 410.3911 410.4330 410.6018
   411.6089 412.2315 412.3494 412.6906 412.9298 413.8271 413.8327 413.8682
   414.1221 414.1668 414.7295 414.9571 416.3232 416.9958 417.2073 417.4610
   417.5241 417.6450 417.7202 417.7359 417.7864 419.5616 420.1607 420.2869
   420.6552 420.7687 421.5394 422.0857 422.5964 422.8106 422.8813 422.9991
   423.7453 425.1065 425.1795 425.4445 425.5439 425.6193 425.6265 425.7002
   425.9237 426.0384 426.0420 426.2125 426.4662 427.9190 428.3499 428.6014
   428.8498 429.2488 429.3434 429.7910 431.6158 431.8011 432.2375 432.4341
   433.4419 433.6241 433.7683 434.0127 434.4740 434.5683 434.7845 434.8608
   434.9157 435.2360 435.5828 435.9005 436.0047 436.0064 436.2416 436.2451
   436.9740 437.1856 437.2567 437.4125 437.6054 437.8882 437.9000 438.0507
   438.1606 438.2129 438.4012 438.5717 438.8691 438.9901 439.2823 439.3492
   439.3961 439.4119 439.5745 440.3862 440.5338 440.6174 440.7160 440.8026
   443.6147 444.2687 444.5870 444.6438 444.7727 444.8401 445.0232 445.3557
   446.0241 446.4113 446.5055 446.8724 447.2007 447.6604 447.6882 447.7227
   447.7375 447.7675 448.0293 448.1145 448.1248 448.1488 448.1978 448.2088
   448.2840 448.3239 448.3796 448.3948 453.4865 453.8432 454.7726 455.0974
   455.4008 455.4132 455.9438 456.4668 456.8033 456.8749 457.1965 457.4021
   457.7392 458.0078 458.3291 458.4869 458.8063 459.2905 459.3308 459.3875
   460.0387 461.0168 461.1139 462.0006 462.0247 462.5071 462.5615 462.7304
   462.8694 463.3579 463.5011 463.8239 464.1011 464.4729 464.5385 465.0474
   465.0591 465.5282 465.7232 466.4928 466.5856 466.6655 466.9044 466.9823
   467.2800 467.5036 468.1023 468.7182 468.9332 468.9535 469.0104 469.6075
   471.0266 471.0600 471.1338 471.2750 471.9271 472.0659 472.2965 472.6141
   472.7736 472.8690 472.9620 473.2644 473.5521 473.5738 473.6212 473.9039
   478.3993 478.5350 478.5654 478.7556 479.0533 479.2940 479.3076 479.3526
   481.4764 482.3883 482.9515 483.5629 484.0521 484.2271 484.3890 484.3966
   485.1202 485.2198 485.3586 485.5865 485.7413 486.1250 486.3478 486.3993
   486.4085 486.5277 486.9116 487.0004 487.0514 487.0928 487.0935 487.1516
   487.2369 487.2538 487.6602 487.6943 488.0727 488.5845 488.8732 489.3632
   490.4103 490.8817 491.1120 491.5005 492.3916 492.5472 492.6727 492.9296
   492.9777 493.1430 493.2061 493.4861 494.1235 494.3357 494.3989 494.4500
   495.3038 495.6144 495.8351 495.9117 496.9782 497.8268 497.8357 497.8970
   498.0266 498.4426 498.4905 498.5272 498.9899 499.2687 499.5077 499.5220
   499.7629 499.8610 499.9330 500.0829 500.1426 500.2529 500.3014 500.3926
   500.8085 500.8399 500.8970 500.9681 501.9969 502.0367 502.0536 502.2922
   502.6606 502.7406 502.8649 502.9573 507.9453 508.5411 508.5959 508.7513
   508.7529 509.4912 509.6396 509.6542 509.8221 509.8266 510.0989 510.1611
   510.9989 511.6403 511.6804 511.9253 512.0087 512.3611 512.4183 513.6125
   514.0289 514.2782 514.3385 514.5869 515.6066 515.7761 516.0379 516.2858
   516.3538 516.5129 516.5641 516.6690 516.6847 518.5771 518.7127 518.7259
   519.4583 519.7839 519.7986 520.0698 520.4481 520.4895 520.8317 521.5677
   521.6975 522.6023 522.6604 523.2672 524.2591 524.6741 525.0950 525.6131
   525.8933 526.4905 526.6138 526.8998 527.0660 527.1900 527.2387 527.4068
   527.5959 527.8319 528.0043 528.1204 528.8876 529.0195 529.0540 529.0775
   529.9976 530.0734 530.1123 530.1416 530.2712 530.2988 530.3672 530.4211
   530.9357 530.9460 530.9989 531.0293 531.1127 531.2829 531.3125 531.3494
   531.7249 531.7417 531.8319 531.8824 532.2442 532.2542 532.2921 532.4691
   537.2044 538.2380 538.8387 539.4427 539.8247 539.9940 540.1417 540.2681
   540.4253 540.5453 540.5979 541.4157 541.4466 541.5187 541.7365 541.8858
   543.0081 543.0948 543.0948 543.1117 546.7803 546.8915 547.1265 547.4041
   547.6906 548.3192 548.5597 548.9449 549.2178 549.7110 549.8195 550.2412
   550.4214 550.7668 550.7831 550.8880 551.0748 551.2612 551.2694 551.3279
   551.6504 551.7713 551.8663 551.8762 551.9440 552.0696 552.0901 552.1130
   553.9044 554.0567 554.2943 554.5348 554.5934 554.8536 555.0439 555.3641
   556.9420 557.0303 557.0474 557.4922 558.4957 558.5619 558.5908 558.7052
   561.0173 561.1126 561.2899 561.4100 561.4353 561.5568 561.6108 561.7090

     the Fermi energy is     8.1321 ev
     (compare with:     8.7831 eV, computed in scf)

     Writing all to output data dir out/mp-10695.save/
 
     init_run     :      0.02s CPU      0.06s WALL (       1 calls)
     electrons    :   1120.12s CPU   1191.68s WALL (       1 calls)

     Called by init_run:
     wfcinit      :      0.00s CPU      0.00s WALL (       1 calls)
     potinit      :      0.00s CPU      0.01s WALL (       1 calls)
     hinit0       :      0.01s CPU      0.03s WALL (       1 calls)

     Called by electrons:
     c_bands      :   1120.11s CPU   1191.64s WALL (       1 calls)
     v_of_rho     :      0.00s CPU      0.00s WALL (       1 calls)

     Called by c_bands:
     init_us_2    :      0.00s CPU      0.00s WALL (      15 calls)
     init_us_2:cp :      0.00s CPU      0.00s WALL (      15 calls)
     cegterg      :   1090.59s CPU   1160.10s WALL (      15 calls)

     Called by *egterg:
     cdiaghg      :   1016.10s CPU   1083.11s WALL (     185 calls)
     h_psi        :     22.45s CPU     23.34s WALL (     200 calls)
     g_psi        :      0.14s CPU      0.15s WALL (     170 calls)

     Called by h_psi:
     h_psi:calbec :      0.35s CPU      0.37s WALL (     200 calls)
     vloc_psi     :     21.55s CPU     22.41s WALL (     200 calls)
     add_vuspsi   :      0.25s CPU      0.25s WALL (     200 calls)

     General routines
     calbec       :      0.35s CPU      0.37s WALL (     200 calls)
     fft          :      0.00s CPU      0.03s WALL (      10 calls)
     fftw         :     19.68s CPU     20.48s WALL (  221106 calls)
 
     Parallel routines
 
     PWSCF        :  18m41.37s CPU  19m53.97s WALL

 
   This run was terminated on:  18: 5:30  19Nov2023            

=------------------------------------------------------------------------------=
   JOB DONE.
=------------------------------------------------------------------------------=
