
     Program PWSCF v.7.1 starts on 16Nov2023 at 18:43:33 

     This program is part of the open-source Quantum ESPRESSO suite
     for quantum simulation of materials; please cite
         "P. Giannozzi et al., J. Phys.:Condens. Matter 21 395502 (2009);
         "P. Giannozzi et al., J. Phys.:Condens. Matter 29 465901 (2017);
         "P. Giannozzi et al., J. Chem. Phys. 152 154105 (2020);
          URL http://www.quantum-espresso.org", 
     in publications or presentations arising from this work. More details at
     http://www.quantum-espresso.org/quote

     Parallel version (MPI), running on    24 processors

     MPI processes distributed on     1 nodes
     123426 MiB available memory on the printing compute node when the environment starts
 
     Reading input from pw_mp-1190_scf_k3000_E81.in
Warning: card &CELL ignored
Warning: card / ignored

     Current dimensions of program PWSCF are:
     Max number of different atomic species (ntypx) = 10
     Max number of k-points (npk) =  40000
     Max angular momentum in pseudopotentials (lmaxx) =  4
 
     K-points division:     npool     =       2
     R & G space division:  proc/nbgrp/npool/nimage =      12
     Subspace diagonalization in iterative solution of the eigenvalue problem:
     a serial algorithm will be used

 
     Parallelization info
     --------------------
     sticks:   dense  smooth     PW     G-vecs:    dense   smooth      PW
     Min         107     107     31                 2532     2532     408
     Max         108     108     32                 2535     2535     410
     Sum        1285    1285    379                30395    30395    4909
 
     Using Slab Decomposition
 


     bravais-lattice index     =            2
     lattice parameter (alat)  =      10.7051  a.u.
     unit-cell volume          =     306.6972 (a.u.)^3
     number of atoms/cell      =            2
     number of atomic types    =            2
     number of electrons       =        26.00
     number of Kohn-Sham states=           26
     kinetic-energy cutoff     =      81.0000  Ry
     charge density cutoff     =     324.0000  Ry
     scf convergence threshold =      1.0E-10
     mixing beta               =       0.7000
     number of iterations used =            8  plain     mixing
     Exchange-correlation= PBE
                           (   1   4   3   4   0   0   0)

     celldm(1)=  10.705081  celldm(2)=   0.000000  celldm(3)=   0.000000
     celldm(4)=   0.000000  celldm(5)=   0.000000  celldm(6)=   0.000000

     crystal axes: (cart. coord. in units of alat)
               a(1) = (  -0.500000   0.000000   0.500000 )  
               a(2) = (   0.000000   0.500000   0.500000 )  
               a(3) = (  -0.500000   0.500000   0.000000 )  

     reciprocal axes: (cart. coord. in units 2 pi/alat)
               b(1) = ( -1.000000 -1.000000  1.000000 )  
               b(2) = (  1.000000  1.000000  1.000000 )  
               b(3) = ( -1.000000  1.000000 -1.000000 )  


     PseudoPot. # 1 for Se read from file:
     /usr/scratch4/magr4985/MG/HTDF/pseudo/SG15/Se.upf
     MD5 check sum: e78e48a4f5d8ce1f8dc76ec1271f249c
     Pseudo is Norm-conserving, Zval =  6.0
     Generated using ONCVPSP code by D. R. Hamann
     Using radial grid of  602 points,  6 beta functions with: 
                l(1) =   0
                l(2) =   0
                l(3) =   1
                l(4) =   1
                l(5) =   2
                l(6) =   2

     PseudoPot. # 2 for Zn read from file:
     /usr/scratch4/magr4985/MG/HTDF/pseudo/SG15/Zn.upf
     MD5 check sum: 732f41c0cd6489a4b50a33b4ec99a2d3
     Pseudo is Norm-conserving, Zval = 20.0
     Generated using ONCVPSP code by D. R. Hamann
     Using radial grid of  602 points,  6 beta functions with: 
                l(1) =   0
                l(2) =   0
                l(3) =   1
                l(4) =   1
                l(5) =   2
                l(6) =   2

     atomic species   valence    mass     pseudopotential
        Se             6.00    78.96000     Se( 1.00)
        Zn            20.00    65.40900     Zn( 1.00)

     24 Sym. Ops. (no inversion) found



   Cartesian axes

     site n.     atom                  positions (alat units)
         1           Zn  tau(   1) = (   0.0000000   0.0000000   0.0000000  )
         2           Se  tau(   2) = (  -0.7500000   0.7500000   0.7500000  )

     number of k points=    72  Gaussian smearing, width (Ry)=  0.0005
                       cart. coord. in units 2pi/alat
        k(    1) = (   0.0000000   0.0000000   0.0000000), wk =   0.0011574
        k(    2) = (  -0.0833333   0.0833333  -0.0833333), wk =   0.0092593
        k(    3) = (  -0.1666667   0.1666667  -0.1666667), wk =   0.0092593
        k(    4) = (  -0.2500000   0.2500000  -0.2500000), wk =   0.0092593
        k(    5) = (  -0.3333333   0.3333333  -0.3333333), wk =   0.0092593
        k(    6) = (  -0.4166667   0.4166667  -0.4166667), wk =   0.0092593
        k(    7) = (   0.5000000  -0.5000000   0.5000000), wk =   0.0046296
        k(    8) = (   0.0000000   0.1666667   0.0000000), wk =   0.0069444
        k(    9) = (  -0.0833333   0.2500000  -0.0833333), wk =   0.0277778
        k(   10) = (  -0.1666667   0.3333333  -0.1666667), wk =   0.0277778
        k(   11) = (  -0.2500000   0.4166667  -0.2500000), wk =   0.0277778
        k(   12) = (  -0.3333333   0.5000000  -0.3333333), wk =   0.0277778
        k(   13) = (   0.5833333  -0.4166667   0.5833333), wk =   0.0277778
        k(   14) = (   0.5000000  -0.3333333   0.5000000), wk =   0.0277778
        k(   15) = (   0.4166667  -0.2500000   0.4166667), wk =   0.0277778
        k(   16) = (   0.3333333  -0.1666667   0.3333333), wk =   0.0277778
        k(   17) = (   0.2500000  -0.0833333   0.2500000), wk =   0.0277778
        k(   18) = (   0.1666667  -0.0000000   0.1666667), wk =   0.0138889
        k(   19) = (   0.0000000   0.3333333   0.0000000), wk =   0.0069444
        k(   20) = (  -0.0833333   0.4166667  -0.0833333), wk =   0.0277778
        k(   21) = (  -0.1666667   0.5000000  -0.1666667), wk =   0.0277778
        k(   22) = (  -0.2500000   0.5833333  -0.2500000), wk =   0.0277778
        k(   23) = (   0.6666667  -0.3333333   0.6666667), wk =   0.0277778
        k(   24) = (   0.5833333  -0.2500000   0.5833333), wk =   0.0277778
        k(   25) = (   0.5000000  -0.1666667   0.5000000), wk =   0.0277778
        k(   26) = (   0.4166667  -0.0833333   0.4166667), wk =   0.0277778
        k(   27) = (   0.3333333   0.0000000   0.3333333), wk =   0.0138889
        k(   28) = (   0.0000000   0.5000000   0.0000000), wk =   0.0069444
        k(   29) = (  -0.0833333   0.5833333  -0.0833333), wk =   0.0277778
        k(   30) = (  -0.1666667   0.6666667  -0.1666667), wk =   0.0277778
        k(   31) = (   0.7500000  -0.2500000   0.7500000), wk =   0.0277778
        k(   32) = (   0.6666667  -0.1666667   0.6666667), wk =   0.0277778
        k(   33) = (   0.5833333  -0.0833333   0.5833333), wk =   0.0277778
        k(   34) = (   0.5000000   0.0000000   0.5000000), wk =   0.0138889
        k(   35) = (   0.0000000   0.6666667   0.0000000), wk =   0.0069444
        k(   36) = (  -0.0833333   0.7500000  -0.0833333), wk =   0.0277778
        k(   37) = (   0.8333333  -0.1666667   0.8333333), wk =   0.0277778
        k(   38) = (   0.7500000  -0.0833333   0.7500000), wk =   0.0277778
        k(   39) = (   0.6666667  -0.0000000   0.6666667), wk =   0.0138889
        k(   40) = (   0.0000000   0.8333333   0.0000000), wk =   0.0069444
        k(   41) = (   0.9166667  -0.0833333   0.9166667), wk =   0.0277778
        k(   42) = (   0.8333333   0.0000000   0.8333333), wk =   0.0138889
        k(   43) = (   0.0000000  -1.0000000   0.0000000), wk =   0.0034722
        k(   44) = (  -0.1666667   0.3333333   0.0000000), wk =   0.0277778
        k(   45) = (  -0.2500000   0.4166667  -0.0833333), wk =   0.0555556
        k(   46) = (  -0.3333333   0.5000000  -0.1666667), wk =   0.0555556
        k(   47) = (   0.5833333  -0.4166667   0.7500000), wk =   0.0555556
        k(   48) = (   0.5000000  -0.3333333   0.6666667), wk =   0.0277778
        k(   49) = (  -0.1666667   0.5000000   0.0000000), wk =   0.0277778
        k(   50) = (  -0.2500000   0.5833333  -0.0833333), wk =   0.0555556
        k(   51) = (   0.6666667  -0.3333333   0.8333333), wk =   0.0555556
        k(   52) = (   0.5833333  -0.2500000   0.7500000), wk =   0.0555556
        k(   53) = (   0.5000000  -0.1666667   0.6666667), wk =   0.0555556
        k(   54) = (   0.4166667  -0.0833333   0.5833333), wk =   0.0555556
        k(   55) = (   0.3333333   0.0000000   0.5000000), wk =   0.0277778
        k(   56) = (  -0.1666667   0.6666667  -0.0000000), wk =   0.0277778
        k(   57) = (   0.7500000  -0.2500000   0.9166667), wk =   0.0555556
        k(   58) = (   0.6666667  -0.1666667   0.8333333), wk =   0.0555556
        k(   59) = (   0.5833333  -0.0833333   0.7500000), wk =   0.0555556
        k(   60) = (   0.5000000   0.0000000   0.6666667), wk =   0.0277778
        k(   61) = (   0.8333333  -0.1666667   1.0000000), wk =   0.0277778
        k(   62) = (   0.7500000  -0.0833333   0.9166667), wk =   0.0555556
        k(   63) = (   0.6666667   0.0000000   0.8333333), wk =   0.0277778
        k(   64) = (  -0.1666667  -1.0000000  -0.0000000), wk =   0.0138889
        k(   65) = (   0.6666667  -0.3333333   1.0000000), wk =   0.0277778
        k(   66) = (   0.5833333  -0.2500000   0.9166667), wk =   0.0555556
        k(   67) = (   0.5000000  -0.1666667   0.8333333), wk =   0.0277778
        k(   68) = (   0.6666667  -0.1666667   1.0000000), wk =   0.0277778
        k(   69) = (   0.5833333  -0.0833333   0.9166667), wk =   0.0555556
        k(   70) = (   0.5000000   0.0000000   0.8333333), wk =   0.0277778
        k(   71) = (  -0.3333333  -1.0000000   0.0000000), wk =   0.0138889
        k(   72) = (  -0.5000000  -1.0000000   0.0000000), wk =   0.0069444

     Dense  grid:    30395 G-vectors     FFT dimensions: (  45,  45,  45)

     Estimated max dynamical RAM per process >       5.51 MB

     Estimated total dynamical RAM >     124.83 MB

     Initial potential from superposition of free atoms

     starting charge      25.9594, renormalised to      26.0000
     Starting wfcs are random

     total cpu time spent up to now is        0.5 secs

     Self-consistent Calculation

     iteration #  1     ecut=    81.00 Ry     beta= 0.70
     Davidson diagonalization with overlap
     ethr =  1.00E-02,  avg # of iterations =  9.6

     Threshold (ethr) on eigenvalues was too large:
     Diagonalizing with lowered threshold

     Davidson diagonalization with overlap
     ethr =  3.78E-04,  avg # of iterations =  2.0

     total cpu time spent up to now is        3.7 secs

     total energy              =    -419.30550808 Ry
     estimated scf accuracy    <       0.09171021 Ry

     iteration #  2     ecut=    81.00 Ry     beta= 0.70
     Davidson diagonalization with overlap
     ethr =  3.53E-04,  avg # of iterations =  2.1

     total cpu time spent up to now is        4.7 secs

     total energy              =    -419.33407169 Ry
     estimated scf accuracy    <       0.05065181 Ry

     iteration #  3     ecut=    81.00 Ry     beta= 0.70
     Davidson diagonalization with overlap
     ethr =  1.95E-04,  avg # of iterations =  1.5

     total cpu time spent up to now is        5.4 secs

     total energy              =    -419.34441404 Ry
     estimated scf accuracy    <       0.00040061 Ry

     iteration #  4     ecut=    81.00 Ry     beta= 0.70
     Davidson diagonalization with overlap
     ethr =  1.54E-06,  avg # of iterations =  5.2

     total cpu time spent up to now is        6.6 secs

     total energy              =    -419.34460023 Ry
     estimated scf accuracy    <       0.00004086 Ry

     iteration #  5     ecut=    81.00 Ry     beta= 0.70
     Davidson diagonalization with overlap
     ethr =  1.57E-07,  avg # of iterations =  2.0

     total cpu time spent up to now is        7.4 secs

     total energy              =    -419.34460565 Ry
     estimated scf accuracy    <       0.00000220 Ry

     iteration #  6     ecut=    81.00 Ry     beta= 0.70
     Davidson diagonalization with overlap
     ethr =  8.47E-09,  avg # of iterations =  2.0

     total cpu time spent up to now is        8.2 secs

     total energy              =    -419.34460572 Ry
     estimated scf accuracy    <       0.00000025 Ry

     iteration #  7     ecut=    81.00 Ry     beta= 0.70
     Davidson diagonalization with overlap
     ethr =  9.47E-10,  avg # of iterations =  2.0

     total cpu time spent up to now is        9.0 secs

     total energy              =    -419.34460580 Ry
     estimated scf accuracy    <       0.00000009 Ry

     iteration #  8     ecut=    81.00 Ry     beta= 0.70
     Davidson diagonalization with overlap
     ethr =  3.62E-10,  avg # of iterations =  2.0

     total cpu time spent up to now is        9.9 secs

     total energy              =    -419.34460581 Ry
     estimated scf accuracy    <          3.8E-10 Ry

     iteration #  9     ecut=    81.00 Ry     beta= 0.70
     Davidson diagonalization with overlap
     ethr =  1.48E-12,  avg # of iterations =  3.1

     total cpu time spent up to now is       10.8 secs

     End of self-consistent calculation

          k = 0.0000 0.0000 0.0000 (  3767 PWs)   bands (ev):

  -118.2099 -72.3744 -72.3744 -72.3744  -6.2341   0.4919   0.4919   0.4919
     0.8607   0.8607   7.0409   7.0409   7.0409   8.3228  12.8429  12.8429
    12.8429  16.9761  18.5216  18.5216  20.1076  20.1076  20.1076  22.9353
    33.2797  33.2797

          k =-0.0833 0.0833-0.0833 (  3773 PWs)   bands (ev):

  -118.2099 -72.3744 -72.3744 -72.3744  -6.1884   0.4942   0.4993   0.4993
     0.8599   0.8599   6.2937   6.9697   6.9697   8.9339  12.7767  12.9652
    12.9652  17.4300  18.0358  18.0358  19.7143  20.8933  20.8933  23.6635
    31.4528  31.8532

          k =-0.1667 0.1667-0.1667 (  3768 PWs)   bands (ev):

  -118.2099 -72.3744 -72.3744 -72.3744  -6.0593   0.5081   0.5186   0.5186
     0.8590   0.8590   5.1314   6.7879   6.7879   9.5875  12.9129  13.2464
    13.2465  17.5109  17.5109  18.0670  19.6217  22.3688  22.3688  25.2270
    29.1050  29.4193

          k =-0.2500 0.2500-0.2500 (  3756 PWs)   bands (ev):

  -118.2099 -72.3745 -72.3744 -72.3744  -5.8712   0.5427   0.5427   0.5539
     0.8609   0.8609   3.9899   6.5634   6.5634   9.7830  13.4762  13.4762
    13.6062  17.4905  17.4905  17.7607  21.0320  24.1167  24.1167  26.6588
    27.0610  27.0613

          k =-0.3333 0.3333-0.3333 (  3783 PWs)   bands (ev):

  -118.2099 -72.3745 -72.3744 -72.3744  -5.6671   0.5632   0.5632   0.6619
     0.8675   0.8675   2.9779   6.3597   6.3597   9.7151  13.5175  13.5175
    14.6126  17.4670  18.1044  18.1044  22.5284  24.7341  24.7341  25.2794
    26.2285  26.2285

          k =-0.4167 0.4167-0.4167 (  3774 PWs)   bands (ev):

  -118.2099 -72.3745 -72.3744 -72.3744  -5.5055   0.5756   0.5756   0.8557
     0.8757   0.8757   2.1830   6.2209   6.2209   9.6166  13.4567  13.4567
    15.3916  17.6508  19.2040  19.2040  21.9970  22.8261  22.8261  26.3265
    28.3478  28.3478

          k = 0.5000-0.5000 0.5000 (  3798 PWs)   bands (ev):

  -118.2099 -72.3745 -72.3744 -72.3744  -5.4433   0.5794   0.5794   0.8796
     0.8796   1.0207   1.8061   6.1719   6.1719   9.5770  13.4215  13.4215
    15.6143  18.0143  20.1763  20.1763  21.2699  21.5858  21.5858  27.8264
    30.3392  30.3543

          k = 0.0000 0.1667 0.0000 (  3767 PWs)   bands (ev):

  -118.2099 -72.3744 -72.3744 -72.3744  -6.1732   0.4877   0.5054   0.5054
     0.8553   0.8640   6.2672   6.8376   6.8376   9.1565  12.4592  13.1543
    13.1543  17.2395  17.6678  18.6203  20.3549  20.3549  20.8462  24.0192
    31.2856  31.2856

          k =-0.0833 0.2500-0.0833 (  3765 PWs)   bands (ev):

  -118.2099 -72.3744 -72.3744 -72.3744  -6.0718   0.4909   0.5239   0.5244
     0.8505   0.8667   5.3947   6.6134   6.6917   9.7941  12.2768  13.4768
    13.5080  16.6325  18.3559  18.4042  19.9941  21.2932  22.1392  25.3828
    29.1676  29.2856

          k =-0.1667 0.3333-0.1667 (  3761 PWs)   bands (ev):

  -118.2099 -72.3744 -72.3744 -72.3744  -5.9029   0.5150   0.5494   0.5543
     0.8494   0.8700   4.3226   6.3730   6.4774  10.1463  12.5571  13.7752
    13.8166  16.5528  18.2118  18.5505  20.6824  22.8651  23.9241  26.7759
    26.9443  27.2325

          k =-0.2500 0.4167-0.2500 (  3771 PWs)   bands (ev):

  -118.2099 -72.3745 -72.3744 -72.3744  -5.7028   0.5509   0.5717   0.6237
     0.8567   0.8753   3.3044   6.1785   6.2171  10.1462  13.0228  13.8985
    14.1774  17.1211  18.2476  18.6553  22.1615  24.4086  24.9468  25.0366
    25.9617  27.1856

          k =-0.3333 0.5000-0.3333 (  3771 PWs)   bands (ev):

  -118.2099 -72.3745 -72.3744 -72.3744  -5.5247   0.5712   0.5856   0.7716
     0.8805   0.8814   2.4525   5.9815   6.0691  10.0513  13.1201  13.7988
    15.0162  17.6650  18.6392  19.6132  21.9214  22.6767  24.7816  25.8064
    26.8559  28.2481

          k = 0.5833-0.4167 0.5833 (  3780 PWs)   bands (ev):

  -118.2099 -72.3745 -72.3744 -72.3744  -5.4274   0.5800   0.5901   0.8597
     0.8804   1.0090   1.9116   5.8195   6.0634   9.9927  13.1282  13.6700
    15.6632  18.0179  19.5256  20.1797  21.0192  21.7114  23.2653  27.4584
    29.0777  29.9574

          k = 0.5000-0.3333 0.5000 (  3771 PWs)   bands (ev):

  -118.2099 -72.3745 -72.3744 -72.3744  -5.4482   0.5812   0.5862   0.8596
     0.8725   0.9554   2.0406   5.7597   6.1612  10.0060  13.2162  13.5967
    15.5646  18.0394  18.9239  20.1286  20.9293  22.9191  23.1087  26.6979
    28.4446  30.0248

          k = 0.4167-0.2500 0.4167 (  3777 PWs)   bands (ev):

  -118.2099 -72.3745 -72.3744 -72.3744  -5.5787   0.5739   0.5746   0.7191
     0.8608   0.8844   2.7129   5.8153   6.3446  10.0828  13.3700  13.5716
    14.7692  17.7123  17.9042  19.5112  21.8345  23.9169  25.0154  25.2476
    26.2492  27.8513

          k = 0.3333-0.1667 0.3333 (  3765 PWs)   bands (ev):

  -118.2099 -72.3745 -72.3744 -72.3744  -5.7710   0.5533   0.5566   0.5890
     0.8524   0.8738   3.6284   5.9859   6.5773  10.1563  13.3120  13.4974
    13.9603  16.9576  17.8950  18.7845  21.5975  23.8951  24.6989  25.6605
    26.8710  27.2951

          k = 0.2500-0.0833 0.2500 (  3759 PWs)   bands (ev):

  -118.2099 -72.3744 -72.3744 -72.3744  -5.9657   0.5169   0.5286   0.5423
     0.8510   0.8672   4.6617   6.2598   6.8044  10.0293  12.7542  13.2790
    13.7472  16.8304  17.6784  18.7718  20.2841  22.0572  23.8381  26.3182
    26.8195  29.1081

          k = 0.1667-0.0000 0.1667 (  3771 PWs)   bands (ev):

  -118.2099 -72.3744 -72.3744 -72.3744  -6.1149   0.4967   0.5081   0.5168
     0.8548   0.8634   5.6510   6.6225   6.9557   9.4983  12.6066  13.0318
    13.4002  17.2664  17.7952  18.1628  20.1447  20.6582  22.2067  24.6782
    29.2431  30.8901

          k = 0.0000 0.3333 0.0000 (  3767 PWs)   bands (ev):

  -118.2099 -72.3744 -72.3744 -72.3744  -6.0009   0.4800   0.5443   0.5443
     0.8425   0.8729   5.1766   6.3508   6.3508  10.3195  11.7117  13.9653
    13.9653  15.8446  18.9139  19.0827  21.0940  21.0940  21.6252  26.5936
    28.7387  28.7387

          k =-0.0833 0.4167-0.0833 (  3765 PWs)   bands (ev):

  -118.2099 -72.3744 -72.3744 -72.3744  -5.8595   0.4893   0.5717   0.5739
     0.8394   0.8782   4.4493   6.0842   6.0855  10.7398  11.5833  14.2100
    14.4133  15.8135  18.9487  19.7901  21.0506  22.1252  23.1737  26.7989
    26.8689  28.2358

          k =-0.1667 0.5000-0.1667 (  3778 PWs)   bands (ev):

  -118.2099 -72.3745 -72.3744 -72.3744  -5.6774   0.5256   0.5974   0.6189
     0.8495   0.8833   3.5782   5.7606   5.8783  10.7954  12.0747  14.0232
    14.6198  16.7334  19.2612  19.6190  22.0560  23.7024  24.7359  24.8340
    25.2947  28.8236

          k =-0.2500 0.5833-0.2500 (  3780 PWs)   bands (ev):

  -118.2099 -72.3745 -72.3744 -72.3744  -5.5003   0.5636   0.6142   0.7104
     0.8863   0.8885   2.7684   5.4196   5.7735  10.7181  12.6374  14.2103
    14.5488  17.7426  19.5231  20.0690  21.9114  22.6821  24.9513  25.6839
    27.2976  27.6168

          k = 0.6667-0.3333 0.6667 (  3768 PWs)   bands (ev):

  -118.2099 -72.3745 -72.3744 -72.3744  -5.3825   0.5805   0.6198   0.8089
     0.8831   0.9990   2.1699   5.1413   5.7876  10.6809  12.8037  14.3618
    15.0489  18.0331  19.8432  20.2221  21.1442  22.0186  25.4152  26.8507
    27.7522  29.3159

          k = 0.5833-0.2500 0.5833 (  3768 PWs)   bands (ev):

  -118.2099 -72.3745 -72.3744 -72.3744  -5.3663   0.5866   0.6153   0.8416
     0.8719   1.0340   2.0641   4.9776   5.9179  10.7141  12.8930  14.1848
    15.5170  18.0883  18.8155  19.6733  21.8402  23.4683  24.1440  26.3830
    29.0517  29.7238

          k = 0.5000-0.1667 0.5000 (  3766 PWs)   bands (ev):

  -118.2099 -72.3745 -72.3744 -72.3744  -5.4579   0.5867   0.6010   0.7850
     0.8574   0.9163   2.5455   4.9663   6.1402  10.7982  13.0731  14.0404
    14.7440  17.5401  18.7491  20.2260  21.2929  24.0220  25.1240  25.3451
    27.1574  29.6476

          k = 0.4167-0.0833 0.4167 (  3772 PWs)   bands (ev):

  -118.2099 -72.3745 -72.3744 -72.3744  -5.6231   0.5779   0.5787   0.6455
     0.8473   0.8890   3.2802   5.1500   6.4092  10.8456  13.2293  13.7974
    13.8528  16.7157  19.0001  20.1441  21.4124  22.7885  24.8041  26.7844
    27.1673  27.8481

          k = 0.3333 0.0000 0.3333 (  3761 PWs)   bands (ev):

  -118.2099 -72.3745 -72.3744 -72.3744  -5.8088   0.5497   0.5509   0.5702
     0.8457   0.8767   4.0387   5.5895   6.6576  10.6212  12.8132  13.5507
    13.8010  16.5034  18.2803  19.7271  20.7818  22.7368  24.5615  25.5611
    27.7164  28.7208

          k = 0.0000 0.5000 0.0000 (  3767 PWs)   bands (ev):

  -118.2099 -72.3745 -72.3744 -72.3744  -5.7493   0.4809   0.6030   0.6030
     0.8353   0.8851   4.1579   5.7891   5.7891  10.9594  11.0652  15.0712
    15.0712  15.3013  19.3921  20.8460  22.3094  22.3094  22.6177  26.3664
    26.3664  27.8847

          k =-0.0833 0.5833-0.0833 (  3779 PWs)   bands (ev):

  -118.2099 -72.3745 -72.3744 -72.3744  -5.5957   0.5009   0.6334   0.6390
     0.8481   0.8908   3.5829   5.4587   5.5588  10.8428  11.2402  14.7679
    15.5163  16.4606  19.7282  21.2473  22.5421  23.4095  24.4347  24.7023
    24.8604  27.5899

          k =-0.1667 0.6667-0.1667 (  3779 PWs)   bands (ev):

  -118.2099 -72.3745 -72.3744 -72.3744  -5.4364   0.5437   0.6543   0.6891
     0.8931   0.8972   2.9591   5.0176   5.4380  10.7830  11.8506  14.5025
    15.5751  17.7327  20.4215  20.9991  22.2633  22.8032  24.6861  25.0221
    26.7237  27.6912

          k = 0.7500-0.2500 0.7500 (  3775 PWs)   bands (ev):

  -118.2099 -72.3745 -72.3744 -72.3744  -5.3178   0.5750   0.6616   0.7597
     0.8883   1.0029   2.4371   4.5937   5.4482  10.7865  12.6351  14.5809
    15.3772  18.0751  20.3483  21.1877  21.4230  22.3188  26.1787  26.7915
    26.8830  28.8773

          k = 0.6667-0.1667 0.6667 (  3778 PWs)   bands (ev):

  -118.2099 -72.3745 -72.3745 -72.3744  -5.2793   0.5875   0.6557   0.8146
     0.8753   1.0841   2.2165   4.3022   5.5877  10.8940  13.0966  15.0981
    15.1390  17.2778  18.9120  21.1257  22.3533  23.7648  25.5040  26.0581
    28.1646  28.7815

          k = 0.5833-0.0833 0.5833 (  3777 PWs)   bands (ev):

  -118.2099 -72.3745 -72.3745 -72.3744  -5.3342   0.5923   0.6373   0.8262
     0.8595   0.9911   2.4560   4.2319   5.8312  11.0768  13.2818  14.7796
    14.8258  17.6376  17.6635  21.2677  22.6588  23.8484  25.2675  25.5777
    28.4382  28.6552

          k = 0.5000 0.0000 0.5000 (  3775 PWs)   bands (ev):

  -118.2099 -72.3745 -72.3744 -72.3744  -5.4627   0.5910   0.6090   0.7461
     0.8491   0.9109   2.8933   4.4968   6.1299  11.1798  13.4171  13.8576
    14.3560  16.9051  19.0416  21.1661  21.6748  22.3100  26.1755  26.5689
    27.2279  28.5574

          k = 0.0000 0.6667 0.0000 (  3796 PWs)   bands (ev):

  -118.2099 -72.3745 -72.3744 -72.3744  -5.4757   0.4972   0.6694   0.6694
     0.8632   0.8973   3.2657   5.2988   5.2988  10.4550  10.9514  15.9724
    16.3293  16.3293  20.0204  22.3160  23.7981  23.7981  24.1221  24.4147
    24.4147  26.3523

          k =-0.0833 0.7500-0.0833 (  3774 PWs)   bands (ev):

  -118.2099 -72.3745 -72.3744 -72.3744  -5.3477   0.5209   0.6948   0.7016
     0.9005   0.9154   2.8488   4.9666   5.1500  10.4352  10.9934  15.8309
    16.7030  17.6132  20.5522  21.9227  22.8218  23.4702  24.2915  25.1513
    26.0008  26.5657

          k = 0.8333-0.1667 0.8333 (  3777 PWs)   bands (ev):

  -118.2099 -72.3745 -72.3745 -72.3744  -5.2486   0.5559   0.7042   0.7386
     0.8963   1.0158   2.4984   4.4691   5.1393  10.5062  11.6511  15.6329
    16.5739  18.1382  20.5667  21.3574  22.3197  23.2057  25.0683  26.1870
    26.8391  27.4503

          k = 0.7500-0.0833 0.7500 (  3781 PWs)   bands (ev):

  -118.2099 -72.3745 -72.3745 -72.3744  -5.2093   0.5792   0.6963   0.7832
     0.8837   1.1107   2.3249   4.0312   5.2689  10.6423  12.6415  15.6246
    16.1650  17.0816  19.2649  22.1547  23.2849  23.6662  25.1959  26.0009
    26.7271  28.7744

          k = 0.6667-0.0000 0.6667 (  3765 PWs)   bands (ev):

  -118.2099 -72.3745 -72.3745 -72.3744  -5.2418   0.5897   0.6724   0.8192
     0.8690   1.0916   2.3670   3.8896   5.5157  10.8777  13.3745  15.4648
    15.5552  16.4482  18.2117  22.6478  23.3343  23.9283  25.1043  25.4580
    27.1548  29.2412

          k = 0.0000 0.8333 0.0000 (  3788 PWs)   bands (ev):

  -118.2099 -72.3745 -72.3744 -72.3744  -5.2583   0.5155   0.7240   0.7240
     0.9062   0.9588   2.5768   4.9686   4.9686  10.1263  10.6322  17.1370
    17.5910  17.5910  20.6835  22.3865  22.3865  22.4631  25.3052  25.7181
    26.1256  26.1256

          k = 0.9167-0.0833 0.9167 (  3793 PWs)   bands (ev):

  -118.2099 -72.3745 -72.3744 -72.3744  -5.1949   0.5320   0.7347   0.7412
     0.9052   1.0323   2.3631   4.6981   4.9273  10.2052  10.7706  17.0511
    17.7288  18.2125  20.8362  21.3913  21.8972  23.0090  25.2199  25.6820
    27.2907  27.4939

          k = 0.8333 0.0000 0.8333 (  3789 PWs)   bands (ev):

  -118.2099 -72.3745 -72.3745 -72.3744  -5.1773   0.5586   0.7251   0.7578
     0.8958   1.0975   2.3049   4.2662   5.0338  10.3888  11.5632  16.6557
    17.1434  17.4841  19.9558  21.7919  22.8518  23.8419  25.3505  25.7443
    26.1043  28.8398

          k = 0.0000-1.0000 0.0000 (  3812 PWs)   bands (ev):

  -118.2099 -72.3745 -72.3744 -72.3744  -5.1745   0.5215   0.7455   0.7455
     0.9095   1.0407   2.2828   4.8521   4.8521  10.0162  10.4947  17.7768
    18.2997  18.2997  21.0249  21.5097  21.5097  22.0269  24.7217  26.8766
    28.2262  28.2263

          k =-0.1667 0.3333 0.0000 (  3758 PWs)   bands (ev):

  -118.2099 -72.3744 -72.3744 -72.3744  -5.9503   0.4980   0.5450   0.5503
     0.8452   0.8719   4.7491   6.1174   6.5980  10.3551  12.0853  13.7630
    13.9051  16.2377  18.3239  19.2290  20.5492  21.5668  23.4125  26.8023
    26.8660  28.7800

          k =-0.2500 0.4167-0.0833 (  3768 PWs)   bands (ev):

  -118.2099 -72.3745 -72.3744 -72.3744  -5.7742   0.5297   0.5719   0.5870
     0.8458   0.8785   3.8918   5.6961   6.4082  10.6805  12.3762  13.8436
    14.1399  16.4794  18.5821  19.5479  21.2344  23.1086  24.6229  25.2130
    26.9567  28.5705

          k =-0.3333 0.5000-0.1667 (  3779 PWs)   bands (ev):

  -118.2099 -72.3745 -72.3744 -72.3744  -5.5845   0.5659   0.5911   0.6751
     0.8582   0.8880   3.0211   5.4296   6.1693  10.6788  12.8366  13.9171
    14.3938  17.1884  18.8678  19.8988  21.6931  23.5905  24.6901  25.5332
    27.1443  27.4561

          k = 0.5833-0.4167 0.7500 (  3770 PWs)   bands (ev):

  -118.2099 -72.3745 -72.3744 -72.3744  -5.4355   0.5822   0.6029   0.8056
     0.8756   0.9386   2.3040   5.2917   5.9758  10.6078  12.8598  14.0612
    15.0931  17.8991  19.0751  20.2087  21.0591  22.9516  25.0888  25.8296
    27.5737  29.5897

          k = 0.5000-0.3333 0.6667 (  3760 PWs)   bands (ev):

  -118.2099 -72.3745 -72.3744 -72.3744  -5.3784   0.5861   0.6071   0.8456
     0.8755   1.0467   1.9727   5.2512   5.9010  10.5768  12.8194  14.0584
    15.6511  18.0142  19.2492  20.0687  20.9504  22.9255  23.9654  27.2552
    28.6568  29.7315

          k =-0.1667 0.5000 0.0000 (  3770 PWs)   bands (ev):

  -118.2099 -72.3745 -72.3744 -72.3744  -5.7115   0.5055   0.5983   0.6101
     0.8418   0.8846   3.8924   5.5503   5.9744  11.1074  11.4415  14.1369
    14.9625  16.2014  19.2782  20.6088  21.4078  22.9860  24.4890  24.6838
    26.4467  28.1409

          k =-0.2500 0.5833-0.0833 (  3779 PWs)   bands (ev):

  -118.2099 -72.3745 -72.3744 -72.3744  -5.5397   0.5468   0.6188   0.6653
     0.8631   0.8920   3.2243   5.1272   5.7621  11.1536  11.9618  13.8410
    15.3054  17.0350  19.9740  20.6198  21.8274  23.1763  24.5033  25.2116
    26.5424  27.7342

          k = 0.6667-0.3333 0.8333 (  3775 PWs)   bands (ev):

  -118.2099 -72.3745 -72.3744 -72.3744  -5.3907   0.5797   0.6331   0.7509
     0.8826   0.9441   2.5884   4.8243   5.5903  11.1124  12.5672  13.9358
    15.3469  17.7681  20.1476  20.7247  21.1979  23.0551  24.7736  26.8879
    27.0330  28.8283

          k = 0.5833-0.2500 0.7500 (  3770 PWs)   bands (ev):

  -118.2099 -72.3745 -72.3744 -72.3744  -5.3122   0.5912   0.6380   0.8160
     0.8742   1.0602   2.1822   4.6199   5.5651  11.1388  12.7079  14.4536
    15.5174  17.3748  19.8632  20.6821  21.1187  23.5249  25.4896  26.6042
    27.7957  29.1356

          k = 0.5000-0.1667 0.6667 (  3779 PWs)   bands (ev):

  -118.2099 -72.3745 -72.3745 -72.3744  -5.3324   0.5949   0.6296   0.8233
     0.8669   1.0207   2.2824   4.5378   5.6974  11.2265  12.7554  14.3531
    15.4926  17.3228  18.9468  20.5568  22.0586  24.0504  25.0046  25.6390
    28.5209  29.2049

          k = 0.4167-0.0833 0.5833 (  3778 PWs)   bands (ev):

  -118.2099 -72.3745 -72.3744 -72.3744  -5.4435   0.5932   0.6082   0.7481
     0.8617   0.9163   2.7866   4.6437   5.9389  11.3123  12.8425  13.6715
    15.0625  17.1421  19.3010  20.8789  21.4705  23.1509  25.0228  26.7434
    26.9668  29.0555

          k = 0.3333 0.0000 0.5000 (  3783 PWs)   bands (ev):

  -118.2099 -72.3745 -72.3744 -72.3744  -5.6071   0.5661   0.5909   0.6448
     0.8488   0.8903   3.3792   5.0262   6.2109  11.2047  12.5296  13.5400
    14.6351  16.6261  19.5126  20.4963  21.3947  22.4880  24.7217  26.3802
    27.1723  28.0877

          k =-0.1667 0.6667-0.0000 (  3772 PWs)   bands (ev):

  -118.2099 -72.3745 -72.3744 -72.3744  -5.4537   0.5247   0.6558   0.6816
     0.8779   0.8968   3.1392   5.0716   5.3624  10.8917  11.2251  14.7467
    16.3023  17.0492  20.3358  21.5940  22.6804  23.2318  24.3234  24.8335
    25.9697  26.5671

          k = 0.7500-0.2500 0.9167 (  3775 PWs)   bands (ev):

  -118.2099 -72.3745 -72.3744 -72.3744  -5.3234   0.5630   0.6703   0.7302
     0.8913   0.9597   2.6954   4.6493   5.1927  10.9778  11.7750  14.5179
    16.5108  17.7538  20.6518  21.2152  22.2040  23.2044  24.3317  25.9053
    26.9242  28.0810

          k = 0.6667-0.1667 0.8333 (  3776 PWs)   bands (ev):

  -118.2099 -72.3745 -72.3745 -72.3744  -5.2441   0.5866   0.6771   0.7821
     0.8801   1.0731   2.3702   4.2533   5.1907  11.0531  12.6383  14.4737
    16.2559  17.3714  20.1634  21.2390  22.2753  23.5948  25.4432  26.3472
    27.5726  28.1722

          k = 0.5833-0.0833 0.7500 (  3786 PWs)   bands (ev):

  -118.2099 -72.3745 -72.3745 -72.3744  -5.2418   0.5962   0.6667   0.8219
     0.8623   1.0985   2.3288   4.0292   5.3537  11.2265  13.1550  14.5214
    16.0262  16.6430  18.9235  22.0760  22.6526  24.4403  25.0146  25.5908
    27.8064  28.9210

          k = 0.5000 0.0000 0.6667 (  3781 PWs)   bands (ev):

  -118.2099 -72.3745 -72.3745 -72.3744  -5.3166   0.6003   0.6394   0.8121
     0.8613   0.9957   2.5463   4.1300   5.6293  11.4255  13.2180  13.8062
    15.8238  16.9693  18.3404  22.2203  22.4722  23.2363  25.0130  26.0376
    28.3803  28.6848

          k = 0.8333-0.1667 1.0000 (  3782 PWs)   bands (ev):

  -118.2099 -72.3745 -72.3744 -72.3744  -5.2509   0.5403   0.7079   0.7344
     0.9003   0.9885   2.5508   4.7713   4.9144  10.5516  10.9941  15.8932
    17.5205  17.8447  21.0105  21.1586  22.3746  23.5271  24.7358  25.5933
    26.1282  27.6969

          k = 0.7500-0.0833 0.9167 (  3788 PWs)   bands (ev):

  -118.2099 -72.3745 -72.3745 -72.3744  -5.1922   0.5680   0.7117   0.7614
     0.8908   1.0841   2.3621   4.3529   4.8848  10.7652  11.6331  15.6844
    16.8202  18.0599  20.5094  21.2673  22.4210  24.2498  24.9224  26.3009
    26.6097  27.5328

          k = 0.6667 0.0000 0.8333 (  3775 PWs)   bands (ev):

  -118.2099 -72.3745 -72.3745 -72.3744  -5.1894   0.5875   0.6986   0.7930
     0.8748   1.1332   2.3276   3.9918   5.0581  10.9701  12.6507  15.3747
    15.7876  17.4993  19.4643  22.1199  23.1526  24.4315  24.9460  25.7902
    26.9261  28.4192

          k =-0.1667-1.0000-0.0000 (  3796 PWs)   bands (ev):

  -118.2099 -72.3745 -72.3745 -72.3744  -5.1733   0.5443   0.7314   0.7530
     0.9015   1.0726   2.2970   4.6988   4.7213  10.4320  10.8857  17.0056
    17.1962  18.5257  20.8749  21.4047  21.4774  23.5033  25.3987  26.0574
    27.4652  27.4976

          k = 0.6667-0.3333 1.0000 (  3774 PWs)   bands (ev):

  -118.2099 -72.3745 -72.3744 -72.3744  -5.3947   0.5838   0.6306   0.7311
     0.8773   0.9279   2.8458   4.5858   5.5121  11.7353  12.0286  13.5222
    16.1627  17.1075  19.9397  21.3827  22.0732  22.7714  24.6033  26.0405
    27.0344  28.4701

          k = 0.5833-0.2500 0.9167 (  3781 PWs)   bands (ev):

  -118.2099 -72.3745 -72.3745 -72.3744  -5.2836   0.6022   0.6489   0.7931
     0.8703   1.0291   2.4741   4.2860   5.2625  11.8139  12.5324  13.6567
    16.3916  17.0217  19.4639  21.8218  22.1329  23.8391  24.5136  25.9239
    28.5813  28.9358

          k = 0.5000-0.1667 0.8333 (  3786 PWs)   bands (ev):

  -118.2099 -72.3745 -72.3745 -72.3744  -5.2418   0.6040   0.6597   0.8255
     0.8548   1.1053   2.2935   4.2008   5.1596  11.8213  12.5968  14.1715
    16.0285  16.8270  20.1083  21.1069  22.0233  24.5915  25.2835  26.0932
    27.3636  28.6316

          k = 0.6667-0.1667 1.0000 (  3765 PWs)   bands (ev):

  -118.2099 -72.3745 -72.3745 -72.3744  -5.2320   0.5890   0.6809   0.7713
     0.8800   1.0549   2.4746   4.3653   4.8584  11.6324  11.8707  14.2675
    16.7144  17.7344  20.1047  21.8287  22.3936  23.8222  24.7696  25.3981
    28.0331  28.4702

          k = 0.5833-0.0833 0.9167 (  3778 PWs)   bands (ev):

  -118.2099 -72.3745 -72.3745 -72.3744  -5.1896   0.6027   0.6897   0.8067
     0.8578   1.1354   2.3548   4.1309   4.7426  11.8435  12.6403  14.1736
    15.5176  18.0640  20.4236  21.1896  22.6108  24.1919  25.8383  26.0642
    27.1486  28.3136

          k = 0.5000 0.0000 0.8333 (  3778 PWs)   bands (ev):

  -118.2099 -72.3745 -72.3745 -72.3744  -5.2090   0.6073   0.6758   0.8254
     0.8458   1.1186   2.3823   4.0414   4.9260  12.0012  12.8926  13.8019
    15.5847  17.6559  19.5808  22.0871  22.7805  23.9223  24.9469  26.0634
    28.1576  28.7619

          k =-0.3333-1.0000 0.0000 (  3786 PWs)   bands (ev):

  -118.2099 -72.3745 -72.3745 -72.3744  -5.1708   0.5884   0.7088   0.7810
     0.8754   1.1329   2.3306   4.4110   4.4833  11.5031  11.8451  15.3107
    15.6453  18.6981  20.8536  21.2216  21.6437  25.0908  25.7071  26.6422
    26.7609  27.1168

          k =-0.5000-1.0000 0.0000 (  3736 PWs)   bands (ev):

  -118.2098 -72.3745 -72.3745 -72.3744  -5.1695   0.6085   0.6993   0.8282
     0.8317   1.1623   2.3507   4.2730   4.3732  12.5170  12.5942  14.0075
    14.7460  18.7625  20.8641  21.1333  21.7471  24.7786  26.4608  26.5730
    26.8951  27.2052

     the Fermi energy is     7.2835 ev

!    total energy              =    -419.34460581 Ry
     estimated scf accuracy    <          8.6E-11 Ry
     smearing contrib. (-TS)   =      -0.00000000 Ry
     internal energy E=F+TS    =    -419.34460581 Ry

     The total energy is F=E-TS. E is the sum of the following terms:
     one-electron contribution =    -353.45036275 Ry
     hartree contribution      =     179.44117657 Ry
     xc contribution           =     -40.62285492 Ry
     ewald contribution        =    -204.71256472 Ry

     convergence has been achieved in   9 iterations

     Writing all to output data dir out/mp-1190.save/
 
     init_run     :      0.31s CPU      0.40s WALL (       1 calls)
     electrons    :      9.43s CPU     10.32s WALL (       1 calls)

     Called by init_run:
     wfcinit      :      0.27s CPU      0.31s WALL (       1 calls)
     potinit      :      0.01s CPU      0.01s WALL (       1 calls)
     hinit0       :      0.01s CPU      0.05s WALL (       1 calls)

     Called by electrons:
     c_bands      :      8.23s CPU      8.92s WALL (      10 calls)
     sum_band     :      1.13s CPU      1.31s WALL (      10 calls)
     v_of_rho     :      0.04s CPU      0.04s WALL (      10 calls)
     mix_rho      :      0.02s CPU      0.03s WALL (      10 calls)

     Called by c_bands:
     init_us_2    :      0.08s CPU      0.09s WALL (     756 calls)
     init_us_2:cp :      0.07s CPU      0.09s WALL (     756 calls)
     cegterg      :      7.46s CPU      7.72s WALL (     360 calls)

     Called by *egterg:
     cdiaghg      :      1.11s CPU      1.14s WALL (    1422 calls)
     h_psi        :      5.89s CPU      6.13s WALL (    1494 calls)
     g_psi        :      0.04s CPU      0.04s WALL (    1098 calls)

     Called by h_psi:
     h_psi:calbec :      0.15s CPU      0.16s WALL (    1494 calls)
     vloc_psi     :      5.61s CPU      5.83s WALL (    1494 calls)
     add_vuspsi   :      0.11s CPU      0.11s WALL (    1494 calls)

     General routines
     calbec       :      0.14s CPU      0.15s WALL (    1494 calls)
     fft          :      0.02s CPU      0.05s WALL (     100 calls)
     ffts         :      0.00s CPU      0.00s WALL (      10 calls)
     fftw         :      6.07s CPU      6.33s WALL (   65356 calls)
     davcio       :      0.09s CPU      0.49s WALL (    1238 calls)
 
     Parallel routines
 
     PWSCF        :      9.86s CPU     11.52s WALL

 
   This run was terminated on:  18:43:44  16Nov2023            

=------------------------------------------------------------------------------=
   JOB DONE.
=------------------------------------------------------------------------------=
