
     Program PWSCF v.7.1 starts on  8Dec2023 at  0:55:41 

     This program is part of the open-source Quantum ESPRESSO suite
     for quantum simulation of materials; please cite
         "P. Giannozzi et al., J. Phys.:Condens. Matter 21 395502 (2009);
         "P. Giannozzi et al., J. Phys.:Condens. Matter 29 465901 (2017);
         "P. Giannozzi et al., J. Chem. Phys. 152 154105 (2020);
          URL http://www.quantum-espresso.org", 
     in publications or presentations arising from this work. More details at
     http://www.quantum-espresso.org/quote

     Parallel version (MPI), running on     8 processors

     MPI processes distributed on     1 nodes
     122793 MiB available memory on the printing compute node when the environment starts
 
     Reading input from pw_mp-938_nscf_k0_E66.in
Warning: card &IONS ignored
Warning: card / ignored
Warning: card &CELL ignored
Warning: card / ignored

     Current dimensions of program PWSCF are:
     Max number of different atomic species (ntypx) = 10
     Max number of k-points (npk) =  40000
     Max angular momentum in pseudopotentials (lmaxx) =  4

     Atomic positions and unit cell read from directory:
     out/mp-938.save/
     Atomic positions from file used, from input discarded
 
 
     R & G space division:  proc/nbgrp/npool/nimage =       8
     Subspace diagonalization in iterative solution of the eigenvalue problem:
     one sub-group per band group will be used
     scalapack distributed-memory algorithm (size of sub-group:  2*  2 procs)

 
     Parallelization info
     --------------------
     sticks:   dense  smooth     PW     G-vecs:    dense   smooth      PW
     Min         153     153     37                 3426     3426     424
     Max         154     154     38                 3427     3427     426
     Sum        1225    1225    301                27413    27413    3395
 
     Using Slab Decomposition
 


     bravais-lattice index     =            5
     lattice parameter (alat)  =       8.3200  a.u.
     unit-cell volume          =     377.2923 (a.u.)^3
     number of atoms/cell      =            2
     number of atomic types    =            2
     number of electrons       =        30.00
     number of Kohn-Sham states=         1272
     kinetic-energy cutoff     =      66.0000  Ry
     charge density cutoff     =     264.0000  Ry
     Exchange-correlation= PBE
                           (   1   4   3   4   0   0   0)

     celldm(1)=   8.320040  celldm(2)=   0.000000  celldm(3)=   0.000000
     celldm(4)=   0.547379  celldm(5)=   0.000000  celldm(6)=   0.000000

     crystal axes: (cart. coord. in units of alat)
               a(1) = (   0.475721  -0.274658   0.835615 )  
               a(2) = (   0.000000   0.549315   0.835615 )  
               a(3) = (  -0.475721  -0.274658   0.835615 )  

     reciprocal axes: (cart. coord. in units 2 pi/alat)
               b(1) = (  1.051036 -0.606816  0.398908 )  
               b(2) = (  0.000000  1.213632  0.398908 )  
               b(3) = ( -1.051036 -0.606816  0.398908 )  


     PseudoPot. # 1 for Ge read from file:
     /usr/scratch4/magr4985/MG/HTDF/pseudo/SG15/Ge.upf
     MD5 check sum: 9f45083245c564cb2163622d60d05ca9
     Pseudo is Norm-conserving, Zval = 14.0
     Generated using ONCVPSP code by D. R. Hamann
     Using radial grid of  602 points,  6 beta functions with: 
                l(1) =   0
                l(2) =   0
                l(3) =   1
                l(4) =   1
                l(5) =   2
                l(6) =   2

     PseudoPot. # 2 for Te read from file:
     /usr/scratch4/magr4985/MG/HTDF/pseudo/SG15/Te.upf
     MD5 check sum: dd4de4dac1e38587f63aaf3700bb29d3
     Pseudo is Norm-conserving, Zval = 16.0
     Generated using ONCVPSP code by D. R. Hamann
     Using radial grid of  602 points,  6 beta functions with: 
                l(1) =   0
                l(2) =   0
                l(3) =   1
                l(4) =   1
                l(5) =   2
                l(6) =   2

     atomic species   valence    mass     pseudopotential
        Ge            14.00    72.64000     Ge( 1.00)
        Te            16.00   127.60000     Te( 1.00)

      6 Sym. Ops. (no inversion) found



   Cartesian axes

     site n.     atom                  positions (alat units)
         1           Ge  tau(   1) = (   0.0000000  -0.0000000   0.0194953  )
         2           Te  tau(   2) = (   0.0000000   0.0000000   1.1812836  )

     number of k points=     1  Gaussian smearing, width (Ry)=  0.0005
                       cart. coord. in units 2pi/alat
        k(    1) = (   0.0000000   0.0000000   0.0000000), wk =   2.0000000

     Dense  grid:    27413 G-vectors     FFT dimensions: (  45,  45,  45)

     Estimated max dynamical RAM per process >     120.43 MB

     Estimated total dynamical RAM >     963.42 MB

     The potential is recalculated from file :
     out/mp-938.save/charge-density

     Starting wfcs are random

     Band Structure Calculation
     Davidson diagonalization with overlap

     ethr =  5.00E-06,  avg # of iterations = 11.0

     total cpu time spent up to now is      182.4 secs

     End of band structure calculation

          k = 0.0000 0.0000 0.0000 (  3395 PWs)   bands (ev):

   -26.5381 -26.5381 -26.5183 -26.5183 -26.5110 -14.3951 -14.3951 -14.3799
   -14.3799 -14.3740  -2.6054   5.4674   8.6052   8.7791   8.7791  12.9173
    13.6416  13.6416  16.4608  16.4608  16.6663  18.2975  18.2975  18.4654
    18.6511  31.2317  31.2317  31.2679  31.9665  31.9665  32.1819  33.5242
    33.7108  33.7108  35.4326  35.4326  38.1738  39.2267  39.2267  40.6373
    40.6373  41.1818  42.5170  44.1101  44.1101  44.1238  44.2229  44.4180
    45.5312  45.5312  45.7985  45.7985  46.2498  46.2977  46.2977  46.8028
    47.6469  49.0123  49.7051  49.7051  50.2238  50.2238  51.7232  52.3460
    52.3460  52.6386  52.6386  53.0481  54.9555  62.9149  62.9149  63.8568
    65.1997  65.1997  66.6182  66.6182  68.4131  70.1854  70.9430  70.9430
    71.8636  74.2176  74.9562  74.9562  75.7373  75.7373  75.7894  76.8090
    76.9119  76.9119  77.1128  77.4099  77.4099  77.5842  77.5842  78.7901
    78.8630  78.8630  78.8792  80.1980  80.1980  80.6600  81.8187  81.8977
    81.8977  81.9400  83.0107  83.3241  83.3241  83.8688  83.8688  84.8702
    85.2291  85.2291  85.6145  85.6145  86.0375  86.2668  86.2668  86.3348
    87.4086  87.4086  87.7836  89.9486  90.8855  91.1451  91.1451  91.4961
    91.4961  94.2015  96.8171  96.8171  97.4808  98.4103  99.6531  99.7008
    99.7008  99.8578 100.1477 100.2800 100.2800 101.2004 101.2004 101.6683
   101.7191 101.7191 102.5001 102.6072 102.6072 104.4014 104.9151 104.9151
   106.4010 106.4010 107.8941 107.9071 108.2638 108.3452 108.3452 108.8598
   110.2486 110.2486 110.7484 111.1214 111.1214 111.5680 111.5797 111.5797
   114.7408 114.7408 115.3218 115.3218 115.7216 115.7216 116.0315 116.3662
   116.5344 116.5344 118.4389 118.4389 119.2577 121.6681 122.8229 123.1417
   123.1417 126.6005 127.6924 128.0809 128.0809 128.5377 129.0996 129.0996
   130.5060 130.5060 130.9374 130.9374 131.7286 131.7286 131.8777 132.6144
   132.8815 133.1885 134.6139 134.6139 135.3408 135.3408 135.9431 135.9431
   136.1866 136.9167 137.4883 138.1399 138.1399 138.4248 138.4248 140.4376
   140.7018 140.7114 140.7114 140.7263 140.8857 140.8857 141.1800 141.9864
   142.2176 142.2176 143.3592 143.3592 144.2333 144.3745 144.3745 145.2001
   145.2001 145.3525 146.0898 146.4999 146.7470 146.7470 148.0994 148.0994
   148.1851 148.5006 148.5006 148.7719 148.7719 149.8638 149.9775 150.7642
   150.7642 151.2276 151.2276 151.3148 151.7135 151.7135 151.9817 152.4082
   152.5852 152.8998 152.8998 153.2709 153.2709 153.2832 153.6372 153.6372
   154.3864 154.4189 154.4189 155.0128 155.0128 155.7615 155.9688 155.9688
   156.2099 157.7877 158.3990 158.5718 158.5718 159.7075 159.7075 160.3546
   160.3899 160.3899 161.9669 161.9669 162.2552 162.2552 162.8294 163.8926
   163.8926 166.1561 166.3574 166.3574 166.3871 168.0459 168.0459 168.3459
   168.6699 168.6699 169.2765 169.4072 169.4072 170.1814 171.6749 172.0977
   172.0977 173.5580 174.4509 174.4509 175.2204 177.4686 177.6350 177.6350
   177.6429 177.7517 178.1144 178.1144 179.0753 180.0924 180.1334 180.1334
   180.5383 180.5383 180.7890 180.7890 180.8560 180.8918 180.9454 181.2583
   181.2583 182.5070 182.5884 182.5884 183.1164 183.1164 183.7022 185.0939
   185.0939 186.0373 186.1828 186.1828 186.5057 187.1466 187.1466 188.7143
   188.9737 188.9737 190.5260 192.7178 192.7178 194.6019 194.6019 195.2285
   195.9887 195.9887 196.5238 198.8636 198.8636 199.2299 199.4192 199.4192
   199.7630 200.2224 200.2224 200.4187 200.6225 201.0086 201.3325 201.3325
   201.4379 201.9060 201.9060 201.9292 202.3799 202.3799 202.6377 202.8432
   202.8432 204.3311 204.3311 205.4142 205.6891 205.8858 206.2339 206.2339
   206.5787 206.5787 206.6684 206.7959 206.8643 206.8713 206.8713 208.7754
   208.7754 208.9683 208.9683 211.1182 211.3862 211.3862 212.6121 212.6121
   212.6752 212.6752 214.0375 214.1040 214.1103 214.1168 214.1168 214.2834
   214.3843 214.5781 214.7189 214.7189 215.3351 215.3351 216.1496 216.1496
   218.4210 218.9255 218.9255 219.1645 219.1645 219.2293 219.5743 219.5743
   219.7314 219.9773 219.9773 220.3380 220.4122 220.4122 220.9784 220.9784
   221.0692 221.3959 221.3959 221.7009 221.7009 221.8209 222.7468 223.1763
   223.1763 223.8969 223.9702 223.9702 224.5452 224.6632 225.8730 225.8730
   226.7798 226.7798 227.2303 227.3450 227.8866 227.8866 228.3447 228.3447
   229.3745 230.0078 230.5993 230.5993 231.2453 232.3222 232.3222 232.9341
   232.9341 233.5108 234.0612 234.0612 234.5679 234.5679 234.6437 234.8444
   235.1427 235.9713 235.9713 236.1936 236.2048 236.2048 236.2455 236.5828
   236.6324 236.6324 236.8567 237.0357 237.0357 238.2717 238.2717 238.6471
   239.3189 239.3651 239.3651 239.4850 239.4850 239.9066 239.9066 239.9402
   240.0840 240.8103 240.9399 240.9399 241.3617 241.7395 241.7395 242.3907
   242.6597 242.6597 242.7763 242.8441 242.8441 244.2342 244.9239 244.9239
   245.6818 246.4906 246.4906 246.7093 246.8705 247.5343 247.5343 248.2904
   249.5764 249.9970 249.9970 250.1253 250.3306 250.3306 250.4152 250.4152
   250.6351 250.8191 250.8191 251.0172 251.0308 251.0308 251.3228 251.3827
   251.3827 252.5976 253.0357 253.1455 253.1455 253.3052 253.3052 253.4838
   253.4838 253.5150 253.8191 253.8191 260.3351 260.3351 260.7737 260.7737
   262.5223 263.9684 265.1645 265.1645 266.3648 266.3648 266.8196 267.5035
   267.5035 267.8745 267.8852 268.5249 268.5249 269.6870 270.2474 270.2474
   270.3048 270.7169 270.7169 272.4993 272.9066 272.9224 272.9224 273.3424
   273.3424 273.7326 273.9746 273.9746 274.2285 274.2285 274.2708 274.3360
   274.4472 275.6277 275.6277 276.3224 276.6914 276.9607 277.5587 277.5587
   277.6396 278.6963 278.6963 279.9492 279.9492 280.2089 280.2089 280.3818
   280.3818 280.4056 280.4466 280.9403 281.2163 281.2163 281.3165 281.3216
   281.3216 281.5127 282.4749 282.4749 282.5698 283.0061 283.0061 283.3369
   283.5467 283.5467 283.6170 283.6170 283.7845 283.8151 285.1790 285.1790
   285.4138 285.5140 285.5140 285.6756 285.6892 286.4254 286.4521 286.4521
   286.6320 286.6320 287.9612 287.9612 287.9637 288.9269 288.9269 289.1466
   292.7797 292.7797 293.0055 293.0055 293.4870 293.4870 293.6009 293.8099
   293.8099 293.9156 294.2287 294.2287 294.3827 294.5030 294.5399 294.7683
   294.9156 294.9156 295.3002 295.3002 295.9264 296.4501 296.8920 296.8920
   297.6407 297.6407 298.1922 298.1922 298.2823 298.3006 299.3382 299.4365
   299.4365 300.6971 300.6971 301.1173 302.9326 303.0678 303.0678 303.1874
   303.3761 303.4575 303.4575 303.4895 303.4895 303.9578 304.1002 305.2094
   305.2094 305.8651 305.8651 306.1265 306.8239 306.8239 308.0916 308.0916
   308.0980 308.4364 308.4364 308.8237 308.9553 308.9618 309.0418 309.0418
   309.7068 309.7068 311.3490 311.3490 311.5273 311.5273 311.6940 311.8119
   311.8119 312.0081 312.0081 312.2263 312.2264 312.6647 313.5982 313.6058
   313.6064 314.1164 314.1164 315.0107 315.0358 315.0523 315.0523 316.2940
   316.5778 316.5778 317.2217 317.5492 317.9497 317.9826 317.9826 318.1605
   318.1605 318.3065 319.2885 319.2885 319.3134 319.3134 320.7249 320.7249
   321.3801 321.4951 321.5883 321.7254 321.7254 321.7454 321.7974 322.0831
   322.0831 322.8100 322.8100 322.8219 322.8219 323.0040 323.0201 323.2695
   323.3188 323.3188 324.4908 324.4908 324.5573 324.6273 324.6273 324.6511
   327.1029 327.1029 327.1620 327.1620 330.2254 330.3895 330.3895 331.4618
   331.4618 331.8993 331.9614 331.9614 332.3121 332.4908 332.5775 332.5775
   333.0151 333.0151 333.1202 333.4045 333.6583 333.6590 333.6590 334.0843
   334.0843 335.3412 335.3412 336.1350 336.1692 336.2242 336.2981 336.2981
   336.3897 336.3897 336.8433 336.8433 337.3979 337.4985 337.4985 337.6036
   337.6036 337.7862 337.8287 338.4785 338.4866 338.4866 339.6140 339.6140
   339.8832 339.8832 339.9101 339.9154 340.8785 343.9925 343.9925 344.8355
   345.2687 345.2687 345.3740 345.7259 345.7259 345.8726 346.0243 346.0243
   346.2435 347.0822 347.0822 347.2498 347.3294 347.3294 347.4951 348.0621
   348.0621 349.1071 349.3876 349.3876 349.4769 349.6302 349.7791 349.7791
   350.1579 350.1579 350.4711 350.8395 350.8395 351.6722 351.7546 351.7546
   351.7934 351.7934 351.8924 351.8962 352.0218 352.0218 352.3485 353.4234
   353.4234 353.6305 353.6305 353.7445 353.7553 354.5133 354.5133 354.6471
   354.6989 354.7199 354.7199 354.7828 354.7828 354.8235 355.5631 355.5631
   355.5662 355.9559 356.4223 357.8520 357.8520 358.3548 358.3548 359.1468
   359.1468 359.4105 359.5945 359.5945 359.6227 359.6241 359.6241 359.6336
   359.7079 359.7079 360.0470 360.7698 361.1709 363.9469 363.9469 364.2912
   364.2912 364.6512 364.7640 364.8307 364.8307 365.0134 365.0134 365.1522
   365.1622 366.8832 366.8832 367.1414 367.1414 369.1854 369.2735 369.2735
   369.3191 369.3191 369.6038 369.7448 369.7448 370.1035 370.1035 370.2638
   370.4900 370.9228 370.9228 372.3348 372.4980 372.4980 372.9449 373.2304
   373.2304 373.2654 373.2753 373.2753 373.2838 374.0207 374.0207 374.3198
   374.3198 374.3822 374.4046 377.6071 377.6071 378.2160 378.2160 378.2230
   378.4211 378.6340 378.6340 379.8152 380.7415 380.7415 380.8853 383.0264
   383.0264 383.2027 383.2027 383.2283 383.2512 386.0298 386.0298 386.4100
   386.4108 386.4680 386.4680 386.5234 386.5234 386.5582 386.5582 386.6012
   386.6077 388.4399 388.4399 388.5776 388.7868 388.8688 388.8688 390.8909
   390.8909 392.3918 392.7112 393.0301 393.0301 393.2213 393.2213 393.4667
   393.4667 393.4829 394.0155 394.6118 394.6118 394.8776 394.8776 394.9629
   395.0437 395.0671 395.1348 395.1348 395.1566 395.1566 395.1733 396.4579
   396.5680 396.8222 396.8222 396.8301 396.8301 396.9545 396.9575 399.1734
   399.7816 399.7816 400.0957 400.0957 400.2213 402.3145 402.3145 403.5882
   403.5882 404.0141 404.3861 404.4198 404.4198 404.7770 404.9301 404.9301
   404.9863 405.4451 405.4451 405.5149 405.6815 405.6815 405.9825 407.2822
   407.2822 407.4108 407.6563 407.6563 407.9548 408.4041 408.4041 408.4570
   408.4570 408.4645 408.5909 408.5909 408.7050 408.8215 408.8215 408.8226
   408.8684 408.9942 409.1242 409.1242 409.3684 409.3684 409.3806 412.3341
   412.3341 412.4978 412.7990 412.7990 412.8693 413.1060 413.1060 413.2751
   413.3161 413.3161 413.3792 413.9014 413.9014 413.9035 414.0266 414.0266
   414.0391 414.3583 414.3583 414.4459 414.4755 414.4755 414.4767 416.9693
   416.9693 417.3411 417.3411 417.4072 417.4109 417.4109 417.4233 417.8496
   418.1441 418.3000 418.3000 418.5511 418.5511 418.9777 419.2807 419.4551
   419.4551 421.2825 421.2825 421.2830 421.3441 421.3441 421.3961 423.3768
   423.4343 423.4343 423.5320 423.7433 423.7433 424.1375 424.1375 424.2970
   424.3048 424.3048 424.4392 424.5149 424.5266 424.5505 424.5505 424.5762
   424.5762 424.7813 424.8417 424.8417 424.9351 424.9579 424.9579 425.0981
   425.2446 425.2566 425.2566 425.2927 425.2991 425.2991 425.6045 426.2630
   426.2630 426.6035 426.7053 426.7053 426.9041 427.9755 427.9755 427.9945
   427.9945 429.7872 429.7872 429.8307 429.8572 429.8572 429.9252 432.0153
   432.1216 432.1216 432.3041 432.3041 432.4025 432.4025 432.5074 432.5131
   432.5131 432.5419 432.7778 433.9798 433.9798 434.0478 434.0478 435.0250
   435.0250 436.8885 436.8885 436.9068 436.9068 437.2238 437.2239 437.3814
   437.3814 437.5025 437.5025 437.5088 437.5241 439.7044 439.7044 439.7499
   439.7499 439.7798 439.8507 440.8712 440.8712 441.0470 441.2427 441.2427
   441.3912 441.5649 441.6445 441.6445 441.6939 441.6939 441.8812 442.8807
   442.9000 442.9000 442.9170 442.9170 442.9659 443.5374 443.5408 443.5408
   443.6226 443.6226 443.6641 446.1880 446.1880 446.3753 446.7791 446.8036
   446.8036 447.0223 447.0223 447.0974 447.1102 447.1102 447.1198 448.3152
   448.6327 450.6365 450.6365 450.7213 450.8164 450.8164 451.0220 451.1960
   451.1960 451.4801 451.5447 451.5447 451.5940 452.8796 452.8796 452.9673
   452.9723 452.9723 452.9816 453.0163 453.0163 453.1627 453.1652 453.1652
   453.1785 453.3532 453.5029 453.5029 453.7832 453.7832 454.0029 454.6793
   454.7139 454.7139 454.9524 454.9524 454.9828 456.3242 456.3242 456.3350

     the Fermi energy is    11.1336 ev
     (compare with:    11.1336 eV, computed in scf)

     Writing all to output data dir out/mp-938.save/
 
     init_run     :      0.07s CPU      0.09s WALL (       1 calls)
     electrons    :    168.28s CPU    182.17s WALL (       1 calls)

     Called by init_run:
     wfcinit      :      0.00s CPU      0.00s WALL (       1 calls)
     potinit      :      0.01s CPU      0.02s WALL (       1 calls)
     hinit0       :      0.03s CPU      0.04s WALL (       1 calls)

     Called by electrons:
     c_bands      :    168.27s CPU    182.17s WALL (       1 calls)
     v_of_rho     :      0.01s CPU      0.01s WALL (       1 calls)

     Called by c_bands:
     init_us_2    :      0.00s CPU      0.00s WALL (       1 calls)
     init_us_2:cp :      0.00s CPU      0.00s WALL (       1 calls)
     cegterg      :    165.31s CPU    178.98s WALL (       1 calls)

     Called by *egterg:
     cdiaghg      :    159.36s CPU    172.96s WALL (      12 calls)
     h_psi        :      2.01s CPU      2.07s WALL (      13 calls)
     g_psi        :      0.01s CPU      0.01s WALL (      11 calls)

     Called by h_psi:
     h_psi:calbec :      0.03s CPU      0.04s WALL (      13 calls)
     vloc_psi     :      1.94s CPU      1.99s WALL (      13 calls)
     add_vuspsi   :      0.03s CPU      0.03s WALL (      13 calls)

     General routines
     calbec       :      0.03s CPU      0.04s WALL (      13 calls)
     fft          :      0.00s CPU      0.01s WALL (      10 calls)
     fftw         :      1.76s CPU      1.80s WALL (   14150 calls)
 
     Parallel routines
 
     PWSCF        :   2m48.54s CPU   3m 2.52s WALL

 
   This run was terminated on:   0:58:44   8Dec2023            

=------------------------------------------------------------------------------=
   JOB DONE.
=------------------------------------------------------------------------------=
