
     Program PWSCF v.7.1 starts on  8Dec2023 at  1:28:11 

     This program is part of the open-source Quantum ESPRESSO suite
     for quantum simulation of materials; please cite
         "P. Giannozzi et al., J. Phys.:Condens. Matter 21 395502 (2009);
         "P. Giannozzi et al., J. Phys.:Condens. Matter 29 465901 (2017);
         "P. Giannozzi et al., J. Chem. Phys. 152 154105 (2020);
          URL http://www.quantum-espresso.org", 
     in publications or presentations arising from this work. More details at
     http://www.quantum-espresso.org/quote

     Parallel version (MPI), running on     8 processors

     MPI processes distributed on     1 nodes
     122762 MiB available memory on the printing compute node when the environment starts
 
     Reading input from pw_mp-938_scf_k3000_E66.in
Warning: card &CELL ignored
Warning: card / ignored

     Current dimensions of program PWSCF are:
     Max number of different atomic species (ntypx) = 10
     Max number of k-points (npk) =  40000
     Max angular momentum in pseudopotentials (lmaxx) =  4
 
     R & G space division:  proc/nbgrp/npool/nimage =       8
     Subspace diagonalization in iterative solution of the eigenvalue problem:
     a serial algorithm will be used

 
     Parallelization info
     --------------------
     sticks:   dense  smooth     PW     G-vecs:    dense   smooth      PW
     Min         153     153     45                 3426     3426     573
     Max         154     154     46                 3427     3427     576
     Sum        1225    1225    363                27413    27413    4597
 
     Using Slab Decomposition
 


     bravais-lattice index     =            5
     lattice parameter (alat)  =       8.3200  a.u.
     unit-cell volume          =     377.2923 (a.u.)^3
     number of atoms/cell      =            2
     number of atomic types    =            2
     number of electrons       =        30.00
     number of Kohn-Sham states=           30
     kinetic-energy cutoff     =      66.0000  Ry
     charge density cutoff     =     264.0000  Ry
     scf convergence threshold =      1.0E-10
     mixing beta               =       0.7000
     number of iterations used =            8  plain     mixing
     Exchange-correlation= PBE
                           (   1   4   3   4   0   0   0)

     celldm(1)=   8.320040  celldm(2)=   0.000000  celldm(3)=   0.000000
     celldm(4)=   0.547379  celldm(5)=   0.000000  celldm(6)=   0.000000

     crystal axes: (cart. coord. in units of alat)
               a(1) = (   0.475721  -0.274658   0.835615 )  
               a(2) = (   0.000000   0.549315   0.835615 )  
               a(3) = (  -0.475721  -0.274658   0.835615 )  

     reciprocal axes: (cart. coord. in units 2 pi/alat)
               b(1) = (  1.051036 -0.606816  0.398908 )  
               b(2) = (  0.000000  1.213632  0.398908 )  
               b(3) = ( -1.051036 -0.606816  0.398908 )  


     PseudoPot. # 1 for Ge read from file:
     /usr/scratch4/magr4985/MG/HTDF/pseudo/SG15/Ge.upf
     MD5 check sum: 9f45083245c564cb2163622d60d05ca9
     Pseudo is Norm-conserving, Zval = 14.0
     Generated using ONCVPSP code by D. R. Hamann
     Using radial grid of  602 points,  6 beta functions with: 
                l(1) =   0
                l(2) =   0
                l(3) =   1
                l(4) =   1
                l(5) =   2
                l(6) =   2

     PseudoPot. # 2 for Te read from file:
     /usr/scratch4/magr4985/MG/HTDF/pseudo/SG15/Te.upf
     MD5 check sum: dd4de4dac1e38587f63aaf3700bb29d3
     Pseudo is Norm-conserving, Zval = 16.0
     Generated using ONCVPSP code by D. R. Hamann
     Using radial grid of  602 points,  6 beta functions with: 
                l(1) =   0
                l(2) =   0
                l(3) =   1
                l(4) =   1
                l(5) =   2
                l(6) =   2

     atomic species   valence    mass     pseudopotential
        Ge            14.00    72.64000     Ge( 1.00)
        Te            16.00   127.60000     Te( 1.00)

      6 Sym. Ops. (no inversion) found



   Cartesian axes

     site n.     atom                  positions (alat units)
         1           Ge  tau(   1) = (   0.0000000  -0.0000000   0.0194953  )
         2           Te  tau(   2) = (   0.0000000   0.0000000   1.1812836  )

     number of k points=   189  Gaussian smearing, width (Ry)=  0.0005

     Number of k-points >= 100: set verbosity='high' to print them.

     Dense  grid:    27413 G-vectors     FFT dimensions: (  45,  45,  45)

     Estimated max dynamical RAM per process >       6.37 MB

     Estimated total dynamical RAM >      50.92 MB

     Initial potential from superposition of free atoms

     starting charge      29.9073, renormalised to      30.0000
     Starting wfcs are random

     total cpu time spent up to now is        2.5 secs

     Self-consistent Calculation

     iteration #  1     ecut=    66.00 Ry     beta= 0.70
     Davidson diagonalization with overlap
     ethr =  1.00E-02,  avg # of iterations =  9.3

     Threshold (ethr) on eigenvalues was too large:
     Diagonalizing with lowered threshold

     Davidson diagonalization with overlap
     ethr =  5.03E-05,  avg # of iterations =  6.5

     total cpu time spent up to now is       30.0 secs

     total energy              =    -316.36688337 Ry
     estimated scf accuracy    <       0.01093135 Ry

     iteration #  2     ecut=    66.00 Ry     beta= 0.70
     Davidson diagonalization with overlap
     ethr =  3.64E-05,  avg # of iterations =  2.0

     total cpu time spent up to now is       36.3 secs

     total energy              =    -316.36834852 Ry
     estimated scf accuracy    <       0.00181793 Ry

     iteration #  3     ecut=    66.00 Ry     beta= 0.70
     Davidson diagonalization with overlap
     ethr =  6.06E-06,  avg # of iterations =  2.9

     total cpu time spent up to now is       43.8 secs

     total energy              =    -316.36879919 Ry
     estimated scf accuracy    <       0.00044077 Ry

     iteration #  4     ecut=    66.00 Ry     beta= 0.70
     Davidson diagonalization with overlap
     ethr =  1.47E-06,  avg # of iterations =  2.4

     total cpu time spent up to now is       51.2 secs

     total energy              =    -316.36888604 Ry
     estimated scf accuracy    <       0.00000971 Ry

     iteration #  5     ecut=    66.00 Ry     beta= 0.70
     Davidson diagonalization with overlap
     ethr =  3.24E-08,  avg # of iterations =  2.0

     total cpu time spent up to now is       57.4 secs

     total energy              =    -316.36888772 Ry
     estimated scf accuracy    <       0.00000142 Ry

     iteration #  6     ecut=    66.00 Ry     beta= 0.70
     Davidson diagonalization with overlap
     ethr =  4.72E-09,  avg # of iterations =  2.0

     total cpu time spent up to now is       63.6 secs

     total energy              =    -316.36888811 Ry
     estimated scf accuracy    <       0.00000007 Ry

     iteration #  7     ecut=    66.00 Ry     beta= 0.70
     Davidson diagonalization with overlap
     ethr =  2.39E-10,  avg # of iterations =  2.4

     total cpu time spent up to now is       70.0 secs

     total energy              =    -316.36888813 Ry
     estimated scf accuracy    <          3.1E-09 Ry

     iteration #  8     ecut=    66.00 Ry     beta= 0.70
     Davidson diagonalization with overlap
     ethr =  1.02E-11,  avg # of iterations =  3.0

     total cpu time spent up to now is       76.8 secs

     total energy              =    -316.36888813 Ry
     estimated scf accuracy    <          2.4E-10 Ry

     iteration #  9     ecut=    66.00 Ry     beta= 0.70
     Davidson diagonalization with overlap
     ethr =  7.97E-13,  avg # of iterations =  2.4

     total cpu time spent up to now is       84.3 secs

     End of self-consistent calculation

     Number of k-points >= 100: set verbosity='high' to print the bands.

     the Fermi energy is    10.6793 ev

!    total energy              =    -316.36888813 Ry
     estimated scf accuracy    <          7.3E-12 Ry
     smearing contrib. (-TS)   =      -0.00000000 Ry
     internal energy E=F+TS    =    -316.36888813 Ry

     The total energy is F=E-TS. E is the sum of the following terms:
     one-electron contribution =    -137.92138836 Ry
     hartree contribution      =      79.08374292 Ry
     xc contribution           =     -35.88470549 Ry
     ewald contribution        =    -221.64653720 Ry

     convergence has been achieved in   9 iterations

     Writing all to output data dir out/mp-938.save/
 
     init_run     :      2.31s CPU      2.48s WALL (       1 calls)
     electrons    :     75.52s CPU     81.78s WALL (       1 calls)

     Called by init_run:
     wfcinit      :      2.21s CPU      2.36s WALL (       1 calls)
     potinit      :      0.04s CPU      0.04s WALL (       1 calls)
     hinit0       :      0.02s CPU      0.04s WALL (       1 calls)

     Called by electrons:
     c_bands      :     64.86s CPU     69.93s WALL (      10 calls)
     sum_band     :     10.55s CPU     11.71s WALL (      10 calls)
     v_of_rho     :      0.09s CPU      0.09s WALL (      10 calls)
     mix_rho      :      0.02s CPU      0.02s WALL (      10 calls)

     Called by c_bands:
     init_us_2    :      0.52s CPU      0.58s WALL (    3969 calls)
     init_us_2:cp :      0.51s CPU      0.57s WALL (    3969 calls)
     cegterg      :     61.53s CPU     63.32s WALL (    1890 calls)

     Called by *egterg:
     cdiaghg      :      7.95s CPU      8.07s WALL (    8292 calls)
     h_psi        :     49.86s CPU     51.51s WALL (    8670 calls)
     g_psi        :      0.27s CPU      0.28s WALL (    6591 calls)

     Called by h_psi:
     h_psi:calbec :      1.05s CPU      1.10s WALL (    8670 calls)
     vloc_psi     :     47.85s CPU     49.42s WALL (    8670 calls)
     add_vuspsi   :      0.80s CPU      0.83s WALL (    8670 calls)

     General routines
     calbec       :      1.03s CPU      1.08s WALL (    8670 calls)
     fft          :      0.05s CPU      0.06s WALL (     100 calls)
     ffts         :      0.00s CPU      0.00s WALL (      10 calls)
     fftw         :     52.50s CPU     54.40s WALL (  384780 calls)
     davcio       :      0.49s CPU      3.32s WALL (    6134 calls)
 
     Parallel routines
 
     PWSCF        :   1m18.24s CPU   1m25.11s WALL

 
   This run was terminated on:   1:29:36   8Dec2023            

=------------------------------------------------------------------------------=
   JOB DONE.
=------------------------------------------------------------------------------=
