
     Program PWSCF v.7.1 starts on 15Nov2023 at  2:32:58 

     This program is part of the open-source Quantum ESPRESSO suite
     for quantum simulation of materials; please cite
         "P. Giannozzi et al., J. Phys.:Condens. Matter 21 395502 (2009);
         "P. Giannozzi et al., J. Phys.:Condens. Matter 29 465901 (2017);
         "P. Giannozzi et al., J. Chem. Phys. 152 154105 (2020);
          URL http://www.quantum-espresso.org", 
     in publications or presentations arising from this work. More details at
     http://www.quantum-espresso.org/quote

     Parallel version (MPI), running on     8 processors

     MPI processes distributed on     1 nodes
     123443 MiB available memory on the printing compute node when the environment starts
 
     Reading input from pw_mp-10695_nscf_k60_E67.in
Warning: card &IONS ignored
Warning: card / ignored
Warning: card &CELL ignored
Warning: card / ignored

     Current dimensions of program PWSCF are:
     Max number of different atomic species (ntypx) = 10
     Max number of k-points (npk) =  40000
     Max angular momentum in pseudopotentials (lmaxx) =  4

     Atomic positions and unit cell read from directory:
     out/mp-10695.save/
     Atomic positions from file used, from input discarded
 
 
     R & G space division:  proc/nbgrp/npool/nimage =       8
     Subspace diagonalization in iterative solution of the eigenvalue problem:
     one sub-group per band group will be used
     scalapack distributed-memory algorithm (size of sub-group:  2*  2 procs)

 
     Parallelization info
     --------------------
     sticks:   dense  smooth     PW     G-vecs:    dense   smooth      PW
     Min         119     119     35                 2446     2446     389
     Max         120     120     36                 2450     2450     391
     Sum         955     955    283                19579    19579    3119
 
     Using Slab Decomposition
 


     bravais-lattice index     =            2
     lattice parameter (alat)  =      10.1806  a.u.
     unit-cell volume          =     263.7946 (a.u.)^3
     number of atoms/cell      =            2
     number of atomic types    =            2
     number of electrons       =        26.00
     number of Kohn-Sham states=         1200
     kinetic-energy cutoff     =      67.0000  Ry
     charge density cutoff     =     268.0000  Ry
     Exchange-correlation= PBE
                           (   1   4   3   4   0   0   0)

     celldm(1)=  10.180645  celldm(2)=   0.000000  celldm(3)=   0.000000
     celldm(4)=   0.000000  celldm(5)=   0.000000  celldm(6)=   0.000000

     crystal axes: (cart. coord. in units of alat)
               a(1) = (  -0.500000   0.000000   0.500000 )  
               a(2) = (   0.000000   0.500000   0.500000 )  
               a(3) = (  -0.500000   0.500000   0.000000 )  

     reciprocal axes: (cart. coord. in units 2 pi/alat)
               b(1) = ( -1.000000 -1.000000  1.000000 )  
               b(2) = (  1.000000  1.000000  1.000000 )  
               b(3) = ( -1.000000  1.000000 -1.000000 )  


     PseudoPot. # 1 for S  read from file:
     /usr/scratch4/magr4985/MG/HTDF/pseudo/SG15/S.upf
     MD5 check sum: f9d020296ee6110346977bfd66d424f6
     Pseudo is Norm-conserving, Zval =  6.0
     Generated using ONCVPSP code by D. R. Hamann
     Using radial grid of  602 points,  4 beta functions with: 
                l(1) =   0
                l(2) =   0
                l(3) =   1
                l(4) =   1

     PseudoPot. # 2 for Zn read from file:
     /usr/scratch4/magr4985/MG/HTDF/pseudo/SG15/Zn.upf
     MD5 check sum: 732f41c0cd6489a4b50a33b4ec99a2d3
     Pseudo is Norm-conserving, Zval = 20.0
     Generated using ONCVPSP code by D. R. Hamann
     Using radial grid of  602 points,  6 beta functions with: 
                l(1) =   0
                l(2) =   0
                l(3) =   1
                l(4) =   1
                l(5) =   2
                l(6) =   2

     atomic species   valence    mass     pseudopotential
        S              6.00    32.06500     S ( 1.00)
        Zn            20.00    65.40900     Zn( 1.00)

     24 Sym. Ops. (no inversion) found



   Cartesian axes

     site n.     atom                  positions (alat units)
         1           Zn  tau(   1) = (   0.0000000   0.0000000   0.0000000  )
         2           S   tau(   2) = (  -0.2500000   0.2500000   0.2500001  )

     number of k points=     8  Gaussian smearing, width (Ry)=  0.0005
                       cart. coord. in units 2pi/alat
        k(    1) = (   0.0000000   0.0000000   0.0000000), wk =   0.0312500
        k(    2) = (  -0.2500000   0.2500000  -0.2500000), wk =   0.2500000
        k(    3) = (   0.5000000  -0.5000000   0.5000000), wk =   0.1250000
        k(    4) = (   0.0000000   0.5000000   0.0000000), wk =   0.1875000
        k(    5) = (   0.7500000  -0.2500000   0.7500000), wk =   0.7500000
        k(    6) = (   0.5000000   0.0000000   0.5000000), wk =   0.3750000
        k(    7) = (   0.0000000  -1.0000000   0.0000000), wk =   0.0937500
        k(    8) = (  -0.5000000  -1.0000000   0.0000000), wk =   0.1875000

     Dense  grid:    19579 G-vectors     FFT dimensions: (  40,  40,  40)

     Estimated max dynamical RAM per process >      98.10 MB

     Estimated total dynamical RAM >     784.77 MB

     The potential is recalculated from file :
     out/mp-10695.save/charge-density

     Starting wfcs are random

     Band Structure Calculation
     ParO style diagonalization

     ethr =  5.00E-06,  avg # of iterations =  6.2

     total cpu time spent up to now is      604.4 secs

     End of band structure calculation

          k = 0.0000 0.0000 0.0000 (  2421 PWs)   bands (ev):

  -117.2570 -71.4296 -71.4296 -71.4296  -5.5556   1.2802   1.2802   1.2802
     1.7884   1.7884   7.6478   7.6478   7.6478   9.7982  14.0667  14.0667
    14.0667  19.4089  19.4089  19.5811  22.2430  22.2430  22.2430  25.3467
    33.4986  33.4986  33.4986  35.9807  35.9807  35.9807  37.0103  37.0103
    39.8253  39.8253  39.8253  47.4950  48.6891  48.6891  50.7764  50.7764
    50.7764  52.4538  52.4538  52.4538  54.3833  55.2596  55.2596  55.2596
    55.8289  55.8289  55.8289  57.2693  57.2693  57.2693  57.2735  57.2735
    57.2735  59.0499  59.0499  60.5322  63.7090  63.7090  63.7090  64.2781
    64.2781  64.2781  64.5470  72.6582  75.7703  75.7703  78.4728  78.4728
    78.4728  81.6459  81.6459  81.6459  83.8392  87.8614  87.8614  87.8614
    88.5206  88.5206  91.8231  91.8231  91.8231  94.2884  94.2884  94.2884
    96.4585  96.5747  96.5747  96.5747  96.5763  96.5763  99.0046  99.0046
    99.0046 100.1558 100.1558 100.4505 100.4505 100.4505 101.5592 101.6835
   101.6835 101.6835 103.0512 103.0512 103.0512 104.6334 104.7179 104.7179
   104.7179 105.4552 105.4552 105.4552 105.5814 105.5814 105.7823 106.8677
   106.8677 106.8677 113.4551 115.8628 115.8628 115.8628 118.2507 118.2507
   118.2507 118.6024 118.6024 120.2241 120.2241 120.2241 121.1212 121.1212
   121.1212 122.0554 122.0554 122.0554 122.9735 122.9735 123.5236 127.4281
   127.4281 127.4281 131.1012 131.1012 131.9204 134.1278 134.1278 134.1278
   135.4889 135.4889 135.4889 135.7714 136.9345 136.9345 136.9345 137.2569
   138.3824 138.3824 138.3824 138.5633 138.5633 138.5633 139.5194 139.5194
   139.5194 140.5323 140.5323 140.5323 141.4229 141.4229 145.5929 145.5929
   145.5929 146.9812 150.5370 150.5370 150.5370 153.7901 153.7901 154.3490
   154.3490 154.3490 156.0461 163.6880 163.6880 163.6880 166.8186 166.8186
   166.8984 166.8984 166.8984 167.8057 171.0234 171.0234 171.0234 171.8307
   171.8307 171.8307 173.2056 173.2056 173.2056 174.3853 174.3853 174.3853
   175.8366 175.8366 176.0862 177.4346 177.4346 177.4346 177.4650 177.4650
   177.4650 178.4302 178.4302 178.4302 178.8104 178.8104 179.5231 179.5231
   179.5231 180.0697 180.0697 180.0697 180.3501 180.4366 180.5876 180.5876
   180.5876 180.9978 180.9978 180.9978 181.4544 181.4826 181.4826 182.7519
   182.9637 182.9637 182.9637 183.4974 183.4974 186.1229 186.1229 186.1229
   186.5108 186.5108 186.5108 186.7123 186.7123 186.7123 187.1152 187.1152
   187.2837 187.2837 187.2837 188.3191 188.3191 188.8449 188.8449 188.8449
   194.4041 194.4041 194.4041 194.6079 199.8071 199.8071 200.5713 200.5713
   200.5713 203.6007 203.6007 203.6007 203.8407 203.8407 203.8407 204.4610
   204.4610 204.4611 204.6779 205.6647 205.6647 205.6647 207.2380 207.2380
   207.2996 207.2996 207.2996 207.3891 207.8752 212.5853 212.5853 212.5853
   214.3701 214.3701 214.3701 215.8898 215.8898 215.8898 216.6162 216.6162
   216.6162 216.8843 216.8843 218.1677 218.1677 218.1677 219.5179 220.1673
   220.1673 220.1673 221.5712 221.5712 224.7319 224.7319 224.7319 225.3657
   225.9397 225.9397 225.9397 226.0972 226.0972 226.0972 226.2150 226.2150
   226.8745 226.8745 226.8745 228.5894 228.5894 228.5894 229.4662 229.4662
   235.4815 235.4815 235.4815 237.5086 240.8140 240.8140 240.8140 242.3902
   242.4647 242.4647 242.4647 243.2397 243.2397 245.9636 246.4274 246.4274
   246.4274 247.9630 247.9630 247.9630 248.7084 248.7084 248.7084 252.6412
   252.7632 252.7632 253.9419 253.9419 253.9419 254.8622 254.8622 254.8622
   256.4204 256.8504 256.8504 257.5491 257.5491 257.5491 258.1359 260.9575
   260.9575 260.9575 261.4494 261.4494 261.4494 261.6807 261.6807 261.6807
   261.8688 261.8688 261.8688 264.8581 264.8581 264.8582 266.1566 266.1566
   266.5241 266.5241 266.5241 266.5585 266.5585 266.5585 266.5603 266.5603
   266.5603 266.6047 267.5331 267.5331 267.5331 267.7622 268.8015 268.8015
   269.2916 269.2916 269.2916 270.3091 270.3091 270.3091 270.9379 270.9379
   271.2070 271.2070 271.2070 272.3295 275.2003 278.5597 278.5597 278.5597
   278.7450 278.7450 278.7450 279.6231 279.6231 279.6231 280.3633 280.3633
   280.3633 281.8418 281.8418 281.9657 281.9657 281.9657 285.1183 285.1183
   285.7958 285.7958 286.2936 286.2936 286.2936 286.4806 286.4806 286.4806
   286.5332 286.5332 286.5332 286.8964 286.8964 286.8964 288.0906 288.0906
   288.0906 288.3382 288.7768 288.7768 289.3492 289.3492 289.3492 289.8372
   289.8372 289.8372 290.1715 291.3215 293.1410 296.4784 296.4784 296.4784
   296.7447 296.7447 298.5746 298.5746 298.5746 298.6714 298.6714 298.6714
   299.1543 299.1543 299.1543 299.8395 300.4747 300.4747 300.4747 300.6489
   300.6489 300.6489 301.3980 302.9101 302.9101 302.9101 303.2122 303.2122
   303.3710 303.3710 303.3710 303.5884 303.5884 303.5884 303.7386 303.7386
   303.7386 303.8424 303.8424 304.1362 304.2633 304.2633 304.2633 304.5244
   304.5244 304.5244 304.8354 304.9785 304.9785 304.9785 305.0231 305.0231
   305.2370 305.2370 305.2370 305.2727 305.2727 305.2727 305.5588 305.5588
   305.5833 305.5833 305.5833 315.8299 315.8299 316.2457 316.2457 316.2457
   323.7797 323.7797 323.7797 324.4616 324.8194 324.8194 325.4528 325.4528
   325.4528 329.8396 332.4878 333.7253 333.7253 333.7253 335.9437 335.9437
   335.9437 336.0006 336.0006 336.8594 336.8594 336.8594 337.1976 337.1976
   337.1976 338.0182 338.0182 338.0182 340.1917 341.2437 341.2437 341.2437
   342.4965 342.4965 342.7061 342.7061 342.7061 344.1323 345.8590 347.9062
   347.9062 348.1017 348.1017 348.1017 348.5613 348.5613 348.5613 348.7399
   348.7399 348.7399 348.8850 348.8850 348.8850 350.8856 350.8856 350.8856
   351.1532 351.1532 351.1532 351.1586 351.1586 351.1586 351.2193 351.2193
   351.5621 351.5621 351.5621 352.0091 352.0091 352.0276 352.0276 352.0276
   352.0790 353.0849 353.0849 353.0849 354.0384 354.0384 355.4717 355.4717
   355.4717 357.6660 358.2101 358.2101 358.2101 361.8717 361.8717 362.5405
   362.5405 362.5405 364.5395 364.5395 364.5395 366.4174 367.5094 367.5094
   367.8496 367.8496 367.8496 367.9938 367.9938 367.9938 368.2591 368.2591
   368.2591 368.3252 368.3252 368.3252 368.5409 368.5409 368.5409 370.1188
   370.3630 370.3630 370.3630 370.4593 370.4593 371.4010 371.5351 371.5351
   371.5351 378.1397 378.1397 378.1397 378.7638 379.4278 379.4278 379.4278
   381.5459 381.5459 381.5459 381.8474 381.9792 381.9792 382.2735 382.2735
   382.2735 382.2738 382.2738 382.2738 383.2134 383.9949 383.9949 384.0547
   384.0547 384.0828 384.0828 384.0828 384.3336 384.3336 384.3336 384.4382
   384.4382 384.4382 384.4930 385.8765 385.8765 385.8765 386.0300 386.0300
   386.0300 386.0980 386.0980 386.0980 386.1930 389.7077 389.7077 389.9587
   389.9587 389.9587 390.7731 390.7731 390.7731 390.9030 390.9030 390.9030
   391.2162 392.7383 392.7383 392.7383 392.7804 392.7804 392.9291 392.9291
   392.9291 392.9340 392.9340 392.9340 393.0503 399.0393 399.0393 402.5146
   402.5146 402.5146 404.9922 404.9922 405.5307 405.7651 405.7651 405.7651
   407.5494 407.5494 407.5494 409.1555 409.1555 409.1555 409.6767 409.6767
   409.6767 410.4482 410.4482 410.4482 410.5467 410.5467 410.6206 410.6206
   410.6206 410.6869 410.8251 410.8981 410.8981 410.8981 413.9194 414.3856
   414.3856 414.3856 416.6507 416.6507 416.6507 417.2219 417.2219 417.2219
   417.4677 417.4677 417.4677 418.1537 418.1537 418.4774 420.4728 420.4728
   420.4818 420.4818 420.4818 421.5358 421.5358 421.5358 421.5946 421.5946
   422.9017 422.9017 422.9017 423.0080 424.7450 424.7450 424.7450 424.8025
   424.8025 424.8025 425.0752 425.0752 425.0752 425.2359 425.2359 425.7585
   425.7585 425.7801 425.7801 425.7801 426.7444 426.7444 426.7444 427.4175
   427.5883 427.5883 427.5883 427.9764 427.9764 427.9764 428.0664 428.0664
   428.0664 428.3423 428.3423 428.3423 428.3972 428.3972 428.3972 428.4291
   428.4609 428.9069 428.9069 428.9069 429.2998 430.1564 430.1564 431.0174
   431.0174 431.0174 431.1805 431.1805 431.1805 431.4047 431.4048 431.4048
   431.5226 431.5226 431.5451 431.5451 431.5451 433.8389 433.8389 434.0464
   434.0464 434.0464 434.4680 434.5249 434.5249 434.5249 434.7395 434.7395
   434.7395 434.8337 434.8337 434.8337 435.1185 435.1185 435.1185 435.2655
   435.2655 435.5016 435.5016 435.5016 435.6620 441.6121 441.6121 441.6121
   444.1146 444.1146 444.1146 444.4847 444.8066 452.2006 452.2006 453.8884
   453.8884 453.8884 453.9591 453.9591 453.9591 454.1000 454.1000 454.1000
   454.1713 454.1713 454.1935 454.1935 454.1935 456.6376 456.6376 459.9513
   459.9513 460.1300 460.8083 460.8083 460.8083 461.2870 461.2870 461.2870
   462.6758 462.6758 462.6758 463.1311 463.1311 463.1311 463.4582 463.4582
   463.4582 463.7681 463.7681 463.7681 464.6614 468.3313 468.3313 468.3313
   469.0487 469.0487 469.0726 469.0726 469.0726 469.2240 469.2240 469.2240
   469.3099 469.4305 469.4305 469.4305 469.4689 469.4689 469.4689 470.0353
   470.0353 470.0707 470.0746 470.0746 470.0746 479.0823 479.0823 479.0823
   483.1523 484.3478 484.3478 484.3478 484.6033 484.6033 485.5134 487.1122
   487.1122 487.1122 487.2994 487.2994 487.2994 488.5842 488.5842 488.5842
   488.6826 488.6826 488.9874 488.9874 488.9874 489.0811 489.0811 489.0811
   491.4062 491.4062 493.9530 493.9530 493.9530 494.1190 494.1899 494.1899
   494.1899 498.5138 498.5138 498.5138 499.3323 499.3323 499.7578 501.2323
   501.2323 501.2323 501.7603 501.7603 501.7603 502.2139 503.1159 503.1159
   503.1159 503.1605 503.1605 503.1605 503.9148 504.2070 504.2070 505.9113
   505.9113 505.9113 506.6511 506.6511 507.1380 507.1380 507.1380 507.4133
   507.4963 507.4963 507.4963 507.6374 507.6374 507.6374 508.7297 508.7297
   508.7297 509.0350 509.0350 509.0350 509.1455 511.2924 511.2924 511.5192
   511.5192 511.5192 511.5291 511.5291 511.6919 511.6919 511.6919 511.6996
   511.6996 511.6996 511.7533 511.7533 511.7533 512.5502 512.5502 512.6860
   512.8409 512.8409 512.8409 514.6932 514.7578 514.7578 514.7578 514.8229
   514.8229 514.8229 514.8523 514.8523 514.9078 514.9078 514.9078 517.3354
   517.3354 517.3354 517.4428 517.4428 517.5915 517.6011 517.6011 517.6011
   517.6022 517.6022 517.6022 520.8089 520.8089 524.5958 524.5958 524.5958
   524.7256 525.4944 525.4944 525.4944 527.0633 527.0633 527.0633 527.6042
   527.6042 528.0672 528.0672 528.0672 528.2139 529.8632 530.1016 530.1016
   530.1016 530.2964 530.2964 530.2964 530.4203 530.4203 530.4226 530.4226
   530.4226 532.2931 532.2931 532.2931 532.7969 532.7969 532.7969 532.9432
   532.9432 532.9432 533.3700 533.4848 533.4848 534.9209 534.9209 534.9209
   535.3705 535.3705 535.3705 535.4255 535.4255 535.4255 535.7056 535.7056
   535.7056 536.3385 536.3385 536.3626 536.3626 536.3626 536.4403 536.4403
   536.4403 536.5067 536.5067 536.5067 536.5859 538.5434 538.5434 538.5988
   538.5988 538.5988 538.6923 540.3950 540.3950 540.3950 540.8550 540.8550
   544.3963 545.9717 546.5823 546.5823 546.5823 546.9650 546.9650 546.9650
   547.0653 547.0653 547.0653 547.9823 547.9823 547.9823 548.3383 548.3383
   548.3383 548.6270 548.6270 548.9931 548.9931 548.9931 549.0134 549.0134
   549.3311 549.4049 549.4049 549.4049 549.6758 549.6758 549.6758 550.2546
   550.4736 550.4736 550.4736 550.8643 550.8643 551.1205 551.1205 551.1205
   551.3228 551.3228 551.3228 551.4033 551.4033 551.4033 551.4944 551.4944
   551.4944 551.5714 551.6834 552.2017 552.2017 552.2659 552.2659 552.2659

          k =-0.2500 0.2500-0.2500 (  2451 PWs)   bands (ev):

  -117.2570 -71.4297 -71.4297 -71.4297  -5.1267   1.3259   1.3486   1.3486
     1.7900   1.7900   4.7980   7.1731   7.1731  11.1585  14.6183  14.6928
    14.6928  18.6224  18.6224  19.8825  23.5971  25.9576  25.9576  27.8578
    28.6416  28.6416  30.2379  35.4499  35.4499  37.7913  37.7913  38.5075
    40.5446  41.5063  41.5063  43.2584  46.9606  46.9606  48.1278  48.5604
    48.5604  49.7013  49.7013  50.1082  50.1159  53.7200  53.7963  53.7963
    54.7485  55.9767  55.9767  57.8683  59.0404  59.0404  61.1392  61.4288
    61.4288  64.2775  64.2775  64.3400  65.1287  67.6304  68.6277  68.6277
    70.1242  70.1242  70.9996  70.9996  72.3121  73.4883  73.4883  74.3637
    75.5707  80.4129  80.4129  80.6727  83.0258  83.0258  86.1197  86.7184
    86.7275  86.7275  88.2733  89.3208  89.3208  90.0632  91.5356  91.5356
    92.0400  92.0400  92.6776  95.0034  95.4717  96.1280  96.1280  97.5399
    97.5399  97.8422  99.1726  99.1726 100.6361 101.3078 101.3078 101.6962
   102.6411 102.6411 103.3447 103.7210 104.3308 104.3308 105.8058 106.9068
   106.9068 109.3816 109.5308 109.5308 111.1614 111.1614 111.6201 112.6558
   112.6558 112.8436 113.6781 113.6781 114.1957 116.1745 116.5071 116.5071
   117.7433 118.1037 118.1037 119.7815 119.8669 120.5207 120.5207 121.7326
   121.7326 121.7941 123.4523 123.4523 124.8795 126.2194 126.2194 126.7650
   126.9213 126.9213 128.1975 129.0531 129.2208 129.2208 130.4755 131.8075
   132.2466 132.2466 133.0545 133.0545 133.2878 134.1256 134.1256 138.4713
   138.4713 138.5699 141.1960 141.1960 143.3256 143.5428 143.5428 144.4610
   145.6428 147.2426 147.2426 150.0881 150.0881 150.3074 150.8269 150.8269
   151.3724 151.6801 151.9573 151.9573 153.1313 153.1313 154.5744 154.9893
   155.3905 155.3905 156.8092 156.8092 158.0755 158.3516 159.3206 159.3206
   160.2091 160.4093 161.2160 161.2160 161.9571 161.9571 163.5132 163.5132
   164.6566 165.9791 167.2269 167.2539 167.2539 168.0038 168.6845 168.6845
   170.3844 170.3844 170.4278 172.2658 172.7008 172.7008 173.5879 173.5879
   174.1073 174.7925 175.6132 175.6132 175.8533 177.2284 177.2284 178.8490
   178.8490 179.8735 179.8735 180.0056 180.0539 180.7039 180.7039 180.7054
   183.0391 183.1305 183.4365 183.4365 184.1170 184.1170 185.0130 185.7096
   185.7096 185.9366 186.3211 186.4513 186.4513 188.2716 188.2716 189.3501
   189.3501 190.4193 191.1699 191.1699 192.7719 192.7719 192.7980 192.8258
   193.6654 193.6654 193.8511 195.0776 195.0776 195.5437 196.5301 196.5301
   196.6297 196.8877 196.8877 197.7844 198.1431 199.4596 199.4596 199.4823
   200.1650 200.1650 201.1936 201.1936 201.8887 202.6385 202.6385 203.4267
   203.6602 203.6602 204.9402 204.9402 204.9644 205.2362 207.1785 207.1785
   207.1909 209.5829 212.0710 212.0710 212.2013 212.6611 212.9039 212.9039
   213.4364 213.4364 214.4171 214.4171 214.7731 215.7943 215.7943 216.2432
   216.3325 217.9885 217.9885 219.3582 219.9692 219.9692 220.6952 221.1773
   221.1773 222.4240 223.3329 223.3329 225.8356 225.8356 225.9475 227.2228
   227.2228 227.3162 227.4839 229.5466 229.5466 229.8160 230.8063 231.1097
   231.1097 232.0914 232.0914 232.7130 233.0029 233.0029 234.7920 234.7920
   235.1703 236.7837 237.8230 238.2684 238.2684 239.9287 240.8926 241.1978
   241.1978 241.4386 241.9382 241.9382 242.6649 242.6649 243.0028 243.8565
   243.8565 244.2127 244.5322 244.7401 244.7401 245.3000 245.3000 245.9480
   246.2993 246.2993 247.2112 247.3151 247.3151 248.2382 248.2382 248.9685
   249.5866 249.5866 250.0024 252.8211 252.8211 254.0224 254.2888 254.2888
   255.6913 256.2625 256.2625 256.8697 256.9138 256.9138 259.0544 259.3678
   260.1562 260.1562 262.7992 263.4806 263.4806 263.9499 264.1410 264.1410
   264.8019 265.3283 265.3283 265.5731 265.8273 265.8273 266.8365 267.0711
   267.0711 268.8851 268.8851 269.1531 270.4873 270.5868 270.5868 272.0565
   272.3127 272.3127 272.7016 272.7016 272.7194 273.1140 273.1140 273.2095
   273.4391 273.4391 275.1183 275.2214 275.2214 275.4359 276.2368 276.3727
   276.3727 276.7556 276.8663 276.8663 277.9870 277.9958 277.9958 279.0373
   279.0373 279.2421 279.5459 280.9021 281.0866 281.0866 281.3581 281.8102
   281.8102 282.4416 282.4416 283.0477 283.5888 283.5888 284.3138 284.8230
   284.8230 286.2126 286.6620 286.7012 286.7012 287.5176 287.5176 287.7865
   289.3527 289.3527 289.9669 289.9669 290.0983 290.8211 291.2279 291.8799
   291.8799 292.7526 292.7526 292.9565 293.4336 293.4336 293.8600 293.8600
   293.8713 294.2498 294.3705 295.1574 295.1574 295.3673 297.5163 297.5163
   297.8484 297.8484 297.9019 298.1994 298.1994 298.2137 299.7319 300.5160
   300.5160 302.1497 303.0739 303.0739 303.5524 303.5524 303.9534 305.4093
   305.4093 305.7829 306.8428 306.9454 306.9454 308.3636 308.4174 309.2130
   309.2130 309.9546 309.9546 311.6110 311.6110 311.9055 312.0170 312.5834
   312.5834 313.0058 313.5812 313.5812 314.0144 314.0144 314.2991 315.8083
   315.8083 315.8871 316.3307 316.3885 316.3885 318.3486 318.3486 318.8948
   318.8948 320.2484 320.4881 321.1719 321.3363 321.3363 321.4398 321.6412
   321.6412 323.8828 324.5304 324.5304 325.4878 325.4878 325.8972 326.0996
   326.1908 326.1908 326.7382 326.8315 326.8315 327.7321 327.7321 328.0633
   328.8914 330.0610 330.0610 331.6614 332.3313 332.3313 333.0937 333.3323
   333.3323 333.8977 335.4575 335.4575 335.9146 335.9146 335.9912 336.5588
   336.6247 336.6247 336.6990 337.0691 337.0691 337.6197 337.6197 337.8760
   338.7020 339.0878 339.0878 340.4763 340.4763 342.4906 343.4051 343.4051
   345.1892 345.6992 345.6992 346.2214 346.9155 346.9155 347.7042 347.9058
   348.2467 348.2467 348.8680 349.9389 349.9389 351.2844 351.2844 351.5779
   352.5285 352.5285 352.7981 352.9760 352.9760 353.0402 354.5585 355.9142
   356.1412 356.1412 356.8306 356.8306 357.4071 357.7100 357.7100 357.8873
   357.8873 357.8958 359.1348 359.4387 359.4387 359.8024 359.8643 360.2163
   360.2163 360.5059 361.9794 361.9794 364.2464 364.2464 364.4907 364.6354
   364.6354 365.3927 366.6301 366.7593 366.7593 367.3740 367.7180 367.7180
   368.5039 368.5943 368.5943 369.1596 369.1596 370.2560 370.7276 370.9275
   370.9275 371.9051 373.2785 373.2785 373.5239 375.7633 375.7633 376.0651
   376.7409 376.7409 377.2335 377.2335 377.4933 377.5084 378.6113 378.6113
   379.3239 379.3239 379.4185 380.2582 380.2752 380.2752 380.3874 380.6701
   380.6701 380.7529 382.7367 382.7367 383.3365 383.3365 383.3663 383.9944
   383.9944 384.1317 385.5414 385.5414 385.6525 386.4988 386.9371 386.9371
   387.7889 387.7889 388.3788 388.3903 388.3903 388.7436 388.7436 388.7537
   389.9580 389.9659 389.9659 390.0997 390.4344 390.4344 390.6398 390.8201
   390.8201 391.4183 391.7650 392.0145 392.0145 392.5703 392.5703 392.9332
   393.1993 393.1993 393.6696 394.3579 394.3579 395.3610 396.2650 396.2650
   396.8734 397.7422 397.7423 398.0023 398.2607 398.4751 398.4751 398.8682
   398.9519 398.9519 399.5470 399.7571 399.7571 400.0304 400.0304 400.1847
   400.3003 400.3003 400.7535 401.2607 401.2607 401.6452 401.6640 401.6640
   401.7598 403.7444 403.9523 403.9523 405.9094 406.2238 406.2238 406.3782
   406.8716 406.8716 407.2028 408.1729 408.1729 409.0322 409.1691 409.1691
   409.2354 410.5436 410.5436 410.5811 413.2234 413.4321 413.4321 413.7295
   413.7295 414.1509 414.3413 414.3413 414.4428 414.5058 414.5058 415.1308
   415.1308 416.0978 417.5642 417.5648 417.5648 418.2633 418.2633 418.5478
   419.0894 419.0894 419.1290 419.3360 419.3360 419.8823 419.9160 420.3323
   420.3323 421.0033 421.0033 421.0734 421.3193 424.4739 424.4739 425.3749
   425.3749 425.6171 425.8450 425.8450 425.8870 426.2123 426.3205 426.3205
   427.6867 427.6867 427.8342 428.6707 428.6707 428.9272 429.2853 429.9530
   429.9530 431.6768 431.9864 432.2891 432.2891 433.1335 433.1335 434.5360
   435.0372 435.0372 435.6301 435.9268 435.9268 436.3375 436.3375 436.6162
   436.8942 437.7093 437.7093 438.3258 438.3258 438.5713 439.1317 439.5349
   439.5349 439.8075 439.8590 440.5592 440.5592 441.4132 441.4132 442.1074
   442.1074 442.2623 442.3220 442.9748 443.9795 443.9795 444.6263 444.6263
   444.8224 444.8319 445.2443 445.2443 445.4944 445.6745 445.6745 446.9500
   447.5477 448.0867 448.0867 448.5526 448.5526 448.7374 448.8903 448.8903
   449.4859 450.0737 450.0737 450.2218 450.3528 450.3528 450.5495 450.5495
   450.7203 451.4036 452.3684 452.3684 452.6859 452.6859 452.7035 452.9926
   454.9002 454.9002 455.2977 456.7010 456.7010 456.9150 457.4563 457.4563
   457.5346 457.6364 457.6364 459.5077 459.5077 459.6157 459.6494 459.7716
   459.7716 460.4987 462.0053 462.0053 463.8365 464.3391 464.3391 465.0428
   465.2802 465.2802 465.4860 466.8870 467.1809 467.1809 467.6920 467.6920
   468.7406 468.9081 468.9081 468.9840 469.1956 469.1956 470.5304 470.5304
   470.8101 472.4485 472.4485 473.2216 473.7342 473.7342 474.0428 474.2696
   474.2696 475.1700 478.1547 478.1547 479.1677 479.2261 479.2261 480.5865
   480.5865 480.6639 482.0845 482.6092 482.6907 482.6907 482.7661 482.7661
   483.1510 483.9206 483.9206 484.1875 484.1875 484.3395 484.7953 485.1931
   485.4501 485.9340 485.9340 486.5504 486.5504 487.1600 487.6141 487.7768
   487.7768 488.3720 488.3720 488.5358 489.8378 489.8378 490.1143 491.5799
   491.5799 492.5508 492.6844 493.3987 493.3987 494.1127 494.1127 494.3925
   494.3925 494.4990 494.6959 495.4563 495.4563 495.7162 496.0481 496.0481
   496.4347 496.4347 496.7857 496.7857 496.8228 497.4701 497.9619 498.0060
   498.0060 498.2799 498.2799 499.3074 499.9660 499.9660 500.2590 501.8590
   501.9103 501.9103 503.1104 503.1131 503.1131 503.3250 503.5959 503.5959
   503.6864 504.0416 504.0416 504.1827 504.3032 504.7588 504.7588 506.0579
   506.0579 506.4809 506.4809 506.6627 507.3874 507.3874 507.9619 510.1318
   510.2233 510.2233 510.8487 510.8555 510.8555 511.6450 511.7510 511.7510
   512.3382 512.6978 512.6978 512.8053 513.4265 513.4265 513.6772 513.7384
   513.7384 513.9552 514.2565 514.2565 514.7981 515.8326 515.8326 516.1019
   516.4034 516.4034 516.5560 516.9633 516.9633 516.9891 517.4149 517.4149
   518.1733 519.5515 519.7433 519.7433 520.2304 520.2304 520.4743 520.6520
   520.7719 520.7719 522.2043 522.2043 522.3758 522.4983 522.4983 522.6643
   523.0751 523.0751 523.1244 524.5020 524.5020 525.4704 526.0662 527.1341
   527.1341 528.2903 528.5176 528.5176 529.0849 529.0849 529.1414 529.2925
   529.2925 529.4383 529.5344 530.4868 530.4868 530.8675 530.8675 531.4769
   531.8341 531.8341 531.9154 531.9337 532.3461 532.3461 532.6730 532.7180
   532.7180 532.8636 533.1466 533.1466 533.5283 533.7352 533.7352 534.6270
   535.7653 535.7653 536.9177 537.1420 537.1420 537.8295 537.8295 538.0876
   538.7656 538.8090 538.8090 538.9064 539.2345 539.2345 539.6185 539.6949
   539.6949 540.0819 540.0819 540.3278 542.7866 542.7866 542.9498 543.0432
   543.0432 543.2198 544.1370 544.5668 544.5668 544.5911 544.9767 544.9767
   545.1479 545.2372 545.2372 545.4993 545.6457 545.8110 545.8110 546.8500
   546.8500 546.9969 546.9969 547.1293 548.7736 549.2999 549.3863 549.3863
   550.4990 551.7263 551.7263 551.8611 552.0923 552.0923 554.1560 554.1560
   555.0306 555.1636 555.1636 555.5039 555.5039 556.2307 556.2307 556.3867
   556.4624 556.4624 556.8524 557.0474 557.0662 557.1016 557.1017 557.4152
   557.4152 557.7228 558.3352 558.3655 558.3655 558.9307 559.1215 559.1215

          k = 0.5000-0.5000 0.5000 (  2452 PWs)   bands (ev):

  -117.2570 -71.4298 -71.4297 -71.4297  -4.6113   1.3974   1.3974   1.8196
     1.8196   1.9945   2.3013   6.7700   6.7700  10.9892  14.5931  14.5931
    16.5537  19.8565  21.0402  21.0402  23.0880  23.4236  23.4236  30.1066
    31.3952  31.3952  32.7729  33.9235  33.9235  36.9930  36.9930  38.4655
    38.9292  39.2524  39.2524  41.6432  42.8727  44.9399  44.9399  46.8089
    46.8089  47.1261  48.1296  53.3420  53.3420  53.4093  54.0760  54.0760
    56.6896  56.6896  57.8226  59.8020  62.1966  62.1966  62.3387  63.6917
    63.6917  64.5625  65.5497  65.5497  68.9066  68.9066  69.5264  71.2234
    71.2234  73.1234  73.6848  73.6848  74.6999  74.6999  75.1572  75.2157
    75.9661  78.5205  78.9097  78.9097  79.1208  79.1208  79.9069  82.4911
    82.4911  83.2054  84.9202  84.9202  85.7038  85.7038  87.8896  88.2324
    90.8446  90.8446  93.6049  95.8998  96.1448  96.1448  96.2346  97.8094
    98.2663  98.2663  98.5468  98.5468 100.7208 102.5475 102.5475 102.6817
   103.1922 103.1922 103.4052 104.6407 105.3565 105.3565 105.5257 105.8017
   107.1106 107.1106 107.3469 109.0491 109.0491 112.4854 113.1162 113.1162
   114.5894 114.8312 114.8312 115.7391 115.7391 115.9399 116.8241 117.3237
   118.3270 118.3270 118.6127 118.6127 119.7578 119.7990 119.7990 122.4141
   122.4141 123.2037 125.3670 125.3670 125.8793 127.2186 127.9321 127.9321
   129.4370 129.4370 129.9166 131.4466 131.4466 133.7644 133.7644 134.2292
   135.2571 135.3613 135.3613 135.8905 135.8905 137.7561 138.0323 138.0774
   139.5629 139.5629 140.9556 140.9556 141.2344 141.2344 141.5221 143.6078
   144.0384 144.4512 144.4512 145.1632 145.1632 145.2045 147.8933 147.8933
   149.6936 151.2738 151.2738 151.9166 154.0286 154.0286 154.4439 155.2335
   156.0121 156.3851 156.3851 157.3474 158.8926 159.0191 159.0191 159.3003
   159.3003 161.0607 161.0607 161.4999 163.2048 163.2048 164.4776 164.9793
   165.3040 165.3040 165.8158 165.8158 166.5518 167.0651 167.0652 167.7273
   167.7273 167.8243 168.2460 169.3863 169.3863 170.3142 170.3142 171.2487
   171.8377 171.8377 172.3070 173.3679 174.0278 174.0279 175.6684 175.6684
   175.9550 176.5977 177.2154 177.2154 178.4056 178.4056 178.5347 178.5347
   179.1323 180.6696 180.9940 180.9940 182.7559 184.5455 185.5363 185.5363
   186.3268 186.8482 186.8482 187.5076 188.4521 188.4828 188.4828 189.3450
   189.3450 189.6344 189.8109 189.9461 189.9461 191.1947 191.1947 192.0512
   192.2639 192.8192 194.9706 194.9706 196.3890 196.9657 196.9657 197.2207
   199.3641 199.6095 199.6095 200.2429 200.2429 201.0608 201.0608 201.5565
   201.6804 201.6804 201.7007 203.3403 203.3403 203.7045 204.7257 204.7257
   210.0369 210.0369 210.4163 211.4498 212.5406 212.5406 213.0436 213.0436
   214.2941 214.5344 214.5344 215.3498 216.0483 216.0483 216.2439 217.1273
   217.1273 217.2485 218.4430 218.4599 218.4823 219.6895 219.6895 220.0918
   220.4728 220.4728 221.3662 222.4332 222.4332 222.8109 222.8109 224.3630
   224.3630 224.6363 224.6822 224.8416 224.8416 225.1898 225.1898 226.0957
   227.6034 228.6475 228.6475 228.7611 228.7611 229.1450 229.4886 229.4886
   229.5840 229.9174 229.9174 230.1437 230.1437 230.1743 231.2853 231.3031
   231.9967 231.9967 234.0961 234.0961 235.0210 236.7599 239.2210 239.2210
   239.5748 239.5748 239.9898 240.2919 240.2919 240.7222 241.3315 241.3315
   241.4432 242.2139 242.2139 243.0831 243.8527 243.8527 244.7908 244.7908
   245.4506 245.8712 245.9478 245.9478 246.4711 247.3219 247.3219 248.0018
   249.1837 249.6169 249.6169 250.8211 250.8211 251.2137 251.2137 251.4040
   251.5302 251.5302 251.5420 253.2700 253.2700 254.0040 257.0913 257.1569
   257.1993 257.1993 258.2900 258.2900 258.7225 258.7225 259.4064 259.4809
   259.7744 262.0687 262.0687 263.2403 263.3295 263.3295 264.3968 264.5852
   264.5852 264.8599 266.8745 267.4305 267.4305 268.4524 268.4524 268.6205
   269.5362 269.7307 269.7307 270.3478 270.3866 270.3866 272.0340 272.9266
   272.9267 273.1392 273.1392 274.2532 275.4205 275.4205 276.3451 276.5840
   276.5840 278.1794 278.1794 278.4821 278.4821 278.5948 279.8012 280.0268
   280.7964 280.7964 281.0151 281.3706 281.3706 281.5407 283.9328 283.9328
   284.2564 284.2564 285.2050 285.2050 285.5045 287.5759 287.5759 287.6145
   287.9080 287.9080 288.2059 288.5690 288.5690 288.5800 289.1698 289.1698
   289.1837 289.3652 289.3652 290.9104 291.5462 292.5857 293.4474 293.4474
   293.8279 294.1234 294.1234 294.5373 294.7102 294.7102 295.2117 295.2317
   295.2317 295.2602 296.6277 296.6277 297.1494 297.1494 300.1782 300.5641
   300.5641 301.4581 301.6319 302.7070 302.7070 302.9350 303.6420 303.6420
   304.3950 304.3950 304.9155 305.4261 306.6177 306.6177 307.1029 307.6133
   308.2923 308.2923 308.8048 308.8048 309.2967 309.9219 309.9219 310.0870
   310.3952 311.1070 311.1070 311.4853 311.4894 311.4894 313.5330 313.5330
   314.6483 315.6666 316.3398 316.3398 317.5185 317.7762 317.7762 318.0586
   320.2649 320.2649 321.4323 321.4323 321.5758 321.6868 322.6090 322.6090
   322.9019 323.0491 323.0588 323.0588 323.4086 323.4086 323.4685 323.7268
   323.7268 323.8061 323.8757 323.9104 323.9104 324.4588 325.3557 325.3557
   325.4633 325.4633 325.7538 325.7538 325.8555 326.1486 326.1486 326.3984
   328.1063 328.3178 328.3178 329.9231 329.9301 329.9301 330.1311 330.2676
   330.6644 330.6644 332.0907 332.0907 332.2633 332.6063 332.6063 333.0330
   333.1242 335.1420 335.1420 336.5965 336.6179 336.6179 336.7475 337.5914
   338.7133 338.7133 340.5489 340.5489 341.6624 341.6624 341.7987 342.3773
   343.6816 343.6816 344.3446 344.3446 345.0817 347.9642 347.9642 349.1518
   349.1518 350.1816 350.8620 351.0060 351.0060 351.1867 351.1867 351.5151
   351.5151 351.5266 352.0982 352.1532 352.3261 352.7069 352.7069 353.3804
   353.3804 354.2052 354.3594 354.3594 355.2571 355.2798 355.4448 355.4448
   355.9784 355.9784 356.8775 357.6555 357.6555 357.9139 358.8629 358.9716
   358.9716 360.1946 360.1946 361.2155 362.9564 362.9564 364.3174 364.7403
   364.7403 364.9977 364.9977 365.3869 365.4110 365.8348 365.8348 366.6052
   367.7341 367.7341 368.0208 368.5683 369.4368 369.4368 369.5182 370.5567
   370.5567 370.7930 372.5734 373.1269 373.1269 374.0984 374.0984 374.1088
   375.4062 375.4062 375.4431 375.4431 375.6472 375.6472 376.3022 377.3669
   377.4733 378.0723 378.6761 378.6761 379.0781 379.0781 379.7896 379.7896
   379.8472 380.3809 380.3809 380.3875 381.2352 381.2352 382.8121 382.9105
   382.9105 383.0765 383.0765 383.1336 383.4966 383.4966 384.1264 384.4738
   384.8726 384.8726 385.3135 385.3736 385.4195 385.4195 385.7436 385.7436
   387.4968 387.6714 387.6714 387.7634 387.9208 388.7371 388.7371 389.7109
   389.7109 390.0357 392.7351 392.7351 393.3399 393.5090 393.6586 393.6586
   394.9112 394.9753 394.9818 394.9818 395.6744 395.6744 395.9866 396.0294
   396.0294 396.9147 397.0363 397.0363 397.9681 397.9681 398.3629 398.8772
   398.8862 398.8862 399.5647 399.5647 399.5895 399.6255 399.6255 399.7580
   400.8923 400.8923 402.4932 403.6381 403.6381 404.5931 404.9683 404.9683
   405.4538 405.7815 405.8323 405.8323 405.9126 405.9126 406.0720 406.0826
   406.9018 407.0527 407.0527 407.2399 408.2853 408.2853 409.4427 409.7169
   409.7169 410.6690 410.6690 410.7192 411.8113 411.8114 411.8575 412.1037
   412.1037 412.5759 412.8645 412.8645 413.0819 413.0819 413.3571 413.3571
   413.5386 413.5538 414.0017 415.7911 415.7911 416.5613 416.7992 416.7992
   417.1180 417.4430 420.8846 420.8846 422.9504 422.9504 423.6030 424.5855
   424.6972 424.6972 425.0102 425.1258 425.1258 425.4663 426.0729 426.0729
   427.0498 427.0498 427.6584 427.6584 428.5523 428.5523 428.5604 430.5213
   430.5213 431.2068 432.1819 432.6241 432.6241 433.1399 433.3887 433.3887
   433.7648 433.7648 434.1663 434.3246 434.3246 434.3514 434.3708 434.3708
   434.5101 434.7743 434.8035 434.8790 434.8888 434.8888 434.9268 434.9268
   437.2339 437.2339 437.3533 437.4557 437.4557 437.5180 439.2420 439.2420
   441.0523 441.4152 441.4152 441.9402 445.4226 445.4226 445.6919 445.6919
   445.7633 445.7855 445.7855 445.7994 447.2252 447.2252 447.3554 447.5076
   447.6806 447.6927 447.6927 448.4692 448.6072 448.6072 449.0878 449.3543
   449.3543 449.4751 450.1335 450.1335 450.2217 450.2217 451.0135 451.0135
   451.0623 451.1779 451.4596 451.5789 451.5789 451.6202 451.6765 451.6765
   455.7727 455.7727 455.9766 455.9766 456.3890 456.3911 456.4784 459.0411
   459.0411 459.7230 460.2236 460.2236 461.6298 462.0492 462.1210 462.1210
   463.3697 463.3697 463.9972 463.9972 464.9845 465.2717 465.4275 465.5198
   465.8818 465.8818 466.1164 466.1164 466.6085 466.6085 467.2885 467.2885
   467.8695 467.8996 468.3957 468.3957 468.4180 468.8459 468.9628 468.9628
   470.7511 470.7511 470.9162 471.4996 472.0132 472.0132 472.3011 472.8879
   472.8879 473.1504 474.7570 474.7803 474.9961 474.9961 475.4691 475.4691
   475.7897 475.7897 475.9365 476.1683 476.3186 476.3186 477.0979 477.0979
   477.2413 477.2413 477.5599 477.5800 478.6963 478.6963 478.7669 478.7819
   478.7819 478.8436 478.8436 478.9099 478.9276 478.9276 478.9764 479.0704
   482.8046 482.9929 482.9929 484.4858 484.4858 484.9087 484.9477 484.9477
   485.1517 486.3446 486.3446 486.8178 486.8178 487.3262 487.5542 487.6881
   487.7843 487.8153 487.8543 487.8543 488.1959 488.1959 488.2488 488.2488
   488.6346 489.9612 489.9612 491.9222 492.5221 493.3892 493.7432 493.7432
   494.2203 494.2203 494.5265 494.5695 494.5695 494.8162 495.9754 495.9754
   496.5579 496.5579 496.8656 496.8656 497.2724 497.2724 497.3595 497.4494
   498.0305 498.0305 499.1215 499.1547 499.1547 499.3183 499.8603 499.8603
   499.9980 500.5572 500.5682 500.5682 501.4525 501.7699 501.7699 503.7895
   503.7895 503.9555 504.4570 504.4570 504.7892 504.7892 504.9150 504.9150
   505.0159 505.2417 505.7422 505.7422 506.0546 506.0643 506.0643 506.0970
   506.3136 506.4143 506.4143 506.5427 507.1328 507.1518 509.1054 509.1054
   509.5455 509.5455 512.7513 512.7513 512.7702 512.7702 513.8403 513.8409
   514.1158 514.1158 514.3933 514.7244 514.7419 514.7419 516.9642 516.9642
   517.2107 517.3623 517.3623 517.4265 519.6123 519.6123 521.5850 523.1683
   523.5683 523.5683 524.3920 524.3920 525.5840 525.8251 525.8251 526.0379
   526.0379 526.2508 526.5122 526.8744 526.8744 527.0442 527.1970 527.3600
   527.3600 527.5051 527.5051 527.5493 527.6865 527.6865 527.8759 528.1566
   528.1566 528.3705 528.7838 529.3296 529.4768 529.4768 529.7412 529.7412
   529.8961 530.7106 530.7106 531.1243 531.4571 531.4571 532.7524 532.8773
   533.4375 533.4375 533.5578 533.6348 533.6348 533.6606 533.8576 533.8576
   533.9663 534.1450 534.1450 534.2021 534.2021 534.2725 534.5069 534.5475
   534.5475 534.8900 535.1424 535.1424 535.1639 535.2528 535.3492 535.3492
   540.2915 540.2915 540.4791 540.4791 540.8064 540.8169 540.8488 540.8488
   540.9573 540.9573 541.3950 541.3950 541.4907 541.7629 541.8150 541.8150
   542.0755 542.0755 542.1248 542.1276 542.1276 542.1326 544.7003 544.7003
   545.9931 546.1194 546.1194 546.2969 550.9612 550.9612 551.2112 551.2184
   551.2184 551.2571 554.2580 554.2580 554.8469 554.8469 555.1074 555.5548
   555.6646 555.7091 555.7091 555.9494 556.2833 556.2833 558.0464 558.0464
   558.3092 558.3210 558.3210 558.6790 558.6790 558.9790 559.0947 559.0947
   559.2546 559.3310 563.9690 563.9690 564.9077 565.6300 566.0454 566.4032

          k = 0.0000 0.5000 0.0000 (  2429 PWs)   bands (ev):

  -117.2570 -71.4297 -71.4297 -71.4297  -4.9831   1.2263   1.4297   1.4297
     1.7481   1.8267   5.0718   6.3959   6.3959  12.1498  12.2554  16.2291
    16.2291  16.4966  20.1641  23.5252  24.3534  24.4975  24.4975  27.5711
    27.5711  29.6384  31.2389  32.1978  34.4390  37.9381  38.6583  38.6583
    40.8580  40.8580  42.7549  43.5855  44.7568  46.3566  46.3566  48.8228
    48.8228  48.8265  50.8046  51.8680  51.8680  51.8834  53.6106  54.2109
    55.0220  56.1518  56.1518  57.3476  59.8252  60.0082  60.0082  60.2270
    63.2680  63.2723  63.2723  63.8900  64.2778  68.2084  68.9538  68.9538
    70.7842  71.8394  71.8394  72.5053  74.8897  76.1720  76.1720  76.7626
    77.8764  80.8982  81.2243  81.9724  81.9724  82.1514  82.9975  82.9975
    83.9984  85.2393  85.4599  85.4599  86.9210  87.9536  89.0786  89.0786
    91.9596  92.8554  93.1569  93.1569  94.0243  96.4018  96.4018  97.8004
    97.8470 100.0749 100.7794 100.7794 101.7043 101.7043 102.1835 102.6002
   102.7043 103.2843 103.6641 103.6641 105.1888 105.6186 106.2605 107.5205
   107.6450 107.6450 110.1829 110.5374 110.5374 110.8146 110.9277 112.2212
   112.4735 112.4735 113.0642 113.5938 114.7340 114.7340 114.9303 115.7057
   115.8738 115.8738 116.7800 116.7800 117.3472 117.4482 122.2088 123.4233
   123.7766 123.7766 125.0063 125.1749 125.1749 125.4758 126.4000 128.2380
   129.8712 129.8712 129.9670 131.5440 131.5440 132.3864 133.0811 133.0811
   133.1631 133.3218 134.9982 134.9982 135.2248 135.6873 138.0415 138.7981
   139.1058 139.1058 141.0733 141.0733 142.9099 142.9216 143.0954 143.7495
   143.7495 145.5870 145.7672 146.4795 147.4549 147.4549 148.3666 148.6632
   150.6437 150.8496 150.8496 151.5604 153.8496 154.3612 154.3612 154.9436
   155.6588 155.6588 155.7827 157.0811 158.0663 158.0663 158.2733 158.3668
   159.8366 159.8366 159.9283 161.9050 161.9050 161.9593 162.4576 164.0970
   165.4751 165.5336 165.5336 166.9908 167.4365 167.4478 167.4478 168.2182
   168.2182 168.7862 170.3745 170.8695 171.2338 171.9591 172.6635 172.6635
   174.3666 174.3666 174.9435 175.1068 175.2976 175.2976 175.3059 176.6116
   176.6116 176.6837 177.7043 178.1968 179.3478 179.3478 180.9896 181.3521
   181.3521 181.5098 182.5442 183.5538 183.6817 183.6817 185.3277 185.3277
   185.4960 186.3404 186.5823 188.9740 189.4761 189.6155 189.6155 190.2552
   191.8560 191.8560 191.8955 193.8464 193.8464 194.3195 194.5347 194.9392
   194.9595 194.9595 195.9397 196.2614 197.0080 197.6565 198.1740 198.1740
   199.1177 199.1177 199.6947 200.4669 200.4669 201.0355 201.7500 202.0120
   202.8567 202.8567 203.2875 203.4817 203.6016 203.6016 204.1243 204.8742
   204.8742 204.9532 205.5337 205.5337 205.5669 205.9163 206.9895 207.4747
   207.6748 207.6748 208.3677 209.4043 209.8724 209.8724 210.5811 210.7469
   212.3691 212.3691 213.5169 215.0355 215.2989 215.5789 215.5789 216.1559
   216.2591 216.2591 216.3654 216.6266 218.8344 218.8344 218.9624 219.4014
   221.1986 221.1986 222.2673 222.6351 223.2941 223.6842 225.4634 226.5572
   226.5572 227.2769 228.0182 228.0182 228.2498 229.3090 229.3090 229.6131
   230.6040 231.6636 232.5825 232.5825 235.7022 236.1035 236.1035 236.1099
   237.9899 238.6729 238.6729 239.2475 239.4818 239.6049 239.6049 239.7420
   239.9667 240.1600 240.1600 240.5759 241.4603 242.6239 242.6239 243.0474
   243.2303 244.0666 244.0666 244.3061 245.6305 245.8714 245.8993 245.8993
   247.4964 247.4964 247.6927 250.5690 250.5690 250.8167 251.4713 252.2316
   252.9746 252.9746 254.2982 255.4611 255.5427 256.3077 256.3077 256.7762
   256.7762 257.2480 257.3326 257.3326 257.4289 257.6750 259.3502 260.1514
   260.1514 260.3411 261.5379 262.7266 262.7616 262.7616 262.9875 263.7503
   263.7631 263.9322 263.9322 264.5746 265.1250 265.1250 265.1287 265.2441
   266.2340 266.3041 266.3041 267.3584 267.3584 267.6568 268.3931 268.4187
   268.4187 268.4538 268.7735 269.3137 269.7748 269.7748 270.1256 271.3229
   271.3229 271.7635 271.8838 272.1099 272.1099 272.1104 272.1364 272.6100
   273.4025 273.4690 273.4690 274.1843 275.1438 275.1438 275.8069 277.7809
   277.8335 277.8335 278.2200 279.5329 279.5329 279.8203 280.0477 280.2995
   281.6287 284.0314 284.0314 284.3112 284.6543 285.5588 285.7679 285.9466
   285.9466 286.8379 287.0216 287.1378 287.1378 288.3662 289.0030 289.0030
   289.0960 290.0988 291.0299 291.0299 291.1331 291.7434 291.9814 292.1796
   293.1240 293.1240 294.7310 294.7310 294.8849 294.9555 296.6454 297.3388
   297.3388 297.8023 297.9158 297.9158 298.5886 298.6192 298.6192 299.1750
   299.2553 299.6405 300.2923 300.6086 300.6086 301.4368 301.4368 302.2066
   302.3864 303.1437 303.1437 304.4409 304.8815 305.0590 305.4975 306.0516
   306.0516 306.8232 306.8232 307.6130 307.9359 308.0764 308.0764 308.7180
   309.2773 309.2773 310.0404 311.6462 311.8235 311.8235 311.8475 312.8555
   313.2705 313.6127 313.6778 313.6778 316.2785 317.2874 317.2874 317.7092
   317.7568 318.2942 318.3668 318.3668 318.9074 319.1061 319.4171 319.4172
   319.7353 320.1417 320.1417 320.1658 320.7059 320.8907 320.8907 321.0897
   321.1692 323.8906 323.8906 324.0024 325.0405 325.7694 326.0062 326.0062
   326.8766 326.8766 326.9624 327.8281 328.6210 328.8712 329.1368 329.1368
   330.5017 330.7554 330.8851 331.3096 331.3096 331.5099 331.5099 331.5919
   332.1179 332.1491 333.3247 333.3563 333.3563 333.6763 333.6763 333.7415
   333.8049 335.4991 335.4991 335.6666 336.2341 337.2207 337.2207 337.9398
   340.5543 341.3614 341.3825 341.3825 342.1541 344.1539 344.1539 344.4834
   345.0641 346.5149 347.7155 347.9675 347.9675 348.1044 348.7160 348.7160
   349.6832 349.6832 349.7210 349.8269 350.1060 350.9822 350.9822 352.3338
   352.6166 353.5035 353.5903 353.5903 354.6546 355.0141 355.0141 355.1195
   355.2442 355.9327 355.9327 356.6500 356.8784 356.8784 357.4025 357.6588
   358.3162 358.8771 358.8771 359.8693 359.9339 360.2156 360.6385 360.6385
   360.6731 360.9485 360.9864 360.9864 361.5640 362.2050 362.2050 362.4562
   362.9471 363.3881 363.3881 363.6426 363.9538 364.5630 364.5746 364.5746
   364.6109 365.8753 366.2946 366.7561 368.4325 368.4325 369.3456 369.3456
   370.3361 370.4068 370.8812 370.8812 371.0783 371.5670 372.4445 372.9254
   372.9254 373.9496 374.7562 375.4948 375.4948 376.6139 377.1527 377.1527
   377.9391 379.1574 379.8539 380.1361 380.2670 380.2670 380.7571 381.1849
   381.1849 381.2202 381.3279 381.7769 381.8159 381.8748 381.8748 383.1352
   383.1352 383.2684 384.3996 384.3996 384.5135 384.7986 385.1626 385.1650
   385.1983 385.1983 385.7870 386.3314 386.3314 387.2217 388.1955 388.9086
   388.9086 389.0212 389.5214 389.5214 389.8557 390.1432 390.2963 390.4021
   390.4528 390.4528 391.1213 391.1213 391.2917 391.5596 391.5834 391.5834
   392.9893 394.1795 394.1795 394.5778 394.6912 395.3608 395.3608 395.4783
   395.7300 395.8255 396.8584 396.8584 398.1022 398.1022 398.1990 398.5244
   399.4337 399.7701 400.8644 401.2534 401.2534 403.1878 404.7165 405.1836
   405.1836 406.0652 406.1213 406.6254 406.6254 406.6764 407.5685 407.5685
   407.8303 407.9646 408.6362 409.3503 409.3503 409.7889 410.2107 410.3930
   410.3930 410.4650 411.0225 411.0225 411.3461 411.4451 411.4451 411.7059
   411.7598 411.8046 411.9220 411.9220 413.0816 413.2368 413.3953 413.3953
   413.7250 413.7979 414.9749 415.3717 415.3717 416.2237 416.7903 417.0387
   417.4480 417.4480 417.5679 417.7843 417.8794 417.8794 418.1060 418.2998
   418.6754 418.6754 418.9763 419.0314 419.0314 419.1341 420.2807 420.3827
   420.3827 421.6895 422.4982 422.4982 422.6572 423.0426 423.0426 423.2997
   423.6271 423.6271 423.7030 423.8424 423.9635 424.1118 424.1118 424.1532
   424.5636 424.6777 424.6777 424.7004 424.8460 425.7420 426.0632 426.0632
   426.1313 428.3005 428.8831 428.8831 428.9470 429.2015 429.3113 429.7044
   429.7044 431.6385 432.7727 432.9271 432.9271 432.9824 433.2604 433.2604
   433.5156 434.0322 434.0322 434.1384 434.2589 436.3879 436.5927 436.5927
   436.6730 440.2635 440.6016 440.6016 442.2086 444.5705 444.5734 444.5734
   445.3767 445.7964 446.3627 446.3627 446.8843 446.9569 446.9672 447.0066
   447.0066 447.5502 448.1473 448.2221 448.3339 448.3339 449.0780 449.4345
   449.4345 449.5485 449.9561 450.0829 450.1572 450.1572 451.3030 451.3030
   451.9876 453.0097 453.9655 453.9655 454.2631 454.7211 454.7211 455.3213
   455.6892 456.4246 456.4246 456.4994 456.5686 457.5882 457.9795 457.9795
   458.4554 459.2285 459.9575 460.8034 461.1867 461.1867 461.5211 462.5302
   462.5302 462.5786 462.9134 463.0871 463.0871 463.3186 463.6865 463.6865
   464.1585 464.2720 464.5546 464.6068 464.6417 464.6417 464.9667 465.5155
   466.4296 466.8211 466.8211 467.7693 467.9197 467.9197 468.9234 469.6199
   469.6872 470.3514 470.4513 470.5388 470.5388 471.0069 471.0069 471.5592
   471.7905 471.9043 472.0683 472.0683 472.1829 472.1829 472.4780 472.8702
   472.8702 473.0117 473.4120 473.8167 474.7386 475.7044 476.3890 476.3890
   476.8740 476.8740 477.3061 477.5079 477.5870 477.5870 477.6491 480.5816
   481.5259 481.5259 481.9339 482.0769 482.0769 482.4322 482.4947 482.5018
   483.1683 483.3254 483.3254 483.3713 483.8466 483.8466 484.4713 484.4713
   484.5782 484.7272 484.7326 484.7326 485.1632 486.3763 486.4514 486.4912
   486.4912 486.5562 486.7631 486.7631 487.0035 487.5779 488.9724 489.1623
   489.1623 489.2163 489.9394 490.5181 492.0999 492.0999 492.3355 492.5489
   492.6885 492.6885 492.7869 493.3896 493.5264 493.5264 494.0579 494.9878
   495.1879 495.1879 495.4055 496.8287 499.4582 499.4582 500.4535 500.5770
   501.2542 501.2542 501.7146 503.2164 503.2595 503.2595 503.8390 504.1216
   504.1216 505.1793 505.5158 506.1855 506.1855 506.4869 506.6639 506.7667
   506.7667 507.1820 507.8386 508.0111 508.4621 508.4621 508.9883 509.1527
   509.4680 510.0948 510.0948 510.2605 510.6950 510.6950 511.6417 512.3733
   512.3733 512.4510 513.0939 513.0939 513.3404 514.4729 515.5101 515.7132
   515.7132 515.7262 515.8555 515.8555 515.8923 515.9246 516.9010 517.0236
   517.0236 517.7579 518.1739 518.5784 519.1178 519.4857 519.4857 519.5013
   519.8294 520.2030 520.2030 520.8478 520.8478 520.9150 521.4842 521.4842
   522.3763 523.3312 523.3851 523.4218 523.9795 524.0230 524.0230 524.2713
   524.6840 524.6840 525.0575 525.2548 525.2567 525.2567 525.9945 526.1347
   526.1347 526.2413 526.7360 526.7360 526.9157 527.0853 527.6725 527.6725
   527.9507 528.3084 529.6968 529.6968 530.5635 530.8634 531.4791 533.0237
   533.0237 533.3900 533.4683 534.2079 534.3306 534.3306 535.1898 535.7242
   535.7242 535.9446 535.9995 536.0737 536.3067 536.3067 536.8583 536.8583
   536.9843 537.2960 537.7934 538.2618 538.2618 538.4296 539.0447 539.4352
   539.4352 539.9016 540.2454 540.7394 540.7394 540.8248 541.3462 542.2614
   542.9334 542.9334 543.8738 544.2421 544.5583 544.5583 544.6234 545.0964
   545.0964 545.4980 545.5597 545.9283 545.9283 546.0586 546.4651 546.4651
   546.4768 546.5155 546.8577 546.8662 546.9018 546.9018 546.9040 547.4494
   547.7343 547.7343 547.8539 547.8539 547.9510 548.0462 548.3457 548.3457
   548.3937 548.3970 549.7088 550.0422 550.0422 550.1154 550.5350 551.1567
   551.1567 552.4169 554.5721 554.8064 555.4381 555.4497 555.4497 555.7909
   556.2517 556.3815 556.3815 556.8073 556.9782 556.9782 557.3256 557.4629
   557.4629 557.5961 557.6910 557.8844 557.8844 558.0956 558.3977 558.7130

          k = 0.7500-0.2500 0.7500 (  2437 PWs)   bands (ev):

  -117.2570 -71.4298 -71.4297 -71.4297  -4.4647   1.3604   1.5113   1.6245
     1.8329   1.9551   3.1386   5.2244   6.0321  11.9969  13.6638  15.8172
    16.5234  19.4023  21.1571  22.5072  23.3990  23.8244  27.3484  28.5498
    28.7359  30.6694  31.8742  32.0233  33.3186  36.9069  37.3353  37.6728
    38.5869  39.5055  40.8642  40.9631  43.1719  44.2906  45.8074  47.1463
    47.3859  48.4113  49.7592  50.4809  50.9142  54.1125  54.3632  56.3144
    57.6464  57.6785  58.7691  58.9413  61.0168  61.5440  62.1889  62.4953
    62.9589  63.9692  65.5771  67.0631  68.4863  68.7382  70.4672  71.1701
    71.2073  71.9815  73.0234  73.9010  75.1027  75.4760  75.9641  76.3752
    77.2903  77.5846  78.4326  79.5327  80.8165  81.1715  82.7383  83.0487
    83.8574  84.5803  84.7489  85.2438  86.8509  87.0264  88.2711  89.3951
    89.7529  90.1904  91.5691  91.8887  93.2408  93.5227  94.5261  94.5634
    95.8987  96.8054  97.8073  98.4142  99.5426 100.5069 101.0255 101.6577
   101.6680 101.8281 102.8086 103.5427 104.1511 104.6654 105.0205 105.8484
   106.8065 108.6528 109.0627 109.9507 111.2682 111.4213 112.3175 112.6765
   113.6940 113.7128 114.9012 115.6682 116.4782 117.1790 118.0194 118.0906
   118.8162 120.0280 120.0732 121.3668 121.5035 121.5134 122.9961 123.9422
   124.0735 124.6391 125.4799 125.4865 127.4275 128.2450 129.1737 129.6745
   131.0383 131.2902 132.4651 132.5527 132.8431 132.8637 134.0916 134.4730
   135.3309 135.5954 135.9787 136.5731 136.5853 137.7831 138.5207 139.1112
   139.8274 140.5579 141.4252 141.6159 142.0242 142.3113 142.9263 143.0505
   143.4479 144.5851 144.9109 145.9632 146.4416 147.3097 147.3556 148.0209
   148.0982 149.0794 150.0461 150.0690 151.2979 152.4460 152.4552 153.2722
   153.6058 154.2899 154.3999 154.5919 154.6125 155.6502 157.3793 157.5667
   158.0499 158.8639 159.2221 159.7011 159.7020 160.8910 161.4894 162.4483
   163.3886 163.9110 164.5538 165.2709 165.9526 166.1170 166.7032 167.3028
   167.9401 168.5351 168.6767 169.1691 169.5505 170.9038 170.9907 171.6868
   172.5720 172.7017 173.6162 173.8121 174.4398 174.8459 175.3037 176.3898
   176.6306 176.6580 177.2416 178.4371 178.6208 178.9150 179.6091 179.7088
   180.8218 180.9417 181.3544 181.3914 182.8051 183.8975 183.9522 184.9755
   185.9596 186.3271 186.9617 187.4081 187.9989 189.1573 189.4889 189.7790
   190.0455 191.5971 192.5850 192.6713 193.5749 193.6560 193.8095 194.4304
   195.1859 195.6125 195.7656 197.0670 197.7473 198.2860 198.4305 198.8850
   199.4012 199.8188 200.6373 200.7846 201.8099 202.2785 202.5382 202.6558
   203.1417 203.7011 204.1126 204.5842 205.5559 205.8109 206.5468 207.1572
   207.4857 207.9587 208.7331 209.1998 209.7473 210.5563 211.2294 211.3204
   211.6895 212.3686 213.4146 213.9703 214.3235 214.4221 215.0583 215.6472
   215.8747 216.2507 216.4160 217.2255 217.4649 217.9653 218.5335 218.9415
   219.1795 219.4590 220.2870 220.7611 221.1923 221.6913 222.2817 222.7118
   222.9478 223.2292 223.6259 223.7229 224.2041 225.1455 225.9114 226.7732
   227.2015 227.5757 227.5919 228.2726 228.7492 228.9321 229.2200 229.9919
   230.2657 231.1791 231.3108 232.7983 232.8890 233.0546 233.7686 233.9310
   234.7272 235.4243 236.3844 236.5062 236.5099 236.9257 237.3906 237.9460
   238.3038 239.2824 239.3953 239.9779 240.2662 240.3582 240.8793 241.1386
   242.3228 242.5444 242.7850 243.6202 243.9234 244.5416 244.9095 245.1169
   245.7639 246.3713 246.6054 247.0213 247.6450 248.2596 248.6703 249.0081
   249.3283 249.4791 250.2419 250.6221 250.7279 251.0104 252.3063 252.3852
   253.2906 253.9509 254.3660 254.6938 255.4659 255.5020 255.6357 256.3428
   256.9956 257.3169 257.8649 258.0008 258.3398 258.8940 259.4523 259.7087
   260.3708 260.5203 261.1623 261.2119 261.5647 262.5474 263.1238 263.4243
   264.5909 265.2069 265.2581 266.2201 266.9569 267.2832 267.8045 267.8532
   268.5374 268.5532 269.0791 269.3605 269.8406 269.9925 270.3227 270.8811
   271.1757 271.1926 271.5548 271.7172 272.9838 273.0005 273.9042 274.2183
   274.9810 275.4645 276.0521 276.6335 276.7149 276.9697 276.9723 277.4284
   277.9350 278.8440 279.3351 279.9558 280.9180 281.2564 282.6367 282.8699
   283.2871 283.9986 284.0332 285.4673 285.8726 286.0613 286.2689 286.7439
   287.5569 287.5613 287.7041 288.2129 288.8082 289.3060 290.1689 290.2523
   290.4558 290.9968 291.3016 291.6771 292.2903 292.4818 294.0319 294.0531
   294.7458 295.1206 295.8178 296.0007 296.5478 297.0346 297.4186 297.4804
   297.8581 298.1389 298.6919 298.8233 299.6111 299.6599 300.2670 300.9069
   301.1876 301.5167 301.6203 301.9997 302.5414 302.8313 303.3120 303.7982
   304.3227 304.6130 305.9185 306.1399 306.4632 306.8861 307.3040 307.4967
   307.5714 307.9026 308.3968 308.9185 309.0936 309.5840 309.6520 309.8745
   310.1932 311.0682 311.2565 312.0704 312.0711 313.0092 314.1285 314.3628
   314.9420 315.4391 315.4777 316.4895 316.8938 317.4896 318.2021 318.2880
   319.1321 319.6305 319.8656 319.9490 320.8782 320.9193 321.2075 321.2809
   321.4844 321.7172 321.9074 322.6891 322.8923 323.3433 323.6686 323.8323
   324.2973 324.4491 324.6760 325.2411 325.5558 326.5348 326.6952 326.9748
   327.1283 327.8168 327.8378 328.1496 328.9347 329.3663 329.7777 329.8260
   330.1930 330.3793 331.0323 331.3064 332.1107 332.2404 332.9073 333.4827
   333.6446 334.0716 334.0946 335.4356 335.5980 336.7113 337.1022 337.3430
   337.8596 338.3507 338.4912 338.9998 339.1611 339.3443 339.7698 339.8326
   340.4352 340.6209 341.6133 341.8853 342.6743 342.7723 342.9591 343.6428
   344.2019 344.6690 345.0741 345.8488 345.9370 346.5518 346.6991 347.1103
   347.5190 347.9651 348.5151 348.5851 349.2130 349.6187 349.6895 350.0582
   350.1455 350.7781 351.0087 351.3655 351.6949 352.0954 352.3692 352.5796
   352.8209 353.0801 353.4496 353.4968 353.7119 353.8602 354.5635 354.9292
   355.1281 355.9315 356.3748 357.0797 357.4041 358.2743 358.4485 358.8317
   359.4084 360.0925 360.1023 360.6249 360.6410 361.2445 361.3256 361.8112
   362.0841 362.5003 362.5484 363.2192 363.4077 363.7935 363.9566 364.6141
   364.9926 365.1104 365.3779 365.7270 366.3418 366.6555 366.6864 367.1659
   367.3972 367.5699 368.3665 368.9502 369.7628 370.1011 370.3074 370.6831
   371.5692 371.9522 372.1379 372.4944 372.6363 373.1779 373.3363 373.5701
   374.3078 374.3642 374.6526 375.1710 375.6387 375.7138 376.2935 376.5967
   377.0597 377.5205 378.2796 378.8258 378.9712 379.2434 379.9329 380.1511
   380.9591 381.4695 382.0603 382.4662 382.7192 383.7554 384.4109 385.0367
   385.1852 385.6213 385.6304 386.2001 386.3094 386.6248 387.1651 387.2569
   387.5170 387.5439 387.9014 388.2787 388.4369 388.6611 388.7802 389.1113
   389.8669 389.8798 390.8208 391.2987 391.3619 392.1893 392.4664 392.8961
   393.1616 393.3321 393.5599 393.8559 394.4170 394.6642 394.7180 396.5932
   396.9028 397.3303 397.7366 398.1569 398.6039 398.7992 398.8509 399.1629
   399.7831 400.3742 400.9272 401.0409 401.5419 402.0693 402.3985 402.6424
   403.0465 403.1255 403.6150 403.8142 405.0316 406.2757 406.6329 406.7900
   407.5890 407.7771 408.4401 408.5801 408.6742 409.0321 409.3729 409.6781
   410.0389 410.1324 410.3008 410.3463 410.4922 410.5260 411.0322 411.8366
   412.1356 412.3581 412.5199 412.9412 413.5141 413.5604 414.0099 414.3458
   414.7212 415.1021 415.4303 416.0162 416.5707 416.9489 417.2612 417.5458
   417.5933 417.9876 418.1065 418.8578 419.4615 420.4577 420.5367 421.3213
   421.4036 421.6355 422.6153 422.8589 423.1729 423.5245 423.5846 424.1668
   424.3807 424.5063 424.6422 425.2067 425.3085 425.5199 425.8443 426.2339
   426.3666 426.6421 426.9358 427.3880 427.8020 427.9929 428.1802 428.3891
   428.9553 429.2574 429.5758 429.7478 430.4598 431.2069 431.6181 431.7069
   431.9151 432.6916 432.8392 433.1208 433.5110 433.5854 433.9304 434.4151
   435.2568 435.5417 435.5485 435.7958 435.8535 436.4573 437.6077 437.9619
   438.6971 439.0452 439.6098 440.3924 440.7485 441.3191 441.5971 442.6994
   443.3873 443.4377 443.7703 443.8067 444.1068 444.4142 444.9228 444.9727
   445.1638 445.4330 445.6279 445.8783 446.0049 446.1929 446.4258 446.8652
   447.4062 447.7824 448.0055 448.2299 448.4173 448.7930 448.7991 449.3752
   449.7354 450.5181 450.6834 450.9186 451.1051 451.3317 451.8154 452.3279
   452.4734 453.1522 453.6658 453.9899 454.5470 454.5726 454.9255 454.9857
   455.1603 455.8767 455.8774 456.5330 456.6145 457.1331 457.2250 457.3232
   457.7316 457.7573 458.7609 458.9332 459.7551 460.3183 460.6181 461.2088
   461.6272 461.6894 461.9376 462.4218 462.5100 462.5176 462.6873 463.0353
   463.0618 463.0652 463.3134 463.6317 464.1845 464.5954 465.7551 465.8246
   466.3344 466.4829 466.5253 466.9627 467.1521 467.5855 467.5950 467.9540
   468.4128 468.7543 469.6876 470.6138 470.7723 471.0950 471.0969 471.2218
   471.5551 471.6200 471.8727 471.9958 472.0204 472.6487 473.1769 473.4615
   473.5242 473.9504 474.4134 474.6976 474.7615 475.4169 475.6071 475.6534
   476.7989 477.7536 477.8783 478.1345 478.4300 478.6356 478.6527 478.9078
   479.4179 479.4928 480.0909 480.2465 480.6815 480.8744 481.3983 481.5942
   482.2596 482.8438 483.3489 483.8127 483.8322 484.1941 484.2557 485.3349
   485.3526 485.9833 486.0718 486.2872 486.9654 487.0029 487.5667 487.7465
   488.2502 488.2686 488.4385 488.7183 488.8326 489.1465 489.4636 489.7648
   489.8009 490.2425 490.3201 490.6148 490.7839 491.1617 491.6023 491.9189
   492.1371 492.5630 492.8780 493.1640 493.6522 493.8491 493.9492 494.3216
   494.3967 494.7152 494.8497 494.9792 495.2126 495.2471 495.5330 495.6494
   495.8227 496.1317 496.5093 496.7202 498.0790 498.8653 500.7828 501.0668
   501.2027 501.6832 501.7879 501.9834 502.4079 502.5424 502.8911 502.9848
   503.4038 503.8759 504.0927 504.5430 504.6355 505.3846 505.5115 505.7264
   506.0813 506.5448 506.8618 507.3320 507.4921 507.6292 507.7359 507.8877
   508.3878 508.7133 509.6401 509.8942 510.0183 510.2576 510.8795 511.2797
   511.5595 512.0930 512.4417 512.5267 513.6944 513.7298 513.8644 514.1932
   514.3892 514.4007 514.5446 514.6477 514.8178 515.3693 515.5412 515.5478
   515.9148 516.2768 516.5583 517.1251 517.6361 517.9416 518.2314 518.6194
   518.9425 519.7263 519.8236 520.3513 520.7417 521.3133 521.7658 522.3330
   522.8387 523.5309 523.8947 524.2064 524.2301 524.5704 525.0971 525.1208
   525.7089 525.9888 526.0701 526.3447 526.8841 527.2543 527.3717 527.6643
   527.7294 527.9300 528.2509 528.9879 529.5020 529.7528 529.9978 530.1692
   530.3301 531.3466 531.4644 531.5815 531.8207 532.2825 532.3815 532.5300
   532.7310 533.0554 533.5196 533.8350 534.2533 534.5400 534.8504 534.9092
   535.9239 536.2010 536.3149 536.8449 537.6554 537.7362 538.3641 538.8400
   539.1252 539.5738 539.7241 539.8462 540.6180 540.6964 541.2064 541.2171
   541.2572 541.6832 541.8450 541.9465 542.7386 542.8949 543.0142 543.1291
   543.3192 543.3319 543.6658 544.2649 544.7129 544.7664 545.1299 545.3310
   545.6490 545.7305 545.8661 546.5315 546.8217 547.1268 548.9688 549.4882
   549.5526 549.7670 550.2100 550.2244 550.8479 551.2742 552.0096 552.1605
   552.9062 553.1206 553.1695 553.3344 553.5637 553.7669 553.7949 554.0370
   554.3891 554.4327 554.4382 554.7663 555.4394 555.6242 556.1829 556.2307
   556.4804 556.6895 556.9746 557.1225 557.4189 557.8229 557.9748 558.5127
   558.6271 559.2991 559.3214 559.5034 559.6247 561.4753 561.5247 561.7716

          k = 0.5000 0.0000 0.5000 (  2437 PWs)   bands (ev):

  -117.2570 -71.4298 -71.4297 -71.4297  -4.6387   1.4049   1.4404   1.5596
     1.7732   1.8507   3.6706   5.1079   6.7323  12.5294  14.3440  14.9690
    15.5804  18.0506  20.9577  22.2835  23.2809  24.4463  26.6891  28.0698
    29.5296  30.1164  31.8989  32.7915  35.7249  36.3836  36.8813  37.2745
    38.5406  39.6683  40.2862  43.7001  44.4050  45.4039  45.8691  47.1877
    47.7667  48.1971  49.1373  49.5268  51.2587  51.2668  52.8933  56.8911
    57.0409  58.7689  58.9611  60.0060  60.3816  61.4706  62.7846  62.8899
    63.9162  64.0821  65.1784  66.0210  67.5686  68.7630  69.2706  69.7461
    70.9813  71.1500  71.6858  71.7771  72.4300  75.7160  76.1206  76.7536
    76.9283  77.3656  79.0696  79.6430  81.4345  82.2864  83.3807  83.6696
    84.0385  85.3404  86.1926  86.3286  87.2151  88.6502  88.7674  89.1123
    89.5241  89.8940  91.6928  91.8580  93.7620  95.1922  95.7013  96.2330
    96.3088  96.8766  97.4010  98.3700  98.8290  99.6019 100.6071 102.0002
   102.1865 102.8724 103.6676 103.7848 104.6389 104.9707 106.9886 107.1164
   108.3491 109.0792 110.4057 110.4304 111.6561 111.9387 112.5711 112.8468
   113.6193 114.1048 114.4841 114.5980 115.4397 116.7888 116.9569 118.1502
   118.8519 119.0600 119.3319 120.2294 120.5132 121.4277 121.8083 122.2582
   122.3432 123.6952 125.1033 125.1624 125.2592 126.4907 126.7940 127.5388
   128.0963 128.9803 130.0915 131.3701 131.9856 132.2471 133.0854 133.2535
   134.7835 135.1794 135.8785 136.6369 137.5266 137.9192 139.0453 139.4105
   139.8045 140.5466 140.6416 141.4023 141.8514 141.9739 142.4878 142.5394
   143.8748 144.4343 145.7730 146.8234 147.1375 148.3898 148.5424 149.0661
   149.9997 150.6419 150.9590 151.7332 152.7915 153.0829 153.8601 154.0204
   154.7130 154.7159 155.5353 156.2727 157.0267 157.4794 157.6550 158.5969
   158.8561 158.8869 159.3254 159.7203 160.2595 161.5644 162.8469 162.8538
   163.0602 163.4147 164.7997 165.0024 166.2484 166.2521 166.6301 166.7345
   169.1108 169.2449 170.0285 170.4466 170.6061 170.9096 171.2971 171.9019
   172.2341 172.3898 172.9780 174.4951 175.0821 175.1940 175.6863 176.0349
   176.6220 177.3730 177.3961 178.5968 178.9080 179.2042 179.3173 179.7400
   180.3320 181.4961 182.2169 182.5893 184.1028 184.2845 185.0101 185.3310
   186.1738 186.7595 186.9413 187.5100 187.6535 188.4347 189.1922 189.3204
   189.6285 190.1911 190.5778 191.2988 191.8492 193.0149 193.0659 194.0829
   194.1825 195.0689 195.9002 196.0216 196.4447 196.4536 197.4241 197.7221
   198.1452 198.3576 198.9385 200.4219 200.7196 201.2807 201.5980 201.7881
   201.9874 202.9507 203.3605 203.6113 204.3929 205.0042 205.9667 206.0673
   207.1459 207.8640 207.9301 208.6510 210.1076 210.3581 210.8242 211.7991
   212.1221 213.0406 213.3337 214.0221 214.7083 214.8790 215.6882 216.0387
   216.4337 216.5099 216.9715 217.2528 217.4896 217.8724 218.8564 219.1390
   219.2361 219.7926 220.0014 220.2409 220.3509 221.0378 221.0556 221.5213
   222.1743 222.5581 222.7226 223.5615 224.9928 225.4598 226.1279 226.3466
   227.1159 227.4017 228.0949 228.3326 228.3663 228.9882 229.6226 229.9663
   230.0975 230.2805 230.6851 231.2981 232.2500 232.9634 233.1984 233.8049
   234.7709 234.9836 235.4847 236.0992 237.4471 237.4496 237.5352 238.4471
   238.8011 239.5540 240.1200 240.6527 241.4457 241.7198 241.8940 242.2221
   243.5183 243.9175 244.1964 244.6183 244.8483 245.8690 246.1051 246.3057
   246.3448 247.1032 247.4963 247.5156 247.9259 248.2065 248.6763 249.0130
   249.4412 249.4839 249.8887 249.9325 251.4395 251.5485 252.4254 252.5528
   253.0717 253.6131 253.6594 253.8628 254.5558 254.5595 256.0044 256.6520
   256.9121 258.1766 258.2028 258.3372 259.0434 259.8533 260.5427 261.0076
   261.2617 261.5239 262.1176 262.1736 263.0825 263.3585 263.7827 264.1142
   264.2286 264.4301 264.7743 264.8330 265.4045 266.0377 266.6531 266.7129
   267.8291 268.1674 269.0041 269.3438 270.3801 270.4858 271.1257 271.3224
   271.7548 271.9266 272.6129 273.4027 274.0802 274.4418 275.0996 275.2538
   275.3328 275.5911 276.0644 276.6308 277.5798 278.0086 278.5864 279.1287
   279.5311 279.9182 280.7929 281.4113 282.3577 283.1464 283.6722 283.9811
   284.7619 284.7768 285.8047 285.9258 286.0562 286.0593 286.1621 286.6149
   286.8637 287.3291 288.1107 288.5254 289.3297 289.7934 290.2350 290.5626
   291.5917 292.1534 292.1757 292.2819 292.7024 293.7522 293.8032 293.9179
   294.2852 294.8045 295.2576 295.4322 295.7034 295.9115 296.0601 296.5671
   297.4467 297.4761 297.8031 297.8707 298.1199 298.6402 299.2606 299.3346
   299.6420 300.9245 301.5073 301.5367 302.0698 302.8290 302.8345 303.2741
   303.5907 303.9242 304.4011 304.5171 304.8570 305.7678 305.9319 306.3562
   306.6737 307.0220 307.2248 307.2440 307.5806 307.7991 308.5282 308.7838
   309.5481 309.8548 310.0187 310.7439 311.1731 312.6125 313.4794 313.6392
   315.2762 315.3967 315.4858 316.2131 316.4199 316.9478 317.0256 317.0876
   317.7486 318.2800 318.6356 318.9246 318.9535 319.5122 319.7163 319.9792
   320.4949 321.1250 321.5777 321.9101 322.1268 322.1389 322.7167 322.8583
   322.9111 323.7059 324.0209 324.7816 325.2760 325.4372 325.6955 325.8113
   326.2006 326.2847 326.5495 326.9470 328.0157 328.1039 328.5470 329.3103
   329.4702 329.9147 331.3391 331.3550 331.7750 332.7670 333.2055 334.3745
   334.3852 334.6465 335.0667 335.4735 335.5370 335.8737 335.9645 336.2831
   337.1943 337.9710 338.2701 338.6753 339.1119 339.4864 339.8322 340.2026
   340.8804 341.2355 341.4238 341.5773 341.9340 342.1625 342.9809 343.3702
   343.6127 343.9577 344.3648 345.4076 346.2014 346.4159 347.5740 348.1476
   348.4710 348.9424 349.1208 349.1773 349.8601 350.0111 350.0568 350.2823
   350.6287 350.7761 351.5504 352.1097 352.1731 353.0676 353.1620 353.6302
   353.7034 353.7791 354.1078 354.5046 355.2040 355.4868 355.7281 356.2515
   356.2646 356.6863 356.8587 357.4631 357.4793 357.6690 357.9346 358.1466
   358.4578 358.7040 358.8539 361.6809 361.7515 362.0886 362.1125 363.2292
   363.2868 363.4936 363.6534 363.8296 363.9728 364.4201 365.7829 366.1314
   366.2677 366.7119 367.2393 367.8625 368.2488 368.5896 368.9275 369.5637
   370.0698 370.1179 370.1693 370.2284 371.0581 371.3337 371.7476 371.9110
   372.3564 372.4606 373.0308 373.2122 373.4228 373.7105 374.0796 374.4964
   374.8656 374.9750 375.2045 375.6996 376.4202 376.5835 377.2773 378.0154
   378.0807 378.7077 378.8193 379.2690 379.5428 381.3118 381.9559 382.3055
   382.5937 383.1557 383.2654 383.4190 384.5355 385.0606 385.2103 385.3176
   385.6899 386.5585 387.4879 387.6067 387.7415 387.8340 387.8978 388.0976
   388.2556 388.3391 388.8941 389.2181 389.6232 389.9264 390.2834 390.4263
   391.1218 391.6654 392.3052 392.4639 392.4647 393.0053 393.1620 393.5239
   393.8661 394.0754 394.2899 394.3339 394.5156 395.0649 395.3444 395.3541
   395.8060 395.8586 396.5678 397.2815 397.3725 397.8778 399.0464 399.3753
   399.7634 399.8962 400.2442 401.3586 401.6953 401.9953 402.0585 402.2245
   402.7684 402.9198 403.0531 403.1153 403.4871 403.8637 403.9595 404.6102
   404.8659 405.0184 405.5352 405.8158 405.8770 405.9763 406.0325 406.2723
   406.7540 406.9000 408.2016 409.0106 410.4076 411.1271 411.2455 411.3511
   411.4028 411.6829 411.7005 412.6081 412.8806 413.2621 414.2259 414.3769
   414.6411 415.4300 415.7595 415.8336 415.9625 416.3331 417.0623 417.1986
   417.6951 417.7711 417.7818 418.2631 418.7269 418.8089 419.1061 419.4602
   419.6722 420.5612 420.7017 421.3930 421.6026 422.2524 422.4884 422.9359
   423.1794 423.4447 423.6726 424.1664 424.2971 424.7948 425.0877 425.4283
   425.4299 426.0154 426.0696 426.1938 426.3447 427.6238 428.6106 428.6525
   429.2424 429.5417 429.7240 430.0609 430.2529 430.4104 430.9374 430.9517
   431.7455 432.8682 433.1953 433.5538 433.7295 434.1887 434.2276 434.3089
   434.9826 435.5405 435.8835 436.1753 436.3478 436.7811 437.2005 437.4225
   437.7612 437.9869 438.0162 438.2518 438.5087 438.5584 438.9449 439.0378
   439.8055 439.9214 440.5879 440.8924 442.6294 442.8388 443.5879 444.8661
   444.9129 445.1486 445.1985 445.7260 446.3567 446.9002 447.3405 447.5453
   447.5649 447.7026 447.7679 447.7755 448.1809 448.5940 448.8436 449.1226
   449.6310 450.1452 450.4838 450.7827 450.9731 451.4547 451.6228 451.9981
   452.1471 452.6336 452.9783 453.2821 453.8210 453.9917 454.4737 454.5028
   454.8737 455.2517 455.5140 455.7220 455.7705 456.1815 456.2383 456.4482
   456.9224 457.4243 458.1720 458.6893 459.0971 459.1430 459.8781 460.2901
   461.0064 461.0888 461.3771 461.7846 462.3247 462.5736 462.8973 463.3348
   464.0537 464.1767 464.3785 464.4716 464.5342 464.6088 465.3675 465.3791
   466.1309 466.1977 466.2250 466.5804 466.6126 467.0533 467.1472 468.3717
   468.5715 469.1942 469.5367 470.4268 470.7013 470.9905 471.1799 471.2812
   471.5466 472.0495 472.4182 473.8114 474.8064 475.0258 475.7502 476.2288
   476.5587 477.8424 478.2052 478.2363 478.3195 478.6927 478.9388 479.2328
   479.3058 479.3812 479.4625 479.6864 479.8008 479.9411 480.0230 480.2031
   480.4287 480.5021 480.5177 480.6226 481.6204 481.8257 482.1539 482.4187
   482.5512 482.7469 482.8570 483.9590 484.0791 484.2914 484.6588 484.9946
   485.2786 485.3683 485.7729 485.8226 486.0577 486.1530 486.5141 486.6557
   486.9278 486.9601 487.2912 488.8074 488.8572 489.3970 489.6727 490.1298
   490.4538 490.6732 491.1902 491.2201 491.4176 492.2339 492.3518 492.7180
   492.9522 492.9751 492.9931 493.1975 493.3759 494.5321 494.7514 495.2118
   495.4233 495.6989 496.0001 496.2807 496.7781 497.0017 497.3553 497.5227
   497.7416 497.8161 498.5794 498.9659 499.0848 499.7939 500.3265 500.5986
   500.6180 500.7675 500.8902 502.0732 502.2396 502.3268 502.3974 502.8361
   503.5701 503.5906 503.6202 503.6266 504.0283 506.5920 507.2443 507.8861
   507.8927 508.2551 508.4449 508.8770 508.9879 509.4816 509.6112 510.0722
   510.4266 510.5748 510.8669 511.5536 511.6122 511.9338 512.0730 512.1878
   512.3231 512.4048 512.8190 513.0696 513.1885 513.4597 513.6268 513.7758
   514.0266 514.5467 514.7420 515.2041 515.4530 515.5352 515.6166 515.7072
   515.8325 516.2842 516.8655 517.1729 517.2430 518.3760 518.5665 518.6472
   519.0518 519.7039 519.8301 521.2094 521.4482 521.6642 521.6989 522.0610
   522.2386 522.6594 522.6597 523.1167 523.2755 524.1078 524.1116 524.2617
   524.4257 526.3872 526.5996 527.7600 527.8714 527.9946 528.2769 528.2982
   528.4922 528.6179 528.6320 528.6468 529.1478 529.1693 529.7180 529.9448
   530.0957 530.1883 530.4528 530.6669 530.9183 530.9585 531.2308 531.3810
   531.7018 532.1597 532.4122 532.5833 532.8376 533.0610 533.1305 533.6572
   533.7055 534.2372 534.3406 534.7349 535.0786 536.5856 536.8256 537.4697
   538.0529 538.7273 538.7634 539.1204 539.6608 540.0418 540.5407 540.9499
   541.1868 541.3554 541.4345 542.2801 542.5358 543.3586 543.4693 543.8815
   544.0081 544.8579 544.9903 545.3157 545.3974 546.0584 546.4138 546.4591
   546.6284 547.6510 547.7255 548.0810 548.1360 549.4927 549.5256 549.5772
   549.8110 550.0635 550.8247 551.0997 551.2439 551.2819 551.4460 551.8989
   552.0207 552.5806 552.6173 553.5819 554.0377 554.4991 554.8913 555.2254
   555.2441 555.6324 555.7427 556.2198 556.2841 556.2866 556.4453 556.5550
   556.5732 556.6596 556.7416 556.8958 557.0151 557.2591 557.5487 558.0221
   558.5342 558.6193 558.8087 558.9859 559.1535 559.5836 559.7459 559.8068

          k = 0.0000-1.0000 0.0000 (  2450 PWs)   bands (ev):

  -117.2570 -71.4298 -71.4297 -71.4297  -4.2933   1.2430   1.6312   1.6312
     1.8650   2.0089   3.0595   5.3978   5.3978  11.0502  11.7454  18.6808
    19.6870  19.6870  21.3171  22.1491  22.1491  24.5325  27.1955  27.8511
    31.1595  31.1595  31.2028  32.0339  32.0339  32.2583  32.5770  37.6693
    40.4305  40.4305  41.0007  43.6435  45.1881  45.1881  46.3102  47.1051
    47.2728  49.7358  49.7358  50.5280  53.0316  53.1000  53.1198  53.1198
    54.6356  55.0444  55.0444  60.3208  62.2162  62.2162  62.4918  63.4654
    64.4213  67.6361  67.7109  69.7207  69.7207  70.5968  70.6031  70.6031
    71.4131  72.3091  72.4213  72.4213  73.8726  73.8726  74.0965  74.8889
    74.9305  79.2597  81.4783  81.6186  81.6186  82.1427  84.3545  85.2455
    85.2455  85.7662  86.1915  86.1915  86.7617  86.7617  87.0956  88.0184
    88.5949  88.8960  89.8817  89.8817  91.0523  92.5901  93.4948  93.4948
    93.7467  93.7467  95.6532  95.7579  96.9911  99.5744 101.7541 101.7541
   103.0086 103.0575 103.8509 103.8509 105.6164 105.8770 105.8770 106.1153
   106.5295 106.5295 107.0801 107.5195 109.1237 109.9429 112.1659 113.1743
   113.1743 114.2539 114.2539 114.3283 115.2017 117.1528 117.2198 117.2198
   119.7307 119.7769 122.3625 122.6616 122.6616 125.2932 126.3440 127.2989
   128.3070 128.3761 128.3761 129.9344 129.9622 130.4484 130.4484 130.7724
   131.1030 131.6929 132.1729 132.1729 133.2945 133.2945 134.2197 134.2197
   134.6024 134.8405 135.0300 136.0312 136.0447 136.0447 137.2733 137.5507
   140.5198 142.1258 143.2365 143.2365 144.5259 144.5259 144.5560 145.4426
   145.4426 145.8275 146.3810 146.5621 147.7472 147.7971 147.9252 147.9252
   148.9187 148.9187 149.9388 149.9388 150.5619 151.0343 151.5567 151.9414
   151.9774 153.0850 153.3418 153.3418 154.1341 154.1341 154.4739 154.4891
   154.8810 155.1443 155.1443 156.2687 156.8449 157.2918 157.2918 157.9479
   161.2498 161.2498 161.3945 162.6635 162.6635 162.7118 165.6458 165.6458
   165.9851 167.5446 168.9242 168.9707 168.9707 169.7340 171.1622 171.3214
   172.9640 172.9640 173.8967 174.0249 175.1353 175.7380 175.7380 176.1976
   176.1976 176.2129 176.8602 178.5595 178.5595 179.1376 179.9099 181.6463
   183.6282 184.1968 185.3400 185.3400 186.3162 186.3162 186.9479 188.5565
   188.7606 188.7853 188.7853 189.4000 190.6013 191.2450 191.2745 192.1703
   192.1703 193.0655 193.4530 193.4530 193.6434 194.3664 194.3664 194.6887
   194.6887 195.5990 196.4302 196.4865 196.4865 197.0256 198.4983 198.4983
   198.7456 199.1094 200.8140 200.9000 201.5178 201.5178 203.4298 205.4149
   205.9462 206.4003 206.4003 206.6405 207.1393 207.1393 207.5591 207.8994
   208.2189 208.4086 208.4086 208.5651 209.1013 209.1013 209.2247 209.9818
   210.6134 210.6134 210.8256 210.9225 210.9225 211.3632 213.6533 214.9198
   215.5670 215.5670 215.6768 215.7379 215.7677 215.7677 215.8604 216.0473
   217.3376 217.3376 218.4738 219.8162 221.0273 221.0273 221.5201 223.4595
   224.7907 224.7907 224.8432 224.8570 226.8449 226.8449 227.7131 228.4416
   228.7056 228.7520 228.7520 229.3818 229.8398 229.8398 230.1482 230.5212
   230.6852 231.3008 231.3008 231.6193 231.9783 231.9783 232.6324 233.2100
   236.0474 236.0474 236.0585 236.6253 236.6253 236.7658 237.4675 237.5228
   237.5296 237.6308 237.6308 237.9838 237.9838 238.0188 238.4824 239.9979
   239.9979 240.1903 242.3716 242.9076 244.1203 244.1203 245.7886 245.7886
   247.0293 247.4681 247.9173 248.0514 248.5711 248.5711 250.0227 250.0325
   250.3176 251.7332 251.7847 251.7847 252.0787 252.3015 252.3015 252.4557
   252.4727 253.2380 254.4740 254.4740 256.2458 256.8545 257.6384 257.7102
   257.7102 258.3993 258.4027 258.4027 258.4540 258.5042 258.7686 259.3749
   259.3749 259.8089 261.1284 261.1284 262.7166 265.0954 266.0617 267.1680
   267.1680 267.8304 267.8304 267.9610 268.3408 268.6989 268.8200 268.8200
   269.8130 269.8130 270.2550 270.7857 270.7857 270.9350 272.1679 272.1704
   272.1704 272.6021 272.7234 273.0109 273.1036 273.2083 273.2083 273.4193
   273.4193 273.8264 274.3798 274.4432 274.4557 274.5487 274.5487 275.1594
   275.4600 275.7168 275.7168 276.4563 276.8650 277.4407 277.4732 277.4732
   278.2366 278.2890 278.2890 278.5528 279.8194 279.8194 280.5666 281.2945
   284.0344 285.0281 285.0281 285.5138 286.5171 287.3796 288.9759 289.1264
   289.1264 290.8583 290.8583 293.3431 293.3692 293.6401 294.0076 294.0076
   294.0694 294.8031 295.1707 295.1707 295.8030 295.8030 296.4591 296.9037
   297.7111 297.7111 297.9441 298.4211 298.5069 298.8061 298.8061 299.1529
   299.7402 300.4582 300.4582 301.9165 303.8794 305.3854 305.7214 305.7214
   306.1783 307.0574 307.3553 307.3553 309.2739 309.3074 309.7129 309.7129
   310.5803 311.7180 311.7180 312.6051 312.7201 313.1903 313.5962 313.5962
   315.5775 316.2909 316.7258 316.7258 316.7514 317.0600 317.6561 317.6561
   318.1736 318.6697 318.7424 318.7424 318.8586 318.8586 318.9507 319.0959
   319.7913 319.8093 319.8093 319.9434 321.1510 322.2762 322.2762 322.9734
   323.2442 323.8591 324.6077 325.3477 325.3477 326.2963 326.4353 326.9477
   327.4803 327.4803 328.5781 328.5781 328.9812 329.6674 330.0119 330.0119
   330.2671 330.3099 330.3251 330.7750 330.9803 331.3723 331.3723 331.8873
   332.1244 332.1244 332.4650 333.6720 333.6720 333.9737 333.9737 334.1451
   334.1451 334.3243 334.4875 334.5254 334.8577 335.2363 336.2656 336.7252
   336.7635 338.2045 338.2775 338.2775 338.4919 338.4919 339.0943 339.0943
   339.1508 339.1893 339.3299 339.3299 340.3926 340.4422 340.5064 340.5821
   340.6682 340.6682 340.7283 340.7283 343.1040 343.1383 343.9352 343.9352
   344.1793 345.3413 345.3413 346.3053 346.7124 346.8750 348.3542 348.3542
   348.6153 348.8775 349.3236 350.1377 350.1377 350.2068 351.5588 351.5588
   351.9645 351.9645 352.4352 352.6151 352.8335 353.6980 353.6980 354.0145
   354.0145 354.1856 354.4923 354.4923 354.6584 354.6838 355.1488 355.6103
   355.8275 356.4006 356.4006 356.4129 357.6353 358.7547 358.7547 358.9895
   360.7294 361.2015 361.5241 361.5241 361.6162 361.6323 361.6702 361.6702
   361.8564 362.2489 365.1323 365.1323 366.9167 367.5696 367.5696 370.4499
   370.8754 370.8754 371.1001 371.2985 371.8836 372.2508 372.4194 372.4194
   372.5654 372.8525 373.7924 374.8777 374.8777 374.9244 374.9244 374.9481
   375.1067 375.1826 375.7258 375.7258 376.3294 376.4992 376.6050 376.6050
   376.9540 376.9540 376.9594 377.2612 379.1576 379.8865 379.8865 379.9040
   380.4778 380.4778 380.8639 381.3236 381.3263 381.4786 381.4786 382.0960
   382.1701 382.4948 382.4948 382.5742 382.7168 382.7168 384.8461 386.1682
   386.7118 386.7181 386.7181 386.8041 388.2099 389.8466 389.9540 390.2869
   390.6952 390.6952 391.4045 391.4045 393.2471 393.2471 393.4306 394.0380
   394.1214 394.7152 394.7152 394.7475 396.0706 396.2181 396.3273 396.3273
   396.6847 396.8826 397.1280 397.1280 397.3363 397.3730 397.3730 397.4109
   397.7264 397.7328 397.7328 397.7871 399.6049 399.7397 399.7532 399.7532
   402.0900 402.0934 402.0934 402.1006 402.8319 405.1145 405.1145 405.9620
   407.6489 408.1534 408.2474 408.7274 408.7274 409.5170 411.6904 411.6981
   411.6981 411.7729 411.7729 411.9793 412.6284 412.6664 412.7609 413.1330
   413.1330 414.1474 414.8507 414.8507 415.0713 415.6411 415.8798 416.1185
   416.1185 416.3642 417.1062 417.1062 417.6363 417.7572 417.7572 417.8100
   418.6843 418.7055 418.7977 418.9690 418.9690 419.2226 419.2524 419.3406
   419.3406 420.2442 420.2980 420.4997 420.4997 420.8749 422.1631 423.0615
   423.2848 423.2848 423.9148 423.9148 424.9070 425.0913 426.1346 426.4768
   426.4768 426.7323 426.8792 431.1176 431.6247 431.6247 433.2698 433.4806
   433.8078 436.2608 436.2939 436.3654 436.3654 436.5700 436.5700 436.7115
   436.7115 436.8838 436.8838 437.3601 437.3801 437.6892 437.7437 437.7437
   437.7509 438.8296 439.6637 439.6637 439.9891 440.1346 440.3902 440.4127
   440.4127 440.5422 441.7390 441.7390 441.8647 441.9178 442.6537 442.8159
   443.0502 443.0502 443.0568 443.1214 443.1214 443.1259 446.5028 446.9045
   448.9828 448.9828 449.0049 449.3847 449.6879 449.6879 449.9894 450.0517
   450.3878 451.0429 451.0429 451.1667 451.2715 451.6114 451.6114 451.9095
   452.1362 452.1759 452.1759 452.4836 452.4836 452.5359 453.2620 453.3843
   454.0333 454.0333 454.0565 454.1663 454.2234 454.2607 454.2607 454.4731
   454.4731 454.6324 455.3837 455.3837 456.5449 457.9128 458.0788 458.0995
   458.1557 458.1557 458.4248 458.4248 458.5547 458.6160 458.7182 460.2225
   460.2225 460.3616 460.4040 460.4040 460.8222 460.9757 461.8676 461.8714
   462.0505 462.0667 462.2031 462.2031 462.2407 462.2407 462.7645 462.9397
   462.9932 462.9932 463.2967 463.2967 463.3353 463.4209 464.2008 464.3560
   464.4292 464.4358 464.4358 464.4971 464.4971 464.5085 465.0275 465.3710
   465.4555 465.4555 465.5753 465.6145 465.6145 465.6858 470.6261 471.6719
   471.6719 472.5079 472.5199 472.5199 472.5755 472.9590 473.9564 474.6821
   475.2580 475.2580 475.4427 475.4427 475.5516 475.5728 475.6473 477.2157
   477.4758 478.7455 478.7455 479.3180 479.4360 479.4360 479.9133 479.9133
   481.0422 481.7069 482.3688 482.3994 482.3994 482.6492 482.6492 482.7412
   482.7952 483.3213 483.9870 484.0906 484.1526 484.1526 484.5398 484.5594
   484.5594 484.6467 484.9892 484.9986 484.9986 485.0247 489.4875 490.1180
   491.4825 491.7220 492.0328 492.0328 492.9282 492.9282 493.2848 493.3423
   493.3423 494.2140 495.2093 495.3482 495.3482 495.6164 496.2935 496.9174
   496.9174 496.9256 497.7706 497.9283 498.3905 498.3905 499.0578 499.0578
   499.2093 499.5682 500.0832 500.4058 501.1243 501.7225 502.1293 502.1293
   502.2374 502.2374 502.3342 502.4499 502.5182 503.4225 503.4225 503.7555
   503.7555 504.0413 504.0987 504.1478 504.3570 504.3982 504.6455 504.6455
   504.6693 504.6693 505.0198 505.0446 505.4965 505.4965 509.0458 509.0493
   510.7297 510.7297 513.0846 513.0846 513.7688 514.1501 514.5100 514.8628
   514.9289 515.4955 515.4955 515.8573 516.0856 516.2797 516.2797 516.4455
   516.8482 517.4145 517.8682 517.8682 518.0494 518.0494 518.3373 518.3373
   518.4237 518.7158 518.7158 518.9223 519.0630 519.1248 519.4508 519.8418
   519.9910 519.9989 520.2500 520.5298 520.5298 520.5703 520.6853 520.7111
   520.7111 520.7844 520.7844 520.9059 521.9581 521.9696 522.1560 522.4358
   522.4396 522.4396 522.4859 522.4859 522.9773 523.0193 523.3981 524.5151
   524.7907 524.7907 526.6623 526.6623 526.7070 526.7070 526.8672 527.0732
   527.1148 527.1148 529.3305 531.3570 531.5678 532.1697 532.1697 532.4027
   532.4458 532.4458 532.4575 533.0620 533.0834 533.0834 533.3096 534.0543
   534.0543 534.4692 537.0152 537.1753 537.1753 537.4128 537.6623 537.9475
   538.5065 538.5065 539.1590 539.1994 539.1994 539.2822 539.6596 540.3779
   540.3779 540.4630 543.0491 544.0895 544.2461 544.5041 544.5041 544.5396
   544.5396 545.0574 545.1866 545.3560 545.3560 545.6545 545.7005 545.7892
   545.7892 546.0964 546.1344 546.2174 546.2485 546.2485 546.4387 546.4387
   546.4501 546.4559 552.2500 552.3733 552.3733 552.7386 553.3983 553.9214
   554.6246 554.6246 556.1997 556.5820 556.5820 557.8844 558.1278 558.3530
   558.5347 558.5347 558.5536 559.4705 559.4705 559.5294 559.5333 559.7591
   559.9376 560.0225 560.0225 560.0593 560.1108 560.1995 560.1995 560.2631
   560.3535 560.6979 560.6979 561.0241 561.1349 561.1349 561.5149 561.5149

          k =-0.5000-1.0000 0.0000 (  2468 PWs)   bands (ev):

  -117.2570 -71.4298 -71.4298 -71.4297  -4.2872   1.4114   1.5693   1.7250
     1.7517   2.1975   3.0226   4.8604   4.9028  13.3594  13.7423  15.5520
    15.8964  20.1647  21.5584  22.5404  22.8246  25.6954  28.1481  28.5497
    29.2488  29.6259  31.0166  31.2064  34.0015  37.1106  37.1696  37.4714
    37.9059  38.6972  39.8360  40.0555  41.9732  44.2977  46.1297  47.1146
    47.5445  48.0374  49.0034  50.0227  52.3573  52.8144  57.1492  58.4264
    58.4716  58.6341  58.9231  59.4415  59.7270  60.9274  62.3439  62.9233
    63.0690  66.8518  66.9359  67.1201  67.9355  68.2968  68.8950  70.1971
    71.0268  71.5260  72.1440  72.6253  74.6691  75.5259  76.5335  76.9456
    77.0062  77.4749  78.4856  79.4621  79.7940  83.7000  83.8814  85.7245
    85.7264  86.2122  86.3815  86.9590  87.3939  87.4267  88.1487  88.5664
    88.7042  90.1677  90.4311  90.8938  91.5131  92.8081  93.4023  93.5349
    94.3609  94.8195  96.1098  96.8007  98.6513  99.7666 100.2007 100.2720
   100.8378 101.2421 101.2887 102.8330 102.9297 103.3148 103.3667 104.6852
   105.3010 106.6676 106.9773 108.9907 109.2778 109.8065 110.3018 114.1393
   116.1367 117.2167 118.3269 118.8054 119.0685 119.2890 119.4267 121.1671
   121.2675 121.6403 122.8583 123.0137 123.4019 124.0409 124.5048 124.8106
   126.2226 126.7660 127.0918 128.1650 128.4491 129.1113 129.2821 129.9943
   130.5902 130.8671 131.6992 131.9781 131.9972 132.3344 133.0073 133.7797
   134.1623 134.7412 135.9956 136.0195 136.8011 136.8135 137.8224 138.1243
   138.3840 139.3195 139.9963 140.4143 140.9690 141.7275 142.0317 142.4543
   143.6571 145.7151 146.3303 147.1705 147.8487 148.0040 149.1128 149.4228
   149.6767 150.0718 150.4595 151.1888 151.3238 151.6464 152.0275 152.5014
   152.6397 153.3881 153.7235 153.9451 154.4849 155.0742 156.2007 156.6975
   158.0027 158.1416 158.5887 159.0983 159.5528 160.0272 160.3564 160.4688
   161.5022 161.6801 161.8252 162.2863 162.9962 163.2160 164.0946 165.4701
   165.7494 166.8827 166.9504 167.2991 168.4039 169.8059 169.8112 170.7634
   171.1378 174.8100 174.8120 175.1359 175.3279 176.5016 176.8454 177.8201
   178.1946 178.4842 178.6118 178.6633 179.0798 180.0069 180.0492 180.8471
   180.9395 181.2698 183.0980 183.4724 183.7301 185.0458 185.8659 186.3899
   186.6444 186.7507 186.8186 188.3964 188.7470 189.0581 189.0924 189.7373
   191.4433 191.6716 192.0617 193.3179 193.3908 193.5014 193.5126 193.6311
   194.0110 194.1231 194.5746 197.5322 198.0572 198.4141 198.7774 199.0502
   199.4894 199.6515 199.7751 200.4245 200.8382 201.2064 201.3520 201.4322
   201.7820 202.0813 202.2059 204.1659 204.4293 206.8093 206.9193 206.9664
   207.8441 208.4445 209.1552 209.3671 209.8488 210.7363 212.9732 213.1436
   213.5874 214.7311 214.8687 215.3094 216.5845 217.0150 217.3797 217.5300
   218.0498 218.0501 218.6725 219.2212 219.6617 219.7576 219.8551 219.9516
   220.0637 220.1352 220.1919 220.4136 220.9982 221.0023 221.0724 221.8241
   222.4131 222.7355 222.9489 223.4247 225.1375 225.8420 226.0687 226.2904
   226.9186 227.6610 229.4524 230.3486 230.5670 230.7939 231.0058 231.2340
   231.4921 231.7504 232.1199 232.2665 232.9684 233.0262 234.3616 234.4737
   235.4402 235.4588 235.5532 235.9533 236.0079 236.6436 236.9232 237.0285
   238.3613 238.6239 239.5022 239.9104 240.5247 240.7142 241.0118 241.0980
   241.9319 242.0496 242.0803 242.1000 242.3135 242.5735 242.7230 243.4399
   243.5928 245.6546 245.6814 245.9885 246.2455 247.2849 247.4666 247.9942
   248.3598 248.8602 249.0215 249.2945 249.5142 249.6769 249.6881 249.7630
   250.6981 250.7163 250.8493 251.5682 253.2415 254.7327 255.0896 255.1413
   255.3355 255.3646 255.6267 255.6877 257.4724 257.6292 258.0085 258.7222
   259.5931 260.4624 260.5076 260.6200 261.1640 261.2608 261.3433 262.6715
   263.6584 263.9995 265.8069 265.9324 265.9522 266.4237 267.4032 268.5699
   268.6711 269.7165 270.0817 270.4683 270.5985 271.2893 272.0752 272.1728
   272.4400 272.6338 272.8775 273.6378 274.3163 275.7655 276.1067 276.1388
   276.1492 277.3306 277.5073 277.8428 279.1700 279.4574 280.2553 281.1257
   281.3276 281.7598 281.8701 282.0057 282.0597 282.5840 282.6314 282.7555
   282.8277 282.9493 283.3663 284.4103 284.5483 284.5748 284.7139 284.8358
   285.9287 286.7096 286.9200 286.9217 287.5888 288.4824 289.0649 289.1281
   289.3567 289.6071 289.6548 290.5726 291.4432 292.0106 292.6036 292.6926
   292.8490 292.9661 295.2449 295.3290 295.9022 296.2816 297.6669 298.1378
   298.1927 298.8776 298.9307 299.0357 299.0575 299.4136 299.9805 300.4011
   300.4624 301.1316 301.2550 302.0800 302.1712 303.4530 303.6991 303.9224
   304.7067 304.7296 305.2439 305.3208 306.5453 306.7088 307.0497 307.2869
   307.7753 308.5567 308.7464 309.9526 309.9798 310.1120 310.1615 310.6507
   311.0428 311.1433 311.2918 312.0153 312.5701 312.8332 312.9576 313.0603
   313.0680 313.2811 313.7300 313.9125 313.9712 318.0713 318.8265 318.8313
   319.4083 319.7890 319.9759 321.7102 321.9691 323.0968 323.2836 323.2842
   323.5389 323.7914 324.3910 324.4251 325.3620 325.5095 326.0998 326.1011
   326.1423 326.5778 327.2743 328.0471 328.1548 329.2038 329.8088 330.0817
   330.8376 331.4339 331.4428 331.7927 332.7109 332.7760 333.1597 333.1692
   333.7133 334.1558 334.4538 334.6635 334.7236 334.8842 335.2428 335.6112
   335.6506 335.9373 336.0551 336.1370 336.2585 336.2656 336.6397 336.6888
   338.3822 338.9993 339.2236 339.3965 339.7829 340.1490 340.1688 340.3705
   340.4536 340.5607 340.6490 341.0360 341.3892 341.6560 341.7579 342.0235
   342.9201 343.1441 343.1517 343.2347 343.2748 343.6542 343.7062 344.0143
   345.2329 345.3587 346.4036 346.7160 346.8962 346.9049 347.0766 347.2360
   347.5701 347.9773 348.0393 348.0518 349.6637 350.2030 350.9039 351.1959
   351.6466 353.5242 353.8259 353.9158 354.6434 354.6784 354.7357 355.0444
   355.4180 355.5518 356.0695 356.8119 356.9549 357.5633 357.7887 358.3601
   358.4866 358.9636 359.2238 360.3982 361.0126 361.1614 361.3360 361.4179
   362.2443 362.2990 362.3499 362.4713 362.8627 363.0052 363.0806 363.3339
   363.6526 364.3094 364.3827 364.4822 364.7562 364.7622 364.8610 364.9781
   368.3926 369.5517 369.6088 370.3207 371.3501 371.6548 372.1167 372.1822
   372.2006 372.3335 372.4599 373.4828 373.6556 373.7557 374.0892 374.3672
   374.3675 374.8014 375.0391 375.0446 375.1368 375.2294 375.4263 375.4894
   375.5271 375.5901 375.6470 375.7013 375.7462 375.9986 376.1034 376.2350
   377.2986 377.4768 377.7630 377.8395 379.6659 381.7400 381.7443 382.2381
   382.4502 383.0109 383.7544 383.8866 384.1673 384.3922 385.4673 385.7375
   386.2207 386.4081 386.4828 386.5242 387.0593 387.1605 387.2693 387.4078
   387.8384 387.9075 388.2830 389.2604 389.7218 391.1063 391.2442 391.4977
   391.9426 392.0514 392.7523 393.3059 394.8372 395.1935 395.4292 395.5378
   395.6136 395.8330 395.9747 396.2716 396.2915 396.7163 396.7826 397.1334
   398.3250 398.3966 398.9971 399.6263 399.7785 403.2993 403.6159 403.9310
   404.1006 404.4909 404.6930 404.9280 407.2956 407.4629 407.9712 408.3123
   408.5560 408.9494 409.1405 409.4786 410.4100 410.4112 410.4779 410.6270
   411.6992 412.2995 412.5495 412.7564 412.9902 413.9324 413.9596 413.9872
   414.1794 414.3038 414.7673 414.9911 416.4181 417.0434 417.2380 417.4781
   417.5403 417.7077 417.7292 417.7690 417.8326 419.6495 420.3241 420.4283
   420.8104 421.0450 421.8200 422.2814 422.6969 422.9899 422.9924 423.1197
   423.8598 425.2335 425.2430 425.4721 425.5916 425.6596 425.6692 425.7197
   425.9672 426.1060 426.1184 426.2448 426.5496 428.0140 428.3843 428.6882
   428.8951 429.3425 429.5007 429.8943 431.7246 431.8558 432.3220 432.5029
   433.5209 433.7208 433.8073 434.0762 434.5544 434.6668 434.8645 434.9133
   434.9881 435.3018 435.6448 435.9307 436.0431 436.0526 436.2701 436.2843
   437.0183 437.2246 437.2815 437.4305 437.6339 437.9002 437.9159 438.0593
   438.2032 438.2586 438.4239 438.5923 438.9071 439.0571 439.2935 439.3799
   439.4225 439.4275 439.6410 440.4168 440.5604 440.6616 440.7468 440.8243
   443.6514 444.3454 444.6382 444.6889 444.8047 444.8640 445.0913 445.4072
   446.1003 446.4397 446.5599 446.9512 447.2699 447.6855 447.7089 447.7800
   447.7831 447.7995 448.0593 448.1378 448.1447 448.1753 448.2240 448.2359
   448.3077 448.3469 448.4053 448.4140 453.7791 454.0202 455.0827 455.1511
   455.4491 455.7253 456.3621 456.5662 456.9551 457.0195 457.2727 457.4712
   457.8091 458.1693 458.3535 458.5469 458.8604 459.3154 459.3636 459.4122
   460.1668 461.0508 461.2615 462.1037 462.1512 462.6578 462.6804 462.8114
   463.0227 463.4896 463.6430 463.8935 464.2501 464.5156 464.6058 465.1562
   465.2002 465.6110 465.8435 466.5875 466.6317 466.7384 467.0090 467.0397
   467.3684 467.6575 468.1398 468.7734 468.9658 468.9908 469.0329 469.7028
   471.1037 471.1354 471.2571 471.3467 471.9843 472.2080 472.3345 472.6257
   472.7891 472.9205 473.0064 473.3534 473.6135 473.6226 473.6655 473.9481
   478.4614 478.5753 478.6169 478.7911 479.0879 479.3281 479.3371 479.3785
   481.6169 482.6661 483.0665 483.7459 484.1634 484.3741 484.4826 484.5218
   485.2646 485.3899 485.5022 485.7302 485.8622 486.2112 486.4035 486.4713
   486.5197 486.5780 486.9368 487.0504 487.1470 487.1520 487.1869 487.2199
   487.2981 487.3095 487.7312 487.7725 488.1426 488.6255 488.9339 489.4012
   490.4833 490.9375 491.1784 491.5419 492.4778 492.5989 492.7126 493.0032
   493.0501 493.2287 493.3015 493.5284 494.1559 494.3750 494.4411 494.4702
   495.3380 495.8274 496.0006 496.1074 497.0543 497.9637 498.0425 498.0469
   498.1103 498.5538 498.5718 498.6509 499.0590 499.3586 499.5622 499.5653
   499.8248 499.8925 499.9873 500.1132 500.1667 500.2925 500.3302 500.4221
   500.8343 500.8601 500.9163 500.9848 502.0778 502.0859 502.1127 502.3564
   502.7002 502.7687 502.8903 502.9717 508.0281 508.6848 508.8130 508.8628
   509.0085 509.5907 509.6866 509.7447 509.8848 509.9466 510.1766 510.2201
   511.1015 511.7963 511.8208 512.2314 512.3772 512.5908 512.6104 513.7695
   514.1660 514.4900 514.4907 514.7194 515.8547 515.8983 516.1422 516.4198
   516.4530 516.5888 516.6771 516.7805 516.8006 518.7107 518.7678 518.8849
   519.5853 519.8608 519.9326 520.1319 520.5725 520.7012 521.0281 521.6934
   521.8347 522.6899 522.7586 523.3028 524.4669 524.8141 525.3147 525.8187
   526.1078 526.6490 526.7695 527.1021 527.2724 527.3901 527.3952 527.4967
   527.7182 527.9396 528.0918 528.2088 528.9821 529.0621 529.1221 529.1353
   530.0808 530.1219 530.1702 530.1956 530.3562 530.4055 530.4166 530.4566
   531.0425 531.0796 531.1101 531.1369 531.1797 531.3155 531.3599 531.5443
   531.7788 531.8131 531.8875 531.9436 532.2839 532.2951 532.3175 532.4963
   537.5658 538.4821 539.0163 539.6456 540.0380 540.1087 540.3512 540.4868
   540.5018 540.6484 540.6698 541.4824 541.5156 541.5777 541.7777 542.0489
   543.0408 543.1177 543.1207 543.1317 547.1916 547.2421 547.3984 547.6565
   547.8570 548.4923 548.8829 549.1868 549.4230 549.9057 549.9981 550.3582
   550.5294 550.8514 550.8739 551.0040 551.1797 551.3203 551.3259 551.3994
   551.7350 551.8254 551.9335 551.9392 551.9998 552.1094 552.1296 552.1471
   553.9838 554.2838 554.4341 554.6752 554.7998 554.9541 555.1278 555.4362
   557.0831 557.1811 557.1973 557.5832 558.5701 558.6351 558.6812 558.7740
   561.2912 561.3872 561.3986 561.5271 561.5465 561.6324 561.7110 561.7825

     the Fermi energy is     8.2192 ev
     (compare with:     8.8073 eV, computed in scf)

     Writing all to output data dir out/mp-10695.save/
 
     init_run     :      0.04s CPU      0.05s WALL (       1 calls)
     electrons    :    562.98s CPU    604.03s WALL (       1 calls)

     Called by init_run:
     wfcinit      :      0.00s CPU      0.00s WALL (       1 calls)
     potinit      :      0.01s CPU      0.01s WALL (       1 calls)
     hinit0       :      0.01s CPU      0.02s WALL (       1 calls)

     Called by electrons:
     c_bands      :    562.97s CPU    604.02s WALL (       1 calls)
     v_of_rho     :      0.01s CPU      0.01s WALL (       1 calls)

     Called by c_bands:
     init_us_2    :      0.00s CPU      0.00s WALL (       8 calls)
     init_us_2:cp :      0.00s CPU      0.00s WALL (       8 calls)
     paro_k       :    544.51s CPU    584.43s WALL (       8 calls)

     Called by paro_*:
     h_psi        :     10.61s CPU     11.13s WALL (     895 calls)
     g_psi        :      0.23s CPU      0.26s WALL (   83650 calls)

     Called by h_psi:
     h_psi:calbec :      0.21s CPU      0.23s WALL (     895 calls)
     vloc_psi     :     10.17s CPU     10.67s WALL (     895 calls)
     add_vuspsi   :      0.16s CPU      0.16s WALL (     895 calls)

     General routines
     calbec       :      0.21s CPU      0.23s WALL (     895 calls)
     fft          :      0.00s CPU      0.01s WALL (      10 calls)
     fftw         :      9.05s CPU      9.49s WALL (  137504 calls)
 
     Parallel routines
 
     PWSCF        :   9m23.79s CPU  10m 5.17s WALL

 
   This run was terminated on:   2:43: 3  15Nov2023            

=------------------------------------------------------------------------------=
   JOB DONE.
=------------------------------------------------------------------------------=
