
     Program PWSCF v.7.1 starts on 15Nov2023 at  4:21:38 

     This program is part of the open-source Quantum ESPRESSO suite
     for quantum simulation of materials; please cite
         "P. Giannozzi et al., J. Phys.:Condens. Matter 21 395502 (2009);
         "P. Giannozzi et al., J. Phys.:Condens. Matter 29 465901 (2017);
         "P. Giannozzi et al., J. Chem. Phys. 152 154105 (2020);
          URL http://www.quantum-espresso.org", 
     in publications or presentations arising from this work. More details at
     http://www.quantum-espresso.org/quote

     Parallel version (MPI), running on    24 processors

     MPI processes distributed on     1 nodes
     123224 MiB available memory on the printing compute node when the environment starts
 
     Reading input from pw_mp-10695_scf_k3000_E67.in
Warning: card &CELL ignored
Warning: card / ignored

     Current dimensions of program PWSCF are:
     Max number of different atomic species (ntypx) = 10
     Max number of k-points (npk) =  40000
     Max angular momentum in pseudopotentials (lmaxx) =  4
 
     K-points division:     npool     =       2
     R & G space division:  proc/nbgrp/npool/nimage =      12
     Subspace diagonalization in iterative solution of the eigenvalue problem:
     a serial algorithm will be used

 
     Parallelization info
     --------------------
     sticks:   dense  smooth     PW     G-vecs:    dense   smooth      PW
     Min          79      79     24                 1629     1629     273
     Max          80      80     25                 1633     1633     275
     Sum         955     955    295                19579    19579    3287
 
     Using Slab Decomposition
 


     bravais-lattice index     =            2
     lattice parameter (alat)  =      10.1806  a.u.
     unit-cell volume          =     263.7946 (a.u.)^3
     number of atoms/cell      =            2
     number of atomic types    =            2
     number of electrons       =        26.00
     number of Kohn-Sham states=           26
     kinetic-energy cutoff     =      67.0000  Ry
     charge density cutoff     =     268.0000  Ry
     scf convergence threshold =      1.0E-10
     mixing beta               =       0.7000
     number of iterations used =            8  plain     mixing
     Exchange-correlation= PBE
                           (   1   4   3   4   0   0   0)

     celldm(1)=  10.180645  celldm(2)=   0.000000  celldm(3)=   0.000000
     celldm(4)=   0.000000  celldm(5)=   0.000000  celldm(6)=   0.000000

     crystal axes: (cart. coord. in units of alat)
               a(1) = (  -0.500000   0.000000   0.500000 )  
               a(2) = (   0.000000   0.500000   0.500000 )  
               a(3) = (  -0.500000   0.500000   0.000000 )  

     reciprocal axes: (cart. coord. in units 2 pi/alat)
               b(1) = ( -1.000000 -1.000000  1.000000 )  
               b(2) = (  1.000000  1.000000  1.000000 )  
               b(3) = ( -1.000000  1.000000 -1.000000 )  


     PseudoPot. # 1 for S  read from file:
     /usr/scratch4/magr4985/MG/HTDF/pseudo/SG15/S.upf
     MD5 check sum: f9d020296ee6110346977bfd66d424f6
     Pseudo is Norm-conserving, Zval =  6.0
     Generated using ONCVPSP code by D. R. Hamann
     Using radial grid of  602 points,  4 beta functions with: 
                l(1) =   0
                l(2) =   0
                l(3) =   1
                l(4) =   1

     PseudoPot. # 2 for Zn read from file:
     /usr/scratch4/magr4985/MG/HTDF/pseudo/SG15/Zn.upf
     MD5 check sum: 732f41c0cd6489a4b50a33b4ec99a2d3
     Pseudo is Norm-conserving, Zval = 20.0
     Generated using ONCVPSP code by D. R. Hamann
     Using radial grid of  602 points,  6 beta functions with: 
                l(1) =   0
                l(2) =   0
                l(3) =   1
                l(4) =   1
                l(5) =   2
                l(6) =   2

     atomic species   valence    mass     pseudopotential
        S              6.00    32.06500     S ( 1.00)
        Zn            20.00    65.40900     Zn( 1.00)

     24 Sym. Ops. (no inversion) found



   Cartesian axes

     site n.     atom                  positions (alat units)
         1           Zn  tau(   1) = (   0.0000000   0.0000000   0.0000000  )
         2           S   tau(   2) = (  -0.2500000   0.2500000   0.2500001  )

     number of k points=    72  Gaussian smearing, width (Ry)=  0.0005
                       cart. coord. in units 2pi/alat
        k(    1) = (   0.0000000   0.0000000   0.0000000), wk =   0.0011574
        k(    2) = (  -0.0833333   0.0833333  -0.0833333), wk =   0.0092593
        k(    3) = (  -0.1666667   0.1666667  -0.1666667), wk =   0.0092593
        k(    4) = (  -0.2500000   0.2500000  -0.2500000), wk =   0.0092593
        k(    5) = (  -0.3333333   0.3333333  -0.3333333), wk =   0.0092593
        k(    6) = (  -0.4166667   0.4166667  -0.4166667), wk =   0.0092593
        k(    7) = (   0.5000000  -0.5000000   0.5000000), wk =   0.0046296
        k(    8) = (   0.0000000   0.1666667   0.0000000), wk =   0.0069444
        k(    9) = (  -0.0833333   0.2500000  -0.0833333), wk =   0.0277778
        k(   10) = (  -0.1666667   0.3333333  -0.1666667), wk =   0.0277778
        k(   11) = (  -0.2500000   0.4166667  -0.2500000), wk =   0.0277778
        k(   12) = (  -0.3333333   0.5000000  -0.3333333), wk =   0.0277778
        k(   13) = (   0.5833333  -0.4166667   0.5833333), wk =   0.0277778
        k(   14) = (   0.5000000  -0.3333333   0.5000000), wk =   0.0277778
        k(   15) = (   0.4166667  -0.2500000   0.4166667), wk =   0.0277778
        k(   16) = (   0.3333333  -0.1666667   0.3333333), wk =   0.0277778
        k(   17) = (   0.2500000  -0.0833333   0.2500000), wk =   0.0277778
        k(   18) = (   0.1666667  -0.0000000   0.1666667), wk =   0.0138889
        k(   19) = (   0.0000000   0.3333333   0.0000000), wk =   0.0069444
        k(   20) = (  -0.0833333   0.4166667  -0.0833333), wk =   0.0277778
        k(   21) = (  -0.1666667   0.5000000  -0.1666667), wk =   0.0277778
        k(   22) = (  -0.2500000   0.5833333  -0.2500000), wk =   0.0277778
        k(   23) = (   0.6666667  -0.3333333   0.6666667), wk =   0.0277778
        k(   24) = (   0.5833333  -0.2500000   0.5833333), wk =   0.0277778
        k(   25) = (   0.5000000  -0.1666667   0.5000000), wk =   0.0277778
        k(   26) = (   0.4166667  -0.0833333   0.4166667), wk =   0.0277778
        k(   27) = (   0.3333333   0.0000000   0.3333333), wk =   0.0138889
        k(   28) = (   0.0000000   0.5000000   0.0000000), wk =   0.0069444
        k(   29) = (  -0.0833333   0.5833333  -0.0833333), wk =   0.0277778
        k(   30) = (  -0.1666667   0.6666667  -0.1666667), wk =   0.0277778
        k(   31) = (   0.7500000  -0.2500000   0.7500000), wk =   0.0277778
        k(   32) = (   0.6666667  -0.1666667   0.6666667), wk =   0.0277778
        k(   33) = (   0.5833333  -0.0833333   0.5833333), wk =   0.0277778
        k(   34) = (   0.5000000   0.0000000   0.5000000), wk =   0.0138889
        k(   35) = (   0.0000000   0.6666667   0.0000000), wk =   0.0069444
        k(   36) = (  -0.0833333   0.7500000  -0.0833333), wk =   0.0277778
        k(   37) = (   0.8333333  -0.1666667   0.8333333), wk =   0.0277778
        k(   38) = (   0.7500000  -0.0833333   0.7500000), wk =   0.0277778
        k(   39) = (   0.6666667  -0.0000000   0.6666667), wk =   0.0138889
        k(   40) = (   0.0000000   0.8333333   0.0000000), wk =   0.0069444
        k(   41) = (   0.9166667  -0.0833333   0.9166667), wk =   0.0277778
        k(   42) = (   0.8333333   0.0000000   0.8333333), wk =   0.0138889
        k(   43) = (   0.0000000  -1.0000000   0.0000000), wk =   0.0034722
        k(   44) = (  -0.1666667   0.3333333   0.0000000), wk =   0.0277778
        k(   45) = (  -0.2500000   0.4166667  -0.0833333), wk =   0.0555556
        k(   46) = (  -0.3333333   0.5000000  -0.1666667), wk =   0.0555556
        k(   47) = (   0.5833333  -0.4166667   0.7500000), wk =   0.0555556
        k(   48) = (   0.5000000  -0.3333333   0.6666667), wk =   0.0277778
        k(   49) = (  -0.1666667   0.5000000   0.0000000), wk =   0.0277778
        k(   50) = (  -0.2500000   0.5833333  -0.0833333), wk =   0.0555556
        k(   51) = (   0.6666667  -0.3333333   0.8333333), wk =   0.0555556
        k(   52) = (   0.5833333  -0.2500000   0.7500000), wk =   0.0555556
        k(   53) = (   0.5000000  -0.1666667   0.6666667), wk =   0.0555556
        k(   54) = (   0.4166667  -0.0833333   0.5833333), wk =   0.0555556
        k(   55) = (   0.3333333   0.0000000   0.5000000), wk =   0.0277778
        k(   56) = (  -0.1666667   0.6666667  -0.0000000), wk =   0.0277778
        k(   57) = (   0.7500000  -0.2500000   0.9166667), wk =   0.0555556
        k(   58) = (   0.6666667  -0.1666667   0.8333333), wk =   0.0555556
        k(   59) = (   0.5833333  -0.0833333   0.7500000), wk =   0.0555556
        k(   60) = (   0.5000000   0.0000000   0.6666667), wk =   0.0277778
        k(   61) = (   0.8333333  -0.1666667   1.0000000), wk =   0.0277778
        k(   62) = (   0.7500000  -0.0833333   0.9166667), wk =   0.0555556
        k(   63) = (   0.6666667   0.0000000   0.8333333), wk =   0.0277778
        k(   64) = (  -0.1666667  -1.0000000  -0.0000000), wk =   0.0138889
        k(   65) = (   0.6666667  -0.3333333   1.0000000), wk =   0.0277778
        k(   66) = (   0.5833333  -0.2500000   0.9166667), wk =   0.0555556
        k(   67) = (   0.5000000  -0.1666667   0.8333333), wk =   0.0277778
        k(   68) = (   0.6666667  -0.1666667   1.0000000), wk =   0.0277778
        k(   69) = (   0.5833333  -0.0833333   0.9166667), wk =   0.0555556
        k(   70) = (   0.5000000   0.0000000   0.8333333), wk =   0.0277778
        k(   71) = (  -0.3333333  -1.0000000   0.0000000), wk =   0.0138889
        k(   72) = (  -0.5000000  -1.0000000   0.0000000), wk =   0.0069444

     Dense  grid:    19579 G-vectors     FFT dimensions: (  40,  40,  40)

     Estimated max dynamical RAM per process >       4.41 MB

     Estimated total dynamical RAM >     101.17 MB

     Initial potential from superposition of free atoms

     starting charge      25.9670, renormalised to      26.0000
     Starting wfcs are random

     total cpu time spent up to now is        0.4 secs

     Self-consistent Calculation

     iteration #  1     ecut=    67.00 Ry     beta= 0.70
     Davidson diagonalization with overlap
     ethr =  1.00E-02,  avg # of iterations =  9.5

     Threshold (ethr) on eigenvalues was too large:
     Diagonalizing with lowered threshold

     Davidson diagonalization with overlap
     ethr =  4.74E-04,  avg # of iterations =  1.7

     total cpu time spent up to now is        2.6 secs

     total energy              =    -420.85291213 Ry
     estimated scf accuracy    <       0.11779266 Ry

     iteration #  2     ecut=    67.00 Ry     beta= 0.70
     Davidson diagonalization with overlap
     ethr =  4.53E-04,  avg # of iterations =  2.1

     total cpu time spent up to now is        3.2 secs

     total energy              =    -420.88885027 Ry
     estimated scf accuracy    <       0.06565775 Ry

     iteration #  3     ecut=    67.00 Ry     beta= 0.70
     Davidson diagonalization with overlap
     ethr =  2.53E-04,  avg # of iterations =  1.4

     total cpu time spent up to now is        3.7 secs

     total energy              =    -420.90230153 Ry
     estimated scf accuracy    <       0.00047671 Ry

     iteration #  4     ecut=    67.00 Ry     beta= 0.70
     Davidson diagonalization with overlap
     ethr =  1.83E-06,  avg # of iterations =  5.4

     total cpu time spent up to now is        4.5 secs

     total energy              =    -420.90251804 Ry
     estimated scf accuracy    <       0.00003413 Ry

     iteration #  5     ecut=    67.00 Ry     beta= 0.70
     Davidson diagonalization with overlap
     ethr =  1.31E-07,  avg # of iterations =  2.0

     total cpu time spent up to now is        5.1 secs

     total energy              =    -420.90252207 Ry
     estimated scf accuracy    <       0.00000236 Ry

     iteration #  6     ecut=    67.00 Ry     beta= 0.70
     Davidson diagonalization with overlap
     ethr =  9.08E-09,  avg # of iterations =  2.0

     total cpu time spent up to now is        5.6 secs

     total energy              =    -420.90252242 Ry
     estimated scf accuracy    <       0.00000002 Ry

     iteration #  7     ecut=    67.00 Ry     beta= 0.70
     Davidson diagonalization with overlap
     ethr =  8.47E-11,  avg # of iterations =  3.1

     total cpu time spent up to now is        6.2 secs

     total energy              =    -420.90252243 Ry
     estimated scf accuracy    <          7.2E-09 Ry

     iteration #  8     ecut=    67.00 Ry     beta= 0.70
     Davidson diagonalization with overlap
     ethr =  2.77E-11,  avg # of iterations =  2.0

     total cpu time spent up to now is        6.8 secs

     total energy              =    -420.90252243 Ry
     estimated scf accuracy    <          8.3E-10 Ry

     iteration #  9     ecut=    67.00 Ry     beta= 0.70
     Davidson diagonalization with overlap
     ethr =  3.18E-12,  avg # of iterations =  2.0

     total cpu time spent up to now is        7.4 secs

     End of self-consistent calculation

          k = 0.0000 0.0000 0.0000 (  2421 PWs)   bands (ev):

  -117.2570 -71.4297 -71.4297 -71.4297  -5.5556   1.2802   1.2802   1.2802
     1.7883   1.7883   7.6478   7.6478   7.6478   9.7982  14.0667  14.0667
    14.0667  19.4089  19.4089  19.5811  22.2430  22.2430  22.2430  25.3466
    33.4986  33.4986

          k =-0.0833 0.0833-0.0833 (  2442 PWs)   bands (ev):

  -117.2570 -71.4297 -71.4297 -71.4297  -5.5020   1.2794   1.2901   1.2901
     1.7874   1.7874   7.0586   7.5782   7.5782  10.2646  13.9926  14.1893
    14.1893  19.0741  19.0741  20.0166  21.8241  22.8769  22.8770  26.1299
    32.2672  32.6846

          k =-0.1667 0.1667-0.1667 (  2457 PWs)   bands (ev):

  -117.2570 -71.4297 -71.4297 -71.4297  -5.3498   1.2860   1.3162   1.3162
     1.7864   1.7864   5.9563   7.3985   7.3985  10.9074  14.0518  14.4707
    14.4707  18.6260  18.6260  20.3914  21.9547  24.2718  24.2718  27.7564
    30.2884  30.7653

          k =-0.2500 0.2500-0.2500 (  2451 PWs)   bands (ev):

  -117.2570 -71.4298 -71.4297 -71.4297  -5.1267   1.3259   1.3486   1.3486
     1.7900   1.7900   4.7980   7.1731   7.1731  11.1585  14.6183  14.6928
    14.6928  18.6224  18.6224  19.8825  23.5971  25.9576  25.9576  27.8579
    28.6416  28.6416

          k =-0.3333 0.3333-0.3333 (  2442 PWs)   bands (ev):

  -117.2570 -71.4298 -71.4297 -71.4297  -4.8824   1.3761   1.3761   1.4410
     1.8005   1.8005   3.7306   6.9650   6.9650  11.1182  14.7143  14.7143
    15.5196  19.2371  19.2371  19.5415  24.9518  26.1957  26.1957  26.7670
    28.2381  28.2381

          k =-0.4167 0.4167-0.4167 (  2449 PWs)   bands (ev):

  -117.2570 -71.4298 -71.4297 -71.4297  -4.6870   1.3923   1.3923   1.6826
     1.8136   1.8136   2.8432   6.8212   6.8212  11.0273  14.6351  14.6351
    16.2811  19.6239  20.2807  20.2807  23.8262  24.4344  24.4344  28.5575
    30.1329  30.1329

          k = 0.5000-0.5000 0.5000 (  2452 PWs)   bands (ev):

  -117.2570 -71.4299 -71.4297 -71.4297  -4.6113   1.3974   1.3974   1.8196
     1.8196   1.9945   2.3013   6.7700   6.7700  10.9892  14.5931  14.5931
    16.5537  19.8565  21.0402  21.0402  23.0880  23.4236  23.4236  30.1066
    31.3952  31.3953

          k = 0.0000 0.1667 0.0000 (  2449 PWs)   bands (ev):

  -117.2570 -71.4297 -71.4297 -71.4297  -5.4841   1.2701   1.2981   1.2981
     1.7804   1.7935   7.0689   7.4514   7.4514  10.4389  13.7087  14.3603
    14.3603  18.4703  19.4967  20.2027  22.5109  22.5109  22.6567  26.4708
    32.0290  32.0290

          k =-0.0833 0.2500-0.0833 (  2458 PWs)   bands (ev):

  -117.2570 -71.4297 -71.4297 -71.4297  -5.3647   1.2669   1.3218   1.3235
     1.7735   1.7980   6.2376   7.2302   7.3196  11.0475  13.5104  14.6603
    14.7025  17.8594  19.3483  20.9154  22.0723  23.3394  24.0484  27.8688
    30.3377  30.4745

          k =-0.1667 0.3333-0.1667 (  2455 PWs)   bands (ev):

  -117.2570 -71.4297 -71.4297 -71.4297  -5.1647   1.2880   1.3564   1.3571
     1.7721   1.8036   5.1534   6.9875   7.1147  11.4510  13.7426  14.8944
    15.0038  17.7781  19.2737  20.6666  23.1442  24.8282  25.8191  28.1451
    28.4310  29.6469

          k =-0.2500 0.4167-0.2500 (  2453 PWs)   bands (ev):

  -117.2570 -71.4298 -71.4297 -71.4297  -4.9258   1.3456   1.3872   1.4139
     1.7829   1.8123   4.0855   6.7866   6.8587  11.4889  14.2202  15.0751
    15.1774  18.3731  19.7233  20.2194  24.6182  25.9631  26.3777  27.0233
    27.8528  28.6401

          k =-0.3333 0.5000-0.3333 (  2447 PWs)   bands (ev):

  -117.2570 -71.4298 -71.4297 -71.4297  -4.7112   1.3836   1.4058   1.5830
     1.8117   1.8207   3.1522   6.6224   6.6706  11.4075  14.2925  14.9655
    15.9515  19.2326  20.2414  20.6045  23.6898  24.3411  26.3743  27.8337
    28.7618  30.1653

          k = 0.5833-0.4167 0.5833 (  2447 PWs)   bands (ev):

  -117.2570 -71.4298 -71.4297 -71.4297  -4.5929   1.3965   1.4120   1.7739
     1.8209   1.9605   2.4629   6.4572   6.6616  11.3550  14.2763  14.8359
    16.5663  19.8142  20.9194  21.0472  22.5634  23.5194  24.8500  29.7113
    30.6123  31.3149

          k = 0.5000-0.3333 0.5000 (  2439 PWs)   bands (ev):

  -117.2570 -71.4298 -71.4297 -71.4297  -4.6182   1.3981   1.4072   1.7519
     1.8089   1.8751   2.6539   6.3955   6.7605  11.3720  14.3586  14.7758
    16.4555  19.9717  20.0375  21.3470  22.4285  24.6296  24.6525  28.8639
    30.3440  31.2640

          k = 0.4167-0.2500 0.4167 (  2444 PWs)   bands (ev):

  -117.2570 -71.4298 -71.4297 -71.4297  -4.7765   1.3888   1.3911   1.5113
     1.7908   1.8235   3.4438   6.4515   6.9475  11.4485  14.5256  14.7786
    15.6916  18.8662  19.9176  20.5992  23.6267  25.9009  26.4350  26.9004
    28.3008  29.7626

          k = 0.3333-0.1667 0.3333 (  2455 PWs)   bands (ev):

  -117.2570 -71.4298 -71.4297 -71.4297  -5.0073   1.3468   1.3637   1.3814
     1.7774   1.8092   4.4292   6.6222   7.1831  11.5081  14.4614  14.7376
    14.9757  18.1009  19.4550  20.4264  23.9702  25.8716  26.4485  27.3021
    28.0051  29.0207

          k = 0.2500-0.0833 0.2500 (  2456 PWs)   bands (ev):

  -117.2570 -71.4297 -71.4297 -71.4297  -5.2391   1.2906   1.3304   1.3455
     1.7746   1.7990   5.5005   6.8917   7.4106  11.3363  13.9088  14.5325
    14.8717  17.9685  18.9821  20.9068  22.4424  24.1825  25.6791  28.2381
    28.8091  30.3273

          k = 0.1667-0.0000 0.1667 (  2459 PWs)   bands (ev):

  -117.2570 -71.4297 -71.4297 -71.4297  -5.4154   1.2768   1.3024   1.3130
     1.7798   1.7928   6.4781   7.2441   7.5615  10.7799  13.8187  14.2748
    14.5771  18.3939  19.0399  20.6422  21.9332  22.8604  24.0864  27.1899
    30.5205  31.6558

          k = 0.0000 0.3333 0.0000 (  2453 PWs)   bands (ev):

  -117.2570 -71.4297 -71.4297 -71.4297  -5.2810   1.2465   1.3500   1.3500
     1.7612   1.8075   6.0712   6.9694   6.9694  11.5134  12.9584  15.1397
    15.1397  17.0919  19.7560  21.7183  23.2979  23.2979  23.3261  29.0368
    29.7394  29.7394

          k =-0.0833 0.4167-0.0833 (  2457 PWs)   bands (ev):

  -117.2570 -71.4297 -71.4297 -71.4297  -5.1137   1.2479   1.3870   1.3879
     1.7561   1.8159   5.3304   6.6983   6.7209  11.9527  12.7911  15.3670
    15.5785  17.0288  19.8475  22.1659  23.2824  24.2533  25.1307  28.1162
    28.1930  30.3595

          k =-0.1667 0.5000-0.1667 (  2451 PWs)   bands (ev):

  -117.2570 -71.4298 -71.4297 -71.4297  -4.8966   1.2888   1.4220   1.4358
     1.7692   1.8242   4.4062   6.4162   6.4840  12.0454  13.2412  15.1578
    15.7788  17.9069  20.1911  21.6803  24.4558  25.5630  26.1599  26.4822
    27.5843  29.8222

          k =-0.2500 0.5833-0.2500 (  2443 PWs)   bands (ev):

  -117.2570 -71.4298 -71.4297 -71.4297  -4.6836   1.3547   1.4450   1.5287
     1.8158   1.8295   3.5151   6.0848   6.3714  11.9884  13.7597  15.3310
    15.7018  18.9559  20.9139  21.4375  23.6364  24.3611  27.1437  27.6863
    28.3173  29.7961

          k = 0.6667-0.3333 0.6667 (  2450 PWs)   bands (ev):

  -117.2570 -71.4298 -71.4297 -71.4297  -4.5408   1.3889   1.4530   1.6843
     1.8251   1.9473   2.7937   5.8057   6.3824  11.9740  13.8821  15.5157
    16.1009  19.5136  21.0806  21.7036  22.5416  23.7325  26.5533  29.1272
    29.4252  30.9786

          k = 0.5833-0.2500 0.5833 (  2435 PWs)   bands (ev):

  -117.2570 -71.4298 -71.4297 -71.4297  -4.5210   1.4000   1.4473   1.7454
     1.8082   1.9987   2.6400   5.6352   6.5147  12.0312  13.9527  15.3537
    16.4405  19.8458  19.9349  21.5750  22.8897  24.9100  25.4312  28.4460
    30.6738  31.1319

          k = 0.5000-0.1667 0.5000 (  2445 PWs)   bands (ev):

  -117.2570 -71.4298 -71.4297 -71.4297  -4.6319   1.4015   1.4286   1.6115
     1.7858   1.8537   3.2558   5.6142   6.7416  12.1359  14.1365  15.2423
    15.7182  18.6974  20.7298  21.7701  22.4578  25.9783  26.4515  26.6641
    29.5994  30.8536

          k = 0.4167-0.0833 0.4167 (  2449 PWs)   bands (ev):

  -117.2570 -71.4298 -71.4297 -71.4297  -4.8309   1.3892   1.3977   1.4295
     1.7701   1.8299   4.0798   5.7865   7.0139  12.1913  14.3430  14.7920
    15.0991  17.8543  20.7171  21.6176  23.0904  24.8425  26.9651  28.0080
    28.2310  29.9699

          k = 0.3333 0.0000 0.3333 (  2445 PWs)   bands (ev):

  -117.2570 -71.4298 -71.4297 -71.4297  -5.0529   1.3230   1.3611   1.3776
     1.7672   1.8133   4.8842   6.2214   7.2631  11.9435  13.9422  14.8182
    14.8598  17.6332  19.6393  22.0857  22.2759  25.2567  26.1494  27.3016
    28.9083  30.8469

          k = 0.0000 0.5000 0.0000 (  2429 PWs)   bands (ev):

  -117.2570 -71.4298 -71.4297 -71.4297  -4.9831   1.2263   1.4297   1.4297
     1.7480   1.8267   5.0718   6.3959   6.3959  12.1498  12.2554  16.2291
    16.2291  16.4966  20.1641  23.5252  24.3534  24.4975  24.4975  27.5711
    27.5711  29.6384

          k =-0.0833 0.5833-0.0833 (  2448 PWs)   bands (ev):

  -117.2570 -71.4298 -71.4297 -71.4297  -4.7997   1.2417   1.4717   1.4758
     1.7627   1.8357   4.4666   6.0701   6.1546  12.0145  12.4247  15.9412
    16.6732  17.5994  20.4818  23.4377  24.8329  25.1754  25.7809  26.5365
    27.0716  29.1369

          k =-0.1667 0.6667-0.1667 (  2440 PWs)   bands (ev):

  -117.2570 -71.4298 -71.4297 -71.4297  -4.6083   1.2998   1.5008   1.5320
     1.8226   1.8398   3.7713   5.6419   6.0247  11.9671  12.9811  15.6982
    16.7255  18.8615  21.0951  22.8406  24.0470  24.2919  26.8479  27.2493
    28.3020  29.5730

          k = 0.7500-0.2500 0.7500 (  2437 PWs)   bands (ev):

  -117.2570 -71.4298 -71.4297 -71.4297  -4.4647   1.3604   1.5113   1.6245
     1.8329   1.9551   3.1386   5.2244   6.0321  11.9969  13.6638  15.8172
    16.5234  19.4023  21.1571  22.5072  23.3990  23.8244  27.3484  28.5498
    28.7359  30.6695

          k = 0.6667-0.1667 0.6667 (  2432 PWs)   bands (ev):

  -117.2570 -71.4298 -71.4298 -71.4297  -4.4178   1.3894   1.5036   1.7146
     1.8132   2.0779   2.8169   4.9290   6.1759  12.1418  14.0559  16.2531
    16.2562  18.9302  20.0111  22.8917  23.6556  24.9965  26.1342  28.1848
    29.4149  30.9913

          k = 0.5833-0.0833 0.5833 (  2444 PWs)   bands (ev):

  -117.2570 -71.4298 -71.4298 -71.4297  -4.4840   1.4019   1.4789   1.7177
     1.7893   1.9186   3.1460   4.8459   6.4274  12.3759  14.2202  15.8696
    15.9628  18.8180  19.4420  23.0963  23.8232  25.4092  26.3526  26.6549
    29.7485  31.3311

          k = 0.5000 0.0000 0.5000 (  2437 PWs)   bands (ev):

  -117.2570 -71.4298 -71.4298 -71.4297  -4.6387   1.4049   1.4404   1.5596
     1.7732   1.8507   3.6706   5.1079   6.7323  12.5294  14.3440  14.9690
    15.5804  18.0506  20.9577  22.2835  23.2809  24.4463  26.6891  28.0699
    29.5296  30.1164

          k = 0.0000 0.6667 0.0000 (  2453 PWs)   bands (ev):

  -117.2570 -71.4298 -71.4297 -71.4297  -4.6563   1.2249   1.5220   1.5220
     1.7777   1.8458   4.1544   5.8807   5.8807  11.5803  12.1605  17.0846
    17.5039  17.5039  20.6609  24.7443  24.7443  24.8210  25.9384  26.9939
    26.9939  28.2993

          k =-0.0833 0.7500-0.0833 (  2436 PWs)   bands (ev):

  -117.2570 -71.4298 -71.4297 -71.4297  -4.5024   1.2518   1.5581   1.5646
     1.8415   1.8511   3.6970   5.5419   5.7205  11.5343  12.2002  16.9797
    17.8825  18.7480  21.1003  23.3867  23.8617  25.3592  26.1809  27.7014
    27.9532  29.2777

          k = 0.8333-0.1667 0.8333 (  2436 PWs)   bands (ev):

  -117.2570 -71.4298 -71.4298 -71.4297  -4.3825   1.3095   1.5716   1.6119
     1.8449   1.9733   3.2698   5.0401   5.7068  11.6405  12.7788  16.8140
    17.7336  19.4267  21.2665  22.5172  23.4639  25.2184  26.5456  28.1942
    28.6823  30.6304

          k = 0.7500-0.0833 0.7500 (  2431 PWs)   bands (ev):

  -117.2570 -71.4298 -71.4298 -71.4297  -4.3346   1.3596   1.5609   1.6757
     1.8259   2.1174   2.9970   4.5969   5.8429  11.8176  13.6539  16.7841
    17.3140  18.6467  20.3014  23.1993  24.5515  25.0622  26.3040  28.1656
    28.5215  30.5071

          k = 0.6667-0.0000 0.6667 (  2440 PWs)   bands (ev):

  -117.2570 -71.4298 -71.4298 -71.4297  -4.3734   1.3881   1.5276   1.7294
     1.8037   2.0702   3.0266   4.4636   6.1013  12.1045  14.2711  16.4724
    16.7142  18.3159  19.3452  24.1776  24.6540  25.3948  25.9058  26.7248
    28.8655  31.2595

          k = 0.0000 0.8333 0.0000 (  2446 PWs)   bands (ev):

  -117.2570 -71.4298 -71.4297 -71.4297  -4.3946   1.2368   1.5999   1.5999
     1.8599   1.8949   3.4052   5.5252   5.5252  11.1869  11.8697  18.1372
    18.8458  18.8458  21.1183  23.1361  23.1361  24.9943  26.6213  28.3025
    28.9707  28.9707

          k = 0.9167-0.0833 0.9167 (  2446 PWs)   bands (ev):

  -117.2570 -71.4298 -71.4297 -71.4297  -4.3179   1.2620   1.6155   1.6234
     1.8584   1.9965   3.1454   5.2482   5.4794  11.2615  11.9926  18.0939
    18.9733  19.5334  21.3482  22.3476  22.6700  25.1363  26.7492  28.0008
    29.6171  30.5033

          k = 0.8333 0.0000 0.8333 (  2434 PWs)   bands (ev):

  -117.2570 -71.4298 -71.4298 -71.4297  -4.2964   1.3117   1.6018   1.6443
     1.8441   2.0965   3.0328   4.8106   5.5932  11.5059  12.6931  17.6706
    18.3196  19.0470  20.8348  22.6736  23.5300  25.5929  26.5554  28.1065
    28.7912  30.6229

          k = 0.0000-1.0000 0.0000 (  2450 PWs)   bands (ev):

  -117.2570 -71.4299 -71.4297 -71.4297  -4.2932   1.2430   1.6312   1.6312
     1.8650   2.0089   3.0595   5.3978   5.3978  11.0502  11.7454  18.6808
    19.6870  19.6870  21.3171  22.1491  22.1491  24.5325  27.1955  27.8511
    31.1595  31.1595

          k =-0.1667 0.3333 0.0000 (  2450 PWs)   bands (ev):

  -117.2570 -71.4297 -71.4297 -71.4297  -5.2211   1.2671   1.3498   1.3568
     1.7656   1.8061   5.6126   6.7444   7.2198  11.6044  13.2982  14.9564
    15.0486  17.4495  19.4280  21.7487  22.2660  23.8958  25.3089  28.2567
    29.1610  29.9412

          k =-0.2500 0.4167-0.0833 (  2452 PWs)   bands (ev):

  -117.2570 -71.4298 -71.4297 -71.4297  -5.0118   1.3014   1.3857   1.3955
     1.7665   1.8163   4.7281   6.3311   7.0281  11.9718  13.5511  14.9322
    15.3351  17.6429  19.8168  21.5152  23.3398  25.4577  26.1802  27.0113
    28.2713  30.1331

          k =-0.3333 0.5000-0.1667 (  2449 PWs)   bands (ev):

  -117.2570 -71.4298 -71.4297 -71.4297  -4.7845   1.3655   1.4118   1.4754
     1.7837   1.8289   3.7904   6.0754   6.7833  11.9904  13.9982  14.9866
    15.5302  18.3490  20.6406  21.1368  23.4840  25.7676  26.1190  27.5826
    28.3331  29.5241

          k = 0.5833-0.4167 0.7500 (  2440 PWs)   bands (ev):

  -117.2570 -71.4298 -71.4297 -71.4297  -4.6043   1.3960   1.4286   1.6578
     1.8117   1.8699   2.9714   5.9473   6.5796  11.9260  13.9759  15.2046
    16.0919  19.2405  20.8181  21.5270  22.4045  24.5745  26.4966  27.7793
    29.7166  31.0184

          k = 0.5000-0.3333 0.6667 (  2438 PWs)   bands (ev):

  -117.2570 -71.4298 -71.4297 -71.4297  -4.5350   1.4019   1.4346   1.7526
     1.8134   2.0359   2.5098   5.9119   6.4988  11.8970  13.9202  15.2050
    16.5679  19.6424  20.7474  21.4841  22.2869  24.3718  25.3603  29.3424
    30.3485  31.2668

          k =-0.1667 0.5000 0.0000 (  2451 PWs)   bands (ev):

  -117.2570 -71.4298 -71.4297 -71.4297  -4.9376   1.2588   1.4220   1.4348
     1.7580   1.8259   4.7681   6.1649   6.5963  12.3368  12.6078  15.2884
    16.1398  17.3484  20.2061  22.9632  23.3054  25.4455  25.9593  26.5574
    27.7464  29.9079

          k =-0.2500 0.5833-0.0833 (  2440 PWs)   bands (ev):

  -117.2570 -71.4298 -71.4297 -71.4297  -4.7319   1.3126   1.4487   1.4961
     1.7848   1.8357   4.0480   5.7489   6.3759  12.3788  13.1056  14.9901
    16.4753  18.1374  20.9685  22.5126  23.5945  25.2490  25.9051  27.4076
    28.4708  29.4325

          k = 0.6667-0.3333 0.8333 (  2439 PWs)   bands (ev):

  -117.2570 -71.4298 -71.4297 -71.4297  -4.5522   1.3748   1.4686   1.5986
     1.8225   1.8797   3.3168   5.4653   6.1894  12.3514  13.6393  15.0976
    16.4982  18.9566  21.6412  21.8913  22.9152  24.5198  26.9607  27.6829
    29.3549  30.6295

          k = 0.5833-0.2500 0.7500 (  2437 PWs)   bands (ev):

  -117.2570 -71.4298 -71.4297 -71.4297  -4.4570   1.4001   1.4764   1.7100
     1.8108   2.0423   2.7826   5.2689   6.1578  12.4042  13.7394  15.5556
    16.6086  18.9061  21.0816  22.0485  22.8851  24.7772  26.3296  28.6695
    29.5658  31.0531

          k = 0.5000-0.1667 0.6667 (  2437 PWs)   bands (ev):

  -117.2570 -71.4298 -71.4298 -71.4297  -4.4813   1.4082   1.4646   1.7163
     1.7998   1.9689   2.9239   5.1780   6.2961  12.5217  13.7787  15.4375
    16.5479  18.8127  20.3668  22.3216  23.2676  25.1827  26.3187  27.3815
    30.1536  31.1679

          k = 0.4167-0.0833 0.5833 (  2444 PWs)   bands (ev):

  -117.2570 -71.4298 -71.4297 -71.4297  -4.6156   1.4065   1.4311   1.5763
     1.7889   1.8547   3.5453   5.2675   6.5470  12.6291  13.8987  14.7540
    16.2194  18.2793  21.1729  22.1357  22.9526  25.2426  26.0947  27.8209
    29.5104  30.5058

          k = 0.3333 0.0000 0.5000 (  2446 PWs)   bands (ev):

  -117.2570 -71.4298 -71.4297 -71.4297  -4.8122   1.3542   1.4087   1.4553
     1.7700   1.8322   4.2055   5.6460   6.8254  12.5213  13.6624  14.5984
    15.8355  17.7379  20.8941  22.4410  22.8559  24.5679  26.7761  27.7442
    28.5900  30.1445

          k =-0.1667 0.6667-0.0000 (  2437 PWs)   bands (ev):

  -117.2570 -71.4298 -71.4297 -71.4297  -4.6296   1.2660   1.5015   1.5332
     1.7987   1.8437   3.9984   5.6609   5.9566  12.0085  12.4323  15.9215
    17.4903  18.1225  21.0305  23.4006  24.4698  24.7950  25.9852  27.2686
    27.9475  28.8503

          k = 0.7500-0.2500 0.9167 (  2438 PWs)   bands (ev):

  -117.2570 -71.4298 -71.4297 -71.4297  -4.4725   1.3252   1.5214   1.5944
     1.8365   1.8986   3.4884   5.2405   5.7750  12.1143  12.9120  15.7215
    17.6615  18.8798  21.7091  22.3022  23.8840  24.6071  26.6705  27.5630
    28.8575  30.4669

          k = 0.6667-0.1667 0.8333 (  2438 PWs)   bands (ev):

  -117.2570 -71.4298 -71.4298 -71.4297  -4.3764   1.3751   1.5321   1.6678
     1.8197   2.0557   3.0549   4.8481   5.7700  12.2234  13.6553  15.7168
    17.3660  18.7979  21.2475  22.3300  24.1182  24.6810  26.6841  28.2938
    29.2280  30.4132

          k = 0.5833-0.0833 0.7500 (  2435 PWs)   bands (ev):

  -117.2570 -71.4298 -71.4298 -71.4297  -4.3733   1.3993   1.5178   1.7317
     1.7904   2.0889   2.9727   4.6193   5.9417  12.4374  14.0881  15.6957
    17.0906  18.3122  20.1316  23.3552  24.3099  25.3705  26.0939  27.3838
    29.2275  31.0824

          k = 0.5000 0.0000 0.6667 (  2442 PWs)   bands (ev):

  -117.2570 -71.4298 -71.4298 -71.4297  -4.4633   1.4117   1.4777   1.6982
     1.7914   1.9285   3.2678   4.7214   6.2290  12.6977  14.1326  14.9930
    16.9012  18.3503  19.8995  23.5572  24.1444  24.7801  26.1089  27.0901
    29.7033  31.3494

          k = 0.8333-0.1667 1.0000 (  2445 PWs)   bands (ev):

  -117.2570 -71.4298 -71.4297 -71.4297  -4.3856   1.2785   1.5766   1.6109
     1.8508   1.9355   3.3571   5.3345   5.4765  11.6055  12.2189  17.0543
    18.7380  18.9508  21.5860  22.4762  23.1978  25.7716  26.1020  28.2399
    28.3482  30.1068

          k = 0.7500-0.0833 0.9167 (  2435 PWs)   bands (ev):

  -117.2570 -71.4298 -71.4298 -71.4297  -4.3146   1.3289   1.5833   1.6460
     1.8361   2.0732   3.0993   4.9075   5.4469  11.8589  12.7761  16.8759
    17.9789  19.4086  21.4018  22.3385  23.2829  25.8906  26.4019  28.3594
    28.9012  30.2796

          k = 0.6667 0.0000 0.8333 (  2448 PWs)   bands (ev):

  -117.2570 -71.4298 -71.4298 -71.4297  -4.3108   1.3728   1.5646   1.6905
     1.8109   2.1525   3.0006   4.5440   5.6315  12.1175  13.6641  16.5618
    17.0504  18.9342  20.5299  23.1389  24.1658  25.5562  26.6650  27.8328
    28.7181  30.3454

          k =-0.1667-1.0000-0.0000 (  2436 PWs)   bands (ev):

  -117.2570 -71.4298 -71.4298 -71.4297  -4.2917   1.2829   1.6120   1.6385
     1.8527   2.0572   3.0518   5.2546   5.2659  11.4630  12.1188  17.9913
    18.5349  19.8863  21.4705  22.3176  22.3806  25.3818  26.8545  27.9773
    30.2183  30.6086

          k = 0.6667-0.3333 1.0000 (  2433 PWs)   bands (ev):

  -117.2570 -71.4298 -71.4297 -71.4297  -4.5579   1.3696   1.4629   1.5811
     1.8116   1.8644   3.6414   5.1817   6.1184  12.9760  13.1019  14.6846
    17.3298  18.1861  21.6192  22.2233  23.9018  24.6820  25.9046  27.8054
    29.2927  30.5934

          k = 0.5833-0.2500 0.9167 (  2436 PWs)   bands (ev):

  -117.2570 -71.4298 -71.4298 -71.4297  -4.4239   1.4073   1.4886   1.6766
     1.8047   1.9835   3.1841   4.8850   5.8559  13.0150  13.5550  14.8520
    17.4370  18.4305  20.8926  22.8034  23.9659  24.7442  26.7385  27.1019
    30.1735  30.7672

          k = 0.5000-0.1667 0.8333 (  2442 PWs)   bands (ev):

  -117.2570 -71.4298 -71.4298 -71.4297  -4.3733   1.4130   1.5053   1.7349
     1.7774   2.1073   2.9229   4.8090   5.7452  13.0277  13.5991  15.3101
    17.1544  18.3572  21.4080  22.0689  24.0210  25.3759  26.1832  28.3817
    29.0580  31.0561

          k = 0.6667-0.1667 1.0000 (  2436 PWs)   bands (ev):

  -117.2570 -71.4298 -71.4298 -71.4297  -4.3624   1.3704   1.5371   1.6539
     1.8195   2.0249   3.2199   4.9355   5.4322  12.6511  13.0646  15.5075
    17.8481  18.9851  21.4367  22.7091  23.3730  25.3872  26.6761  27.6155
    29.4881  30.7192

          k = 0.5833-0.0833 0.9167 (  2444 PWs)   bands (ev):

  -117.2570 -71.4298 -71.4298 -71.4297  -4.3112   1.4008   1.5518   1.7057
     1.7833   2.1525   3.0320   4.6957   5.3116  12.9154  13.6720  15.4881
    16.7567  19.4029  21.5475  22.2380  23.7186  25.5114  27.0521  28.5698
    28.9933  30.1542

          k = 0.5000 0.0000 0.8333 (  2442 PWs)   bands (ev):

  -117.2570 -71.4298 -71.4298 -71.4297  -4.3344   1.4134   1.5299   1.7359
     1.7628   2.1200   3.0598   4.6082   5.5067  13.1137  13.8566  15.0979
    16.8507  19.0047  20.8093  23.1601  23.8303  25.3667  26.8929  27.4520
    29.7661  30.4103

          k =-0.3333-1.0000 0.0000 (  2436 PWs)   bands (ev):

  -117.2570 -71.4298 -71.4298 -71.4297  -4.2887   1.3676   1.5818   1.6692
     1.8116   2.1505   3.0335   4.9875   5.0192  12.5001  13.0369  16.6936
    16.7254  20.0865  21.5404  22.5049  22.6833  25.9416  27.3166  28.3018
    29.5826  29.8877

          k =-0.5000-1.0000 0.0000 (  2468 PWs)   bands (ev):

  -117.2570 -71.4298 -71.4298 -71.4298  -4.2872   1.4113   1.5693   1.7250
     1.7517   2.1975   3.0226   4.8604   4.9028  13.3594  13.7423  15.5520
    15.8964  20.1647  21.5584  22.5404  22.8246  25.6954  28.1481  28.5497
    29.2488  29.6259

     the Fermi energy is     8.8073 ev

!    total energy              =    -420.90252243 Ry
     estimated scf accuracy    <          3.0E-11 Ry
     smearing contrib. (-TS)   =      -0.00000000 Ry
     internal energy E=F+TS    =    -420.90252243 Ry

     The total energy is F=E-TS. E is the sum of the following terms:
     one-electron contribution =    -336.81091288 Ry
     hartree contribution      =     172.17961393 Ry
     xc contribution           =     -41.01330214 Ry
     ewald contribution        =    -215.25792135 Ry

     convergence has been achieved in   9 iterations

     Writing all to output data dir out/mp-10695.save/
 
     init_run     :      0.22s CPU      0.29s WALL (       1 calls)
     electrons    :      6.32s CPU      7.03s WALL (       1 calls)

     Called by init_run:
     wfcinit      :      0.20s CPU      0.24s WALL (       1 calls)
     potinit      :      0.01s CPU      0.01s WALL (       1 calls)
     hinit0       :      0.00s CPU      0.03s WALL (       1 calls)

     Called by electrons:
     c_bands      :      5.55s CPU      6.12s WALL (      10 calls)
     sum_band     :      0.73s CPU      0.84s WALL (      10 calls)
     v_of_rho     :      0.03s CPU      0.03s WALL (      10 calls)
     mix_rho      :      0.01s CPU      0.01s WALL (      10 calls)

     Called by c_bands:
     init_us_2    :      0.05s CPU      0.05s WALL (     756 calls)
     init_us_2:cp :      0.04s CPU      0.05s WALL (     756 calls)
     cegterg      :      5.10s CPU      5.36s WALL (     360 calls)

     Called by *egterg:
     cdiaghg      :      1.07s CPU      1.11s WALL (    1403 calls)
     h_psi        :      3.72s CPU      3.95s WALL (    1475 calls)
     g_psi        :      0.02s CPU      0.02s WALL (    1079 calls)

     Called by h_psi:
     h_psi:calbec :      0.09s CPU      0.10s WALL (    1475 calls)
     vloc_psi     :      3.56s CPU      3.78s WALL (    1475 calls)
     add_vuspsi   :      0.06s CPU      0.06s WALL (    1475 calls)

     General routines
     calbec       :      0.09s CPU      0.10s WALL (    1475 calls)
     fft          :      0.01s CPU      0.03s WALL (     100 calls)
     ffts         :      0.00s CPU      0.00s WALL (      10 calls)
     fftw         :      3.79s CPU      4.03s WALL (   65694 calls)
     davcio       :      0.07s CPU      0.34s WALL (    1238 calls)
 
     Parallel routines
 
     PWSCF        :      6.65s CPU      7.60s WALL

 
   This run was terminated on:   4:21:45  15Nov2023            

=------------------------------------------------------------------------------=
   JOB DONE.
=------------------------------------------------------------------------------=
