
     Program PWSCF v.7.1 starts on 15Nov2023 at  2:23:59 

     This program is part of the open-source Quantum ESPRESSO suite
     for quantum simulation of materials; please cite
         "P. Giannozzi et al., J. Phys.:Condens. Matter 21 395502 (2009);
         "P. Giannozzi et al., J. Phys.:Condens. Matter 29 465901 (2017);
         "P. Giannozzi et al., J. Chem. Phys. 152 154105 (2020);
          URL http://www.quantum-espresso.org", 
     in publications or presentations arising from this work. More details at
     http://www.quantum-espresso.org/quote

     Parallel version (MPI), running on     8 processors

     MPI processes distributed on     1 nodes
     123414 MiB available memory on the printing compute node when the environment starts
 
     Reading input from pw_mp-10695_nscf_k10_E67.in
Warning: card &IONS ignored
Warning: card / ignored
Warning: card &CELL ignored
Warning: card / ignored

     Current dimensions of program PWSCF are:
     Max number of different atomic species (ntypx) = 10
     Max number of k-points (npk) =  40000
     Max angular momentum in pseudopotentials (lmaxx) =  4

     Atomic positions and unit cell read from directory:
     out/mp-10695.save/
     Atomic positions from file used, from input discarded
 
 
     R & G space division:  proc/nbgrp/npool/nimage =       8
     Subspace diagonalization in iterative solution of the eigenvalue problem:
     one sub-group per band group will be used
     scalapack distributed-memory algorithm (size of sub-group:  2*  2 procs)

 
     Parallelization info
     --------------------
     sticks:   dense  smooth     PW     G-vecs:    dense   smooth      PW
     Min         119     119     35                 2446     2446     383
     Max         120     120     36                 2450     2450     384
     Sum         955     955    283                19579    19579    3071
 
     Using Slab Decomposition
 


     bravais-lattice index     =            2
     lattice parameter (alat)  =      10.1806  a.u.
     unit-cell volume          =     263.7946 (a.u.)^3
     number of atoms/cell      =            2
     number of atomic types    =            2
     number of electrons       =        26.00
     number of Kohn-Sham states=         1200
     kinetic-energy cutoff     =      67.0000  Ry
     charge density cutoff     =     268.0000  Ry
     Exchange-correlation= PBE
                           (   1   4   3   4   0   0   0)

     celldm(1)=  10.180645  celldm(2)=   0.000000  celldm(3)=   0.000000
     celldm(4)=   0.000000  celldm(5)=   0.000000  celldm(6)=   0.000000

     crystal axes: (cart. coord. in units of alat)
               a(1) = (  -0.500000   0.000000   0.500000 )  
               a(2) = (   0.000000   0.500000   0.500000 )  
               a(3) = (  -0.500000   0.500000   0.000000 )  

     reciprocal axes: (cart. coord. in units 2 pi/alat)
               b(1) = ( -1.000000 -1.000000  1.000000 )  
               b(2) = (  1.000000  1.000000  1.000000 )  
               b(3) = ( -1.000000  1.000000 -1.000000 )  


     PseudoPot. # 1 for S  read from file:
     /usr/scratch4/magr4985/MG/HTDF/pseudo/SG15/S.upf
     MD5 check sum: f9d020296ee6110346977bfd66d424f6
     Pseudo is Norm-conserving, Zval =  6.0
     Generated using ONCVPSP code by D. R. Hamann
     Using radial grid of  602 points,  4 beta functions with: 
                l(1) =   0
                l(2) =   0
                l(3) =   1
                l(4) =   1

     PseudoPot. # 2 for Zn read from file:
     /usr/scratch4/magr4985/MG/HTDF/pseudo/SG15/Zn.upf
     MD5 check sum: 732f41c0cd6489a4b50a33b4ec99a2d3
     Pseudo is Norm-conserving, Zval = 20.0
     Generated using ONCVPSP code by D. R. Hamann
     Using radial grid of  602 points,  6 beta functions with: 
                l(1) =   0
                l(2) =   0
                l(3) =   1
                l(4) =   1
                l(5) =   2
                l(6) =   2

     atomic species   valence    mass     pseudopotential
        S              6.00    32.06500     S ( 1.00)
        Zn            20.00    65.40900     Zn( 1.00)

     24 Sym. Ops. (no inversion) found



   Cartesian axes

     site n.     atom                  positions (alat units)
         1           Zn  tau(   1) = (   0.0000000   0.0000000   0.0000000  )
         2           S   tau(   2) = (  -0.2500000   0.2500000   0.2500001  )

     number of k points=     3  Gaussian smearing, width (Ry)=  0.0005
                       cart. coord. in units 2pi/alat
        k(    1) = (   0.0000000   0.0000000   0.0000000), wk =   0.2500000
        k(    2) = (   0.5000000  -0.5000000   0.5000000), wk =   1.0000000
        k(    3) = (   0.0000000  -1.0000000   0.0000000), wk =   0.7500000

     Dense  grid:    19579 G-vectors     FFT dimensions: (  40,  40,  40)

     Estimated max dynamical RAM per process >      70.17 MB

     Estimated total dynamical RAM >     561.38 MB

     The potential is recalculated from file :
     out/mp-10695.save/charge-density

     Starting wfcs are random

     Band Structure Calculation
     ParO style diagonalization

     ethr =  5.00E-06,  avg # of iterations =  6.4

     total cpu time spent up to now is      230.6 secs

     End of band structure calculation

          k = 0.0000 0.0000 0.0000 (  2421 PWs)   bands (ev):

  -117.2570 -71.4296 -71.4296 -71.4296  -5.5556   1.2802   1.2802   1.2802
     1.7884   1.7884   7.6478   7.6478   7.6478   9.7982  14.0667  14.0667
    14.0667  19.4089  19.4089  19.5811  22.2430  22.2430  22.2430  25.3467
    33.4986  33.4986  33.4986  35.9807  35.9807  35.9807  37.0103  37.0103
    39.8253  39.8253  39.8253  47.4950  48.6891  48.6891  50.7764  50.7764
    50.7764  52.4538  52.4538  52.4538  54.3833  55.2596  55.2596  55.2596
    55.8289  55.8289  55.8289  57.2693  57.2693  57.2693  57.2735  57.2735
    57.2735  59.0499  59.0499  60.5322  63.7090  63.7090  63.7090  64.2781
    64.2781  64.2781  64.5470  72.6582  75.7703  75.7703  78.4728  78.4728
    78.4728  81.6459  81.6459  81.6459  83.8392  87.8614  87.8614  87.8614
    88.5206  88.5206  91.8231  91.8231  91.8231  94.2884  94.2884  94.2884
    96.4585  96.5747  96.5747  96.5747  96.5763  96.5763  99.0046  99.0046
    99.0046 100.1558 100.1558 100.4505 100.4505 100.4505 101.5592 101.6835
   101.6835 101.6835 103.0512 103.0512 103.0512 104.6334 104.7179 104.7179
   104.7179 105.4552 105.4552 105.4552 105.5814 105.5814 105.7823 106.8677
   106.8677 106.8677 113.4551 115.8628 115.8628 115.8628 118.2507 118.2507
   118.2507 118.6024 118.6024 120.2241 120.2241 120.2241 121.1212 121.1212
   121.1212 122.0554 122.0554 122.0554 122.9735 122.9735 123.5236 127.4281
   127.4281 127.4281 131.1012 131.1012 131.9204 134.1278 134.1278 134.1278
   135.4889 135.4889 135.4889 135.7714 136.9345 136.9345 136.9345 137.2569
   138.3824 138.3824 138.3824 138.5633 138.5633 138.5633 139.5194 139.5194
   139.5194 140.5323 140.5323 140.5323 141.4229 141.4229 145.5929 145.5929
   145.5929 146.9812 150.5370 150.5370 150.5370 153.7901 153.7901 154.3490
   154.3490 154.3490 156.0461 163.6880 163.6880 163.6880 166.8186 166.8186
   166.8984 166.8984 166.8984 167.8057 171.0234 171.0234 171.0234 171.8307
   171.8307 171.8307 173.2056 173.2056 173.2056 174.3853 174.3853 174.3853
   175.8366 175.8366 176.0862 177.4346 177.4346 177.4346 177.4650 177.4650
   177.4650 178.4302 178.4302 178.4302 178.8104 178.8104 179.5231 179.5231
   179.5231 180.0697 180.0697 180.0697 180.3501 180.4366 180.5876 180.5876
   180.5876 180.9978 180.9978 180.9978 181.4544 181.4826 181.4826 182.7519
   182.9637 182.9637 182.9637 183.4974 183.4974 186.1229 186.1229 186.1229
   186.5108 186.5108 186.5108 186.7123 186.7123 186.7123 187.1152 187.1152
   187.2837 187.2837 187.2837 188.3191 188.3191 188.8449 188.8449 188.8449
   194.4041 194.4041 194.4041 194.6079 199.8071 199.8071 200.5713 200.5713
   200.5713 203.6007 203.6007 203.6007 203.8407 203.8407 203.8407 204.4610
   204.4610 204.4611 204.6779 205.6647 205.6647 205.6647 207.2380 207.2380
   207.2996 207.2996 207.2996 207.3891 207.8752 212.5853 212.5853 212.5853
   214.3701 214.3701 214.3701 215.8898 215.8898 215.8898 216.6162 216.6162
   216.6162 216.8843 216.8843 218.1677 218.1677 218.1677 219.5179 220.1673
   220.1673 220.1673 221.5712 221.5712 224.7319 224.7319 224.7319 225.3657
   225.9397 225.9397 225.9397 226.0972 226.0972 226.0972 226.2150 226.2150
   226.8745 226.8745 226.8745 228.5894 228.5894 228.5894 229.4662 229.4662
   235.4815 235.4815 235.4815 237.5086 240.8140 240.8140 240.8140 242.3902
   242.4647 242.4647 242.4647 243.2397 243.2397 245.9636 246.4274 246.4274
   246.4274 247.9630 247.9630 247.9630 248.7084 248.7084 248.7084 252.6412
   252.7632 252.7632 253.9419 253.9419 253.9419 254.8622 254.8622 254.8622
   256.4204 256.8504 256.8504 257.5491 257.5491 257.5491 258.1359 260.9575
   260.9575 260.9575 261.4494 261.4494 261.4494 261.6807 261.6807 261.6807
   261.8688 261.8688 261.8688 264.8581 264.8581 264.8582 266.1566 266.1566
   266.5241 266.5241 266.5241 266.5585 266.5585 266.5585 266.5603 266.5603
   266.5603 266.6047 267.5331 267.5331 267.5331 267.7622 268.8015 268.8015
   269.2916 269.2916 269.2916 270.3091 270.3091 270.3091 270.9379 270.9379
   271.2070 271.2070 271.2070 272.3295 275.2003 278.5597 278.5597 278.5597
   278.7450 278.7450 278.7450 279.6231 279.6231 279.6231 280.3633 280.3633
   280.3633 281.8418 281.8418 281.9657 281.9657 281.9657 285.1183 285.1183
   285.7958 285.7958 286.2936 286.2936 286.2936 286.4806 286.4806 286.4806
   286.5332 286.5332 286.5332 286.8964 286.8964 286.8964 288.0906 288.0906
   288.0906 288.3382 288.7768 288.7768 289.3492 289.3492 289.3492 289.8372
   289.8372 289.8372 290.1715 291.3215 293.1410 296.4784 296.4784 296.4784
   296.7447 296.7447 298.5746 298.5746 298.5746 298.6714 298.6714 298.6714
   299.1543 299.1543 299.1543 299.8395 300.4747 300.4747 300.4747 300.6489
   300.6489 300.6489 301.3980 302.9101 302.9101 302.9101 303.2122 303.2122
   303.3710 303.3710 303.3710 303.5884 303.5884 303.5884 303.7386 303.7386
   303.7386 303.8424 303.8424 304.1362 304.2633 304.2633 304.2633 304.5244
   304.5244 304.5244 304.8354 304.9785 304.9785 304.9785 305.0231 305.0231
   305.2370 305.2370 305.2370 305.2727 305.2727 305.2727 305.5588 305.5588
   305.5833 305.5833 305.5833 315.8299 315.8299 316.2457 316.2457 316.2457
   323.7797 323.7797 323.7797 324.4616 324.8194 324.8194 325.4528 325.4528
   325.4528 329.8396 332.4878 333.7253 333.7253 333.7253 335.9437 335.9437
   335.9437 336.0006 336.0006 336.8594 336.8594 336.8594 337.1976 337.1976
   337.1976 338.0182 338.0182 338.0182 340.1917 341.2437 341.2437 341.2437
   342.4965 342.4965 342.7061 342.7061 342.7061 344.1323 345.8590 347.9062
   347.9062 348.1017 348.1017 348.1017 348.5613 348.5613 348.5613 348.7399
   348.7399 348.7399 348.8850 348.8850 348.8850 350.8856 350.8856 350.8856
   351.1532 351.1532 351.1532 351.1586 351.1586 351.1586 351.2193 351.2193
   351.5621 351.5621 351.5621 352.0091 352.0091 352.0276 352.0276 352.0276
   352.0790 353.0849 353.0849 353.0849 354.0384 354.0384 355.4717 355.4717
   355.4717 357.6660 358.2101 358.2101 358.2101 361.8717 361.8717 362.5405
   362.5405 362.5405 364.5395 364.5395 364.5395 366.4174 367.5094 367.5094
   367.8496 367.8496 367.8496 367.9938 367.9938 367.9938 368.2591 368.2591
   368.2591 368.3252 368.3252 368.3252 368.5409 368.5409 368.5409 370.1188
   370.3630 370.3630 370.3630 370.4593 370.4593 371.4010 371.5351 371.5351
   371.5351 378.1397 378.1397 378.1397 378.7638 379.4278 379.4278 379.4278
   381.5459 381.5459 381.5459 381.8474 381.9792 381.9792 382.2735 382.2735
   382.2735 382.2738 382.2738 382.2738 383.2134 383.9949 383.9949 384.0547
   384.0547 384.0828 384.0828 384.0828 384.3336 384.3336 384.3336 384.4382
   384.4382 384.4382 384.4930 385.8765 385.8765 385.8765 386.0300 386.0300
   386.0300 386.0980 386.0980 386.0980 386.1930 389.7077 389.7077 389.9587
   389.9587 389.9587 390.7731 390.7731 390.7731 390.9030 390.9030 390.9030
   391.2162 392.7383 392.7383 392.7383 392.7804 392.7804 392.9291 392.9291
   392.9291 392.9340 392.9340 392.9340 393.0503 399.0393 399.0393 402.5146
   402.5146 402.5146 404.9922 404.9922 405.5307 405.7651 405.7651 405.7651
   407.5494 407.5494 407.5494 409.1555 409.1555 409.1555 409.6767 409.6767
   409.6767 410.4482 410.4482 410.4482 410.5467 410.5467 410.6206 410.6206
   410.6206 410.6869 410.8251 410.8981 410.8981 410.8981 413.9194 414.3856
   414.3856 414.3856 416.6507 416.6507 416.6507 417.2219 417.2219 417.2219
   417.4677 417.4677 417.4677 418.1537 418.1537 418.4774 420.4728 420.4728
   420.4818 420.4818 420.4818 421.5358 421.5358 421.5358 421.5946 421.5946
   422.9017 422.9017 422.9017 423.0080 424.7450 424.7450 424.7450 424.8025
   424.8025 424.8025 425.0752 425.0752 425.0752 425.2359 425.2359 425.7585
   425.7585 425.7801 425.7801 425.7801 426.7444 426.7444 426.7444 427.4175
   427.5883 427.5883 427.5883 427.9764 427.9764 427.9764 428.0664 428.0664
   428.0664 428.3423 428.3423 428.3423 428.3972 428.3972 428.3972 428.4291
   428.4609 428.9069 428.9069 428.9069 429.2998 430.1564 430.1564 431.0174
   431.0174 431.0174 431.1805 431.1805 431.1805 431.4047 431.4048 431.4048
   431.5226 431.5226 431.5451 431.5451 431.5451 433.8389 433.8389 434.0464
   434.0464 434.0464 434.4680 434.5249 434.5249 434.5249 434.7395 434.7395
   434.7395 434.8337 434.8337 434.8337 435.1185 435.1185 435.1185 435.2655
   435.2655 435.5016 435.5016 435.5016 435.6620 441.6121 441.6121 441.6121
   444.1146 444.1146 444.1146 444.4847 444.8066 452.2006 452.2006 453.8884
   453.8884 453.8884 453.9591 453.9591 453.9591 454.1000 454.1000 454.1000
   454.1713 454.1713 454.1935 454.1935 454.1935 456.6376 456.6376 459.9513
   459.9513 460.1300 460.8083 460.8083 460.8083 461.2870 461.2870 461.2870
   462.6758 462.6758 462.6758 463.1311 463.1311 463.1311 463.4582 463.4582
   463.4582 463.7681 463.7681 463.7681 464.6614 468.3313 468.3313 468.3313
   469.0487 469.0487 469.0726 469.0726 469.0726 469.2240 469.2240 469.2240
   469.3099 469.4305 469.4305 469.4305 469.4689 469.4689 469.4689 470.0353
   470.0353 470.0707 470.0746 470.0746 470.0746 479.0823 479.0823 479.0823
   483.1523 484.3478 484.3478 484.3478 484.6033 484.6033 485.5134 487.1122
   487.1122 487.1122 487.2994 487.2994 487.2994 488.5842 488.5842 488.5842
   488.6826 488.6826 488.9874 488.9874 488.9874 489.0811 489.0811 489.0811
   491.4062 491.4062 493.9530 493.9530 493.9530 494.1190 494.1899 494.1899
   494.1899 498.5138 498.5138 498.5138 499.3323 499.3323 499.7578 501.2323
   501.2323 501.2323 501.7603 501.7603 501.7603 502.2139 503.1159 503.1159
   503.1159 503.1605 503.1605 503.1605 503.9148 504.2070 504.2070 505.9113
   505.9113 505.9113 506.6511 506.6511 507.1380 507.1380 507.1380 507.4133
   507.4963 507.4963 507.4963 507.6374 507.6374 507.6374 508.7297 508.7297
   508.7297 509.0350 509.0350 509.0350 509.1455 511.2924 511.2924 511.5192
   511.5192 511.5192 511.5291 511.5291 511.6919 511.6919 511.6919 511.6996
   511.6996 511.6996 511.7533 511.7533 511.7533 512.5502 512.5502 512.6860
   512.8409 512.8409 512.8409 514.6932 514.7578 514.7578 514.7578 514.8229
   514.8229 514.8229 514.8523 514.8523 514.9078 514.9078 514.9078 517.3354
   517.3354 517.3354 517.4428 517.4428 517.5915 517.6011 517.6011 517.6011
   517.6022 517.6022 517.6022 520.8089 520.8089 524.5958 524.5958 524.5958
   524.7256 525.4944 525.4944 525.4944 527.0633 527.0633 527.0633 527.6042
   527.6042 528.0672 528.0672 528.0672 528.2139 529.8632 530.1016 530.1016
   530.1016 530.2964 530.2964 530.2964 530.4203 530.4203 530.4226 530.4226
   530.4226 532.2931 532.2931 532.2931 532.7969 532.7969 532.7969 532.9432
   532.9432 532.9432 533.3700 533.4848 533.4848 534.9209 534.9209 534.9209
   535.3705 535.3705 535.3705 535.4255 535.4255 535.4255 535.7056 535.7056
   535.7056 536.3385 536.3385 536.3626 536.3626 536.3626 536.4403 536.4403
   536.4403 536.5067 536.5067 536.5067 536.5859 538.5434 538.5434 538.5988
   538.5988 538.5988 538.6923 540.3950 540.3950 540.3950 540.8550 540.8550
   544.3963 545.9717 546.5823 546.5823 546.5823 546.9650 546.9650 546.9650
   547.0653 547.0653 547.0653 547.9823 547.9823 547.9823 548.3383 548.3383
   548.3383 548.6270 548.6270 548.9931 548.9931 548.9931 549.0134 549.0134
   549.3311 549.4049 549.4049 549.4049 549.6758 549.6758 549.6758 550.2546
   550.4736 550.4736 550.4736 550.8643 550.8643 551.1205 551.1205 551.1205
   551.3228 551.3228 551.3228 551.4033 551.4033 551.4033 551.4944 551.4944
   551.4944 551.5714 551.6834 552.2017 552.2017 552.2659 552.2659 552.2659

          k = 0.5000-0.5000 0.5000 (  2452 PWs)   bands (ev):

  -117.2570 -71.4298 -71.4297 -71.4297  -4.6113   1.3974   1.3974   1.8196
     1.8196   1.9945   2.3013   6.7700   6.7700  10.9892  14.5931  14.5931
    16.5537  19.8565  21.0402  21.0402  23.0880  23.4236  23.4236  30.1066
    31.3952  31.3952  32.7729  33.9235  33.9235  36.9930  36.9930  38.4655
    38.9292  39.2524  39.2524  41.6432  42.8727  44.9399  44.9399  46.8089
    46.8089  47.1261  48.1296  53.3420  53.3420  53.4093  54.0760  54.0760
    56.6896  56.6896  57.8226  59.8020  62.1966  62.1966  62.3387  63.6917
    63.6917  64.5625  65.5497  65.5497  68.9066  68.9066  69.5264  71.2234
    71.2234  73.1234  73.6848  73.6848  74.6999  74.6999  75.1572  75.2157
    75.9661  78.5205  78.9097  78.9097  79.1208  79.1208  79.9069  82.4911
    82.4911  83.2054  84.9202  84.9202  85.7038  85.7038  87.8896  88.2324
    90.8446  90.8446  93.6049  95.8998  96.1448  96.1448  96.2346  97.8094
    98.2663  98.2663  98.5468  98.5468 100.7208 102.5475 102.5475 102.6817
   103.1922 103.1922 103.4052 104.6407 105.3565 105.3565 105.5257 105.8017
   107.1106 107.1106 107.3469 109.0491 109.0491 112.4854 113.1162 113.1162
   114.5894 114.8312 114.8312 115.7391 115.7391 115.9399 116.8241 117.3237
   118.3270 118.3270 118.6127 118.6127 119.7578 119.7990 119.7990 122.4141
   122.4141 123.2037 125.3670 125.3670 125.8793 127.2186 127.9321 127.9321
   129.4370 129.4370 129.9166 131.4466 131.4466 133.7644 133.7644 134.2292
   135.2571 135.3613 135.3613 135.8905 135.8905 137.7561 138.0323 138.0774
   139.5629 139.5629 140.9556 140.9556 141.2344 141.2344 141.5221 143.6078
   144.0384 144.4512 144.4512 145.1632 145.1632 145.2045 147.8933 147.8933
   149.6936 151.2738 151.2738 151.9166 154.0286 154.0286 154.4439 155.2335
   156.0121 156.3851 156.3851 157.3474 158.8926 159.0191 159.0191 159.3003
   159.3003 161.0607 161.0607 161.4999 163.2048 163.2048 164.4776 164.9793
   165.3040 165.3040 165.8158 165.8158 166.5518 167.0651 167.0652 167.7273
   167.7273 167.8243 168.2460 169.3863 169.3863 170.3142 170.3142 171.2487
   171.8377 171.8377 172.3070 173.3679 174.0278 174.0279 175.6684 175.6684
   175.9550 176.5977 177.2154 177.2154 178.4056 178.4056 178.5347 178.5347
   179.1323 180.6696 180.9940 180.9940 182.7559 184.5455 185.5363 185.5363
   186.3268 186.8482 186.8482 187.5076 188.4521 188.4828 188.4828 189.3450
   189.3450 189.6344 189.8109 189.9461 189.9461 191.1947 191.1947 192.0512
   192.2639 192.8192 194.9706 194.9706 196.3890 196.9657 196.9657 197.2207
   199.3641 199.6095 199.6095 200.2429 200.2429 201.0608 201.0608 201.5565
   201.6804 201.6804 201.7007 203.3403 203.3403 203.7045 204.7257 204.7257
   210.0369 210.0369 210.4163 211.4498 212.5406 212.5406 213.0436 213.0436
   214.2941 214.5344 214.5344 215.3498 216.0483 216.0483 216.2439 217.1273
   217.1273 217.2485 218.4430 218.4599 218.4823 219.6895 219.6895 220.0918
   220.4728 220.4728 221.3662 222.4332 222.4332 222.8109 222.8109 224.3630
   224.3630 224.6363 224.6822 224.8416 224.8416 225.1898 225.1898 226.0957
   227.6034 228.6475 228.6475 228.7611 228.7611 229.1450 229.4886 229.4886
   229.5840 229.9174 229.9174 230.1437 230.1437 230.1743 231.2853 231.3031
   231.9967 231.9967 234.0961 234.0961 235.0210 236.7599 239.2210 239.2210
   239.5748 239.5748 239.9898 240.2919 240.2919 240.7222 241.3315 241.3315
   241.4432 242.2139 242.2139 243.0831 243.8527 243.8527 244.7908 244.7908
   245.4506 245.8712 245.9478 245.9478 246.4711 247.3219 247.3219 248.0018
   249.1837 249.6169 249.6169 250.8211 250.8211 251.2137 251.2137 251.4040
   251.5302 251.5302 251.5420 253.2700 253.2700 254.0040 257.0913 257.1569
   257.1993 257.1993 258.2900 258.2900 258.7225 258.7225 259.4064 259.4809
   259.7744 262.0687 262.0687 263.2403 263.3295 263.3295 264.3968 264.5852
   264.5852 264.8599 266.8745 267.4305 267.4305 268.4524 268.4524 268.6205
   269.5362 269.7307 269.7307 270.3478 270.3866 270.3866 272.0340 272.9266
   272.9267 273.1392 273.1392 274.2532 275.4205 275.4205 276.3451 276.5840
   276.5840 278.1794 278.1794 278.4821 278.4821 278.5948 279.8012 280.0268
   280.7964 280.7964 281.0151 281.3706 281.3706 281.5407 283.9328 283.9328
   284.2564 284.2564 285.2050 285.2050 285.5045 287.5759 287.5759 287.6145
   287.9080 287.9080 288.2059 288.5690 288.5690 288.5800 289.1698 289.1698
   289.1837 289.3652 289.3652 290.9104 291.5462 292.5857 293.4474 293.4474
   293.8279 294.1234 294.1234 294.5373 294.7102 294.7102 295.2117 295.2317
   295.2317 295.2602 296.6277 296.6277 297.1494 297.1494 300.1782 300.5641
   300.5641 301.4581 301.6319 302.7070 302.7070 302.9350 303.6420 303.6420
   304.3950 304.3950 304.9155 305.4261 306.6177 306.6177 307.1029 307.6133
   308.2923 308.2923 308.8048 308.8048 309.2967 309.9219 309.9219 310.0870
   310.3952 311.1070 311.1070 311.4853 311.4894 311.4894 313.5330 313.5330
   314.6483 315.6666 316.3398 316.3398 317.5185 317.7762 317.7762 318.0586
   320.2649 320.2649 321.4323 321.4323 321.5758 321.6868 322.6090 322.6090
   322.9019 323.0491 323.0588 323.0588 323.4086 323.4086 323.4685 323.7268
   323.7268 323.8061 323.8757 323.9104 323.9104 324.4588 325.3557 325.3557
   325.4633 325.4633 325.7538 325.7538 325.8555 326.1486 326.1486 326.3984
   328.1063 328.3178 328.3178 329.9231 329.9301 329.9301 330.1311 330.2676
   330.6644 330.6644 332.0907 332.0907 332.2633 332.6063 332.6063 333.0330
   333.1242 335.1420 335.1420 336.5965 336.6179 336.6179 336.7475 337.5914
   338.7133 338.7133 340.5489 340.5489 341.6624 341.6624 341.7987 342.3773
   343.6816 343.6816 344.3446 344.3446 345.0817 347.9642 347.9642 349.1518
   349.1518 350.1816 350.8620 351.0060 351.0060 351.1867 351.1867 351.5151
   351.5151 351.5266 352.0982 352.1532 352.3261 352.7069 352.7069 353.3804
   353.3804 354.2052 354.3594 354.3594 355.2571 355.2798 355.4448 355.4448
   355.9784 355.9784 356.8775 357.6555 357.6555 357.9139 358.8629 358.9716
   358.9716 360.1946 360.1946 361.2155 362.9564 362.9564 364.3174 364.7403
   364.7403 364.9977 364.9977 365.3869 365.4110 365.8348 365.8348 366.6052
   367.7341 367.7341 368.0208 368.5683 369.4368 369.4368 369.5182 370.5567
   370.5567 370.7930 372.5734 373.1269 373.1269 374.0984 374.0984 374.1088
   375.4062 375.4062 375.4431 375.4431 375.6472 375.6472 376.3022 377.3669
   377.4733 378.0723 378.6761 378.6761 379.0781 379.0781 379.7896 379.7896
   379.8472 380.3809 380.3809 380.3875 381.2352 381.2352 382.8121 382.9105
   382.9105 383.0765 383.0765 383.1336 383.4966 383.4966 384.1264 384.4738
   384.8726 384.8726 385.3135 385.3736 385.4195 385.4195 385.7436 385.7436
   387.4968 387.6714 387.6714 387.7634 387.9208 388.7371 388.7371 389.7109
   389.7109 390.0357 392.7351 392.7351 393.3399 393.5090 393.6586 393.6586
   394.9112 394.9753 394.9818 394.9818 395.6744 395.6744 395.9866 396.0294
   396.0294 396.9147 397.0363 397.0363 397.9681 397.9681 398.3629 398.8772
   398.8862 398.8862 399.5647 399.5647 399.5895 399.6255 399.6255 399.7580
   400.8923 400.8923 402.4932 403.6381 403.6381 404.5931 404.9683 404.9683
   405.4538 405.7815 405.8323 405.8323 405.9126 405.9126 406.0720 406.0826
   406.9018 407.0527 407.0527 407.2399 408.2853 408.2853 409.4427 409.7169
   409.7169 410.6690 410.6690 410.7192 411.8113 411.8114 411.8575 412.1037
   412.1037 412.5759 412.8645 412.8645 413.0819 413.0819 413.3571 413.3571
   413.5386 413.5538 414.0017 415.7911 415.7911 416.5613 416.7992 416.7992
   417.1180 417.4430 420.8846 420.8846 422.9504 422.9504 423.6030 424.5855
   424.6972 424.6972 425.0102 425.1258 425.1258 425.4663 426.0729 426.0729
   427.0498 427.0498 427.6584 427.6584 428.5523 428.5523 428.5604 430.5213
   430.5213 431.2068 432.1819 432.6241 432.6241 433.1399 433.3887 433.3887
   433.7648 433.7648 434.1663 434.3246 434.3246 434.3514 434.3708 434.3708
   434.5101 434.7743 434.8035 434.8790 434.8888 434.8888 434.9268 434.9268
   437.2339 437.2339 437.3533 437.4557 437.4557 437.5180 439.2420 439.2420
   441.0523 441.4152 441.4152 441.9402 445.4226 445.4226 445.6919 445.6919
   445.7633 445.7855 445.7855 445.7994 447.2252 447.2252 447.3554 447.5076
   447.6806 447.6927 447.6927 448.4692 448.6072 448.6072 449.0878 449.3543
   449.3543 449.4751 450.1335 450.1335 450.2217 450.2217 451.0135 451.0135
   451.0623 451.1779 451.4596 451.5789 451.5789 451.6202 451.6765 451.6765
   455.7727 455.7727 455.9766 455.9766 456.3890 456.3911 456.4784 459.0411
   459.0411 459.7230 460.2236 460.2236 461.6298 462.0492 462.1210 462.1210
   463.3697 463.3697 463.9972 463.9972 464.9845 465.2717 465.4275 465.5198
   465.8818 465.8818 466.1164 466.1164 466.6085 466.6085 467.2885 467.2885
   467.8695 467.8996 468.3957 468.3957 468.4180 468.8459 468.9628 468.9628
   470.7511 470.7511 470.9162 471.4996 472.0132 472.0132 472.3011 472.8879
   472.8879 473.1504 474.7570 474.7803 474.9961 474.9961 475.4691 475.4691
   475.7897 475.7897 475.9365 476.1683 476.3186 476.3186 477.0979 477.0979
   477.2413 477.2413 477.5599 477.5800 478.6963 478.6963 478.7669 478.7819
   478.7819 478.8436 478.8436 478.9099 478.9276 478.9276 478.9764 479.0704
   482.8046 482.9929 482.9929 484.4858 484.4858 484.9087 484.9477 484.9477
   485.1517 486.3446 486.3446 486.8178 486.8178 487.3262 487.5542 487.6881
   487.7843 487.8153 487.8543 487.8543 488.1959 488.1959 488.2488 488.2488
   488.6346 489.9612 489.9612 491.9222 492.5221 493.3892 493.7432 493.7432
   494.2203 494.2203 494.5265 494.5695 494.5695 494.8162 495.9754 495.9754
   496.5579 496.5579 496.8656 496.8656 497.2724 497.2724 497.3595 497.4494
   498.0305 498.0305 499.1215 499.1547 499.1547 499.3183 499.8603 499.8603
   499.9980 500.5572 500.5682 500.5682 501.4525 501.7699 501.7699 503.7895
   503.7895 503.9555 504.4570 504.4570 504.7892 504.7892 504.9150 504.9150
   505.0159 505.2417 505.7422 505.7422 506.0546 506.0643 506.0643 506.0970
   506.3136 506.4143 506.4143 506.5427 507.1328 507.1518 509.1054 509.1054
   509.5455 509.5455 512.7513 512.7513 512.7702 512.7702 513.8403 513.8409
   514.1158 514.1158 514.3933 514.7244 514.7419 514.7419 516.9642 516.9642
   517.2107 517.3623 517.3623 517.4265 519.6123 519.6123 521.5850 523.1683
   523.5683 523.5683 524.3920 524.3920 525.5840 525.8251 525.8251 526.0379
   526.0379 526.2508 526.5122 526.8744 526.8744 527.0442 527.1970 527.3600
   527.3600 527.5051 527.5051 527.5493 527.6865 527.6865 527.8759 528.1566
   528.1566 528.3705 528.7838 529.3296 529.4768 529.4768 529.7412 529.7412
   529.8961 530.7106 530.7106 531.1243 531.4571 531.4571 532.7524 532.8773
   533.4375 533.4375 533.5578 533.6348 533.6348 533.6606 533.8576 533.8576
   533.9663 534.1450 534.1450 534.2021 534.2021 534.2725 534.5069 534.5475
   534.5475 534.8900 535.1424 535.1424 535.1639 535.2528 535.3492 535.3492
   540.2915 540.2915 540.4791 540.4791 540.8064 540.8169 540.8488 540.8488
   540.9573 540.9573 541.3950 541.3950 541.4907 541.7629 541.8150 541.8150
   542.0755 542.0755 542.1248 542.1276 542.1276 542.1326 544.7003 544.7003
   545.9931 546.1194 546.1194 546.2969 550.9612 550.9612 551.2112 551.2184
   551.2184 551.2571 554.2580 554.2580 554.8469 554.8469 555.1074 555.5548
   555.6646 555.7091 555.7091 555.9494 556.2833 556.2833 558.0464 558.0464
   558.3092 558.3210 558.3210 558.6790 558.6790 558.9790 559.0947 559.0947
   559.2546 559.3310 563.9690 563.9690 564.9077 565.6300 566.0454 566.4032

          k = 0.0000-1.0000 0.0000 (  2450 PWs)   bands (ev):

  -117.2570 -71.4298 -71.4297 -71.4297  -4.2933   1.2430   1.6312   1.6312
     1.8650   2.0089   3.0595   5.3978   5.3978  11.0502  11.7454  18.6808
    19.6870  19.6870  21.3171  22.1491  22.1491  24.5325  27.1955  27.8511
    31.1595  31.1595  31.2028  32.0339  32.0339  32.2583  32.5770  37.6693
    40.4305  40.4305  41.0007  43.6435  45.1881  45.1881  46.3102  47.1051
    47.2728  49.7358  49.7358  50.5280  53.0316  53.1000  53.1198  53.1198
    54.6356  55.0444  55.0444  60.3208  62.2162  62.2162  62.4918  63.4654
    64.4213  67.6361  67.7109  69.7207  69.7207  70.5968  70.6031  70.6031
    71.4131  72.3091  72.4213  72.4213  73.8726  73.8726  74.0965  74.8889
    74.9305  79.2597  81.4783  81.6186  81.6186  82.1427  84.3545  85.2455
    85.2455  85.7662  86.1915  86.1915  86.7617  86.7617  87.0956  88.0184
    88.5949  88.8960  89.8817  89.8817  91.0523  92.5901  93.4948  93.4948
    93.7467  93.7467  95.6532  95.7579  96.9911  99.5744 101.7541 101.7541
   103.0086 103.0575 103.8509 103.8509 105.6164 105.8770 105.8770 106.1153
   106.5295 106.5295 107.0801 107.5195 109.1237 109.9429 112.1659 113.1743
   113.1743 114.2539 114.2539 114.3283 115.2017 117.1528 117.2198 117.2198
   119.7307 119.7769 122.3625 122.6616 122.6616 125.2932 126.3440 127.2989
   128.3070 128.3761 128.3761 129.9344 129.9622 130.4484 130.4484 130.7724
   131.1030 131.6929 132.1729 132.1729 133.2945 133.2945 134.2197 134.2197
   134.6024 134.8405 135.0300 136.0312 136.0447 136.0447 137.2733 137.5507
   140.5198 142.1258 143.2365 143.2365 144.5259 144.5259 144.5560 145.4426
   145.4426 145.8275 146.3810 146.5621 147.7472 147.7971 147.9252 147.9252
   148.9187 148.9187 149.9388 149.9388 150.5619 151.0343 151.5567 151.9414
   151.9774 153.0850 153.3418 153.3418 154.1341 154.1341 154.4739 154.4891
   154.8810 155.1443 155.1443 156.2687 156.8449 157.2918 157.2918 157.9479
   161.2498 161.2498 161.3945 162.6635 162.6635 162.7118 165.6458 165.6458
   165.9851 167.5446 168.9242 168.9707 168.9707 169.7340 171.1622 171.3214
   172.9640 172.9640 173.8967 174.0249 175.1353 175.7380 175.7380 176.1976
   176.1976 176.2129 176.8602 178.5595 178.5595 179.1376 179.9099 181.6463
   183.6282 184.1968 185.3400 185.3400 186.3162 186.3162 186.9479 188.5565
   188.7606 188.7853 188.7853 189.4000 190.6013 191.2450 191.2745 192.1703
   192.1703 193.0655 193.4530 193.4530 193.6434 194.3664 194.3664 194.6887
   194.6887 195.5990 196.4302 196.4865 196.4865 197.0256 198.4983 198.4983
   198.7456 199.1094 200.8140 200.9000 201.5178 201.5178 203.4298 205.4149
   205.9462 206.4003 206.4003 206.6405 207.1393 207.1393 207.5591 207.8994
   208.2189 208.4086 208.4086 208.5651 209.1013 209.1013 209.2247 209.9818
   210.6134 210.6134 210.8256 210.9225 210.9225 211.3632 213.6533 214.9198
   215.5670 215.5670 215.6768 215.7379 215.7677 215.7677 215.8604 216.0473
   217.3376 217.3376 218.4738 219.8162 221.0273 221.0273 221.5201 223.4595
   224.7907 224.7907 224.8432 224.8570 226.8449 226.8449 227.7131 228.4416
   228.7056 228.7520 228.7520 229.3818 229.8398 229.8398 230.1482 230.5212
   230.6852 231.3008 231.3008 231.6193 231.9783 231.9783 232.6324 233.2100
   236.0474 236.0474 236.0585 236.6253 236.6253 236.7658 237.4675 237.5228
   237.5296 237.6308 237.6308 237.9838 237.9838 238.0188 238.4824 239.9979
   239.9979 240.1903 242.3716 242.9076 244.1203 244.1203 245.7886 245.7886
   247.0293 247.4681 247.9173 248.0514 248.5711 248.5711 250.0227 250.0325
   250.3176 251.7332 251.7847 251.7847 252.0787 252.3015 252.3015 252.4557
   252.4727 253.2380 254.4740 254.4740 256.2458 256.8545 257.6384 257.7102
   257.7102 258.3993 258.4027 258.4027 258.4540 258.5042 258.7686 259.3749
   259.3749 259.8089 261.1284 261.1284 262.7166 265.0954 266.0617 267.1680
   267.1680 267.8304 267.8304 267.9610 268.3408 268.6989 268.8200 268.8200
   269.8130 269.8130 270.2550 270.7857 270.7857 270.9350 272.1679 272.1704
   272.1704 272.6021 272.7234 273.0109 273.1036 273.2083 273.2083 273.4193
   273.4193 273.8264 274.3798 274.4432 274.4557 274.5487 274.5487 275.1594
   275.4600 275.7168 275.7168 276.4563 276.8650 277.4407 277.4732 277.4732
   278.2366 278.2890 278.2890 278.5528 279.8194 279.8194 280.5666 281.2945
   284.0344 285.0281 285.0281 285.5138 286.5171 287.3796 288.9759 289.1264
   289.1264 290.8583 290.8583 293.3431 293.3692 293.6401 294.0076 294.0076
   294.0694 294.8031 295.1707 295.1707 295.8030 295.8030 296.4591 296.9037
   297.7111 297.7111 297.9441 298.4211 298.5069 298.8061 298.8061 299.1529
   299.7402 300.4582 300.4582 301.9165 303.8794 305.3854 305.7214 305.7214
   306.1783 307.0574 307.3553 307.3553 309.2739 309.3074 309.7129 309.7129
   310.5803 311.7180 311.7180 312.6051 312.7201 313.1903 313.5962 313.5962
   315.5775 316.2909 316.7258 316.7258 316.7514 317.0600 317.6561 317.6561
   318.1736 318.6697 318.7424 318.7424 318.8586 318.8586 318.9507 319.0959
   319.7913 319.8093 319.8093 319.9434 321.1510 322.2762 322.2762 322.9734
   323.2442 323.8591 324.6077 325.3477 325.3477 326.2963 326.4353 326.9477
   327.4803 327.4803 328.5781 328.5781 328.9812 329.6674 330.0119 330.0119
   330.2671 330.3099 330.3251 330.7750 330.9803 331.3723 331.3723 331.8873
   332.1244 332.1244 332.4650 333.6720 333.6720 333.9737 333.9737 334.1451
   334.1451 334.3243 334.4875 334.5254 334.8577 335.2363 336.2656 336.7252
   336.7635 338.2045 338.2775 338.2775 338.4919 338.4919 339.0943 339.0943
   339.1508 339.1893 339.3299 339.3299 340.3926 340.4422 340.5064 340.5821
   340.6682 340.6682 340.7283 340.7283 343.1040 343.1383 343.9352 343.9352
   344.1793 345.3413 345.3413 346.3053 346.7124 346.8750 348.3542 348.3542
   348.6153 348.8775 349.3236 350.1377 350.1377 350.2068 351.5588 351.5588
   351.9645 351.9645 352.4352 352.6151 352.8335 353.6980 353.6980 354.0145
   354.0145 354.1856 354.4923 354.4923 354.6584 354.6838 355.1488 355.6103
   355.8275 356.4006 356.4006 356.4129 357.6353 358.7547 358.7547 358.9895
   360.7294 361.2015 361.5241 361.5241 361.6162 361.6323 361.6702 361.6702
   361.8564 362.2489 365.1323 365.1323 366.9167 367.5696 367.5696 370.4499
   370.8754 370.8754 371.1001 371.2985 371.8836 372.2508 372.4194 372.4194
   372.5654 372.8525 373.7924 374.8777 374.8777 374.9244 374.9244 374.9481
   375.1067 375.1826 375.7258 375.7258 376.3294 376.4992 376.6050 376.6050
   376.9540 376.9540 376.9594 377.2612 379.1576 379.8865 379.8865 379.9040
   380.4778 380.4778 380.8639 381.3236 381.3263 381.4786 381.4786 382.0960
   382.1701 382.4948 382.4948 382.5742 382.7168 382.7168 384.8461 386.1682
   386.7118 386.7181 386.7181 386.8041 388.2099 389.8466 389.9540 390.2869
   390.6952 390.6952 391.4045 391.4045 393.2471 393.2471 393.4306 394.0380
   394.1214 394.7152 394.7152 394.7475 396.0706 396.2181 396.3273 396.3273
   396.6847 396.8826 397.1280 397.1280 397.3363 397.3730 397.3730 397.4109
   397.7264 397.7328 397.7328 397.7871 399.6049 399.7397 399.7532 399.7532
   402.0900 402.0934 402.0934 402.1006 402.8319 405.1145 405.1145 405.9620
   407.6489 408.1534 408.2474 408.7274 408.7274 409.5170 411.6904 411.6981
   411.6981 411.7729 411.7729 411.9793 412.6284 412.6664 412.7609 413.1330
   413.1330 414.1474 414.8507 414.8507 415.0713 415.6411 415.8798 416.1185
   416.1185 416.3642 417.1062 417.1062 417.6363 417.7572 417.7572 417.8100
   418.6843 418.7055 418.7977 418.9690 418.9690 419.2226 419.2524 419.3406
   419.3406 420.2442 420.2980 420.4997 420.4997 420.8749 422.1631 423.0615
   423.2848 423.2848 423.9148 423.9148 424.9070 425.0913 426.1346 426.4768
   426.4768 426.7323 426.8792 431.1176 431.6247 431.6247 433.2698 433.4806
   433.8078 436.2608 436.2939 436.3654 436.3654 436.5700 436.5700 436.7115
   436.7115 436.8838 436.8838 437.3601 437.3801 437.6892 437.7437 437.7437
   437.7509 438.8296 439.6637 439.6637 439.9891 440.1346 440.3902 440.4127
   440.4127 440.5422 441.7390 441.7390 441.8647 441.9178 442.6537 442.8159
   443.0502 443.0502 443.0568 443.1214 443.1214 443.1259 446.5028 446.9045
   448.9828 448.9828 449.0049 449.3847 449.6879 449.6879 449.9894 450.0517
   450.3878 451.0429 451.0429 451.1667 451.2715 451.6114 451.6114 451.9095
   452.1362 452.1759 452.1759 452.4836 452.4836 452.5359 453.2620 453.3843
   454.0333 454.0333 454.0565 454.1663 454.2234 454.2607 454.2607 454.4731
   454.4731 454.6324 455.3837 455.3837 456.5449 457.9128 458.0788 458.0995
   458.1557 458.1557 458.4248 458.4248 458.5547 458.6160 458.7182 460.2225
   460.2225 460.3616 460.4040 460.4040 460.8222 460.9757 461.8676 461.8714
   462.0505 462.0667 462.2031 462.2031 462.2407 462.2407 462.7645 462.9397
   462.9932 462.9932 463.2967 463.2967 463.3353 463.4209 464.2008 464.3560
   464.4292 464.4358 464.4358 464.4971 464.4971 464.5085 465.0275 465.3710
   465.4555 465.4555 465.5753 465.6145 465.6145 465.6858 470.6261 471.6719
   471.6719 472.5079 472.5199 472.5199 472.5755 472.9590 473.9564 474.6821
   475.2580 475.2580 475.4427 475.4427 475.5516 475.5728 475.6473 477.2157
   477.4758 478.7455 478.7455 479.3180 479.4360 479.4360 479.9133 479.9133
   481.0422 481.7069 482.3688 482.3994 482.3994 482.6492 482.6492 482.7412
   482.7952 483.3213 483.9870 484.0906 484.1526 484.1526 484.5398 484.5594
   484.5594 484.6467 484.9892 484.9986 484.9986 485.0247 489.4875 490.1180
   491.4825 491.7220 492.0328 492.0328 492.9282 492.9282 493.2848 493.3423
   493.3423 494.2140 495.2093 495.3482 495.3482 495.6164 496.2935 496.9174
   496.9174 496.9256 497.7706 497.9283 498.3905 498.3905 499.0578 499.0578
   499.2093 499.5682 500.0832 500.4058 501.1243 501.7225 502.1293 502.1293
   502.2374 502.2374 502.3342 502.4499 502.5182 503.4225 503.4225 503.7555
   503.7555 504.0413 504.0987 504.1478 504.3570 504.3982 504.6455 504.6455
   504.6693 504.6693 505.0198 505.0446 505.4965 505.4965 509.0458 509.0493
   510.7297 510.7297 513.0846 513.0846 513.7688 514.1501 514.5100 514.8628
   514.9289 515.4955 515.4955 515.8573 516.0856 516.2797 516.2797 516.4455
   516.8482 517.4145 517.8682 517.8682 518.0494 518.0494 518.3373 518.3373
   518.4237 518.7158 518.7158 518.9223 519.0630 519.1248 519.4508 519.8418
   519.9910 519.9989 520.2500 520.5298 520.5298 520.5703 520.6853 520.7111
   520.7111 520.7844 520.7844 520.9059 521.9581 521.9696 522.1560 522.4358
   522.4396 522.4396 522.4859 522.4859 522.9773 523.0193 523.3981 524.5151
   524.7907 524.7907 526.6623 526.6623 526.7070 526.7070 526.8672 527.0732
   527.1148 527.1148 529.3305 531.3570 531.5678 532.1697 532.1697 532.4027
   532.4458 532.4458 532.4575 533.0620 533.0834 533.0834 533.3096 534.0543
   534.0543 534.4692 537.0152 537.1753 537.1753 537.4128 537.6623 537.9475
   538.5065 538.5065 539.1590 539.1994 539.1994 539.2822 539.6596 540.3779
   540.3779 540.4630 543.0491 544.0895 544.2461 544.5041 544.5041 544.5396
   544.5396 545.0574 545.1866 545.3560 545.3560 545.6545 545.7005 545.7892
   545.7892 546.0964 546.1344 546.2174 546.2485 546.2485 546.4387 546.4387
   546.4501 546.4559 552.2500 552.3733 552.3733 552.7386 553.3983 553.9214
   554.6246 554.6246 556.1997 556.5820 556.5820 557.8844 558.1278 558.3530
   558.5347 558.5347 558.5536 559.4705 559.4705 559.5294 559.5333 559.7591
   559.9376 560.0225 560.0225 560.0593 560.1108 560.1995 560.1995 560.2631
   560.3535 560.6979 560.6979 561.0241 561.1349 561.1349 561.5149 561.5149

     the Fermi energy is     8.2192 ev
     (compare with:     8.8073 eV, computed in scf)

     Writing all to output data dir out/mp-10695.save/
 
     init_run     :      0.04s CPU      0.05s WALL (       1 calls)
     electrons    :    214.66s CPU    230.31s WALL (       1 calls)

     Called by init_run:
     wfcinit      :      0.00s CPU      0.00s WALL (       1 calls)
     potinit      :      0.01s CPU      0.01s WALL (       1 calls)
     hinit0       :      0.01s CPU      0.02s WALL (       1 calls)

     Called by electrons:
     c_bands      :    214.66s CPU    230.31s WALL (       1 calls)
     v_of_rho     :      0.01s CPU      0.01s WALL (       1 calls)

     Called by c_bands:
     init_us_2    :      0.00s CPU      0.00s WALL (       3 calls)
     init_us_2:cp :      0.00s CPU      0.00s WALL (       3 calls)
     paro_k       :    207.65s CPU    222.82s WALL (       3 calls)

     Called by paro_*:
     h_psi        :      4.16s CPU      4.34s WALL (     348 calls)
     g_psi        :      0.09s CPU      0.10s WALL (   32247 calls)

     Called by h_psi:
     h_psi:calbec :      0.08s CPU      0.09s WALL (     348 calls)
     vloc_psi     :      3.99s CPU      4.16s WALL (     348 calls)
     add_vuspsi   :      0.06s CPU      0.06s WALL (     348 calls)

     General routines
     calbec       :      0.08s CPU      0.09s WALL (     348 calls)
     fft          :      0.00s CPU      0.01s WALL (      10 calls)
     fftw         :      3.56s CPU      3.72s WALL (   53042 calls)
 
     Parallel routines
 
     PWSCF        :   3m35.15s CPU   3m50.96s WALL

 
   This run was terminated on:   2:27:50  15Nov2023            

=------------------------------------------------------------------------------=
   JOB DONE.
=------------------------------------------------------------------------------=
