
     Program PWSCF v.7.1 starts on  5Dec2023 at 17:26:15 

     This program is part of the open-source Quantum ESPRESSO suite
     for quantum simulation of materials; please cite
         "P. Giannozzi et al., J. Phys.:Condens. Matter 21 395502 (2009);
         "P. Giannozzi et al., J. Phys.:Condens. Matter 29 465901 (2017);
         "P. Giannozzi et al., J. Chem. Phys. 152 154105 (2020);
          URL http://www.quantum-espresso.org", 
     in publications or presentations arising from this work. More details at
     http://www.quantum-espresso.org/quote

     Parallel version (MPI), running on    24 processors

     MPI processes distributed on     1 nodes
     122738 MiB available memory on the printing compute node when the environment starts
 
     Reading input from pw_mp-5967_nscf_k380_E58.in
Warning: card &IONS ignored
Warning: card / ignored
Warning: card &CELL ignored
Warning: card / ignored

     Current dimensions of program PWSCF are:
     Max number of different atomic species (ntypx) = 10
     Max number of k-points (npk) =  40000
     Max angular momentum in pseudopotentials (lmaxx) =  4

     Atomic positions and unit cell read from directory:
     out/mp-5967.save/
     Atomic positions from file used, from input discarded
 
 
     K-points division:     npool     =       2
     R & G space division:  proc/nbgrp/npool/nimage =      12
     Subspace diagonalization in iterative solution of the eigenvalue problem:
     one sub-group per band group will be used
     scalapack distributed-memory algorithm (size of sub-group:  3*  3 procs)

 
     Parallelization info
     --------------------
     sticks:   dense  smooth     PW     G-vecs:    dense   smooth      PW
     Min          80      80     24                 1674     1674     273
     Max          82      82     25                 1676     1676     275
     Sum         967     967    295                20107    20107    3287
 
     Using Slab Decomposition
 


     bravais-lattice index     =            2
     lattice parameter (alat)  =      11.0675  a.u.
     unit-cell volume          =     338.9178 (a.u.)^3
     number of atoms/cell      =            3
     number of atomic types    =            3
     number of electrons       =        44.00
     number of Kohn-Sham states=         1200
     kinetic-energy cutoff     =      58.0000  Ry
     charge density cutoff     =     232.0000  Ry
     Exchange-correlation= PBE
                           (   1   4   3   4   0   0   0)

     celldm(1)=  11.067549  celldm(2)=   0.000000  celldm(3)=   0.000000
     celldm(4)=   0.000000  celldm(5)=   0.000000  celldm(6)=   0.000000

     crystal axes: (cart. coord. in units of alat)
               a(1) = (  -0.500000   0.000000   0.500000 )  
               a(2) = (   0.000000   0.500000   0.500000 )  
               a(3) = (  -0.500000   0.500000   0.000000 )  

     reciprocal axes: (cart. coord. in units 2 pi/alat)
               b(1) = ( -1.000000 -1.000000  1.000000 )  
               b(2) = (  1.000000  1.000000  1.000000 )  
               b(3) = ( -1.000000  1.000000 -1.000000 )  


     PseudoPot. # 1 for Co read from file:
     /usr/scratch4/magr4985/MG/HTDF/pseudo/SG15/Co.upf
     MD5 check sum: 04640e31e65e5bce9f0417487be359f7
     Pseudo is Norm-conserving, Zval = 17.0
     Generated using ONCVPSP code by D. R. Hamann
     Using radial grid of  602 points,  6 beta functions with: 
                l(1) =   0
                l(2) =   0
                l(3) =   1
                l(4) =   1
                l(5) =   2
                l(6) =   2

     PseudoPot. # 2 for Sb read from file:
     /usr/scratch4/magr4985/MG/HTDF/pseudo/SG15/Sb.upf
     MD5 check sum: 0417cd6c0fe8ce4611e2b23135f1abd9
     Pseudo is Norm-conserving, Zval = 15.0
     Generated using ONCVPSP code by D. R. Hamann
     Using radial grid of  602 points,  6 beta functions with: 
                l(1) =   0
                l(2) =   0
                l(3) =   1
                l(4) =   1
                l(5) =   2
                l(6) =   2

     PseudoPot. # 3 for Ti read from file:
     /usr/scratch4/magr4985/MG/HTDF/pseudo/SG15/Ti.upf
     MD5 check sum: 1aea57736bd12dcfee93c97d0b9b5968
     Pseudo is Norm-conserving, Zval = 12.0
     Generated using ONCVPSP code by D. R. Hamann
     Using radial grid of  602 points,  6 beta functions with: 
                l(1) =   0
                l(2) =   0
                l(3) =   1
                l(4) =   1
                l(5) =   2
                l(6) =   2

     atomic species   valence    mass     pseudopotential
        Co            17.00    58.93320     Co( 1.00)
        Sb            15.00   121.76000     Sb( 1.00)
        Ti            12.00    47.86700     Ti( 1.00)

     24 Sym. Ops. (no inversion) found



   Cartesian axes

     site n.     atom                  positions (alat units)
         1           Ti  tau(   1) = (   0.0000000   0.0000000   0.0000000  )
         2           Co  tau(   2) = (  -0.2500000   0.2500000   0.2500001  )
         3           Sb  tau(   3) = (  -0.5000000   0.5000000   0.5000000  )

     number of k points=    16  Gaussian smearing, width (Ry)=  0.0005
                       cart. coord. in units 2pi/alat
        k(    1) = (   0.0000000   0.0000000   0.0000000), wk =   0.0092593
        k(    2) = (  -0.1666667   0.1666667  -0.1666667), wk =   0.0740741
        k(    3) = (  -0.3333333   0.3333333  -0.3333333), wk =   0.0740741
        k(    4) = (   0.5000000  -0.5000000   0.5000000), wk =   0.0370370
        k(    5) = (   0.0000000   0.3333333   0.0000000), wk =   0.0555556
        k(    6) = (  -0.1666667   0.5000000  -0.1666667), wk =   0.2222222
        k(    7) = (   0.6666667  -0.3333333   0.6666667), wk =   0.2222222
        k(    8) = (   0.5000000  -0.1666667   0.5000000), wk =   0.2222222
        k(    9) = (   0.3333333   0.0000000   0.3333333), wk =   0.1111111
        k(   10) = (   0.0000000   0.6666667   0.0000000), wk =   0.0555556
        k(   11) = (   0.8333333  -0.1666667   0.8333333), wk =   0.2222222
        k(   12) = (   0.6666667  -0.0000000   0.6666667), wk =   0.1111111
        k(   13) = (   0.0000000  -1.0000000   0.0000000), wk =   0.0277778
        k(   14) = (   0.6666667  -0.3333333   1.0000000), wk =   0.2222222
        k(   15) = (   0.5000000  -0.1666667   0.8333333), wk =   0.2222222
        k(   16) = (  -0.3333333  -1.0000000   0.0000000), wk =   0.1111111

     Dense  grid:    20107 G-vectors     FFT dimensions: (  40,  40,  40)

     Estimated max dynamical RAM per process >      79.86 MB

     Estimated total dynamical RAM >       1.87 GB

     The potential is recalculated from file :
     out/mp-5967.save/charge-density

     Starting wfcs are random

     Band Structure Calculation
     ParO style diagonalization

     ethr =  5.00E-06,  avg # of iterations =  6.2

     total cpu time spent up to now is      436.5 secs

     End of band structure calculation

          k = 0.0000 0.0000 0.0000 (  2565 PWs)   bands (ev):

   -77.8743 -41.1563 -41.1563 -41.1563 -40.2780 -16.5391 -16.5391 -16.5391
   -12.0676 -12.0676 -12.0582 -12.0582 -12.0582   5.1226  13.9091  13.9091
    13.9091  14.7382  14.7382  16.3592  16.3592  16.3592  18.2292  18.2292
    19.4255  19.4255  19.4255  20.7890  24.3209  24.6591  24.6591  24.6591
    26.6066  26.6066  26.6066  29.5439  29.5439  34.7462  38.2746  38.2746
    38.2746  42.9335  42.9335  44.1448  44.1448  44.1448  44.7475  44.7475
    44.7475  49.2926  49.2926  49.2926  50.5908  50.5908  50.5908  51.0197
    52.6737  52.6737  52.6737  53.3350  54.8005  54.8005  54.8006  57.7777
    57.7777  57.7777  57.9013  57.9013  58.2572  58.2572  58.8949  58.8949
    58.8949  61.1748  62.5347  62.5347  62.5347  63.2488  63.2488  63.2488
    67.0798  71.8273  74.9875  74.9875  74.9875  77.4415  77.4415  77.4415
    78.6539  78.6539  81.8893  81.8894  81.8894  82.0387  85.3288  85.3288
    85.7544  85.7544  85.7544  87.7099  87.7099  87.7099  87.7732  87.7732
    87.7732  88.5938  88.5938  88.7829  88.7829  88.7829  88.8380  88.8380
    88.8380  91.2557  91.2557  91.2557  92.0435  92.1749  92.1749  92.7308
    92.7308  92.7308  93.8031  94.8035  94.8035  94.8035  94.9425  96.9860
    96.9860  96.9860 101.1271 101.1271 102.7836 102.7836 102.7836 105.0220
   105.5099 105.5099 105.5099 105.6023 105.6023 105.6023 106.7696 106.7696
   106.7696 106.8669 106.8669 106.8669 107.9210 107.9210 111.8076 111.8077
   111.8077 113.5146 115.0728 115.0728 115.1637 115.1637 115.1637 115.4750
   117.4386 117.4386 117.4386 117.7665 117.7665 117.7665 118.6340 118.6340
   118.6340 118.9536 119.2709 119.2709 119.2709 119.9117 122.2206 122.2206
   122.2206 126.3563 126.3563 127.5277 127.5277 127.5277 127.9479 127.9479
   129.2661 129.2661 129.2661 131.5671 131.5671 131.5671 133.7052 133.7052
   133.7052 135.8916 137.8158 137.8158 137.8158 139.3745 139.3745 140.0421
   141.0069 141.0070 141.0070 142.3232 145.1363 145.1363 145.1363 146.3616
   146.8908 146.8908 146.8908 146.9889 146.9889 146.9889 148.9365 148.9365
   148.9365 149.6804 150.1011 150.1011 150.1011 150.6757 150.6757 152.5466
   153.1786 153.1786 153.1786 153.3907 153.3907 153.3907 154.6873 154.6873
   154.6873 155.1945 155.1945 155.3326 156.6384 156.6384 156.6384 158.1954
   158.1954 158.2247 158.2247 158.2247 159.0649 159.0649 159.0649 159.1882
   159.1882 159.1882 159.4890 159.4890 159.4890 159.5282 159.5282 159.5282
   159.8491 159.8491 160.0938 160.4804 160.4804 160.4804 160.8645 160.8645
   160.8645 160.9110 160.9110 167.6416 167.7824 167.7824 167.7824 168.2072
   168.2072 169.6268 169.6268 169.6268 171.1408 171.1408 171.1408 171.2874
   171.2874 171.6174 171.6174 171.6174 172.0607 172.0607 172.0607 174.9769
   177.4168 178.8464 178.8464 179.0814 179.0814 179.0814 179.2860 179.8794
   179.8794 179.8794 181.3639 181.3639 181.3639 184.7886 184.7886 184.7886
   187.0875 187.0875 187.0875 187.1407 187.1407 187.1407 188.9396 188.9396
   188.9396 189.2859 189.2859 189.2859 189.4046 189.4046 190.2022 191.6301
   191.6301 191.6301 191.7445 191.8126 191.8126 192.4410 192.4410 192.4410
   192.5765 192.5765 192.5765 192.9274 192.9274 192.9274 193.6037 193.6037
   194.9377 194.9377 194.9377 196.8176 196.8176 200.9367 200.9367 200.9367
   202.6536 202.9361 202.9361 202.9361 204.8394 205.2941 205.2941 205.2941
   206.0173 209.4766 209.4766 212.1091 212.1091 212.1091 212.3751 212.3751
   212.3752 213.5774 213.5774 214.2379 214.2379 214.2379 214.6232 214.6232
   214.6232 216.5787 217.5293 217.5293 217.5293 219.2917 219.7516 219.7516
   219.7516 222.4787 222.4787 222.4787 222.7694 222.7694 223.2004 223.2004
   223.2004 223.2087 223.2087 223.2087 223.3939 223.3939 223.3939 223.7347
   223.7347 223.7347 224.0779 224.4618 224.4618 224.4618 224.9959 226.8456
   226.8456 227.8043 227.8043 227.8043 227.9476 227.9476 227.9476 228.0476
   228.0476 228.0476 228.3202 228.3202 228.3202 228.5702 230.4632 230.4632
   230.4632 232.5656 232.5656 234.5320 236.1747 236.1747 236.1747 236.2295
   238.4429 238.4430 238.4430 238.7333 238.7333 238.7333 238.8527 238.8527
   238.8527 239.1586 239.1586 239.3187 239.3187 239.3858 239.3858 239.3858
   240.9549 240.9549 240.9549 244.9088 245.3241 245.3241 246.1506 246.1506
   246.1506 246.1657 246.2297 246.2297 246.2297 246.4227 246.4227 246.5725
   246.5725 246.5725 246.5817 246.5817 246.5817 247.8688 247.8688 247.8688
   248.1849 248.1849 249.0699 249.0699 249.0699 249.2479 249.6899 249.6899
   249.6899 249.7468 249.7468 249.7468 249.8341 249.8341 249.8341 250.1748
   250.1748 250.1748 250.2788 250.2788 250.2788 250.3923 251.4724 253.7481
   253.7481 253.7481 255.2641 255.2641 255.8391 255.8391 255.8391 256.3396
   256.3430 256.3430 257.2223 258.0981 258.0981 258.0981 258.9477 258.9477
   259.5712 259.5712 259.5712 259.6705 259.6705 259.6705 259.8726 259.8726
   259.8726 260.4969 260.4969 260.4969 260.6740 260.6740 261.7157 261.7157
   261.7157 261.9770 261.9770 261.9770 262.1478 262.1478 262.1478 263.6718
   263.6718 263.8472 263.8596 263.8596 263.8596 266.2019 266.2019 266.2019
   267.1449 267.1756 267.1756 267.1756 270.5586 270.5586 277.2538 277.2538
   277.2538 280.5644 280.5644 280.5644 283.1870 283.7705 286.3279 286.3279
   286.8698 286.8698 286.8698 288.3473 288.3473 288.3473 289.1162 289.2524
   289.2524 289.2524 289.3543 289.3543 289.3543 289.8077 289.8077 289.8077
   290.0084 290.0084 291.0230 291.0230 291.0230 291.2394 291.9850 292.0898
   292.0898 292.0898 293.0679 293.0679 293.0679 293.2379 293.2379 293.2379
   293.4295 293.4295 293.4295 296.3882 296.3882 296.5546 296.5546 296.5546
   298.4608 298.4608 298.8351 298.8351 298.8351 299.0412 299.0412 299.0412
   299.2850 299.2850 299.2850 299.3818 299.3818 299.3818 299.5429 299.5429
   301.4190 301.4190 301.4802 301.4802 301.4802 301.5802 303.4290 303.4290
   303.4290 307.8673 307.8673 307.8673 308.1525 308.3246 308.3246 308.3246
   308.6853 308.6853 310.0834 310.0834 310.0834 310.9096 310.9096 311.3036
   311.3036 311.3036 312.8549 313.4823 313.4823 313.4823 313.5408 313.5408
   313.5408 313.6590 313.6590 313.6590 314.8484 314.8484 314.8484 314.8938
   315.0259 315.0259 315.0259 315.0705 315.0705 315.2566 315.2566 315.2566
   315.4985 315.4985 315.4985 315.9871 317.3435 317.3435 319.0254 319.0254
   319.0254 321.3634 321.3634 321.3634 321.5358 322.0948 322.0948 322.0948
   322.8383 322.8383 322.8383 323.1073 323.9481 324.2388 324.2388 326.2374
   326.2374 326.2374 326.3909 326.4222 326.4222 326.4222 326.4428 326.4428
   326.4428 329.8826 329.8826 330.2136 330.2136 330.2136 330.7868 330.7868
   330.7868 330.9315 330.9315 330.9315 331.2619 331.4164 331.4164 332.4603
   332.4603 332.4603 332.5025 332.5199 332.5199 332.5199 332.5290 332.5290
   332.5290 332.9194 332.9194 332.9290 332.9290 332.9290 333.5114 333.5114
   333.5114 333.6708 333.6708 333.6708 333.9289 334.8858 334.8858 340.0360
   340.0360 340.0985 340.0985 340.0985 341.1186 341.1186 341.1186 341.4405
   345.3312 345.3312 345.3312 345.3642 345.3642 346.4409 346.4409 346.4409
   346.5483 346.5483 346.5483 346.6534 346.6534 346.6534 346.7656 347.3556
   347.3556 347.3556 347.4496 347.4710 347.4710 347.4710 347.6903 347.6903
   349.1047 349.1047 349.1047 352.3135 353.2985 353.6969 353.6969 353.6969
   355.1898 355.1898 355.1898 355.4685 355.4685 355.4685 355.5699 355.5699
   355.5699 355.7690 355.7690 358.9392 358.9392 359.3563 359.3563 359.3563
   360.4532 360.4532 360.4532 361.4110 361.4111 361.4111 361.5649 361.7416
   361.7416 361.7416 361.9522 361.9522 361.9522 362.0946 362.2348 362.2348
   362.2428 362.2428 362.2428 363.0286 363.0286 363.0286 363.3187 363.3187
   363.3187 363.4632 363.4632 363.4632 363.5081 363.5081 363.5081 364.5506
   364.5506 364.6080 364.6080 364.6080 365.3701 365.3701 365.3701 365.5459
   365.5459 365.5459 365.6545 365.6545 365.8925 365.8925 365.8925 365.9645
   365.9645 366.4164 366.4164 366.4164 366.4541 366.5435 366.5435 366.5435
   366.8166 367.2083 367.2083 367.2083 367.4937 367.4937 367.4937 367.6866
   369.8720 369.8720 369.9896 369.9896 369.9896 370.0986 370.0986 370.0986
   370.5954 370.5954 370.5954 370.6561 370.7715 370.7715 370.7715 371.0814
   371.0814 371.0814 371.1259 371.1259 371.1259 371.1447 371.1447 371.4808
   371.4808 371.4808 371.6961 372.8922 373.0527 382.7214 382.7214 385.5870
   385.5870 385.9704 385.9704 385.9704 386.3826 386.3826 386.3826 386.4644
   386.4644 386.4644 386.5757 386.5757 386.5757 386.9298 386.9298 388.0940
   388.0940 388.0940 388.5483 388.5483 388.5483 388.9440 389.1601 389.1601
   389.1601 389.8080 389.8080 389.8080 389.8538 389.8538 389.8538 389.8640
   389.8640 394.7471 394.7471 394.7471 396.0049 396.0049 396.0606 396.0606
   396.0606 396.0619 396.3322 398.5577 398.5577 398.5577 401.7331 401.7331
   401.7331 401.8628 401.8628 401.8628 401.8766 401.8766 401.8766 403.8123
   403.8123 403.8291 403.8569 403.8569 403.8569 406.8974 406.8974 406.8974
   410.5738 410.5738 411.7343 411.7343 411.7343 415.0292 415.0292 415.0292
   415.9512 416.0793 416.5372 416.5372 416.5372 416.5417 416.5417 416.5417
   416.5435 416.5435 416.6139 416.6139 416.6820 416.6820 416.6820 416.6846
   416.6846 416.6846 418.3423 418.3423 418.3423 419.4350 419.8862 420.7220
   420.7220 420.7220 421.2911 421.2911 422.2258 422.2258 422.2258 422.2576
   422.2576 422.2576 423.5020 423.5020 423.5020 423.7222 424.0039 424.2817
   424.2817 424.2817 424.4912 424.4912 425.7840 425.7840 425.7840 427.2067
   427.2067 427.2067 427.5840 427.5840 427.6126 429.1175 429.1175 429.1175
   429.8416 429.8416 429.8416 430.0796 430.0796 430.0796 430.4932 430.4932
   430.5866 430.5866 430.5866 431.1199 431.1199 431.1199 431.2206 431.2206
   431.2206 431.2724 432.3034 433.0813 433.0813 433.0813 433.1312 433.1312
   433.7801 433.7801 433.7802 434.1586 434.1586 434.1627 434.1627 434.1627
   434.8312 435.1723 435.1723 435.1723 435.2497 435.2497 435.2497 435.3552
   435.3552 435.3552 435.3937 435.3937 435.3982 435.3982 435.3982 438.0503
   438.0922 438.0922 438.0922 438.1361 438.1361 438.1361 438.2676 438.2676
   438.3219 438.3219 438.3219 443.2150 443.2150 446.0304 446.0304 446.0304
   446.6941 446.6941 446.6941 447.5081 449.0344 449.0344 449.1480 449.1480
   449.1480 449.3054 449.3054 449.3054 450.0621 450.1126 450.1126 450.1126
   450.1741 450.1741 450.2034 450.2034 450.2034 450.2519 450.2519 450.2519
   450.8853 450.9722 450.9722 450.9722 451.2076 451.2076 451.2076 451.2304
   451.2304 451.2304 451.3078 451.3078 451.3078 455.7770 455.8403 455.8403
   456.2035 456.2035 456.2035 456.5235 456.5235 456.5235 456.6117 456.6117
   456.6117 457.5762 457.5762 457.6141 457.6142 457.6142 457.6719 457.6719
   457.6719 457.6846 457.6846 457.6846 457.7037 458.2676 458.2676 458.2676
   459.5671 459.5671 459.6797 459.6797 459.6797 459.8438 459.9461 459.9461
   460.4399 460.4399 460.4399 461.2500 461.2500 461.2500 461.5298 461.5298
   461.6045 461.6045 461.6045 461.7852 461.8529 461.9699 461.9700 461.9700
   462.0580 462.0580 462.0906 462.0906 462.0906 462.2156 462.2156 462.2156
   463.6759 463.6759 463.6759 465.0630 465.6062 465.8681 465.8681 465.8681
   465.9911 465.9911 466.2434 466.2434 466.2434 466.4992 466.4992 466.4992
   467.7020 467.7020 467.7095 467.7095 467.7095 467.7376 467.7857 467.7857
   467.7857 468.5392 468.5392 468.5392 468.7333 468.7333 468.7333 469.0384

          k =-0.1667 0.1667-0.1667 (  2553 PWs)   bands (ev):

   -77.8743 -41.1581 -41.1563 -41.1563 -40.2759 -16.5442 -16.5410 -16.5410
   -12.0646 -12.0646 -12.0579 -12.0568 -12.0568   5.4403  13.3637  13.6915
    13.6916  14.9322  14.9322  15.5832  16.2510  16.2510  18.0912  18.0912
    18.8446  20.0084  20.0084  21.8991  23.6389  24.0623  24.0623  25.4390
    26.4728  26.4728  28.1488  31.0141  31.0141  36.0118  36.3670  36.3671
    38.6030  39.9127  42.5617  42.5617  44.1262  44.1262  46.1434  46.1434
    47.2309  47.6170  48.2663  48.2663  48.4681  49.4197  49.4197  50.1052
    52.2290  53.9434  53.9434  54.2959  54.6229  54.6229  56.0899  56.0899
    56.3713  56.4744  58.0541  58.0541  58.3341  59.6931  59.6931  61.9417
    61.9417  62.0325  63.2006  63.2006  63.2806  65.3290  65.3290  66.2438
    69.5611  72.7151  72.7151  73.1797  74.4725  74.6163  74.6163  76.9335
    78.8670  78.8670  79.1780  79.1780  80.9017  81.5649  82.5973  82.5973
    82.8979  82.8979  84.3235  84.6878  85.5974  85.6544  85.6544  87.8565
    88.3908  88.3908  88.7037  88.9235  88.9235  90.0685  90.0685  91.1688
    91.1688  91.3253  91.5072  92.0982  92.8534  92.8534  94.4199  95.3483
    95.3483  95.6514  96.1998  96.1998  96.8232  96.8232  97.4645  97.4645
    98.8282  99.4363  99.4363 100.3853 100.3853 100.9170 101.2175 101.7672
   101.7672 103.6708 104.2267 105.5782 105.5782 107.0212 107.2767 107.2767
   108.6130 109.2473 109.2473 109.2717 110.3981 110.3981 110.7096 111.1902
   111.1902 111.4557 112.2452 112.8101 113.3542 113.3542 115.2349 115.2349
   115.7578 117.0633 117.1838 117.1838 117.4168 117.4168 118.9303 119.6293
   119.6293 120.0404 120.5980 120.5980 121.0566 124.5804 124.5804 125.4782
   125.5597 126.2506 126.2506 127.4080 127.4585 127.4585 127.9899 128.8388
   128.8388 130.2745 130.2745 132.1957 132.3909 132.3909 133.8721 134.1773
   134.1773 135.3136 137.6407 137.6407 138.5135 138.6411 138.8669 139.3447
   139.3447 140.4279 140.4279 141.2471 141.2471 142.5299 143.3961 143.4580
   143.4580 143.5942 144.4388 145.9677 145.9678 146.5823 146.5823 147.1733
   147.3843 147.3843 147.5638 148.5218 148.5218 149.3366 149.8240 149.9168
   149.9168 150.1514 151.8929 151.9301 151.9301 153.4760 153.7155 153.7155
   154.3583 154.5966 154.5966 155.0787 155.0787 156.2568 156.4980 156.4980
   156.9600 157.1926 157.1926 157.5459 158.4345 158.4345 158.8665 159.4368
   160.4639 160.4639 160.6204 161.2045 161.2045 161.7898 161.7898 162.3995
   163.1334 163.1596 163.2240 163.2240 163.9151 163.9151 165.4496 165.4513
   165.4513 165.6196 166.2521 166.2521 167.1851 167.1851 168.4780 168.4780
   168.5895 170.1268 170.1268 170.5006 171.1003 171.1003 171.6765 171.9706
   171.9706 172.0867 172.9571 173.5482 173.5482 173.9160 175.4778 175.4778
   176.2877 176.2877 177.5227 179.0914 179.0914 179.2664 179.3216 179.8465
   180.1188 180.1188 180.4610 180.4610 181.3210 182.0061 182.0061 183.7649
   183.7649 184.5006 184.8173 185.2425 185.2425 186.1040 186.7100 186.7100
   187.7103 187.7103 187.9331 188.7130 188.7130 189.0992 190.0844 190.8355
   190.8355 191.0014 192.0027 192.0027 192.5881 194.2399 194.2399 194.6234
   195.0164 195.2405 195.2405 196.9074 196.9074 197.1445 198.5696 198.5983
   198.5983 199.3481 199.5905 199.5905 200.0249 200.9938 200.9938 201.1380
   203.0111 203.0111 203.4590 204.2842 204.2842 207.0175 207.0175 207.3353
   207.3557 207.3557 209.1397 209.4999 209.4999 210.2872 210.2872 210.4517
   211.0809 211.0809 211.2530 212.3732 212.3732 212.6665 213.3998 213.7936
   213.7936 213.8250 214.0545 214.3919 214.8254 214.8254 215.3406 215.3406
   215.4749 216.6891 216.6891 217.6145 218.1021 219.1335 219.1335 220.3785
   220.3785 222.8325 222.8325 223.1934 223.4192 223.4192 223.7685 223.8076
   225.2932 225.2932 225.4519 226.3674 226.5186 226.5186 227.7345 227.7345
   228.3751 228.8653 228.8653 228.9049 229.4493 229.5209 229.5209 230.1229
   230.1229 230.3997 231.5638 231.5638 231.6784 232.6170 232.6170 233.0577
   233.2335 233.2335 233.2494 233.5459 234.0362 234.0362 234.5130 234.8166
   234.8166 235.8286 235.9087 235.9087 236.5244 237.1981 237.1981 237.6703
   237.8880 237.8880 238.4346 239.0181 239.0181 239.1281 239.6327 239.6327
   239.7123 240.9483 240.9483 241.4445 241.4445 241.8092 241.8092 241.9127
   242.6907 242.6907 242.7625 243.1897 243.2767 243.2767 243.5440 244.3417
   244.4878 244.4878 245.2391 245.5430 245.5430 245.7636 247.3058 247.9315
   247.9316 248.2566 248.2566 248.3002 248.6525 248.6525 249.5214 249.6727
   249.6727 249.9548 250.0505 250.0505 250.6587 251.1992 251.3297 251.3297
   252.4018 252.4018 252.6094 253.1212 253.1212 254.0966 254.0966 254.5699
   254.9006 254.9006 255.2815 255.5320 255.5320 255.8440 256.1338 256.4612
   256.9430 256.9430 257.8954 258.3426 258.3426 258.3974 258.9506 258.9506
   260.0135 260.0683 260.1362 260.1362 261.0564 261.0564 262.0103 262.0103
   263.6883 264.3242 264.3242 264.9298 264.9298 264.9582 265.7668 265.9537
   265.9537 266.3299 267.7381 267.8642 267.8642 269.0556 269.3352 269.3352
   269.8105 270.5983 270.7260 270.7260 271.3866 271.5394 271.5394 273.1499
   273.1499 273.7523 273.7523 275.3780 275.9636 275.9636 276.4605 277.7380
   277.7380 278.2735 278.3763 278.3763 278.5413 278.8331 278.9642 278.9642
   279.3590 279.8769 279.8769 280.4304 280.4304 280.6986 281.2899 281.2899
   281.5782 281.8470 283.1259 283.1259 284.5100 284.5100 286.3278 286.3278
   287.2432 287.9632 287.9632 289.3203 290.0908 290.0908 290.1547 290.2491
   290.9701 290.9701 291.5945 292.4168 292.4168 292.8600 292.8601 293.0760
   293.5518 294.2717 294.2717 295.4450 295.7263 295.7263 297.0575 297.0575
   297.0722 298.4563 299.1542 299.1542 299.5720 299.7744 299.7875 299.7875
   300.9091 300.9660 300.9660 301.8404 301.8404 301.8791 302.2373 303.3585
   303.3585 303.5751 303.7812 304.3719 304.3719 304.5366 304.8283 304.8283
   305.4422 305.8274 305.8274 306.4999 306.4999 307.3732 307.7543 307.7543
   307.9529 308.3789 308.3789 308.6337 308.6679 308.6679 308.9743 308.9743
   308.9986 309.1604 309.4555 309.5647 309.5647 310.9431 310.9431 311.0731
   312.6963 312.6963 312.8678 313.5112 313.5112 313.9358 313.9358 314.3205
   314.5220 314.6081 314.7654 314.7654 315.3802 315.3802 315.7230 316.4691
   316.4691 317.2196 317.8082 317.8082 318.5555 319.3553 319.3553 319.5656
   320.5966 320.5966 321.0083 321.0083 322.3489 322.4588 322.4588 322.5033
   324.4351 324.6203 324.6203 325.6097 325.9801 325.9801 326.4055 326.7717
   326.7717 327.0959 327.1225 327.1225 327.1675 327.7000 327.7000 328.2331
   328.2331 328.5874 328.7169 329.1240 329.1240 329.4081 329.4081 329.6917
   329.8363 329.8395 329.8395 329.8907 330.2263 330.3632 330.3632 330.7750
   331.1696 331.1696 332.1193 332.1193 332.7551 333.0179 333.0179 333.2280
   333.2649 333.3530 333.3530 335.6196 335.6196 335.7948 335.9370 335.9370
   336.1402 336.5327 336.6327 336.6327 338.3385 338.3385 339.2329 339.2330
   339.5763 340.6534 340.8486 340.8486 341.5115 341.5115 341.6546 341.8329
   342.7023 342.7023 342.7340 343.3661 343.3661 343.8685 344.6948 344.6948
   345.3939 345.4288 346.1959 347.2965 347.2965 347.6127 347.9747 347.9747
   348.4089 348.4089 348.6692 348.6692 348.8685 349.4950 349.4950 350.0228
   350.2050 350.2050 350.5811 350.5811 350.5888 350.7307 350.7564 350.7564
   350.8342 350.8847 351.2635 351.2635 351.6283 351.6283 351.9342 352.0578
   352.4622 352.4622 352.7952 352.7952 352.9862 353.2975 353.3036 353.3205
   353.3205 354.3371 354.3371 354.4420 355.6743 355.6743 355.7432 356.0845
   357.1087 357.1087 357.7799 357.7799 357.9999 359.5023 359.5023 359.8144
   360.2698 360.3047 360.3047 360.7892 360.8642 360.8642 361.5389 361.5389
   362.0794 362.4704 363.2764 363.2764 363.5221 363.5221 363.8785 363.8785
   364.2294 364.5687 364.6754 364.6754 364.8357 364.8357 364.9966 365.2572
   365.2572 365.2905 366.2658 367.0322 367.0322 367.0482 368.9261 368.9261
   369.4541 369.9451 370.3674 370.3674 371.3066 371.3066 371.3892 372.4871
   372.4871 372.6617 373.3864 373.3864 373.4830 374.0084 374.0084 374.1431
   374.4626 374.7202 374.7202 375.1585 375.1585 375.4274 375.4729 375.4729
   375.8200 375.8200 375.8270 376.5451 376.6086 376.7082 376.7082 377.7618
   377.7618 377.9972 377.9973 378.2790 379.0985 379.0985 379.1949 379.6161
   380.0137 380.1393 380.1393 381.0439 381.0785 381.0785 381.7876 381.7876
   382.2485 382.6845 382.6845 382.8745 383.0272 383.0272 383.2376 383.4292
   383.4292 383.6334 383.8813 384.1209 384.1209 387.0032 387.0217 387.0217
   387.1777 387.4304 387.4304 389.1235 389.8769 389.8769 390.8015 391.3597
   391.3597 392.2734 392.2734 392.4165 392.4756 392.5965 392.5965 392.8278
   394.5972 394.5972 394.7785 395.1425 396.1577 396.1577 396.5356 396.5356
   397.0820 397.5437 399.0278 399.0278 400.2374 400.2374 400.9298 400.9996
   400.9996 401.6712 401.8592 401.8592 402.8586 402.8586 403.8445 404.7770
   404.7770 404.8056 405.4084 405.8551 406.5553 406.5553 407.8248 407.8248
   408.2686 408.2687 408.4989 408.4989 408.5744 409.0506 409.1491 409.1491
   409.2432 409.6357 410.3989 410.3989 410.8533 411.2692 411.2692 412.2645
   412.2645 413.2308 413.2482 413.2482 413.4415 414.0210 414.0210 414.7678
   416.2062 416.2062 416.3655 416.3655 416.8796 416.9296 416.9296 417.1454
   417.2922 417.6380 417.6380 418.2033 418.2327 418.2327 418.4147 420.5332
   420.5332 421.1847 421.1847 421.3574 421.3768 421.5517 421.5517 422.2515
   422.2515 422.3405 422.5777 423.9003 423.9003 425.0874 425.2005 425.2005
   425.2332 425.5418 425.5418 426.1651 426.1651 426.6538 427.0941 427.0942
   427.2655 427.6633 427.6633 427.8658 428.6889 428.9775 428.9859 428.9859
   429.2123 429.2123 429.9583 430.5329 430.5329 431.4968 431.7431 431.7431
   431.9417 432.7065 432.7065 433.1437 433.4166 433.4166 433.6907 433.9055
   434.2152 434.2152 435.0515 435.0515 435.8730 436.0087 436.0087 436.1796
   436.3371 436.3371 436.9702 437.4701 437.7271 437.7271 437.9863 438.3384
   438.8035 438.8035 439.1726 439.1982 439.1982 439.6392 439.6392 439.7487
   439.7487 439.7899 439.9021 440.1594 440.1594 440.4595 440.4739 440.4739
   440.7207 441.6694 441.6694 441.7927 441.9518 441.9518 442.1696 442.8366
   442.8366 443.0211 443.5832 443.5832 444.0140 444.1777 444.1777 444.5004
   444.5004 444.6097 444.9145 445.7537 445.8643 445.8643 446.3120 446.4147
   446.4147 446.5408 446.6417 446.6417 446.9931 446.9931 447.0346 447.4392
   448.3755 448.3755 448.8713 449.7343 449.7343 450.2592 450.2592 450.8174
   451.1954 451.3004 451.4745 451.4745 451.6154 451.6154 452.0198 452.1635
   452.1635 452.4439 452.4439 452.7822 453.0372 454.2308 454.2308 454.4976
   454.4976 454.8145 454.8145 454.8412 454.9179 455.3006 455.3006 455.4100
   455.9585 455.9585 456.3255 456.3255 456.4023 456.4664 456.4690 456.4690
   456.7173 457.1401 457.3457 457.3457 457.7278 458.7682 458.7951 458.7951
   459.6672 459.6672 460.5320 460.5320 460.8865 461.0337 461.0337 461.2588
   461.5818 461.5818 461.6130 461.8170 461.8170 462.1721 462.2236 462.2236
   462.3226 462.8433 462.8433 462.9608 465.2698 465.2698 465.4781 465.7940
   465.7940 465.9726 466.0197 466.0681 466.0681 466.4630 466.4630 466.7118
   466.9927 467.2774 467.2774 467.8391 467.8391 468.0508 468.0508 468.0936
   468.1937 468.5482 469.7202 469.7202 470.3994 470.3994 471.3520 471.6718
   471.6718 471.6757 472.8131 472.8131 472.9838 473.8655 474.1471 474.2640

          k =-0.3333 0.3333-0.3333 (  2527 PWs)   bands (ev):

   -77.8743 -41.1618 -41.1564 -41.1564 -40.2717 -16.5542 -16.5448 -16.5448
   -12.0590 -12.0590 -12.0571 -12.0537 -12.0537   6.2566  11.7508  13.3969
    13.3969  15.0594  15.0594  15.0768  16.2266  16.2266  18.1223  18.1223
    18.5717  20.6269  20.8214  20.8214  22.8134  22.8134  25.8697  26.5271
    27.3933  27.3933  31.5428  32.9950  32.9950  33.8861  33.8861  35.0974
    39.3618  39.5261  41.5767  41.5767  43.2900  43.9742  43.9742  44.3918
    44.3918  44.6075  47.5254  47.8477  47.8477  50.0830  50.8976  51.1684
    51.1684  52.1266  53.6789  53.6790  54.7146  54.7146  55.2134  55.7442
    55.7442  60.8495  60.8495  61.1099  61.5812  61.5812  61.5918  63.2988
    64.5863  64.5863  65.6882  66.1864  66.1864  68.5508  68.5508  68.8583
    69.7849  69.7849  71.3115  71.3115  72.0938  73.4418  73.7791  73.7791
    74.8321  74.8400  74.8400  76.5581  78.0148  78.0148  78.8558  79.2522
    80.7969  82.7679  84.4222  84.4222  84.7577  85.4014  85.4014  87.2548
    87.5841  87.5841  88.8169  88.8169  88.8240  89.3756  90.6903  90.6903
    91.3405  91.3405  92.5680  93.1284  93.1284  93.9545  94.6285  94.6285
    95.2653  95.8763  97.0069  97.0069  97.0242  99.3213  99.3213  99.5785
    99.5785 100.4244 100.9046 100.9046 102.1093 102.6340 102.6340 103.7531
   104.7070 104.7070 105.4644 105.8849 106.7554 106.7554 107.4695 107.6429
   107.6429 108.8281 108.8281 109.5587 110.4383 110.4383 110.4831 111.2808
   111.2808 111.5944 112.1567 112.1567 113.0901 114.3324 114.3324 115.5877
   116.0639 116.0639 117.3659 118.3314 118.3314 118.9734 118.9943 120.4063
   120.4063 120.6467 122.3926 122.3926 122.7070 124.6988 125.3559 125.3559
   126.4832 126.9731 126.9731 129.4862 129.4862 130.1856 130.2045 131.3673
   131.3673 131.5434 132.0661 132.0661 132.7293 132.7293 132.7989 132.8831
   133.7938 133.7938 134.3112 134.3112 134.8221 135.6680 135.6680 136.2269
   137.4661 137.8810 137.8810 138.4011 139.2585 139.2585 139.8133 139.8133
   140.3202 141.8914 142.1701 142.7213 142.7213 145.6004 145.6004 147.1291
   147.1291 147.7362 147.7362 147.8472 148.9410 149.1147 149.1147 149.7587
   149.8510 150.8402 150.8402 151.0196 152.2730 152.6423 152.7974 152.7975
   153.2963 153.2963 153.7769 154.3387 154.3387 155.3253 155.3253 155.7267
   156.1425 156.1425 157.3558 157.3558 157.6588 158.0548 159.3691 159.4453
   159.4453 159.8161 161.2519 161.2519 161.7125 162.6520 162.7046 162.7046
   163.8269 163.8269 164.7956 164.8768 164.8768 165.7815 165.8545 165.8545
   165.8901 166.7536 166.9127 166.9127 167.5101 167.6489 167.6489 168.3728
   168.3728 171.4055 171.4055 172.0929 172.0929 173.1274 173.1966 174.5315
   174.5315 174.7885 175.4560 175.7582 175.7582 176.2212 176.9909 177.8664
   177.8664 178.0871 179.2284 179.3642 179.3642 179.9666 179.9667 181.8798
   182.8655 182.8655 182.9889 183.3554 183.3554 183.6696 183.6696 184.5573
   184.9542 184.9542 185.5618 185.8528 186.0952 186.0952 186.5465 187.1550
   187.2873 187.5384 187.5384 188.0323 188.0323 189.5716 189.5716 190.7189
   192.7867 192.7867 193.2725 193.2725 194.5739 194.8007 194.8007 195.5152
   196.3581 196.3581 197.9829 199.1630 199.2790 199.2790 199.6338 199.6338
   200.1969 200.1969 200.5438 200.6972 201.2952 201.3968 201.3968 202.5190
   202.8617 202.8617 203.1493 203.6983 203.6983 203.7613 204.5831 204.5831
   205.2877 205.6393 205.6393 206.7760 208.4234 208.4234 209.1299 209.2311
   209.2311 210.0895 210.3756 210.6340 210.6340 212.4304 212.4304 212.6315
   213.1388 213.1625 213.1625 213.8703 213.8703 213.9951 213.9951 214.4028
   214.6457 214.6457 215.7490 215.7490 215.7824 216.3347 217.1106 218.2540
   218.2540 219.5025 219.8876 220.4583 220.4583 221.5815 221.6261 221.6261
   221.7703 222.8506 222.8506 223.2100 223.6531 223.6531 224.4324 224.4324
   225.5418 225.5418 225.7432 225.7432 225.8464 226.5414 227.1985 227.6684
   227.6684 228.6773 228.8728 228.8728 230.0285 230.0285 231.2216 231.9347
   231.9347 232.0902 232.0902 232.0979 233.2463 233.2463 233.2801 233.6369
   234.3090 234.3090 234.4291 234.8518 235.6146 235.6146 235.8441 236.9970
   236.9970 238.1596 238.5213 238.5213 239.5856 239.5856 239.6226 240.2724
   241.0061 241.0061 241.6330 241.9355 241.9355 242.6496 242.8931 243.5106
   243.5106 243.7906 243.7906 244.2234 244.6122 244.9471 244.9471 246.0548
   246.3277 246.3277 246.7682 246.9213 246.9213 246.9321 247.4828 247.4828
   248.0785 248.5061 248.5061 248.9272 249.4139 249.4139 250.0423 250.9356
   250.9733 250.9733 252.2952 252.2952 252.4717 252.7883 252.7883 252.8533
   253.8122 253.8122 254.0540 254.8393 255.0433 255.0433 256.0380 256.1529
   256.1529 257.1640 257.1640 257.9353 258.2850 258.2850 259.0487 259.3647
   259.3647 259.5719 260.1221 260.1221 261.2001 261.3600 261.3600 263.5575
   263.9220 263.9220 265.5606 265.8145 266.0690 266.0690 266.9666 266.9666
   267.4634 267.4634 267.4984 268.1863 268.6922 268.8499 268.8499 269.8339
   269.8339 270.4510 270.4732 270.4732 271.1832 271.1832 271.4162 271.4509
   272.0361 272.2394 272.2394 272.5969 272.5970 272.7726 273.8711 273.9013
   273.9013 274.5324 274.5439 274.5439 275.4180 276.5073 276.5073 277.5629
   278.0191 278.0191 278.6047 279.1119 279.1119 279.8105 279.8105 280.1450
   281.3055 281.3055 281.3821 281.8534 281.9568 281.9568 282.7264 282.7264
   283.2416 283.2416 283.3406 283.4843 283.4843 283.5620 283.7037 284.2901
   284.2901 285.3015 285.3015 285.5190 286.3072 286.5921 287.0751 287.0751
   288.6546 289.1456 289.1456 289.7842 290.0083 290.0083 290.9227 290.9254
   290.9254 291.3116 291.3116 291.4840 291.7261 291.7261 291.7512 292.3199
   294.1573 294.2933 294.2933 294.9490 294.9490 295.1385 295.2201 295.6559
   295.6559 295.9143 297.0671 297.0671 298.6306 298.6306 299.0997 299.7611
   299.7611 300.2217 300.5975 300.5975 301.8237 301.8237 303.1572 303.7503
   303.7503 304.5533 305.7213 305.9316 305.9316 307.2516 307.2516 307.5834
   308.1435 308.3317 308.3317 308.7841 308.7913 308.7913 309.7341 309.7341
   310.6804 311.2437 311.6385 311.6385 312.1087 312.1087 312.5652 312.8069
   312.9486 312.9995 312.9995 313.3086 313.3086 313.4851 313.9236 314.3116
   314.3116 314.4367 314.4794 314.4794 315.6874 315.6874 315.7665 315.9689
   316.9390 316.9390 318.3814 318.3814 318.6331 318.6818 318.6818 320.3155
   320.3457 320.3457 321.1650 321.6022 321.6022 321.9700 322.7553 322.7553
   323.6052 324.6752 324.8249 324.8249 325.4643 325.5315 325.5315 327.1222
   327.1222 327.3332 327.4811 327.4811 327.5767 327.7329 328.2099 328.2099
   328.8449 328.8986 328.8986 328.9096 329.1791 329.1791 329.5637 329.5637
   329.8644 329.9455 330.0604 330.0604 330.7136 331.1811 331.1811 331.2623
   332.0303 332.0303 334.0870 334.0870 334.3146 334.3831 334.8572 334.8572
   334.9998 335.3837 335.5446 335.5446 335.7225 335.9623 335.9624 336.4088
   336.4088 336.8131 337.6404 337.6404 337.6988 337.7304 337.8997 337.8997
   338.2000 338.2000 338.3687 338.6643 338.6643 338.6786 338.9139 340.0183
   340.0183 340.4693 340.4948 340.4948 340.6787 340.7730 340.7730 340.9325
   340.9325 341.1358 341.4695 341.4695 341.8493 342.4797 342.4797 343.4178
   343.4178 343.5119 344.4040 344.4040 345.1867 347.1196 347.1196 347.5524
   347.5524 347.9463 348.1184 349.2706 349.2706 350.1106 350.1106 350.5931
   351.3425 351.3425 351.3937 351.7141 351.7141 352.4266 352.4278 353.3971
   353.3971 353.7488 354.4773 354.4773 354.7855 354.7855 355.7362 356.1950
   356.1950 356.6249 357.2783 358.0086 358.0086 358.9753 359.4976 359.4976
   359.9086 359.9466 359.9466 360.1713 360.7518 360.7518 360.8677 361.2135
   361.2135 361.5574 362.0192 362.1704 362.1704 364.1019 364.1019 364.2146
   364.4239 364.4239 364.5235 364.8449 365.1437 365.1437 365.1874 365.6216
   365.6216 366.6642 366.6642 367.4874 367.5012 367.5012 367.6265 367.8503
   368.2602 368.7149 368.7149 368.8969 369.8667 369.8667 370.1963 370.4863
   370.4863 370.9361 370.9361 371.1327 371.5317 371.5317 372.3781 373.1679
   373.1679 373.7424 374.0598 374.0598 374.4054 375.2836 375.4241 375.4241
   375.6503 375.7916 375.7916 376.3576 376.6530 376.6530 376.9272 377.9433
   377.9433 378.2042 378.9521 378.9522 379.9845 379.9845 380.1108 381.0441
   381.0441 381.5643 381.5643 381.8505 381.8830 382.1113 382.1113 382.1322
   383.9263 383.9263 383.9363 384.6840 384.6840 385.0867 385.0867 385.1456
   385.3752 386.0561 386.3316 386.3316 386.9646 386.9646 387.5055 387.8755
   387.8755 388.2191 388.2191 388.4160 388.6626 388.8072 388.8072 389.5293
   390.1751 390.1751 390.4454 390.5705 390.5705 391.7222 391.8827 391.8827
   392.3948 392.3948 392.7043 393.1545 393.2709 393.2709 394.8115 394.8320
   395.1878 395.1878 395.2365 395.2365 395.8612 397.3163 397.8333 397.8333
   398.6488 398.6784 398.7538 398.7538 398.8762 398.9481 398.9481 399.3605
   399.3605 399.7308 399.7308 399.8923 400.4627 400.4627 400.9362 403.6089
   403.7254 403.7254 404.2855 404.4997 404.4997 404.9578 404.9578 405.6953
   405.6953 405.7603 406.2713 406.5377 406.5377 407.1080 408.4083 408.4083
   408.9032 409.9840 409.9840 410.1523 410.7631 410.7631 411.1868 411.7771
   411.7771 411.8916 412.3009 412.5801 412.5801 413.2003 413.2003 414.4840
   414.7605 414.8770 414.8770 415.4510 415.4510 415.9306 415.9467 416.1961
   416.1961 416.9219 417.0438 417.0438 417.3481 417.3481 417.3756 418.0202
   418.0849 418.0849 418.5961 418.8216 418.9341 418.9341 420.0047 420.2778
   420.2856 420.2856 420.9798 420.9798 421.4693 421.5904 421.5904 421.7262
   421.7262 421.7583 422.2654 422.2654 422.3604 422.4475 422.6158 422.6158
   423.3013 423.5854 423.5854 423.8514 424.1864 424.1864 424.6743 424.9908
   424.9908 425.6861 425.6861 425.8145 426.5072 426.5072 426.8743 427.0285
   427.3250 427.3250 427.6395 428.5739 428.5739 429.2612 429.3629 429.3629
   430.1024 430.1585 430.1585 432.0301 432.0301 432.3717 432.3717 432.5486
   433.0387 433.3756 433.4760 433.4760 433.7983 433.7984 433.8569 434.1834
   434.1834 434.4754 434.6896 434.6896 434.8788 435.1681 435.1681 435.1986
   435.9307 435.9307 436.5781 439.5791 439.5791 440.0215 440.0215 440.1271
   440.1271 440.3279 440.4778 440.9139 440.9139 441.1154 441.2457 441.6526
   441.6526 441.8781 441.9399 441.9609 441.9609 442.3001 442.3001 442.9435
   443.1473 443.1473 443.3307 443.6861 443.8984 443.8984 444.3326 444.3326
   444.4505 444.6208 446.1977 446.1977 447.8597 447.8597 449.1219 449.6760
   449.7148 449.7148 450.2870 450.2870 450.5810 450.7830 450.9803 450.9803
   451.2335 451.4231 451.4231 451.9993 451.9993 452.6318 452.6318 453.0680
   453.2529 453.4390 453.4390 453.5661 453.8461 453.8461 454.3087 455.1431
   455.1431 455.3855 455.3855 455.5014 455.6760 455.6760 455.7051 455.8408
   456.4854 456.4854 456.9213 457.0494 457.0494 458.4764 458.9743 458.9743
   459.5658 459.5675 459.5675 459.6074 459.8058 459.8058 459.8070 459.8978
   459.8978 461.3062 461.7021 461.7021 461.8880 461.8880 461.9619 462.3123
   462.5613 463.6199 463.8093 463.8093 464.0201 464.0201 464.1767 464.1767
   464.5037 464.9865 464.9865 465.2736 466.7374 466.7374 466.9779 467.1510
   467.1510 467.3969 467.5292 467.5292 467.7677 468.1839 468.1839 468.3174
   468.6338 468.6338 468.7338 469.1332 470.3839 472.3457 472.3457 472.8745
   472.8745 473.7384 473.8304 473.8304 474.1418 474.1861 474.2105 474.2105
   474.7179 475.1590 475.1590 475.3488 475.3488 475.4177 475.8155 475.9799

          k = 0.5000-0.5000 0.5000 (  2512 PWs)   bands (ev):

   -77.8743 -41.1636 -41.1564 -41.1564 -40.2696 -16.5592 -16.5466 -16.5466
   -12.0567 -12.0567 -12.0567 -12.0516 -12.0516   6.8575  10.7420  13.2796
    13.2796  15.0332  15.0332  15.0535  16.3008  16.3008  18.2336  18.2336
    18.3863  20.0503  21.1034  21.1034  22.2342  22.2343  26.1974  28.8143
    28.8143  29.1939  30.7060  30.7060  31.1687  35.9798  36.8851  36.8851
    38.0297  38.0297  38.2085  40.3804  42.4456  43.0485  44.3940  44.3940
    45.4523  45.4523  46.4953  47.2292  47.2292  48.7923  49.2539  49.2539
    50.3619  51.7811  54.6636  54.6636  55.0302  55.1169  55.1169  59.3136
    59.3136  60.1803  60.1803  62.3358  63.6711  63.6711  64.4041  64.4041
    65.2805  65.9630  65.9630  66.9913  67.5843  67.5843  67.9129  67.9429
    68.5888  70.1802  70.1802  71.3393  71.3393  71.8600  73.8496  73.8557
    73.8557  74.8565  74.8565  76.2647  76.2647  77.1564  78.1218  78.1218
    78.4890  79.3871  82.3460  82.6694  84.3945  85.3882  85.4999  85.4999
    86.9250  86.9250  88.9914  90.0398  90.0398  90.5097  91.1853  91.8050
    91.8050  92.2882  92.2882  93.3727  93.3834  93.3834  94.3233  95.6312
    95.6312  96.0675  96.0675  96.5167  98.5079  98.5079  99.4270  99.4270
    99.7298  99.7980 100.6150 101.5502 102.4589 102.4589 102.8704 103.9068
   103.9068 104.0833 104.3919 104.3919 106.1260 106.1260 107.9199 107.9199
   108.7147 109.4941 110.3878 110.3878 111.7367 111.7367 112.3807 112.5032
   112.5032 114.3546 114.3546 114.4558 116.4280 116.4280 117.1051 117.6362
   117.6878 117.6878 118.5515 118.5515 118.9872 119.3685 119.3685 120.4237
   120.5121 120.8678 120.8678 121.4691 122.2677 122.2677 122.3870 124.3350
   125.5945 125.5945 125.7929 126.1266 126.7853 127.3911 127.4985 127.4985
   128.1993 128.1993 129.2367 129.2367 130.2871 133.8281 133.9689 133.9689
   135.0565 135.0565 135.5837 135.8958 135.9543 135.9543 136.3612 136.3612
   138.9824 140.1973 140.6069 141.2281 141.2281 141.5040 141.5040 142.0063
   142.0063 142.7088 142.7088 143.2324 143.5900 143.6128 143.6128 144.1499
   144.1499 144.9027 147.0794 147.3585 148.3694 148.3694 148.4664 149.1573
   149.1573 149.9154 149.9154 150.0985 150.2630 150.3389 150.3390 151.1514
   151.1514 153.6631 153.6631 154.3155 154.3155 154.6417 155.1755 155.1850
   155.1850 155.3619 156.5329 156.5329 157.0680 158.0572 158.0572 159.0674
   159.9738 159.9738 160.3201 160.3201 160.5674 161.9718 163.0033 163.9155
   163.9155 165.1215 165.1215 165.1568 165.9637 166.2692 166.2692 166.6705
   166.6705 166.8939 167.2104 167.6382 167.9280 171.0566 171.0566 171.3182
   171.5427 171.5427 172.1972 172.3494 172.3494 172.3597 172.6170 173.0898
   173.3981 173.3981 173.7082 173.7082 175.4151 175.4151 176.0855 176.1774
   176.1774 178.4638 178.7464 178.7464 182.6271 182.6271 182.9800 183.1384
   183.1384 184.5065 184.7595 186.1621 186.1621 186.2309 186.4648 186.5537
   186.5537 187.2175 187.2175 187.5210 187.5210 187.9480 188.0765 188.0901
   189.4924 189.4924 191.4505 191.4505 191.7668 191.7668 192.1899 192.4864
   192.9761 192.9761 193.4686 194.0746 194.2018 194.2018 194.8794 194.9514
   195.0301 195.0301 196.8225 196.8225 197.6514 198.0979 198.0979 198.2013
   198.3016 198.3016 199.1233 199.1233 200.4342 200.4342 200.8281 200.8311
   202.2918 203.0262 203.0263 203.6594 203.6594 205.3882 205.3882 205.6948
   206.7843 206.7843 207.1562 207.1562 207.6567 207.7856 207.7856 207.9209
   208.6099 208.6099 210.1551 210.1551 210.2786 210.3103 211.3002 211.5302
   211.5302 211.8156 212.1257 212.1257 212.6719 212.6719 213.0103 213.0246
   213.4032 214.4637 214.7199 214.7199 215.3374 215.3374 215.8884 215.8884
   216.7621 216.7621 216.7841 217.7280 219.0167 219.0167 220.3160 221.5036
   221.5036 221.5528 221.5528 221.7043 221.7092 222.0727 222.0727 222.2127
   222.8805 224.2710 224.7862 224.7862 225.8593 225.8593 226.1684 226.5383
   228.3395 228.3395 229.7059 229.7059 230.2904 230.2904 230.3912 231.4259
   231.4259 231.8115 232.2482 233.1740 234.1027 234.1027 234.1484 234.7986
   235.1386 235.1386 235.5212 235.5255 235.5255 235.8068 235.8068 236.6774
   237.2736 237.3888 237.3888 237.5332 237.5332 237.9925 238.1457 238.8530
   238.8530 239.2172 239.2172 240.8441 241.3836 241.3836 241.5984 241.5985
   243.5401 243.5401 244.3839 244.6004 244.6004 245.7309 246.9074 246.9074
   247.6230 247.7581 247.7581 248.0985 248.1713 248.1713 249.0231 249.6920
   250.4469 250.4469 251.5667 251.5667 251.6931 251.7379 251.7379 251.7857
   252.3231 252.3421 252.3421 252.9079 253.8718 253.8718 254.8250 255.8367
   255.8367 256.1207 256.2355 256.5693 256.5693 257.7640 257.7640 257.8582
   258.4150 258.4150 258.9756 259.4693 259.4693 260.6851 261.1835 261.1835
   262.1604 262.1604 262.3016 262.8060 262.8308 262.8308 263.0593 263.1561
   263.8005 264.5765 264.5765 264.9239 265.0563 265.0563 265.2085 265.7460
   265.7460 266.1954 266.8047 266.8047 267.9319 267.9319 268.0738 268.6652
   269.5390 269.5390 269.8352 270.0018 270.8458 270.8458 272.7176 272.7176
   273.2488 273.4955 273.6119 273.6119 273.8932 273.8932 274.4172 274.4172
   275.0222 275.0280 275.2022 275.2022 275.8781 275.8781 276.0850 276.0850
   276.5374 276.7597 276.8979 277.9378 277.9378 278.5764 278.5764 279.3553
   280.2048 280.2048 280.7977 281.1999 281.1999 281.3253 281.9008 281.9008
   282.5412 282.5527 282.6086 284.7231 284.7232 285.5718 285.5718 285.8785
   285.8931 285.9783 285.9783 286.3776 286.4709 286.4709 287.9461 287.9461
   288.0533 288.7518 289.2871 289.2871 290.6915 290.6915 290.9798 291.1455
   291.1455 291.3445 293.0572 293.0572 293.0878 293.8289 293.8289 294.3243
   294.3243 296.3919 296.3919 296.4117 296.7598 296.7598 297.4427 297.4427
   297.5922 297.9421 297.9613 297.9930 298.4778 298.4778 298.6359 298.8743
   298.8743 299.6378 299.6378 300.9411 301.0141 301.0141 301.4137 301.4137
   302.3333 302.5289 302.5289 302.6970 303.5875 303.5875 303.5976 303.7078
   304.8780 305.0846 305.5268 305.5276 306.0170 306.0170 306.7194 306.7194
   308.1940 308.9025 308.9025 309.0054 309.0054 309.4344 310.2612 310.2612
   311.2167 311.2167 311.7695 312.4703 312.4703 312.5699 312.7078 312.7078
   312.8485 312.8656 314.3323 314.3323 316.2339 316.2339 316.7460 318.8426
   319.4341 319.4341 319.9748 320.0221 320.0221 320.2882 320.2882 320.6151
   321.7728 321.9518 321.9518 322.7029 322.7029 322.9613 323.4493 323.4493
   323.5381 323.6243 323.6243 323.9745 324.1977 324.1977 324.9738 325.2461
   325.2461 325.4139 326.2583 326.4428 326.4428 326.5366 326.5366 326.7144
   326.9559 326.9559 327.5117 327.5117 327.5956 327.6527 328.0321 328.0321
   328.4830 328.4830 329.1430 329.1729 329.4643 329.4643 330.5157 330.5157
   330.5169 331.0694 331.8662 331.8662 331.9338 332.1924 332.1924 332.4409
   332.8849 332.8849 333.5988 333.5988 333.7376 333.8064 334.0525 334.0525
   334.0860 336.6193 336.6193 338.0088 338.0791 338.0791 339.4116 339.4116
   339.5400 340.4932 340.4932 341.3477 341.4941 341.4941 341.5546 341.9684
   341.9684 342.3483 342.7858 343.1555 343.4607 343.4607 344.0109 344.0109
   344.0776 344.0776 344.1220 344.1387 344.2243 344.4369 344.4369 344.9439
   345.5305 345.5305 345.7808 345.7808 345.9435 346.0581 346.5782 346.6126
   346.6126 347.3832 347.3832 347.5803 349.0751 349.5516 349.5516 350.6368
   350.9337 350.9337 351.0874 351.0874 352.0220 352.0962 352.0962 352.1218
   352.5756 352.5756 352.6121 352.6627 354.5781 354.5781 355.0001 355.7612
   355.7613 356.1810 359.8877 360.1039 360.1039 360.3360 360.3360 361.1117
   361.6877 361.6877 362.5699 362.5699 363.4701 363.4793 363.4793 363.9456
   363.9456 364.1178 364.1178 364.1441 364.2748 364.4261 364.4261 364.6972
   364.6972 364.7286 365.3792 365.3792 366.5038 366.6391 366.8372 366.8372
   367.0021 367.0021 367.5749 367.8671 367.8671 367.9145 367.9948 367.9948
   368.0183 368.0432 368.9398 368.9398 369.2752 369.2752 369.7698 369.9016
   370.6402 370.6402 371.3025 371.3025 371.6759 371.6759 371.7162 372.1956
   372.9118 372.9118 373.0612 373.4466 373.4466 374.1240 375.3362 375.3362
   376.1878 376.2068 376.2925 376.2925 378.9182 378.9182 379.6495 379.6543
   380.5238 380.5238 380.7142 380.7142 381.2436 381.3623 381.5813 381.5813
   382.4501 382.4501 382.6008 382.6215 382.6215 382.6717 382.7961 383.7030
   383.7030 383.8192 384.0655 384.0655 384.4656 384.4678 384.4678 384.9004
   384.9004 385.3502 385.4319 385.4319 385.4485 385.4902 386.0017 389.1148
   389.4212 389.4212 389.7917 389.7917 390.5552 390.5552 390.6234 390.6259
   391.4247 391.4247 392.0813 392.7019 392.7019 392.8130 393.1446 393.1446
   393.5681 393.5681 394.3498 394.3952 394.6927 395.0764 395.0764 395.2656
   395.2656 395.5668 395.5668 395.8945 396.2222 396.3956 398.0147 398.0147
   400.1133 400.2416 400.4208 400.4208 400.8569 400.8569 401.8901 401.8901
   402.1241 402.1680 402.1779 402.1982 402.1982 402.2955 402.4193 402.4193
   402.9959 402.9959 403.0672 403.3177 403.3177 403.3265 405.0417 405.0417
   405.0891 405.0969 405.3229 405.3229 406.2848 406.2848 407.2698 407.2698
   407.4160 407.4475 407.8452 407.8452 407.8975 407.8975 408.1520 408.1618
   408.5637 408.5637 410.0565 410.8800 411.4413 411.4413 412.3851 412.5941
   412.5941 414.3635 414.3635 414.4244 414.6915 414.6915 415.1781 415.1781
   415.2519 415.2667 415.3810 415.9247 415.9247 416.2024 416.2024 416.8009
   417.4550 417.4550 417.5237 418.1896 418.1896 418.5211 419.1389 419.1389
   419.2623 419.8608 420.6766 420.6767 421.0998 421.0998 421.2223 421.4251
   421.4251 421.4468 422.0228 422.0228 422.0526 422.5819 422.6218 422.6303
   422.6303 423.0594 423.1887 423.1887 423.3272 423.3272 423.4324 423.4324
   423.6231 423.7588 423.7588 424.0981 425.3322 425.3322 425.6426 426.9099
   426.9099 426.9208 427.2151 427.3562 427.3761 427.3761 427.8241 427.8241
   428.8932 428.8932 429.7007 429.7007 430.2147 430.2147 430.4027 430.6663
   431.2628 431.2628 431.3519 431.3868 432.5527 432.6279 432.6279 433.0598
   433.0598 433.1068 433.1068 433.7924 433.7938 434.7490 434.7490 435.5303
   435.9592 435.9592 435.9922 435.9922 437.8315 437.8315 438.1150 438.1154
   439.9720 440.4098 440.4098 440.5158 441.0580 441.0580 441.2207 441.8388
   441.8388 442.4665 442.9923 444.1414 444.1414 444.1893 444.8811 444.8811
   445.3372 445.3372 445.4136 445.4226 445.5666 445.5666 445.6100 445.8609
   446.1201 446.1201 446.6948 446.6948 446.7143 446.7386 446.7386 446.7981
   446.9029 446.9029 447.1104 447.1292 447.1342 447.1342 447.4042 447.4042
   447.6140 447.8010 450.1606 450.1606 451.4859 451.4859 453.0187 453.0187
   453.5020 453.5914 453.6704 454.0872 454.0872 454.1416 454.3770 454.6966
   454.6966 454.8654 454.8654 455.2418 455.5255 455.5339 455.5339 455.6431
   455.6431 455.8041 455.9863 455.9863 456.0629 456.0629 456.0871 456.1138
   459.3095 459.3095 459.4113 459.4113 459.6021 459.6021 459.6141 459.6378
   459.6646 459.7010 459.7010 459.7575 459.8364 459.8364 459.8797 459.8797
   460.9870 460.9870 461.4088 461.4088 461.5157 461.5181 461.5362 461.5362
   461.9562 461.9562 462.0506 462.1431 465.5596 465.5596 467.6278 467.6278
   467.6735 467.6950 467.8054 467.8054 468.5291 468.5291 468.9178 468.9505
   470.6497 470.6497 471.7885 471.7885 472.5889 472.5889 472.8243 473.3828
   473.4519 473.4519 473.6813 473.7310 474.1343 474.7824 474.7824 474.8539
   474.8539 475.1514 475.1772 475.1904 475.1904 475.2364 475.2364 475.3260

          k = 0.0000 0.3333 0.0000 (  2553 PWs)   bands (ev):

   -77.8743 -41.1587 -41.1564 -41.1564 -40.2752 -16.5469 -16.5405 -16.5405
   -12.0662 -12.0627 -12.0595 -12.0556 -12.0556   5.5375  12.9236  13.9551
    13.9551  14.8951  14.8973  15.7811  15.9766  15.9766  17.8691  18.0984
    19.1819  19.5983  19.5983  22.8248  23.4733  24.0254  24.2955  24.2955
    27.1444  28.3870  28.3870  29.6522  31.4336  35.8240  36.7451  37.3053
    37.3053  39.1939  41.7775  41.7775  44.7747  45.0811  45.0811  46.5237
    46.7210  47.9152  48.7139  48.7139  49.1115  49.3480  49.3480  50.2562
    50.9426  52.2187  53.1806  53.1806  54.1614  56.0141  56.5776  56.5776
    57.3989  58.0136  58.6006  58.7163  58.7163  59.1439  59.1439  59.5783
    62.0513  62.9748  63.4357  63.8322  63.8322  66.6115  66.7472  66.7472
    68.8918  70.2035  74.0070  74.3374  75.3460  75.3460  75.9541  75.9541
    77.2530  78.7869  78.8921  78.8921  80.1639  80.8149  81.0293  81.0293
    81.5847  82.6699  83.4584  83.4584  83.9491  84.5262  87.1281  87.4944
    87.4944  88.8965  88.9722  89.9536  89.9536  90.6362  90.6362  90.6798
    90.7553  91.5573  92.9688  93.5218  93.6663  93.6663  93.7045  94.4076
    96.0753  96.0753  97.1360  97.1360  97.2194  97.6704  97.9371  98.1914
    98.1914  99.3294  99.9027  99.9027 100.1794 100.4100 100.9548 100.9548
   101.5973 102.2025 104.1215 105.2011 105.6620 105.6620 106.2932 106.7364
   107.3980 107.3980 108.8135 109.6033 110.3683 110.3683 111.4024 111.4024
   111.8736 112.6329 112.6329 113.4850 115.7049 115.8907 115.9546 115.9546
   116.6478 117.7292 118.2270 118.2270 118.3548 118.6910 118.9410 118.9715
   119.7373 119.7373 120.0106 121.6862 121.6862 122.9851 124.3977 124.4815
   124.4815 124.5370 124.9244 125.5296 126.7832 127.1977 129.0236 129.2838
   129.3777 129.3777 132.6749 132.6749 133.2436 133.2436 133.7833 134.5398
   134.5398 134.6461 135.8548 137.2595 137.2595 138.6223 139.1463 139.9921
   139.9921 140.5941 140.9491 140.9491 141.8571 142.0905 143.6183 143.6375
   143.8605 143.8605 144.5104 144.5904 144.5904 145.6035 145.6035 146.3021
   146.3569 147.8161 147.8161 147.9523 148.5521 148.6050 148.7400 149.6791
   149.7392 149.7607 149.7607 151.1353 151.9195 151.9195 152.2763 152.2790
   152.2790 152.6605 152.9031 154.4067 154.8550 154.8550 155.5105 156.0907
   156.3683 156.3683 157.2813 157.2813 158.0203 159.1459 160.1840 160.3173
   160.5591 160.8109 160.8109 162.0692 162.0701 162.6206 162.6206 162.7084
   164.3583 164.3583 165.7999 165.7999 165.9867 166.7958 166.9369 166.9722
   166.9722 167.2237 167.7015 168.1274 168.7190 169.1905 169.7548 169.7548
   169.8863 170.0646 170.6773 171.0997 171.0997 171.3812 171.6487 171.6487
   172.8745 172.9385 173.0221 173.0221 173.2242 173.5285 173.5285 174.4335
   175.1256 175.6792 176.1544 176.1544 177.7564 178.6863 178.6903 178.6903
   180.7295 180.7295 180.8290 181.3256 181.3904 181.6921 182.5379 182.5379
   182.5656 183.2432 183.2671 183.2671 184.1664 185.8040 186.8019 186.8019
   187.2230 187.2230 187.5133 188.5345 188.5345 188.5548 188.6732 189.6452
   192.3767 192.9622 193.4613 193.4613 195.6334 195.6334 195.9575 196.1449
   196.5100 196.6172 196.6172 197.5335 197.6270 198.4855 198.9214 198.9214
   199.4786 200.0369 200.2510 200.4492 200.4492 200.8730 201.3540 201.3540
   201.8160 202.0327 202.4592 202.4592 203.3500 203.3750 204.4122 204.4122
   205.0325 207.2433 207.2433 207.5324 207.6137 208.0741 208.0741 210.3808
   210.7684 211.5042 212.3211 212.3211 212.7021 212.7984 212.7984 213.3983
   213.4465 214.5312 214.5312 214.6013 215.5419 216.8100 216.8100 218.2659
   218.2659 218.4719 219.1079 219.5710 220.4780 220.4780 221.8742 221.9295
   221.9295 222.1824 222.4153 223.0128 223.2936 223.5176 223.8757 223.8757
   225.0726 225.0726 225.2169 226.0151 226.0151 226.3192 226.6469 227.0430
   227.0430 227.4311 227.6654 227.8963 228.3583 228.3583 228.5163 228.8023
   228.8023 228.9346 229.4413 229.8551 230.6583 230.6583 231.0459 231.8290
   232.0269 232.0269 232.1683 232.2824 232.7981 233.1513 233.1513 233.3689
   233.3689 233.6617 234.7059 234.7490 236.0486 236.3173 237.2833 237.4781
   237.8068 237.8068 238.2061 239.3288 239.3288 239.6409 240.0242 241.0666
   241.2789 241.2789 241.4604 241.4604 242.0539 242.5643 242.5643 242.5712
   243.0398 243.0735 243.3657 243.3657 243.5692 243.8485 243.9821 243.9821
   244.2934 244.4336 245.0598 245.0685 245.0685 246.3758 246.3758 246.6794
   247.1789 247.7129 248.0556 248.0556 248.7050 249.1224 249.1224 249.1877
   249.3821 249.9575 250.1281 250.1281 250.4139 251.7367 251.7367 252.3367
   252.6988 252.9861 253.2861 253.2861 253.6671 254.2704 254.9309 254.9309
   255.7444 256.2857 256.4490 256.4490 256.9590 257.3844 257.6506 257.6948
   257.6948 257.9897 258.1348 259.3249 259.3249 259.4744 259.8125 259.8125
   260.1041 260.1041 260.8486 262.0855 263.2016 263.8191 264.7511 264.7511
   264.7596 265.3177 265.4652 265.8619 265.8619 266.4249 266.4249 266.7382
   267.2065 267.3207 267.5380 267.5380 267.8282 269.4484 269.8528 269.8528
   270.2034 270.2034 270.2164 270.5546 270.7134 270.7134 271.3515 271.4804
   272.3180 272.3180 272.6174 273.2979 274.1518 274.9408 274.9408 275.7480
   277.0189 277.0189 277.2982 277.7036 277.9530 278.6147 279.7760 279.7995
   279.7995 280.7051 280.7157 280.7157 282.3655 283.0674 283.0674 283.2605
   284.3180 284.6706 284.6706 284.7257 285.1395 285.1694 285.1694 285.8052
   286.7335 287.3595 287.3595 287.7785 287.8883 288.7974 288.8543 288.8543
   290.1266 290.8492 291.9880 291.9880 292.4087 292.6628 292.9519 292.9519
   292.9855 293.4583 293.5404 293.5404 293.7243 294.7043 295.3091 295.3091
   295.9923 296.7551 297.2859 297.4919 297.5338 297.5338 298.7089 298.9303
   298.9303 299.8001 299.8001 300.0756 300.8994 301.6871 302.5128 303.2059
   303.2059 303.5635 303.6443 304.7672 304.8464 304.9365 305.0279 305.0279
   306.0551 306.0551 307.6415 308.2718 308.2718 308.4703 309.0789 309.2982
   309.3256 309.3972 309.3972 309.7316 309.7316 309.9565 310.0914 310.0914
   310.4124 310.6601 310.7306 310.7306 310.8926 311.1261 311.8701 312.3638
   312.3638 313.1281 313.1477 313.6239 313.6239 313.7589 314.1181 314.3390
   314.3415 314.3415 314.6908 314.6908 314.7828 315.3539 315.5059 315.5059
   315.6061 315.9273 316.3252 316.9291 317.9374 317.9374 318.0874 318.0874
   318.1243 318.2021 319.6607 320.3683 320.3798 320.3798 320.6174 321.2616
   321.2616 322.3330 322.3330 322.7007 323.2096 324.4690 324.5457 324.6026
   324.6026 324.7395 325.6158 325.6158 325.6290 326.3661 326.8550 327.2321
   327.2321 327.8044 327.8044 328.0161 328.5105 329.5448 329.5448 329.5514
   329.8665 330.3239 331.7369 333.2474 333.2650 333.2650 333.8027 334.1772
   334.1772 334.7167 334.7285 334.8714 335.3036 335.5132 335.5132 335.7418
   335.9862 337.0887 337.0887 337.4350 337.4428 337.4428 337.4905 337.8874
   337.8874 337.9131 338.4253 338.4253 338.8255 338.9482 339.1375 339.1541
   339.1541 339.5905 340.0668 340.0668 340.4433 340.9798 340.9798 341.3600
   341.5524 342.1588 343.0884 343.0884 343.2935 344.5660 344.9785 345.0140
   345.1018 345.1018 345.5575 346.1048 346.1618 346.1618 346.4612 346.7720
   346.8751 346.8751 347.0323 347.2743 347.2743 347.4845 348.1312 348.1312
   348.1921 348.5308 348.8151 348.8151 349.1419 349.2194 349.3660 349.3719
   349.3719 350.3531 350.3531 350.6975 350.9416 351.6911 351.9350 352.1592
   352.1592 352.4994 352.6874 352.6874 353.0200 353.0237 353.1016 353.1016
   354.0913 354.2909 354.3990 354.3990 356.1739 356.9585 357.4121 357.4121
   357.5452 357.8677 358.2886 358.2886 358.5486 358.9104 359.2841 359.8863
   359.8863 360.0782 360.7626 361.5990 361.6997 361.6997 362.1088 362.8543
   362.8543 363.0807 363.1166 363.1166 363.4558 363.7428 363.8251 363.8251
   363.8455 364.0585 364.1021 364.1021 364.5418 365.3265 365.9614 366.4122
   366.4122 367.8666 368.2745 368.2745 368.4851 369.2036 369.3226 369.3860
   369.3860 369.4236 369.4373 369.5782 369.9160 369.9160 370.3069 370.3069
   370.3628 370.6598 370.7778 371.6756 371.6756 371.7972 372.0394 372.7691
   372.7691 372.7758 372.8370 373.7861 373.8727 373.8735 373.8735 375.7044
   375.7044 376.7970 377.2079 377.2079 377.7335 377.7835 378.0465 378.9711
   378.9711 379.4018 380.2719 380.5925 380.6987 380.6987 380.9676 380.9952
   381.3073 381.3073 381.4496 381.8521 381.8521 382.1355 382.7000 382.7000
   382.8165 383.9476 384.6408 385.3368 385.3368 385.5876 386.7261 386.7261
   386.7883 386.8817 387.0334 387.2479 387.2479 387.3913 389.3352 389.9232
   389.9232 391.1970 391.5686 391.5686 391.8131 391.8529 392.4643 392.4643
   392.4645 393.4216 393.5097 393.6808 394.0868 394.0868 394.2969 394.2969
   394.3241 394.9531 395.8041 396.5663 396.5663 397.3019 397.8647 398.2606
   398.2606 398.3050 399.4951 399.5531 399.5531 400.1298 400.1298 400.1324
   401.1523 401.3856 401.4517 401.4517 401.5149 401.9092 402.8207 402.8207
   402.8361 403.1890 404.3955 404.3955 404.4773 404.6043 404.7731 404.8183
   404.8183 404.8378 405.2554 405.3465 405.3465 405.5435 405.6419 405.7366
   405.9035 405.9065 405.9065 407.3401 407.3401 407.9704 410.3166 410.4362
   410.4362 410.7658 412.0753 412.0753 412.6080 412.9082 414.1736 415.4001
   415.9308 415.9308 416.0108 416.4655 416.7216 416.8320 416.8320 416.8388
   418.1495 418.6427 418.6427 418.8550 419.4396 419.4428 419.4428 419.9057
   420.6557 420.8358 421.1583 421.1583 421.2338 421.9072 422.2587 422.2587
   422.7874 422.8660 422.8985 422.8985 423.1923 423.2913 423.2914 423.6399
   423.6399 423.6486 424.3283 424.3283 424.3548 424.8668 426.7933 427.0414
   427.3231 427.3823 427.3823 428.0663 428.0663 428.5633 428.6189 428.6189
   428.7838 428.8562 428.8562 428.9140 429.3118 429.3541 429.3541 429.5793
   430.6128 430.9213 431.5168 431.8653 431.8653 432.8881 434.3690 434.3690
   434.4798 435.1573 435.5240 435.5240 435.6576 435.7992 435.9790 436.9117
   437.0429 437.0429 437.5153 437.8561 438.0650 438.0650 438.2065 438.4214
   438.4214 438.8116 438.8279 439.0602 439.0602 439.1293 439.1784 439.2405
   439.5445 439.5445 440.0233 440.2050 440.2050 440.6094 440.9503 441.2923
   441.2923 443.0485 443.0894 443.0894 443.2112 443.7432 443.8223 443.8435
   443.8435 444.3917 444.5519 444.7963 444.8195 444.8195 444.9385 445.0440
   445.2480 445.2480 445.2877 445.5626 445.5627 445.8566 445.9680 445.9680
   446.2164 446.5739 446.9000 447.0296 447.0296 447.2577 447.6300 448.6438
   448.6438 449.3433 449.6267 449.8025 450.0743 450.0743 450.1775 450.1775
   450.2847 450.3249 450.7049 450.8434 450.9715 450.9715 451.0356 451.3727
   451.3727 451.5068 452.1002 452.2898 452.3807 452.3807 452.5149 452.6684
   452.9817 452.9817 453.3662 453.8863 454.0177 454.0177 454.0981 455.0754
   455.7216 455.9677 455.9677 456.0581 456.3880 456.3880 456.6536 456.8435
   457.3455 457.4599 457.5006 457.5006 458.1350 458.1350 458.4928 459.5676
   459.7831 459.7831 460.1445 460.7471 460.9394 461.2218 461.2218 461.3637
   461.4334 461.4732 461.4732 462.2161 462.3601 462.4676 462.8073 462.8073
   463.3936 463.4173 463.4173 463.7357 464.3836 464.9588 464.9588 465.9988
   466.9232 466.9232 466.9573 467.4898 467.4898 468.4669 468.7904 469.2818
   469.7427 469.7427 470.0678 470.1536 470.1536 470.2252 470.3374 471.1463
   471.6361 471.8179 471.8179 472.0052 472.5186 472.5186 472.5710 473.9716
   473.9716 474.0428 474.3166 474.7410 474.9610 475.1697 475.1697 475.5387

          k =-0.1667 0.5000-0.1667 (  2526 PWs)   bands (ev):

   -77.8743 -41.1617 -41.1564 -41.1564 -40.2717 -16.5532 -16.5441 -16.5431
   -12.0624 -12.0604 -12.0588 -12.0535 -12.0530   6.1658  12.0909  13.4497
    13.7709  14.9317  15.0727  15.2301  15.9199  15.9314  17.8760  18.0132
    18.8986  19.6396  19.7766  21.8905  22.9207  24.3392  24.3634  26.9939
    27.9245  28.7530  30.5763  31.6530  33.0622  33.1487  34.2798  37.2940
    38.2260  39.4394  39.9826  41.4990  42.1613  42.8214  45.1253  45.2611
    45.7531  46.6053  47.4157  48.1035  48.4356  49.4344  50.1312  51.0298
    51.4512  52.4099  53.1985  53.5169  54.3451  55.3292  56.2659  56.7429
    57.3610  57.8452  58.6259  59.4545  60.0592  61.6795  62.8513  63.0681
    63.7833  64.7792  65.5806  66.2224  66.9697  67.6123  68.1698  68.2985
    69.9801  70.9159  71.6761  72.7290  73.3419  73.4325  74.0471  74.4589
    74.8643  76.0949  76.0952  77.3352  77.8209  78.7370  79.6526  80.5228
    81.3174  82.0868  82.2242  82.9772  83.8206  84.3630  85.0190  86.0379
    86.3439  86.8337  87.2665  88.4816  89.8440  90.2656  90.6648  91.3886
    91.5892  92.3069  92.6880  92.7824  93.6303  94.0508  94.2298  95.5968
    96.0935  96.1212  96.6489  97.2129  97.9229  98.6295  99.1065  99.4384
    99.5070  99.7537 100.7842 101.0016 101.7456 102.3516 102.9136 103.5470
   103.7216 104.5843 104.7362 105.4130 105.5533 105.9382 106.6264 107.1881
   107.5925 107.8394 108.3894 108.7366 109.8083 110.5768 111.2397 111.5185
   112.2180 112.4942 112.5946 113.9250 114.6463 114.8567 115.7708 116.5124
   117.1723 117.6032 117.6263 118.8041 118.9253 119.2511 119.8330 121.0077
   121.2526 122.0321 122.2522 122.9777 123.9762 124.1396 124.9141 125.0978
   125.8098 126.0706 127.0903 127.1777 128.2743 128.8050 128.9752 129.3448
   130.0750 130.3748 130.5636 131.1493 131.9204 132.5968 132.9684 133.2368
   133.9564 134.5315 134.6457 135.3979 135.6746 135.7101 137.0033 137.0884
   138.0481 138.3485 138.9867 139.4874 139.8199 139.8765 140.8095 141.3774
   141.6139 141.9887 142.2290 143.1633 143.1790 144.1752 144.5494 144.7596
   145.3134 145.5094 146.0533 146.4127 146.9903 147.2927 147.5074 148.5435
   149.0611 149.6779 150.3957 150.5512 151.5307 151.6552 151.9950 152.3013
   152.7858 153.1593 154.5509 154.8165 155.2269 155.3725 155.8367 155.8973
   156.4311 156.5230 157.0508 157.8115 157.9596 159.1358 159.9933 160.6657
   161.0318 161.5472 161.8525 162.2323 162.2920 162.8488 163.0870 164.0704
   164.1199 164.4001 164.5953 165.0377 165.2182 165.9740 166.1598 166.3922
   167.5620 167.8061 168.4784 168.6670 169.2563 169.5694 169.9921 171.0561
   171.0789 171.5587 171.9321 172.1792 173.1148 173.2739 173.4681 174.0068
   174.4619 174.7949 174.9575 175.1912 175.3571 176.1751 176.4854 176.8643
   177.0245 177.3254 177.5576 178.6437 178.9629 179.3864 179.8000 180.3451
   180.6779 180.7495 181.5500 181.9853 182.1382 182.7045 182.7197 183.2679
   183.3563 183.9771 184.7218 185.1911 185.8619 186.0400 187.0224 187.6968
   187.8948 188.2277 188.2555 189.0678 189.2780 190.2843 190.7403 191.3284
   192.5927 192.7520 192.9829 193.2174 193.4391 193.8921 194.5018 194.8734
   195.1277 195.5563 195.6124 196.5751 197.2061 197.6675 198.2069 198.5142
   198.5618 199.0848 199.7270 200.1062 200.2446 201.0018 201.2109 201.7295
   202.4098 202.6580 202.9833 203.1198 204.0358 204.9785 206.2634 206.4438
   207.3683 207.4411 207.6800 208.4735 208.4763 209.0711 209.4948 210.1239
   210.3463 210.7389 211.1486 211.6336 211.8364 212.1334 212.5803 213.1381
   213.3963 213.7886 213.8662 214.5308 214.9055 215.2411 215.4898 215.7006
   216.1875 216.2296 216.4879 216.9423 217.3969 217.4336 217.9036 218.1524
   219.0319 219.1140 219.2751 220.0959 220.3842 221.0324 221.6792 222.2475
   222.7615 222.8033 223.6102 223.6385 224.1713 224.4527 224.5267 224.7901
   225.1718 225.5093 225.6239 226.0840 226.8787 226.9958 227.2427 227.4083
   228.0432 228.9412 229.0296 229.2575 229.2942 229.9459 229.9598 230.6793
   230.7350 230.8770 231.7791 231.9783 232.0311 232.4999 232.9264 233.2062
   233.5232 233.8250 234.1534 234.6704 234.8829 234.9383 235.6006 236.2165
   236.9436 237.4281 237.6010 237.9815 238.4349 238.6825 238.8666 239.3789
   239.7536 239.9053 240.4267 240.5584 241.1718 241.2854 241.7890 241.8186
   242.0328 242.3848 243.4149 243.8149 243.9877 244.2572 244.3184 244.9466
   245.5942 245.9005 246.0871 246.5004 247.0563 247.1288 247.6020 247.9851
   248.0041 249.0280 249.1097 249.7778 249.8439 251.0704 251.2250 251.4413
   251.7632 252.0573 252.9691 253.1044 253.9437 254.1394 254.3244 254.4399
   254.7022 255.1625 255.2852 256.0127 256.1769 256.7010 256.7187 257.2262
   257.2798 258.1247 258.5582 258.5823 258.8564 258.9998 259.0240 259.2435
   259.7470 259.9226 260.2147 260.6793 260.7878 261.3919 261.8587 262.4705
   263.3395 263.8210 264.6318 264.8713 265.1318 265.4846 265.7590 266.0518
   266.0869 266.3966 266.4250 266.8648 267.0359 267.7331 267.9564 268.3708
   268.5737 268.8243 269.1702 269.3737 269.6729 270.2361 271.1632 271.1949
   271.7607 272.2114 272.5346 273.4996 273.5482 274.4451 274.8194 275.0509
   275.1309 275.5852 275.6767 275.9715 276.2813 276.5013 276.7304 277.3829
   277.6387 277.7255 277.9882 278.2994 278.4939 278.7667 278.7714 279.1871
   279.3539 280.2604 280.4029 280.6751 280.8841 280.9059 282.2614 282.8457
   283.0117 283.2793 283.9481 284.1478 284.2869 284.7302 284.7494 285.5552
   285.8214 285.8894 286.4902 286.7396 287.0509 287.3702 287.8736 288.7143
   288.8723 289.5199 289.6291 290.0363 290.5984 290.8925 291.2369 291.7046
   291.9248 292.4304 292.6428 292.9013 293.1032 293.2388 293.7934 294.4072
   294.4257 294.6930 294.8830 295.3362 295.3456 295.7143 295.7745 296.3743
   296.5814 297.2981 298.2332 298.3903 298.5192 298.8023 299.0658 299.3812
   299.5532 299.7687 300.1724 300.3343 301.7797 302.0549 302.2969 302.6775
   302.9094 303.1294 303.3622 304.2845 304.2991 305.2851 305.4221 306.0889
   306.2530 307.3356 307.3564 307.7447 307.7515 308.2412 308.4757 308.9311
   309.3480 310.2640 310.7931 311.2605 311.7756 311.8651 312.1409 312.5624
   312.6522 313.0366 313.0774 313.3481 313.5590 314.3459 314.6813 315.0347
   315.2118 315.9242 315.9412 316.3523 317.0510 317.4090 318.0287 318.1407
   318.4507 318.6585 318.7188 318.9801 318.9953 319.2511 319.5557 319.5840
   319.8009 320.1853 320.4273 320.6385 321.1263 321.1421 321.7774 322.1270
   322.2813 322.3338 322.6370 323.2492 323.6247 324.1559 324.4354 324.4983
   324.9594 325.0963 325.2696 325.8556 325.9438 326.1447 326.3389 326.6189
   327.0290 327.4263 327.7750 327.8257 328.3271 328.4766 328.9861 329.1013
   329.2972 329.4812 329.7959 329.8725 330.2637 330.7330 331.0158 331.2803
   331.5689 331.5733 331.8829 331.9612 332.4454 332.8303 333.2584 333.8393
   334.4773 334.8096 335.4180 335.5276 336.4083 336.5374 336.6233 336.6903
   336.9824 337.1095 337.4682 337.5287 338.1795 338.2788 338.2813 338.6538
   339.1332 339.3793 339.8179 340.2338 340.5029 341.5606 341.7852 341.8494
   342.4404 342.6020 342.8813 343.1084 343.3046 343.5555 343.8718 343.9871
   344.1467 344.4462 345.1046 345.1806 346.0064 346.1538 346.2001 346.3986
   346.6063 346.7865 347.1532 347.1830 347.4508 347.4724 347.7925 347.7984
   348.0840 348.2148 349.1195 349.4972 349.8749 350.1237 350.2732 350.4046
   350.6280 350.9393 351.4197 351.5123 351.8255 352.3443 352.4634 352.7305
   353.1144 353.1441 353.7455 353.7598 354.0456 354.1432 354.4707 354.5992
   354.7223 354.9687 355.1418 355.5900 355.8163 356.0442 356.7396 356.7679
   356.9738 357.0217 357.2324 357.5894 357.6072 357.6392 358.2500 359.0182
   359.5467 361.1919 361.4329 361.7718 361.8438 362.3060 362.5466 362.7602
   362.9058 363.6460 364.1669 364.6547 364.9818 365.2024 365.3361 365.5956
   365.7909 365.8234 366.0814 366.3642 366.5043 366.7559 368.0405 368.0653
   368.5992 368.6579 368.9109 369.1000 369.5154 369.7237 369.9031 370.3718
   370.7335 371.0477 371.4497 371.8043 371.9122 372.5752 373.1356 373.3059
   373.4682 374.2001 374.6776 374.6906 374.9188 375.6198 376.0520 376.3889
   376.4618 376.5722 376.8768 377.1114 377.2718 377.4547 377.6772 377.7413
   378.5463 378.5525 378.6428 378.7326 379.4547 379.8567 379.9651 380.4202
   380.7647 381.1403 381.7836 381.7956 381.9632 382.1976 382.6847 382.7768
   383.4700 383.5060 383.6986 384.0821 384.2125 384.4420 384.9276 385.1658
   385.6126 386.0195 386.0591 386.5664 387.1964 387.7537 388.1970 388.5850
   389.2732 389.5601 389.7507 390.1017 390.2133 390.6360 390.8941 390.9466
   391.5569 391.9540 392.0943 392.5303 392.9541 393.1926 393.4358 393.4437
   393.7808 394.1740 394.3933 394.5833 395.0605 395.2792 395.4364 395.6777
   395.9859 396.1213 396.1505 396.7579 396.9461 397.3631 397.8312 397.9514
   398.7345 399.0815 399.2522 399.2807 399.5313 399.6663 399.7905 400.2968
   400.5706 401.3161 401.5435 401.7488 401.8354 402.1113 402.6157 402.6859
   402.7468 402.8599 403.0244 403.1088 403.3241 403.7195 404.1947 404.2886
   404.8668 405.3219 405.6007 405.9867 406.0364 406.3388 406.8773 407.3409
   407.5504 407.5952 407.6237 407.8297 407.9626 408.2024 408.5091 408.6079
   408.9118 409.2710 409.4100 409.5509 409.7112 409.9072 410.0522 410.4830
   410.5949 410.9367 411.4680 411.6446 412.0530 412.2474 413.1000 414.6747
   414.9965 415.0882 415.1215 415.2036 415.2534 415.6276 416.2360 416.3550
   416.7662 416.8217 417.3033 417.4549 417.6683 417.6742 418.0229 418.3811
   418.8966 420.3870 420.8303 420.9407 421.3118 421.4313 421.7280 421.8619
   422.1516 422.2044 422.4004 422.5731 423.4356 423.7354 423.7504 424.5702
   424.9899 425.1541 425.1841 425.4778 425.7054 425.9960 426.1761 426.7334
   426.8654 427.1222 427.6241 427.8501 427.9202 428.0898 428.1136 428.3898
   428.5986 428.6472 428.8597 429.1835 429.4102 429.4435 429.7666 429.7859
   430.0926 430.3982 430.8414 430.9622 431.3055 431.4747 431.4764 431.6898
   432.5100 433.7494 433.9316 434.1454 434.4774 434.5947 434.7572 435.7276
   435.7916 436.1686 436.2347 436.4014 436.6084 436.8271 437.2347 437.3700
   437.7895 438.0638 438.3112 438.4228 439.3005 439.3763 439.6122 439.7485
   439.9816 440.1745 440.2816 440.3894 440.6168 440.6704 440.6917 440.8750
   441.1504 441.8568 441.8880 441.9236 442.5110 442.7672 443.0910 443.4571
   443.6588 443.7028 443.9687 444.2107 444.3902 444.6103 445.1686 445.2070
   445.6335 446.5608 446.5968 446.7699 447.3523 448.4638 448.6353 449.5125
   449.6388 450.0278 450.1792 450.3311 450.5028 450.9866 451.3466 451.3930
   451.8378 451.9296 452.5331 452.5373 453.0702 453.1523 453.3470 453.7227
   454.0058 454.1753 454.2992 454.4344 454.6217 454.8601 454.9633 455.0454
   455.5335 456.2186 456.2453 456.5629 456.7849 456.8969 457.2003 457.2961
   457.7537 457.8892 458.2410 458.5770 458.5930 458.9961 459.0934 459.4358
   459.4361 460.3301 460.8428 461.2946 461.7683 462.1691 462.1737 462.3620
   462.7174 462.9614 463.3228 463.4529 463.5973 463.7789 463.7881 463.8956
   464.2333 464.5645 464.8632 464.9187 465.0194 465.2753 465.4640 465.8034
   465.9374 465.9694 466.2580 466.9694 466.9826 467.1474 467.2118 467.4580
   467.5032 467.6987 467.7496 468.1100 468.1316 468.2968 468.3319 468.4091
   468.6400 468.6774 468.7982 469.3115 469.4568 469.4815 469.9865 470.0156
   470.2542 470.4930 470.6073 470.7460 471.1162 471.3672 471.6565 471.9119
   471.9755 472.1265 473.2965 473.5252 473.9079 474.1588 474.2340 474.4861

          k = 0.6667-0.3333 0.6667 (  2524 PWs)   bands (ev):

   -77.8743 -41.1640 -41.1565 -41.1564 -40.2690 -16.5569 -16.5479 -16.5461
   -12.0593 -12.0574 -12.0568 -12.0529 -12.0514   6.8801  11.1460  12.9472
    13.4543  14.9942  15.1032  15.1212  15.9634  16.1022  17.9764  18.2121
    18.4426  19.5813  19.8000  21.1276  23.2868  23.9918  25.8955  27.6896
    29.0995  29.4903  30.7712  30.9339  34.2576  34.9107  35.1477  36.5490
    37.7847  37.9200  39.9143  40.3361  41.0722  41.4347  43.1688  43.8918
    44.6721  45.9312  47.3424  47.4435  47.8084  48.8296  48.9403  51.0660
    51.8407  51.9514  52.4697  54.5327  56.0825  56.9404  57.7722  58.7715
    58.9730  59.8662  60.1714  60.7330  60.9742  62.3549  62.4814  64.4756
    64.5118  65.2533  66.5141  67.0841  67.9484  68.5510  68.6814  69.0199
    69.2685  69.7124  71.2120  71.4257  72.8653  72.9856  73.4390  73.8235
    74.0453  75.3639  76.0198  76.2595  77.0392  77.0440  78.3128  79.7045
    79.9281  80.3349  81.8831  81.9031  83.3431  83.7759  84.5516  85.6066
    85.8054  86.7153  87.5131  87.7184  88.6076  89.0358  90.0245  90.7803
    90.9710  91.5773  91.7094  92.5074  92.8358  93.3347  94.4025  95.2524
    96.3775  96.4516  97.1562  97.3943  97.6952  98.2250  98.9795  99.5233
   100.0333 101.0808 101.7687 101.9184 102.3118 103.0319 103.7695 104.5088
   104.5163 105.2066 105.8253 106.0377 106.7126 106.8768 107.5619 108.4788
   108.6705 109.7011 109.9868 110.5686 110.8984 111.4927 111.4956 112.0180
   113.6969 114.0862 114.8689 115.5967 116.1351 116.1775 117.2907 117.3748
   117.8197 118.1317 118.5535 118.9483 119.0932 119.5674 120.0492 120.7438
   120.8856 121.2436 121.8973 122.2818 122.9169 123.1600 123.4771 124.4305
   124.6088 125.1704 126.0756 126.6521 127.1248 127.3882 127.9565 128.4307
   128.7022 128.8722 129.2508 130.7465 131.3179 131.3860 131.8045 132.2748
   132.8995 134.0880 134.7475 135.0275 135.5082 136.1420 136.6346 136.9142
   137.1811 137.9530 138.4903 139.1270 139.6656 140.1257 140.3277 141.1343
   141.3251 141.7141 142.1873 142.4552 143.1720 144.0029 144.8165 145.3442
   145.4175 146.1327 146.6721 146.6911 147.2735 147.3499 147.6908 148.4016
   149.0028 149.8676 150.3102 150.4500 150.9796 151.0591 151.4404 151.6050
   152.4686 152.5767 153.0067 153.1791 153.7213 153.8009 154.3265 155.3043
   155.5373 156.6611 157.0897 157.4643 157.9330 158.1770 158.5969 158.7689
   160.0138 160.8726 161.0326 161.3185 161.6424 162.1461 162.6395 162.9800
   163.2936 163.5384 164.1361 164.5493 165.2267 166.6652 167.1100 167.2676
   168.0694 168.3669 168.6477 169.1895 169.8842 169.8918 170.5322 171.0286
   171.6688 171.8859 172.2054 172.6947 172.9230 173.3044 173.6730 174.1119
   174.6129 174.6457 175.3749 175.8419 176.6558 177.4349 178.2408 178.3742
   179.0272 179.2453 179.8670 180.5169 180.7158 180.7962 181.7185 182.1753
   182.5746 183.1647 183.2772 183.6614 184.2343 185.1284 185.3787 185.5488
   186.5048 186.7717 187.1484 187.2155 187.5101 187.8043 188.2403 188.2779
   188.6337 189.4598 189.6769 190.2270 190.2616 190.8950 192.0346 192.0580
   192.3556 192.6608 193.4831 193.5353 194.1016 194.2346 194.7018 195.3657
   196.0644 196.2565 197.0351 197.3182 197.8427 198.1414 198.4998 199.4296
   199.6917 199.9981 199.9998 200.2614 200.5154 200.9555 201.6514 201.9025
   202.1888 202.5801 202.6159 202.8804 203.2600 203.2980 204.5678 204.9493
   205.2561 205.4072 205.6945 206.0878 206.2895 206.8230 207.1832 207.3131
   208.0387 208.0483 208.3569 208.8047 210.0190 210.3527 210.5973 210.7752
   211.1998 211.6798 211.8147 212.1620 212.7856 213.5793 213.9171 214.2444
   214.5455 214.9872 215.3392 215.7877 216.3624 216.4354 217.3318 217.4786
   217.9540 218.3913 218.4783 219.0428 219.0762 219.5443 219.6239 220.2524
   220.3684 220.9095 221.0728 221.4870 222.4617 222.6080 223.3834 223.4480
   223.9344 224.1374 224.6038 225.1487 225.1597 226.1305 226.1566 226.3847
   227.1927 227.7172 228.1567 228.2597 229.2768 229.7591 230.2493 230.4463
   230.9363 231.0705 231.8618 232.0186 232.0825 232.7642 232.9603 233.4116
   233.6493 233.9334 234.4943 235.2959 235.4083 235.4104 235.7663 236.4652
   236.5753 237.7104 237.7474 238.3166 238.4889 239.3120 239.3403 240.1050
   240.3584 240.9033 241.3623 242.0486 242.0701 242.4237 242.8702 242.9416
   243.5316 243.9072 244.4006 244.7971 244.8385 245.1503 245.8091 245.8399
   246.2007 246.6601 246.7207 247.0120 247.2454 247.6787 248.1264 249.3615
   249.4320 249.9825 250.0923 250.1973 251.3235 251.3344 251.7917 251.8932
   252.3237 253.1607 253.5940 253.9355 253.9687 254.4266 254.4910 255.5152
   256.2089 256.6422 257.0464 257.1108 257.2906 257.3961 258.2336 258.4693
   258.4883 258.8024 259.1464 259.4256 259.9892 260.2930 260.4414 261.2550
   261.5763 262.0394 262.1550 262.8133 262.9360 263.3156 263.3348 263.5723
   264.1583 264.5724 264.6888 264.9882 265.2977 265.3959 266.0255 266.1144
   266.4633 267.0923 267.2689 267.3495 267.7564 268.3334 268.5824 268.6159
   268.9769 269.0639 269.5310 270.3255 270.3546 270.9690 271.1361 271.5686
   271.8012 272.3098 272.8462 273.0594 273.5637 274.4225 274.4892 274.8886
[...]
   251.9296 252.2302 252.4058 252.8989 253.3265 253.7708 253.9514 254.5907
   254.8919 255.4765 256.1857 256.3209 256.5299 256.7554 257.4005 257.5540
   257.9858 258.6007 258.7991 259.0997 259.5190 259.9334 260.3891 260.9372
   261.1262 261.2839 261.9316 261.9635 262.3992 262.9688 263.5109 264.1720
   264.3550 264.8135 265.0057 265.0850 265.3103 265.4530 266.0784 266.7919
   267.1311 267.6426 267.9501 268.1895 269.0590 269.2226 269.4714 269.9884
   270.3143 270.3886 270.9766 271.3894 271.9126 272.4073 273.0895 273.1437
   273.5327 273.8680 274.2888 274.4522 274.6853 274.8641 275.2518 275.7233
   275.8165 276.1228 276.4442 276.9260 277.1220 277.5249 277.7094 278.0216
   278.2053 278.8252 278.9204 279.0107 279.1465 279.4157 279.4923 279.9479
   280.1495 280.1692 280.3953 280.5245 281.2406 281.6917 282.4617 283.7287
   284.0834 284.5324 284.9117 285.6093 286.0713 286.3279 286.8232 287.0650
   287.3490 287.8152 288.4585 288.7083 289.0403 289.2817 289.6780 289.9947
   290.2003 290.3071 290.7812 291.3749 291.5517 291.6646 292.0361 292.4763
   292.6314 292.7939 292.9317 293.0262 293.2293 293.4169 293.6329 293.7824
   294.0632 294.3055 294.8409 294.9258 295.8971 296.2160 296.6322 297.2399
   297.7007 298.0290 298.3177 298.7410 298.8229 298.9603 299.0581 299.3297
   299.5341 299.8804 300.0587 300.2121 300.3629 301.0077 301.1352 301.3002
   301.4649 302.2517 302.3195 302.5386 302.7212 302.9279 302.9938 303.5608
   304.1016 304.1216 304.3183 304.6275 304.8814 305.5605 305.7722 306.3798
   306.9680 307.1907 307.5757 307.6579 307.8995 308.0345 308.5577 308.8847
   309.2292 309.4432 309.7782 309.9423 310.1984 310.4403 311.0112 311.3407
   311.8941 311.9365 312.9744 313.1320 313.5144 314.2976 314.4345 314.6332
   315.0098 315.1663 315.4520 315.5707 315.8034 316.3686 316.8338 316.9455
   317.3006 317.6688 318.1106 318.2590 318.6284 319.1697 319.2745 319.5279
   320.1021 320.1490 320.6705 320.9000 321.3522 321.7591 322.1840 322.5319
   322.7630 323.2135 323.6628 324.0141 324.2553 324.5428 324.9289 325.1349
   325.3181 325.6819 326.0465 326.3835 326.7312 327.0522 327.1999 327.5236
   327.7482 328.0971 328.3955 329.0180 329.2692 329.4522 330.2151 330.3242
   330.5544 331.0748 331.3026 331.4959 332.1238 332.2584 332.4521 332.7407
   332.9966 333.6939 334.0370 334.3298 334.6707 334.7609 335.1279 335.2862
   335.5330 336.0642 336.7839 337.4485 337.8448 338.0133 338.8761 338.9711
   339.5260 340.3737 340.9204 341.2651 341.7429 341.8147 341.9956 342.6547
   343.0004 343.4076 343.7207 344.0673 344.4222 344.6956 345.2690 345.3501
   345.6815 345.9294 346.2192 346.3542 346.5684 347.5078 347.5696 348.0834
   348.4865 349.1660 349.2390 349.6180 349.7303 349.9130 350.0906 350.2750
   350.4447 350.7219 351.2489 351.5051 351.9391 352.1108 352.9805 353.0037
   353.1097 353.3709 353.9852 354.4511 354.6175 354.8199 355.2452 355.3527
   355.4493 355.5653 356.0788 356.2802 356.6255 356.7272 356.8672 357.2317
   357.5562 357.9281 358.0589 359.3404 359.6013 360.0188 360.4908 360.8363
   360.8934 361.0914 361.4628 361.7021 361.9190 362.1089 362.2815 362.5794
   362.7358 363.1163 363.1557 363.2180 363.5179 363.6521 363.7573 363.8311
   364.9174 365.3411 365.3578 366.2860 366.7137 367.1120 367.2044 367.2532
   367.4101 367.5253 367.7477 368.2408 368.5855 368.6320 368.7040 369.1250
   369.2996 369.4740 369.8560 370.0245 370.5905 370.7346 371.4945 371.8748
   372.2822 373.2676 373.5557 373.9110 374.4565 374.5446 374.9925 375.2866
   375.4129 375.6441 375.8380 376.3737 376.6539 376.9564 377.1248 377.4383
   377.6621 377.9541 378.1702 378.3423 378.6255 378.6670 379.0297 379.2029
   379.5114 380.0202 380.0967 380.1952 380.3112 380.4616 381.0049 381.1170
   381.2973 381.5767 381.7422 381.9093 382.1454 382.5668 382.9388 383.0774
   383.5497 383.6541 383.7594 384.1233 384.2145 384.3812 385.1900 385.3203
   385.5754 385.8267 386.0940 386.5281 386.6754 386.9327 387.3878 387.5874
   387.8124 387.9873 388.1263 388.7860 389.0368 389.2895 389.9404 390.0912
   390.6625 390.7149 390.8524 390.9871 391.2004 391.4898 391.6357 391.9443
   392.3023 392.9401 393.7838 393.8659 394.0226 394.2097 394.2857 394.4568
   395.3436 395.5404 395.9184 396.4538 396.5813 396.7621 396.9590 397.6528
   397.7917 397.8430 398.1076 398.3095 398.5829 398.7568 398.8435 400.0760
   400.3240 400.4113 400.5453 400.7628 401.2178 401.5013 401.9723 402.2578
   402.7555 403.1847 403.3709 403.8548 403.9498 404.4717 404.9038 405.0449
   405.1353 405.7809 406.0372 406.3054 406.6269 406.6896 406.6994 406.9763
   407.1620 407.5841 407.8108 408.0152 408.1400 408.3794 408.7404 409.0863
   409.3383 409.4872 409.5913 409.9469 410.0098 410.0437 410.8567 411.3708
   411.5666 411.7190 412.3211 412.5104 412.7903 413.0439 413.2498 413.4177
   413.7264 413.8174 414.2413 414.3969 414.5444 415.1189 415.3298 415.5607
   415.6875 415.7709 416.1695 416.3095 416.4415 416.6764 417.8851 418.0885
   418.2823 418.5004 418.7757 419.3393 419.3770 419.6029 420.3900 420.7058
   420.9118 421.0052 421.0900 421.1878 421.7518 422.0817 422.2454 422.4318
   422.4707 422.5377 423.2317 423.5264 423.8555 424.1759 424.3774 424.5654
   424.8267 425.0154 425.7942 425.8578 426.2584 426.3801 426.4763 427.0785
   427.1771 427.4210 427.5603 427.6648 427.9498 428.1964 428.3392 428.5205
   428.6302 428.9552 429.0061 429.1161 430.1787 430.3654 430.4520 430.6527
   431.5347 431.8277 432.1105 432.2523 432.4519 432.6163 432.7624 432.9722
   433.0852 433.4132 433.6461 433.7957 434.6167 435.2628 435.5229 435.8076
   435.9300 436.2090 436.3800 436.5781 436.6602 437.2378 437.2484 437.7171
   437.9692 438.2122 438.3462 439.0138 439.2262 439.3535 439.6228 439.9148
   440.2168 440.4842 440.7111 440.9170 441.0103 441.1479 441.5034 441.8692
   442.1930 442.6481 442.8170 443.0024 443.1864 443.2786 443.4991 443.6371
   443.9176 444.3794 444.6939 444.7582 444.8752 445.0658 445.4507 445.8332
   445.8563 446.1982 447.0318 447.1994 447.9346 448.5967 449.1088 449.5259
   449.6314 450.0683 450.5864 451.0414 451.1597 451.3442 451.5328 451.8733
   452.1117 452.2920 452.5348 452.6975 452.8927 453.7556 453.8860 454.1376
   454.4168 454.5866 455.0351 455.4851 455.6384 455.8988 455.9650 456.2110
   457.5329 457.7859 458.0049 458.2428 458.3128 458.3460 458.4224 458.4804
   458.6226 458.6855 458.8482 459.0197 459.1056 459.1776 459.5896 459.7622
   460.4318 460.6073 462.7918 462.8260 462.9745 463.1626 463.2706 463.4454
   463.5943 464.0246 464.2116 464.3415 464.5000 464.9683 465.0212 465.1465
   465.5936 465.6551 465.8579 466.1283 466.2110 466.7703 466.8098 467.0809
   468.0434 468.2726 468.4277 468.4676 468.5787 468.6535 468.6684 468.7344
   469.0628 469.1725 469.5133 469.7573 470.5118 470.5432 471.0126 471.1563
   472.1378 472.3133 472.6010 472.7294 473.1980 473.3757 473.5705 473.6943
   473.8994 474.0496 475.6194 475.8319 476.2311 476.6183 476.8052 477.0298

          k =-0.3333-1.0000 0.0000 (  2526 PWs)   bands (ev):

   -77.8743 -41.1657 -41.1566 -41.1565 -40.2670 -16.5541 -16.5476 -16.5475
   -12.0670 -12.0600 -12.0579 -12.0523 -12.0487   7.1467  11.7211  12.7725
    13.4153  14.7667  15.0782  15.2998  15.3417  15.9041  17.7300  18.0301
    18.3188  18.4787  18.7053  21.7842  23.8356  25.6916  25.9449  29.1026
    29.8393  30.4880  31.7243  33.0171  33.3523  33.6335  34.1769  35.2962
    37.0337  38.9165  39.2858  39.7286  40.7184  40.9722  41.4871  42.1863
    43.3761  44.5410  44.8694  49.0954  49.5017  50.3334  51.0216  51.6506
    52.0729  53.7286  54.8152  55.0458  55.6423  56.1697  56.2506  58.4342
    58.8632  59.3204  59.9051  60.4219  61.6549  62.0965  63.1106  63.3022
    63.8728  64.1412  65.3772  67.5896  68.9226  69.0012  69.9883  70.1443
    70.6822  70.9204  71.7045  72.2833  72.4664  72.8957  73.0417  74.2158
    75.2842  75.9872  76.8896  77.7360  77.8814  78.5476  79.0655  79.4720
    80.3431  81.3165  81.5019  81.7940  82.3730  83.1743  83.5197  83.5853
    84.4513  85.1319  85.4082  85.5553  86.4544  88.1056  88.4178  88.9835
    89.2943  89.6306  89.9611  91.7036  92.0039  92.0352  93.3734  94.7260
    94.8680  94.9183  95.2616  96.2556  96.8317  98.2823 100.1214 100.8239
   100.9163 101.4407 102.4906 102.9751 103.4963 104.8097 105.0441 105.7210
   105.9445 106.3534 106.5016 107.3423 108.4088 109.2803 109.4255 110.0308
   110.4233 110.5655 111.1360 112.2996 112.5461 112.8520 113.1147 113.4632
   114.1107 114.4425 114.5614 115.9424 116.8154 117.0364 117.8707 118.1631
   118.8105 119.0135 119.2490 119.6106 120.1007 120.2452 120.4192 121.1219
   121.7493 121.9818 122.6581 123.0095 123.4265 123.4851 123.7155 124.0317
   124.4688 125.4115 125.4682 126.2150 126.6163 126.7812 127.2522 127.5424
   127.6529 128.4178 128.5997 129.2552 130.6703 130.8293 130.9542 132.4579
   132.8510 133.0778 134.1269 134.6830 134.9682 135.2510 135.9466 136.1090
   136.1331 136.9171 137.2049 137.3455 137.7803 138.2423 138.4883 139.1670
   139.3331 139.6503 140.3867 141.1416 141.1516 141.4950 142.5259 142.7193
   143.6112 144.3795 144.8807 145.2544 146.0300 146.5533 147.1723 147.7095
   148.4661 148.5470 149.3739 149.8204 150.2576 150.5344 151.0309 151.2115
   151.6333 152.2253 152.6586 154.1095 154.3353 155.5985 156.9258 157.1214
   157.4919 157.7282 158.0219 158.2710 158.8743 159.6760 160.0073 160.3694
   160.5591 160.8043 161.9129 162.3656 162.6749 162.9080 163.2562 164.3429
   164.8129 164.9641 165.3404 166.0328 166.8467 167.1813 167.7802 167.8091
   168.2036 168.9079 169.1817 170.4089 171.0579 171.0627 171.8090 172.1678
   172.3914 172.6533 172.7049 173.5897 173.9610 174.1255 174.6011 175.0277
   175.5958 176.3289 176.8275 177.3858 177.5535 177.8115 178.3567 178.7250
   178.9383 179.1301 179.3754 180.4948 180.7024 180.9435 181.5836 182.1456
   182.3867 182.4260 182.8833 183.2826 184.7467 184.9872 185.0051 185.1733
   186.0652 186.7193 186.8837 187.5375 187.8823 188.5586 188.6871 189.2353
   190.1592 190.6599 190.6677 191.4706 191.6736 191.7638 192.1098 192.5007
   192.6675 192.7824 192.9106 193.5638 194.2016 194.9637 195.4183 195.5611
   195.9678 196.3196 196.8734 196.9147 197.0814 197.4563 197.6146 198.0707
   198.0803 198.2131 198.3131 199.3654 199.6122 199.7554 199.9953 200.4291
   200.9650 201.6817 201.8014 202.3434 202.4899 203.0704 203.5328 203.8510
   203.9267 204.6076 205.0240 206.4638 206.7267 207.0488 207.6686 207.6777
   208.0386 208.2737 208.5268 208.8903 209.0225 209.1807 209.3689 209.4388
   209.9346 210.7680 210.9167 211.2449 211.7818 212.1971 213.1593 213.5157
   213.5839 214.3237 214.9675 215.2803 215.6156 215.9560 216.3879 216.8197
   217.8798 218.0214 218.2554 218.3204 219.0677 219.5300 220.1085 220.5443
   221.1084 221.2274 221.3518 221.8078 222.0798 223.2406 223.3748 223.9770
   224.1195 224.1735 224.9730 225.3723 225.5197 226.0059 226.0871 226.7378
   227.7518 228.2665 228.4549 228.7240 228.9945 229.0153 229.4493 229.5807
   229.6929 231.0338 231.3883 231.6527 231.7809 231.9056 232.3017 232.3108
   232.7902 232.9786 233.5707 233.8246 234.9690 235.0932 235.2778 236.1827
   237.1571 237.2997 238.2532 238.5120 239.9247 239.9316 240.2874 240.8261
   240.9099 241.1945 241.3710 241.7880 242.6362 243.3655 243.4519 243.6476
   243.9335 244.1860 244.2730 244.9470 245.1476 245.5294 245.7557 245.8929
   246.4517 246.8439 247.0084 247.1487 247.7234 248.3186 248.4194 249.2338
   249.4689 250.0945 250.5879 250.8160 251.0149 251.0769 251.3342 251.6931
   252.0154 252.1171 252.4649 252.9174 253.2393 253.7125 253.7231 254.6526
   254.8544 255.3689 255.5838 255.8767 256.5257 256.8172 257.3843 257.6257
   258.8449 259.0578 259.6456 259.7590 259.8980 260.1600 260.3298 260.8218
   260.9923 261.2231 262.2881 262.3099 262.6417 262.6840 263.3892 263.6140
   263.9811 264.3042 264.7219 265.2294 265.6401 265.6817 266.1343 266.4256
   266.9000 266.9553 267.3424 267.8997 268.6220 270.5367 270.7808 270.9216
   271.0642 271.2911 271.5807 272.1320 272.3676 272.8103 273.1186 273.5477
   274.0289 274.3393 274.4028 274.9845 275.1462 275.3182 276.1536 276.9105
   276.9296 277.3410 277.3975 277.6463 277.7637 278.0877 278.4256 279.2139
   279.2288 280.4003 280.7879 281.1315 281.2289 281.7769 282.1177 282.1977
   282.6803 282.8793 283.2866 283.4550 283.8646 284.2284 284.5653 284.6459
   285.2511 285.2721 285.7261 286.1080 286.7918 286.9628 286.9792 287.1132
   287.8903 288.0567 288.0962 288.1179 288.6545 288.6733 289.4421 289.5436
   289.5575 289.7394 289.7864 289.9722 290.0562 290.3484 290.5547 290.9176
   291.4008 291.5920 291.9103 292.3545 292.6398 292.7506 292.8690 293.0495
   293.5270 293.5629 293.5763 293.9974 294.0945 294.3287 294.3783 295.0475
   295.3173 295.3489 295.5590 295.9204 295.9286 297.0743 297.3858 298.0941
   298.5774 298.8093 298.8304 299.0998 299.4217 299.6854 300.0708 300.6956
   300.8392 300.9398 301.6743 302.0246 302.4271 302.9810 303.1584 303.7894
   304.1642 304.2069 304.2516 304.7988 305.0593 305.3302 306.0469 306.9111
   307.0512 307.1377 307.2435 307.4101 308.2037 309.0387 309.0919 310.1185
   310.5197 310.6105 311.0136 311.6010 311.6920 311.7696 311.9920 312.1188
   312.2524 312.4461 312.9562 313.0280 313.1809 313.5366 313.7140 313.9140
   314.2322 315.1865 315.2089 315.8912 316.0996 316.7352 316.8915 317.3349
   317.3540 317.7641 317.9197 318.0869 318.4437 318.9210 319.2760 319.3702
   319.5009 319.9129 319.9672 320.0722 321.0584 321.1604 321.1734 321.8125
   322.9527 323.5314 323.8143 323.8841 324.1768 324.4904 324.6533 325.0341
   325.2247 325.2400 326.0126 326.2986 326.3759 326.5119 326.6066 326.9661
   327.6417 328.1101 328.5040 328.5683 328.8357 328.9059 329.3787 329.9031
   330.0326 330.6847 330.6911 331.1095 331.6169 333.1136 333.5176 333.7942
   334.0759 334.1883 334.7318 334.8455 335.1197 335.4204 335.6626 335.9384
   336.1544 336.4030 336.6007 337.1739 337.8092 338.6438 338.7155 339.2707
   339.4124 339.5612 339.6052 339.9089 340.3089 340.5091 340.7673 340.7879
   340.8405 341.1806 341.3285 341.4091 341.7036 341.9550 342.0703 343.0699
   343.2211 343.7035 344.0885 344.6053 344.6533 345.1726 345.4278 345.7165
   346.2561 346.7370 347.4797 348.1089 348.6117 350.2424 350.3885 350.4452
   350.7767 352.0813 352.5229 353.1081 353.2441 353.3284 353.5754 353.6014
   353.8246 353.9297 353.9875 354.3530 355.2932 356.2434 356.2606 358.5299
   358.5307 358.9403 359.5750 359.6331 359.6974 359.8972 359.9013 360.5778
   360.6172 361.1085 361.6702 361.8005 361.8757 362.0452 362.1159 362.3884
   362.6522 362.6785 362.8754 362.9373 363.2459 363.3049 363.3499 363.6670
   363.6954 364.7416 365.0274 365.3457 365.6077 365.9428 365.9795 366.5847
   366.6927 367.2251 367.2273 367.2842 367.4467 367.9375 368.0497 368.4355
   368.6252 368.7528 369.0302 369.0343 369.3815 369.4870 369.5856 369.6349
   369.8505 370.1380 370.5072 370.5339 370.6976 370.8236 371.1564 371.2710
   371.3336 371.4055 372.7822 372.9543 373.2476 373.3851 373.7014 373.7239
   374.0073 374.7597 375.0675 375.7730 375.8049 375.8750 376.4514 376.7441
   376.8483 377.6550 377.9312 378.5799 378.8476 379.0200 379.2995 379.3555
   379.5523 379.6047 379.9996 380.4883 380.8094 380.9212 381.4884 381.6010
   381.8020 382.2170 382.2848 382.6949 382.7428 382.9920 383.0018 383.1557
   383.2684 383.5657 383.6282 383.8263 383.9967 384.0442 384.0693 384.2443
   384.2855 384.5438 384.6972 385.5958 385.9755 386.0197 386.1461 386.5489
   386.6234 387.0605 387.6675 388.1732 388.1792 388.2558 388.5533 388.9442
   389.1953 389.3984 390.7084 391.2506 391.4310 391.5262 392.5019 392.5844
   393.2385 393.3207 393.4029 393.8230 394.2440 394.4929 395.7197 395.9652
   396.2034 396.6963 397.0384 397.3339 397.4950 397.6736 397.6990 398.1091
   398.2888 398.3833 398.7251 398.7523 398.8118 398.8475 399.2414 399.5268
   399.5383 399.6979 399.7846 399.8905 400.0500 400.3140 401.0483 401.1916
   401.7723 401.8567 402.9661 403.1740 403.2693 403.3832 403.5916 403.6764
   403.7593 403.9061 404.1602 404.3434 404.6369 404.7645 405.1075 405.2472
   405.3312 405.6059 405.7363 406.6353 407.0306 407.5303 408.6923 408.8814
   409.0612 409.1613 409.5754 409.9546 410.0101 410.1554 410.2937 410.6583
   410.7385 411.8716 412.0455 412.1740 412.2721 412.3022 412.3902 412.5266
   413.0870 413.4376 413.8820 414.0201 414.3781 414.6642 415.7001 415.8540
   416.9510 417.6259 417.9529 418.1436 418.2093 418.3469 418.4079 418.7778
   418.8053 419.4978 419.6333 419.8527 420.0485 420.2539 420.4992 420.5239
   420.6673 420.6968 420.7659 421.7121 421.7683 421.8885 422.0835 422.4787
   422.7688 423.0890 423.2785 423.3508 423.4187 423.5613 423.7282 424.1224
   424.2058 424.4400 424.5045 424.8245 425.2612 425.5819 426.2668 426.6049
   426.6976 426.9720 427.6551 428.3711 428.4295 428.7180 428.7470 429.0522
   429.3052 429.5248 429.6600 429.7265 430.1256 430.2132 430.5631 431.1186
   431.6433 431.9098 431.9468 432.2842 432.3530 432.8477 432.8881 432.9123
   432.9722 433.0581 433.2599 433.7527 433.7890 433.8078 433.9316 434.3677
   434.4472 434.8496 434.8910 435.0202 435.6745 435.8373 436.6868 436.7210
   436.7813 437.0598 437.2933 437.4733 437.5627 437.7023 437.8264 437.9439
   440.1827 441.2862 442.2821 442.4254 442.6333 442.8436 443.1370 443.2346
   443.5299 443.6275 444.1753 444.2487 444.3782 444.5226 444.5960 444.6909
   445.1681 445.2820 445.3062 445.4805 445.9000 445.9843 447.1909 447.3231
   447.4648 447.6501 448.3426 448.7752 448.8845 449.2436 449.4145 449.8123
   449.9688 450.0676 450.4317 450.7776 450.7987 451.1473 451.1906 451.4365
   451.7602 451.7695 451.8927 451.9180 452.2295 452.4040 452.5229 453.0738
   453.2107 453.9513 454.3326 454.3503 454.9129 455.1050 455.1722 455.3183
   455.3294 455.5988 455.6665 456.0974 456.1070 457.3778 457.6551 458.7522
   459.0292 459.3117 459.4775 459.4875 459.5773 460.0711 460.1679 460.4907
   460.5723 460.9091 461.7380 461.8948 462.1472 463.3563 463.5081 463.8264
   463.9644 464.0621 464.3882 464.4934 464.8133 464.8534 464.9171 465.5715
   466.0578 466.0728 466.2191 466.3052 466.4073 466.8577 466.8662 467.3655
   467.7198 468.0192 468.0613 468.4183 468.4239 469.0895 469.1150 469.2778
   469.7487 469.8978 469.9498 471.2211 471.3653 471.7236 471.9879 472.3514
   473.5544 474.3837 474.8128 474.9403 475.0407 475.1777 475.4286 475.6233
   476.0794 476.4320 476.5555 476.7923 476.9688 477.0653 477.2245 477.4670

     the Fermi energy is    16.6097 ev
     (compare with:    16.5341 eV, computed in scf)

     Writing all to output data dir out/mp-5967.save/
 
     init_run     :      0.02s CPU      0.04s WALL (       1 calls)
     electrons    :    409.63s CPU    436.21s WALL (       1 calls)

     Called by init_run:
     wfcinit      :      0.00s CPU      0.00s WALL (       1 calls)
     potinit      :      0.01s CPU      0.01s WALL (       1 calls)
     hinit0       :      0.01s CPU      0.01s WALL (       1 calls)

     Called by electrons:
     c_bands      :    409.62s CPU    436.18s WALL (       1 calls)
     v_of_rho     :      0.00s CPU      0.00s WALL (       1 calls)

     Called by c_bands:
     init_us_2    :      0.00s CPU      0.00s WALL (       8 calls)
     init_us_2:cp :      0.00s CPU      0.00s WALL (       8 calls)
     paro_k       :    374.08s CPU    397.74s WALL (       8 calls)

     Called by paro_*:
     h_psi        :      8.95s CPU      9.44s WALL (     861 calls)
     g_psi        :      0.19s CPU      0.21s WALL (   82399 calls)

     Called by h_psi:
     h_psi:calbec :      0.32s CPU      0.34s WALL (     861 calls)
     vloc_psi     :      8.33s CPU      8.78s WALL (     861 calls)
     add_vuspsi   :      0.22s CPU      0.23s WALL (     861 calls)

     General routines
     calbec       :      0.32s CPU      0.34s WALL (     861 calls)
     fft          :      0.00s CPU      0.00s WALL (      10 calls)
     fftw         :      7.45s CPU      7.85s WALL (  133904 calls)
 
     Parallel routines
 
     PWSCF        :   6m50.32s CPU   7m17.44s WALL

 
   This run was terminated on:  17:33:32   5Dec2023            

=------------------------------------------------------------------------------=
   JOB DONE.
=------------------------------------------------------------------------------=
