
     Program PWSCF v.7.1 starts on  5Dec2023 at 18:10:12 

     This program is part of the open-source Quantum ESPRESSO suite
     for quantum simulation of materials; please cite
         "P. Giannozzi et al., J. Phys.:Condens. Matter 21 395502 (2009);
         "P. Giannozzi et al., J. Phys.:Condens. Matter 29 465901 (2017);
         "P. Giannozzi et al., J. Chem. Phys. 152 154105 (2020);
          URL http://www.quantum-espresso.org", 
     in publications or presentations arising from this work. More details at
     http://www.quantum-espresso.org/quote

     Parallel version (MPI), running on    24 processors

     MPI processes distributed on     1 nodes
     122653 MiB available memory on the printing compute node when the environment starts
 
     Reading input from pw_mp-5967_nscf_k1030_E58.in
Warning: card &IONS ignored
Warning: card / ignored
Warning: card &CELL ignored
Warning: card / ignored

     Current dimensions of program PWSCF are:
     Max number of different atomic species (ntypx) = 10
     Max number of k-points (npk) =  40000
     Max angular momentum in pseudopotentials (lmaxx) =  4

     Atomic positions and unit cell read from directory:
     out/mp-5967.save/
     Atomic positions from file used, from input discarded
 
 
     K-points division:     npool     =       2
     R & G space division:  proc/nbgrp/npool/nimage =      12
     Subspace diagonalization in iterative solution of the eigenvalue problem:
     one sub-group per band group will be used
     scalapack distributed-memory algorithm (size of sub-group:  3*  3 procs)

 
     Parallelization info
     --------------------
     sticks:   dense  smooth     PW     G-vecs:    dense   smooth      PW
     Min          80      80     24                 1674     1674     273
     Max          82      82     25                 1676     1676     275
     Sum         967     967    295                20107    20107    3287
 
     Using Slab Decomposition
 


     bravais-lattice index     =            2
     lattice parameter (alat)  =      11.0675  a.u.
     unit-cell volume          =     338.9178 (a.u.)^3
     number of atoms/cell      =            3
     number of atomic types    =            3
     number of electrons       =        44.00
     number of Kohn-Sham states=         1200
     kinetic-energy cutoff     =      58.0000  Ry
     charge density cutoff     =     232.0000  Ry
     Exchange-correlation= PBE
                           (   1   4   3   4   0   0   0)

     celldm(1)=  11.067549  celldm(2)=   0.000000  celldm(3)=   0.000000
     celldm(4)=   0.000000  celldm(5)=   0.000000  celldm(6)=   0.000000

     crystal axes: (cart. coord. in units of alat)
               a(1) = (  -0.500000   0.000000   0.500000 )  
               a(2) = (   0.000000   0.500000   0.500000 )  
               a(3) = (  -0.500000   0.500000   0.000000 )  

     reciprocal axes: (cart. coord. in units 2 pi/alat)
               b(1) = ( -1.000000 -1.000000  1.000000 )  
               b(2) = (  1.000000  1.000000  1.000000 )  
               b(3) = ( -1.000000  1.000000 -1.000000 )  


     PseudoPot. # 1 for Co read from file:
     /usr/scratch4/magr4985/MG/HTDF/pseudo/SG15/Co.upf
     MD5 check sum: 04640e31e65e5bce9f0417487be359f7
     Pseudo is Norm-conserving, Zval = 17.0
     Generated using ONCVPSP code by D. R. Hamann
     Using radial grid of  602 points,  6 beta functions with: 
                l(1) =   0
                l(2) =   0
                l(3) =   1
                l(4) =   1
                l(5) =   2
                l(6) =   2

     PseudoPot. # 2 for Sb read from file:
     /usr/scratch4/magr4985/MG/HTDF/pseudo/SG15/Sb.upf
     MD5 check sum: 0417cd6c0fe8ce4611e2b23135f1abd9
     Pseudo is Norm-conserving, Zval = 15.0
     Generated using ONCVPSP code by D. R. Hamann
     Using radial grid of  602 points,  6 beta functions with: 
                l(1) =   0
                l(2) =   0
                l(3) =   1
                l(4) =   1
                l(5) =   2
                l(6) =   2

     PseudoPot. # 3 for Ti read from file:
     /usr/scratch4/magr4985/MG/HTDF/pseudo/SG15/Ti.upf
     MD5 check sum: 1aea57736bd12dcfee93c97d0b9b5968
     Pseudo is Norm-conserving, Zval = 12.0
     Generated using ONCVPSP code by D. R. Hamann
     Using radial grid of  602 points,  6 beta functions with: 
                l(1) =   0
                l(2) =   0
                l(3) =   1
                l(4) =   1
                l(5) =   2
                l(6) =   2

     atomic species   valence    mass     pseudopotential
        Co            17.00    58.93320     Co( 1.00)
        Sb            15.00   121.76000     Sb( 1.00)
        Ti            12.00    47.86700     Ti( 1.00)

     24 Sym. Ops. (no inversion) found



   Cartesian axes

     site n.     atom                  positions (alat units)
         1           Ti  tau(   1) = (   0.0000000   0.0000000   0.0000000  )
         2           Co  tau(   2) = (  -0.2500000   0.2500000   0.2500001  )
         3           Sb  tau(   3) = (  -0.5000000   0.5000000   0.5000000  )

     number of k points=    29  Gaussian smearing, width (Ry)=  0.0005
                       cart. coord. in units 2pi/alat
        k(    1) = (   0.0000000   0.0000000   0.0000000), wk =   0.0039062
        k(    2) = (  -0.1250000   0.1250000  -0.1250000), wk =   0.0312500
        k(    3) = (  -0.2500000   0.2500000  -0.2500000), wk =   0.0312500
        k(    4) = (  -0.3750000   0.3750000  -0.3750000), wk =   0.0312500
        k(    5) = (   0.5000000  -0.5000000   0.5000000), wk =   0.0156250
        k(    6) = (   0.0000000   0.2500000   0.0000000), wk =   0.0234375
        k(    7) = (  -0.1250000   0.3750000  -0.1250000), wk =   0.0937500
        k(    8) = (  -0.2500000   0.5000000  -0.2500000), wk =   0.0937500
        k(    9) = (   0.6250000  -0.3750000   0.6250000), wk =   0.0937500
        k(   10) = (   0.5000000  -0.2500000   0.5000000), wk =   0.0937500
        k(   11) = (   0.3750000  -0.1250000   0.3750000), wk =   0.0937500
        k(   12) = (   0.2500000   0.0000000   0.2500000), wk =   0.0468750
        k(   13) = (   0.0000000   0.5000000   0.0000000), wk =   0.0234375
        k(   14) = (  -0.1250000   0.6250000  -0.1250000), wk =   0.0937500
        k(   15) = (   0.7500000  -0.2500000   0.7500000), wk =   0.0937500
        k(   16) = (   0.6250000  -0.1250000   0.6250000), wk =   0.0937500
        k(   17) = (   0.5000000   0.0000000   0.5000000), wk =   0.0468750
        k(   18) = (   0.0000000   0.7500000   0.0000000), wk =   0.0234375
        k(   19) = (   0.8750000  -0.1250000   0.8750000), wk =   0.0937500
        k(   20) = (   0.7500000   0.0000000   0.7500000), wk =   0.0468750
        k(   21) = (   0.0000000  -1.0000000   0.0000000), wk =   0.0117188
        k(   22) = (  -0.2500000   0.5000000   0.0000000), wk =   0.0937500
        k(   23) = (   0.6250000  -0.3750000   0.8750000), wk =   0.1875000
        k(   24) = (   0.5000000  -0.2500000   0.7500000), wk =   0.0937500
        k(   25) = (   0.7500000  -0.2500000   1.0000000), wk =   0.0937500
        k(   26) = (   0.6250000  -0.1250000   0.8750000), wk =   0.1875000
        k(   27) = (   0.5000000  -0.0000000   0.7500000), wk =   0.0937500
        k(   28) = (  -0.2500000  -1.0000000   0.0000000), wk =   0.0468750
        k(   29) = (  -0.5000000  -1.0000000   0.0000000), wk =   0.0234375

     Dense  grid:    20107 G-vectors     FFT dimensions: (  40,  40,  40)

     Estimated max dynamical RAM per process >     106.78 MB

     Estimated total dynamical RAM >       2.50 GB

     The potential is recalculated from file :
     out/mp-5967.save/charge-density

     Starting wfcs are random

     Band Structure Calculation
     ParO style diagonalization

     ethr =  5.00E-06,  avg # of iterations =  6.1

     total cpu time spent up to now is      791.4 secs

     End of band structure calculation

          k = 0.0000 0.0000 0.0000 (  2565 PWs)   bands (ev):

   -77.8743 -41.1563 -41.1563 -41.1563 -40.2780 -16.5391 -16.5391 -16.5391
   -12.0676 -12.0676 -12.0582 -12.0582 -12.0582   5.1226  13.9091  13.9091
    13.9091  14.7382  14.7382  16.3592  16.3592  16.3592  18.2292  18.2292
    19.4255  19.4255  19.4255  20.7890  24.3209  24.6591  24.6591  24.6591
    26.6066  26.6066  26.6066  29.5439  29.5439  34.7462  38.2746  38.2746
    38.2746  42.9335  42.9335  44.1448  44.1448  44.1448  44.7475  44.7475
    44.7475  49.2926  49.2926  49.2926  50.5908  50.5908  50.5908  51.0197
    52.6737  52.6737  52.6737  53.3350  54.8005  54.8005  54.8006  57.7777
    57.7777  57.7777  57.9013  57.9013  58.2572  58.2572  58.8949  58.8949
    58.8949  61.1748  62.5347  62.5347  62.5347  63.2488  63.2488  63.2488
    67.0798  71.8273  74.9875  74.9875  74.9875  77.4415  77.4415  77.4415
    78.6539  78.6539  81.8893  81.8894  81.8894  82.0387  85.3288  85.3288
    85.7544  85.7544  85.7544  87.7099  87.7099  87.7099  87.7732  87.7732
    87.7732  88.5938  88.5938  88.7829  88.7829  88.7829  88.8380  88.8380
    88.8380  91.2557  91.2557  91.2557  92.0435  92.1749  92.1749  92.7308
    92.7308  92.7308  93.8031  94.8035  94.8035  94.8035  94.9425  96.9860
    96.9860  96.9860 101.1271 101.1271 102.7836 102.7836 102.7836 105.0220
   105.5099 105.5099 105.5099 105.6023 105.6023 105.6023 106.7696 106.7696
   106.7696 106.8669 106.8669 106.8669 107.9210 107.9210 111.8076 111.8077
   111.8077 113.5146 115.0728 115.0728 115.1637 115.1637 115.1637 115.4750
   117.4386 117.4386 117.4386 117.7665 117.7665 117.7665 118.6340 118.6340
   118.6340 118.9536 119.2709 119.2709 119.2709 119.9117 122.2206 122.2206
   122.2206 126.3563 126.3563 127.5277 127.5277 127.5277 127.9479 127.9479
   129.2661 129.2661 129.2661 131.5671 131.5671 131.5671 133.7052 133.7052
   133.7052 135.8916 137.8158 137.8158 137.8158 139.3745 139.3745 140.0421
   141.0069 141.0070 141.0070 142.3232 145.1363 145.1363 145.1363 146.3616
   146.8908 146.8908 146.8908 146.9889 146.9889 146.9889 148.9365 148.9365
   148.9365 149.6804 150.1011 150.1011 150.1011 150.6757 150.6757 152.5466
   153.1786 153.1786 153.1786 153.3907 153.3907 153.3907 154.6873 154.6873
   154.6873 155.1945 155.1945 155.3326 156.6384 156.6384 156.6384 158.1954
   158.1954 158.2247 158.2247 158.2247 159.0649 159.0649 159.0649 159.1882
   159.1882 159.1882 159.4890 159.4890 159.4890 159.5282 159.5282 159.5282
   159.8491 159.8491 160.0938 160.4804 160.4804 160.4804 160.8645 160.8645
   160.8645 160.9110 160.9110 167.6416 167.7824 167.7824 167.7824 168.2072
   168.2072 169.6268 169.6268 169.6268 171.1408 171.1408 171.1408 171.2874
   171.2874 171.6174 171.6174 171.6174 172.0607 172.0607 172.0607 174.9769
   177.4168 178.8464 178.8464 179.0814 179.0814 179.0814 179.2860 179.8794
   179.8794 179.8794 181.3639 181.3639 181.3639 184.7886 184.7886 184.7886
   187.0875 187.0875 187.0875 187.1407 187.1407 187.1407 188.9396 188.9396
   188.9396 189.2859 189.2859 189.2859 189.4046 189.4046 190.2022 191.6301
   191.6301 191.6301 191.7445 191.8126 191.8126 192.4410 192.4410 192.4410
   192.5765 192.5765 192.5765 192.9274 192.9274 192.9274 193.6037 193.6037
   194.9377 194.9377 194.9377 196.8176 196.8176 200.9367 200.9367 200.9367
   202.6536 202.9361 202.9361 202.9361 204.8394 205.2941 205.2941 205.2941
   206.0173 209.4766 209.4766 212.1091 212.1091 212.1091 212.3751 212.3751
   212.3752 213.5774 213.5774 214.2379 214.2379 214.2379 214.6232 214.6232
   214.6232 216.5787 217.5293 217.5293 217.5293 219.2917 219.7516 219.7516
   219.7516 222.4787 222.4787 222.4787 222.7694 222.7694 223.2004 223.2004
   223.2004 223.2087 223.2087 223.2087 223.3939 223.3939 223.3939 223.7347
   223.7347 223.7347 224.0779 224.4618 224.4618 224.4618 224.9959 226.8456
   226.8456 227.8043 227.8043 227.8043 227.9476 227.9476 227.9476 228.0476
   228.0476 228.0476 228.3202 228.3202 228.3202 228.5702 230.4632 230.4632
   230.4632 232.5656 232.5656 234.5320 236.1747 236.1747 236.1747 236.2295
   238.4429 238.4430 238.4430 238.7333 238.7333 238.7333 238.8527 238.8527
   238.8527 239.1586 239.1586 239.3187 239.3187 239.3858 239.3858 239.3858
   240.9549 240.9549 240.9549 244.9088 245.3241 245.3241 246.1506 246.1506
   246.1506 246.1657 246.2297 246.2297 246.2297 246.4227 246.4227 246.5725
   246.5725 246.5725 246.5817 246.5817 246.5817 247.8688 247.8688 247.8688
   248.1849 248.1849 249.0699 249.0699 249.0699 249.2479 249.6899 249.6899
   249.6899 249.7468 249.7468 249.7468 249.8341 249.8341 249.8341 250.1748
   250.1748 250.1748 250.2788 250.2788 250.2788 250.3923 251.4724 253.7481
   253.7481 253.7481 255.2641 255.2641 255.8391 255.8391 255.8391 256.3396
   256.3430 256.3430 257.2223 258.0981 258.0981 258.0981 258.9477 258.9477
   259.5712 259.5712 259.5712 259.6705 259.6705 259.6705 259.8726 259.8726
   259.8726 260.4969 260.4969 260.4969 260.6740 260.6740 261.7157 261.7157
   261.7157 261.9770 261.9770 261.9770 262.1478 262.1478 262.1478 263.6718
   263.6718 263.8472 263.8596 263.8596 263.8596 266.2019 266.2019 266.2019
   267.1449 267.1756 267.1756 267.1756 270.5586 270.5586 277.2538 277.2538
   277.2538 280.5644 280.5644 280.5644 283.1870 283.7705 286.3279 286.3279
   286.8698 286.8698 286.8698 288.3473 288.3473 288.3473 289.1162 289.2524
   289.2524 289.2524 289.3543 289.3543 289.3543 289.8077 289.8077 289.8077
   290.0084 290.0084 291.0230 291.0230 291.0230 291.2394 291.9850 292.0898
   292.0898 292.0898 293.0679 293.0679 293.0679 293.2379 293.2379 293.2379
   293.4295 293.4295 293.4295 296.3882 296.3882 296.5546 296.5546 296.5546
   298.4608 298.4608 298.8351 298.8351 298.8351 299.0412 299.0412 299.0412
   299.2850 299.2850 299.2850 299.3818 299.3818 299.3818 299.5429 299.5429
   301.4190 301.4190 301.4802 301.4802 301.4802 301.5802 303.4290 303.4290
   303.4290 307.8673 307.8673 307.8673 308.1525 308.3246 308.3246 308.3246
   308.6853 308.6853 310.0834 310.0834 310.0834 310.9096 310.9096 311.3036
   311.3036 311.3036 312.8549 313.4823 313.4823 313.4823 313.5408 313.5408
   313.5408 313.6590 313.6590 313.6590 314.8484 314.8484 314.8484 314.8938
   315.0259 315.0259 315.0259 315.0705 315.0705 315.2566 315.2566 315.2566
   315.4985 315.4985 315.4985 315.9871 317.3435 317.3435 319.0254 319.0254
   319.0254 321.3634 321.3634 321.3634 321.5358 322.0948 322.0948 322.0948
   322.8383 322.8383 322.8383 323.1073 323.9481 324.2388 324.2388 326.2374
   326.2374 326.2374 326.3909 326.4222 326.4222 326.4222 326.4428 326.4428
   326.4428 329.8826 329.8826 330.2136 330.2136 330.2136 330.7868 330.7868
   330.7868 330.9315 330.9315 330.9315 331.2619 331.4164 331.4164 332.4603
   332.4603 332.4603 332.5025 332.5199 332.5199 332.5199 332.5290 332.5290
   332.5290 332.9194 332.9194 332.9290 332.9290 332.9290 333.5114 333.5114
   333.5114 333.6708 333.6708 333.6708 333.9289 334.8858 334.8858 340.0360
   340.0360 340.0985 340.0985 340.0985 341.1186 341.1186 341.1186 341.4405
   345.3312 345.3312 345.3312 345.3642 345.3642 346.4409 346.4409 346.4409
   346.5483 346.5483 346.5483 346.6534 346.6534 346.6534 346.7656 347.3556
   347.3556 347.3556 347.4496 347.4710 347.4710 347.4710 347.6903 347.6903
   349.1047 349.1047 349.1047 352.3135 353.2985 353.6969 353.6969 353.6969
   355.1898 355.1898 355.1898 355.4685 355.4685 355.4685 355.5699 355.5699
   355.5699 355.7690 355.7690 358.9392 358.9392 359.3563 359.3563 359.3563
   360.4532 360.4532 360.4532 361.4110 361.4111 361.4111 361.5649 361.7416
   361.7416 361.7416 361.9522 361.9522 361.9522 362.0946 362.2348 362.2348
   362.2428 362.2428 362.2428 363.0286 363.0286 363.0286 363.3187 363.3187
   363.3187 363.4632 363.4632 363.4632 363.5081 363.5081 363.5081 364.5506
   364.5506 364.6080 364.6080 364.6080 365.3701 365.3701 365.3701 365.5459
   365.5459 365.5459 365.6545 365.6545 365.8925 365.8925 365.8925 365.9645
   365.9645 366.4164 366.4164 366.4164 366.4541 366.5435 366.5435 366.5435
   366.8166 367.2083 367.2083 367.2083 367.4937 367.4937 367.4937 367.6866
   369.8720 369.8720 369.9896 369.9896 369.9896 370.0986 370.0986 370.0986
   370.5954 370.5954 370.5954 370.6561 370.7715 370.7715 370.7715 371.0814
   371.0814 371.0814 371.1259 371.1259 371.1259 371.1447 371.1447 371.4808
   371.4808 371.4808 371.6961 372.8922 373.0527 382.7214 382.7214 385.5870
   385.5870 385.9704 385.9704 385.9704 386.3826 386.3826 386.3826 386.4644
   386.4644 386.4644 386.5757 386.5757 386.5757 386.9298 386.9298 388.0940
   388.0940 388.0940 388.5483 388.5483 388.5483 388.9440 389.1601 389.1601
   389.1601 389.8080 389.8080 389.8080 389.8538 389.8538 389.8538 389.8640
   389.8640 394.7471 394.7471 394.7471 396.0049 396.0049 396.0606 396.0606
   396.0606 396.0619 396.3322 398.5577 398.5577 398.5577 401.7331 401.7331
   401.7331 401.8628 401.8628 401.8628 401.8766 401.8766 401.8766 403.8123
   403.8123 403.8291 403.8569 403.8569 403.8569 406.8974 406.8974 406.8974
   410.5738 410.5738 411.7343 411.7343 411.7343 415.0292 415.0292 415.0292
   415.9512 416.0793 416.5372 416.5372 416.5372 416.5417 416.5417 416.5417
   416.5435 416.5435 416.6139 416.6139 416.6820 416.6820 416.6820 416.6846
   416.6846 416.6846 418.3423 418.3423 418.3423 419.4350 419.8862 420.7220
   420.7220 420.7220 421.2911 421.2911 422.2258 422.2258 422.2258 422.2576
   422.2576 422.2576 423.5020 423.5020 423.5020 423.7222 424.0039 424.2817
   424.2817 424.2817 424.4912 424.4912 425.7840 425.7840 425.7840 427.2067
   427.2067 427.2067 427.5840 427.5840 427.6126 429.1175 429.1175 429.1175
   429.8416 429.8416 429.8416 430.0796 430.0796 430.0796 430.4932 430.4932
   430.5866 430.5866 430.5866 431.1199 431.1199 431.1199 431.2206 431.2206
   431.2206 431.2724 432.3034 433.0813 433.0813 433.0813 433.1312 433.1312
   433.7801 433.7801 433.7802 434.1586 434.1586 434.1627 434.1627 434.1627
   434.8312 435.1723 435.1723 435.1723 435.2497 435.2497 435.2497 435.3552
   435.3552 435.3552 435.3937 435.3937 435.3982 435.3982 435.3982 438.0503
   438.0922 438.0922 438.0922 438.1361 438.1361 438.1361 438.2676 438.2676
   438.3219 438.3219 438.3219 443.2150 443.2150 446.0304 446.0304 446.0304
   446.6941 446.6941 446.6941 447.5081 449.0344 449.0344 449.1480 449.1480
   449.1480 449.3054 449.3054 449.3054 450.0621 450.1126 450.1126 450.1126
   450.1741 450.1741 450.2034 450.2034 450.2034 450.2519 450.2519 450.2519
   450.8853 450.9722 450.9722 450.9722 451.2076 451.2076 451.2076 451.2304
   451.2304 451.2304 451.3078 451.3078 451.3078 455.7770 455.8403 455.8403
   456.2035 456.2035 456.2035 456.5235 456.5235 456.5235 456.6117 456.6117
   456.6117 457.5762 457.5762 457.6141 457.6142 457.6142 457.6719 457.6719
   457.6719 457.6846 457.6846 457.6846 457.7037 458.2676 458.2676 458.2676
   459.5671 459.5671 459.6797 459.6797 459.6797 459.8438 459.9461 459.9461
   460.4399 460.4399 460.4399 461.2500 461.2500 461.2500 461.5298 461.5298
   461.6045 461.6045 461.6045 461.7852 461.8529 461.9699 461.9700 461.9700
   462.0580 462.0580 462.0906 462.0906 462.0906 462.2156 462.2156 462.2156
   463.6759 463.6759 463.6759 465.0630 465.6062 465.8681 465.8681 465.8681
   465.9911 465.9911 466.2434 466.2434 466.2434 466.4992 466.4992 466.4992
   467.7020 467.7020 467.7095 467.7095 467.7095 467.7376 467.7857 467.7857
   467.7857 468.5392 468.5392 468.5392 468.7333 468.7333 468.7333 469.0384

          k =-0.1250 0.1250-0.1250 (  2550 PWs)   bands (ev):

   -77.8743 -41.1574 -41.1563 -41.1563 -40.2768 -16.5421 -16.5402 -16.5402
   -12.0658 -12.0658 -12.0580 -12.0574 -12.0574   5.3036  13.6176  13.7713
    13.7713  14.8661  14.8661  15.8424  16.2887  16.2887  18.1260  18.1260
    18.9617  19.7915  19.7915  21.7913  23.5643  24.3240  24.3240  25.2012
    26.4468  26.4468  27.5522  30.4477  30.4477  35.4849  37.1180  37.1180
    38.4602  41.0761  42.4829  42.4829  44.1003  44.1003  46.8277  46.9822
    46.9822  47.3776  47.3776  48.4785  49.0931  49.7372  49.7373  50.3082
    52.6468  54.0593  54.0593  54.5191  54.6556  54.6556  55.1927  56.2173
    56.2173  56.5421  57.8463  57.8463  58.8101  59.2573  59.2573  61.1605
    61.1605  61.7216  62.4878  62.4878  62.5635  64.6942  64.6942  65.4908
    68.5174  72.8030  73.4473  73.4473  74.4106  75.7688  75.7688  77.1914
    79.4218  79.4218  80.2664  80.2664  81.3830  82.2457  82.8780  82.8780
    83.9530  83.9530  84.6781  85.6585  85.6587  85.6587  85.8904  88.2995
    88.2995  88.4784  88.6398  88.6398  88.8329  90.0253  90.0253  90.8108
    90.8108  91.1352  91.5376  92.0282  92.0282  92.5097  93.6349  94.5086
    94.5086  95.3932  95.3932  95.8398  96.4899  96.4899  98.0102  98.0102
    98.0491  98.6157  98.6157  99.0103 100.4957 100.4957 102.1684 102.4615
   102.4615 103.5932 104.0144 105.6379 105.6379 106.8721 106.9310 106.9310
   108.3230 108.8284 108.8284 109.9379 110.6658 110.7034 110.7034 111.3228
   112.1134 112.1134 113.0787 113.3905 113.7888 113.7888 114.5464 114.5464
   116.0902 117.0429 117.0429 117.3695 117.3695 117.4662 118.4514 118.4514
   118.8915 119.1964 120.6372 121.0665 121.0665 123.6803 124.5760 124.5760
   125.2062 125.7449 125.7449 126.6622 126.6622 126.8890 128.2469 128.2469
   128.9918 130.9722 131.1886 131.1886 132.2715 132.2715 132.6556 132.6556
   133.8112 135.4681 138.0625 138.0625 139.6663 139.6946 140.0677 140.0677
   140.3650 140.9273 140.9273 141.6647 141.8651 141.8651 142.8396 144.6399
   145.2637 145.2637 145.3860 146.2513 146.2513 147.1918 147.1918 148.1057
   148.5324 148.6117 148.9685 148.9685 149.3277 149.8566 149.8566 150.8267
   150.8267 151.2519 151.4713 151.4713 151.9286 153.3515 153.3515 153.7825
   154.1689 154.7162 154.7162 154.9238 155.7468 155.7468 156.6511 156.6511
   156.7479 157.0189 157.0189 157.8063 157.8063 157.9995 158.8331 158.8558
   160.0992 160.0992 160.7486 160.7486 161.0383 161.6899 161.6899 161.8265
   162.5452 162.8284 162.8284 163.2814 163.6493 163.6493 164.8229 164.9229
   164.9229 165.2368 165.6585 165.6585 166.5185 166.5185 167.3783 167.7814
   167.7814 168.7782 168.9967 168.9967 170.5083 170.5083 171.4116 171.4116
   171.5393 172.8760 173.0192 173.0192 173.3361 173.8404 175.0097 175.0097
   177.3249 177.4245 177.8149 177.8149 178.3649 178.3649 179.9716 180.6806
   180.6855 180.6855 181.3397 181.3397 181.5804 182.3870 182.3870 183.9996
   183.9996 186.0355 186.0355 186.0879 186.3635 186.3814 186.3814 186.3934
   186.6851 187.0265 187.4872 187.4872 188.1574 188.1574 189.7801 190.7265
   190.7265 191.4844 192.1776 192.1776 192.9878 193.5389 193.5389 193.7276
   194.7054 194.7054 195.2697 196.4312 196.4312 197.1135 197.5732 197.6358
   197.6358 198.8962 199.4960 199.9746 199.9746 200.7356 200.7356 200.8853
   201.5864 201.5864 202.8854 202.8854 204.1652 204.6338 204.6338 207.0602
   207.3577 207.3577 209.4278 209.4278 209.6953 210.6082 211.1458 211.3927
   211.3927 212.0059 212.7196 212.7196 213.5449 213.5552 213.5552 215.4094
   215.5121 215.6078 215.6078 216.4503 216.4503 216.6210 216.6210 217.5906
   217.7206 217.7206 217.7223 217.8871 219.1325 219.1325 219.2610 221.1299
   221.1299 221.8080 221.8080 222.1719 223.4172 223.4172 223.7752 223.9344
   224.3177 225.9165 225.9165 226.9165 226.9165 227.1272 227.5313 227.5313
   228.1810 228.6124 228.6124 228.9300 229.0631 229.2510 229.2510 229.9917
   230.6127 230.8050 230.8050 231.4612 232.0344 232.0344 232.9301 232.9301
   233.0407 233.6418 233.6418 233.8454 233.8790 233.8790 234.0980 234.9093
   234.9093 235.7011 235.7011 236.6895 236.6895 237.0114 237.0739 238.0188
   238.0188 238.1917 238.5035 238.5035 239.2531 239.5058 240.6136 240.6136
   240.7987 241.1685 241.1685 241.5937 241.5937 241.9485 242.0743 242.9723
   242.9723 243.2186 243.2193 243.3023 243.3023 244.1971 244.3706 244.3706
   245.1002 245.6704 245.6704 246.4659 246.5385 246.5385 247.8405 248.0684
   248.0684 248.3350 248.3350 248.8908 248.9682 248.9682 249.4570 249.6166
   249.8105 249.8105 250.4714 250.4714 251.0661 251.7888 251.7888 251.9730
   251.9730 252.1155 252.6871 252.9411 252.9411 253.1869 253.7111 253.7111
   254.9272 254.9272 255.3569 255.3569 255.5703 255.7610 256.0678 256.3479
   256.3479 256.7956 256.9770 256.9770 257.5346 257.5346 257.5443 257.9061
   258.2514 258.7718 258.7718 259.2331 259.2920 259.2920 260.8303 260.8303
   261.6918 261.6918 262.6895 263.1285 263.1786 263.1786 263.4453 263.6851
   263.6851 263.6945 264.1494 266.5847 266.8160 266.8160 267.4706 267.4706
   268.0867 268.9262 269.0921 269.0921 270.4375 270.4375 271.0516 271.0516
   273.5606 273.7505 273.7505 274.5552 274.5800 274.5800 275.3165 275.7130
   276.1054 276.1054 278.0134 278.0134 279.2051 280.1976 280.1976 281.0355
   281.6102 281.6102 281.8558 282.4897 282.8951 282.8951 283.5808 283.5808
   283.7677 284.4855 284.8412 284.8412 285.9758 285.9758 288.0149 288.0285
   288.0285 288.4812 288.4812 289.1026 290.7287 291.6570 291.8034 291.8034
   292.3863 292.3863 292.4672 293.3644 293.3644 293.7915 294.1262 294.1262
   294.9627 295.9000 295.9000 296.5217 296.5217 296.6562 296.9702 297.2827
   297.5227 297.5227 298.5867 298.5867 298.9974 300.1123 300.1123 300.7576
   301.1209 301.1209 301.2555 301.3461 301.7551 301.7551 302.7267 302.7267
   303.0685 303.4635 303.4635 303.5117 303.9566 304.1233 304.1233 304.8044
   304.8957 305.1601 305.1601 306.1493 306.1557 306.1557 307.0655 307.0655
   307.2242 307.4601 307.4601 308.3378 308.3776 308.7594 308.7594 309.8938
   309.8938 310.0611 310.5731 310.5731 311.0264 311.0882 311.4984 311.4984
   312.3103 312.3103 313.0711 313.0711 313.3662 314.2264 314.2264 314.5342
   314.5881 314.8902 314.8902 316.3087 316.3087 317.0492 317.4673 317.4673
   317.6940 318.4414 318.8916 318.8916 319.7687 319.7687 319.7865 320.2193
   320.6219 320.6219 321.2528 321.2528 321.7123 321.8699 321.8699 322.4303
   322.4303 322.5552 322.6372 323.0821 323.4961 323.4961 324.8384 324.8384
   325.0099 326.1272 326.1808 326.1808 326.7158 326.7158 326.8088 326.8707
   327.3463 327.3463 328.0860 328.7553 328.7553 329.8399 329.8399 330.1637
   330.1661 330.1997 330.1997 330.5034 330.5034 331.0575 331.7704 332.1339
   332.5256 332.5256 332.7141 332.7141 332.7318 333.0511 333.2627 333.2627
   333.8908 333.9757 333.9757 335.0465 335.0465 335.1200 335.2552 335.2694
   335.2694 335.3181 336.5381 337.1038 337.1038 338.9014 338.9014 339.3478
   339.3478 339.4979 341.3771 341.3771 342.2010 342.2010 342.2279 342.9216
   343.0244 343.0244 343.3357 343.4384 343.4384 344.1362 345.7412 345.8201
   345.8201 346.0558 346.9578 346.9578 347.0472 347.2393 347.2393 347.6224
   347.6224 347.9325 348.1297 349.1367 349.1367 349.5978 349.5978 350.1429
   350.1429 350.9766 351.2726 351.2726 351.3077 351.4432 351.6204 351.6204
   351.6781 351.9084 352.1889 352.1889 352.5041 352.8838 352.8838 353.4896
   353.4896 353.7673 353.8808 353.9043 353.9043 354.4241 354.7980 354.7980
   355.0381 355.4851 355.4851 355.9484 357.1287 357.8249 357.8249 358.0920
   358.1674 358.1674 358.6396 358.6396 359.0387 359.3457 359.3468 359.3468
   359.7354 359.7921 359.7921 360.2095 360.3578 360.3578 361.0681 361.7197
   361.7197 362.2983 362.3276 362.3276 362.4685 362.6506 362.6506 363.1933
   363.1933 363.2389 364.1430 364.1965 364.1965 364.9332 365.3972 365.3972
   365.4494 366.4870 366.4870 366.6719 367.4224 367.8276 367.8276 368.9344
   368.9344 369.2071 369.2239 369.2239 369.9179 370.2154 370.2154 371.2273
   371.2273 371.4420 371.7722 371.7722 371.8282 372.5559 372.5559 372.8236
   372.9169 372.9878 372.9878 373.1022 373.1022 373.3152 374.1785 374.1785
   374.4117 374.9728 374.9728 375.4030 375.4030 375.5304 375.8849 375.8849
   375.9348 376.9623 377.7816 378.1841 378.1841 378.6387 378.6387 379.1521
   379.3954 379.3954 379.6279 379.6716 379.6716 380.0335 380.3536 380.3928
   380.3928 380.5446 380.5446 381.8505 381.9509 381.9509 382.4172 382.4563
   382.4563 383.6878 383.7372 383.7372 385.4007 385.9012 386.0017 386.0017
   386.1579 386.1579 386.3452 387.0140 390.0589 390.0589 390.4909 390.7520
   390.7520 391.1978 392.2443 392.5338 392.5338 393.6242 393.6242 394.2572
   394.3641 394.3641 394.7642 395.2172 396.3761 396.3761 397.0001 397.6209
   397.6209 398.1154 398.1154 398.8964 399.4058 399.4058 400.0245 401.4629
   401.5939 401.5939 402.4829 402.4829 404.6080 404.6080 405.3180 405.5307
   405.5307 405.7492 406.0004 406.2750 406.2750 406.6214 406.6214 407.5485
   407.5485 407.5538 408.1550 408.9477 409.6881 409.6881 410.2137 410.2886
   410.2886 411.2775 411.4387 411.4388 412.4414 412.4414 412.5643 413.1544
   413.3811 413.3811 414.0722 414.0722 414.9049 415.8716 416.0928 416.0928
   416.2756 416.2756 416.6850 416.9365 416.9365 417.0269 417.5615 417.5615
   418.4273 418.4308 418.4308 420.2612 420.3056 420.4132 420.4132 421.0097
   421.0097 421.7497 421.7525 421.7525 422.4707 422.5331 422.5331 423.0525
   423.0800 423.0800 423.1210 423.4512 423.4512 424.0044 424.0044 424.4072
   425.4931 425.7050 425.7050 426.5135 426.5334 426.5334 427.1684 427.7173
   427.7173 428.0348 428.4773 428.5505 428.5505 429.4144 429.7744 429.7744
   430.3631 430.9960 430.9960 431.5989 431.5989 432.0163 432.0163 432.2850
   433.2191 433.2191 433.7562 433.9275 433.9856 433.9856 434.4638 434.7892
   434.7892 435.0870 435.2392 435.2392 435.7317 435.9582 436.2974 436.2974
   436.8647 436.8647 436.8947 437.9324 438.3948 438.3948 438.4351 438.6689
   438.6689 438.8619 438.9405 438.9405 439.0867 439.3089 439.4637 439.4637
   439.6440 439.6440 439.9241 440.0712 440.0712 440.4538 440.4538 440.5500
   440.9163 441.2090 441.2249 441.2249 442.2671 442.6890 442.6890 442.8909
   442.8909 443.6485 443.8205 444.0486 444.0486 444.1740 445.0880 445.0880
   445.8354 446.1611 446.1611 446.3708 446.3708 446.7677 446.7967 446.8087
   446.8087 447.2750 447.2750 447.4695 447.7830 448.6418 448.6418 449.0471
   449.0471 449.2097 449.2630 449.2630 449.8192 450.2849 450.5231 450.5231
   451.1843 451.1843 451.5315 451.6276 451.8539 451.8539 453.5213 453.5213
   453.5358 453.6097 453.6732 453.6732 454.0366 454.0366 454.6315 454.6315
   454.9050 455.0379 455.0379 455.2105 455.2782 455.2782 455.3106 455.9849
   456.8124 456.8124 456.9255 456.9255 457.2476 457.2476 457.3214 457.4886
   457.5399 457.6908 457.6908 458.0578 458.5239 458.5239 458.9142 459.2791
   459.2791 459.8975 459.8975 460.0001 460.1162 460.1684 460.1684 460.5446
   460.6217 460.7061 460.7061 461.7242 461.7242 462.0781 462.4115 462.4115
   462.4727 462.9524 462.9524 463.0455 463.2730 463.2730 463.3784 463.4265
   463.4265 463.6399 464.0331 464.0331 464.3830 466.0336 466.0336 466.3223
   466.3223 466.3440 466.3704 466.8278 466.8278 467.0589 467.2260 467.2260
   467.4743 467.5932 467.5932 467.7501 468.7598 468.7598 469.5427 469.7631
   470.1106 470.1106 470.4952 470.4952 470.5196 471.2666 471.2666 471.5985

          k =-0.2500 0.2500-0.2500 (  2541 PWs)   bands (ev):

   -77.8743 -41.1600 -41.1563 -41.1563 -40.2738 -16.5492 -16.5429 -16.5429
   -12.0616 -12.0616 -12.0575 -12.0554 -12.0554   5.8086  12.6196  13.5308
    13.5308  15.0316  15.0316  15.2203  16.2058  16.2058  18.0741  18.0741
    18.6950  20.4542  20.4542  21.3100  23.4259  23.4259  24.7218  25.8841
    26.7796  26.7796  29.6794  32.3432  32.3432  34.6940  34.6941  36.8400
    38.1549  39.0019  42.9801  42.9801  43.9846  43.9846  44.2415  44.2415
    46.0075  46.0373  47.6165  48.4912  48.4912  50.1381  51.0110  51.0110
    51.6242  52.7225  52.7225  53.3387  54.5089  54.5089  55.6442  56.0895
    56.0895  58.8925  59.3120  59.3470  59.3470  60.4017  60.4017  62.6491
    63.3620  63.3620  64.5299  65.4847  65.4847  66.6110  66.6110  67.6968
    71.4110  71.4110  71.7503  71.9963  71.9963  73.2552  75.7696  76.0139
    76.4167  76.4167  76.9247  76.9247  79.5344  79.6377  80.1812  80.1812
    82.6353  83.3952  84.0519  84.0519  85.4953  85.7096  85.7096  87.5286
    88.2074  88.2074  88.8295  89.5782  89.5782  89.6370  90.3791  90.3791
    91.3228  91.3228  91.9824  92.6503  92.6503  93.6330  94.3771  94.3771
    94.4761  95.7176  96.5457  96.5457  98.0413  98.0413  98.7436  99.4471
    99.4471 100.2140 100.2140 100.6047 102.1035 102.1035 102.8073 103.7018
   103.7018 104.7764 104.7764 104.9208 105.7175 105.7938 106.7860 106.7860
   107.1785 108.3717 109.2303 109.2303 110.1365 110.1401 110.1401 111.1211
   111.1211 111.3498 111.8418 111.8418 112.1616 115.1102 115.1553 115.1553
   115.5231 116.6094 116.8616 116.8616 118.8101 118.8101 118.9416 119.5273
   119.5273 121.1703 122.2019 122.4595 122.4595 123.7637 123.7637 124.7902
   126.2607 128.3213 128.3213 128.4580 128.4580 129.3209 129.6383 129.6383
   130.0913 131.1536 131.1536 133.0166 133.0166 133.2397 133.7207 134.6181
   134.6181 134.8107 135.7635 135.7635 135.8961 135.9592 137.6013 137.8927
   137.8927 138.4924 138.4924 139.5347 140.5588 140.5588 140.9633 141.1222
   141.1222 142.1352 142.1352 143.7602 143.9521 145.2783 145.2783 146.0323
   147.0843 147.0843 148.0646 148.0646 148.4974 149.2211 149.2211 149.8568
   149.8797 151.0650 152.1381 152.1381 152.6483 153.5036 153.5036 154.1105
   154.1690 154.1690 154.6274 154.9257 155.4773 155.4773 156.1414 156.1414
   156.5493 157.1370 157.1370 157.4646 158.2393 158.2393 158.6479 158.7312
   158.7312 160.1375 160.5944 160.8817 160.9792 160.9792 163.3070 163.3070
   164.0477 164.0477 164.9870 164.9870 165.0301 165.0378 165.5604 165.5604
   165.9645 165.9645 166.2991 168.1664 168.3571 168.3571 168.7233 169.8692
   170.1747 170.1747 170.3054 170.3054 170.6335 171.6905 171.6905 173.0399
   173.2700 173.2700 174.4642 174.4642 175.2896 175.2896 176.4089 176.5091
   176.8962 176.8962 177.7957 178.9035 179.6234 179.6234 179.7126 180.5168
   181.1981 181.1981 181.3298 181.8920 182.0454 182.0454 182.7896 182.7896
   183.1951 183.2785 183.2785 185.7663 185.7663 185.8792 186.6596 186.6597
   186.9927 187.8904 187.8904 188.7445 189.0754 189.0754 189.7913 190.7909
   190.7909 192.4515 193.6308 193.6308 194.3236 194.3236 194.7047 194.8976
   195.3340 195.3340 195.5600 197.0407 197.3117 197.3117 197.9666 199.0710
   199.0710 199.1758 200.9326 200.9326 201.6747 201.6747 202.7688 204.4301
   204.4301 204.5125 205.0472 205.2168 205.2168 205.7504 206.4642 206.4642
   207.0818 207.1858 207.1858 207.9396 207.9898 208.5811 208.5811 209.7047
   209.7047 210.0589 210.7526 210.7526 211.1991 211.8455 211.8455 212.9007
   212.9007 213.0593 213.6953 214.3179 214.3179 214.5013 214.7827 214.7827
   215.8445 215.8445 215.8618 216.9334 216.9334 217.3591 217.8941 218.0739
   218.0739 218.4694 221.2090 221.2090 221.3816 221.6648 221.6648 223.6095
   223.9099 223.9099 224.4928 224.9587 224.9587 226.0583 226.6873 226.6873
   226.7958 227.6396 227.6396 228.1636 228.3606 228.3606 229.5495 229.5582
   229.5582 230.5399 230.5399 230.5713 230.7671 231.7394 231.7394 232.5041
   233.0725 233.0725 233.2643 233.2701 233.2701 234.1183 234.2903 234.2903
   235.7246 235.7935 235.7935 236.7186 236.8099 236.8741 236.8741 237.4807
   237.4807 237.8358 237.8358 238.1229 238.6682 238.8282 239.1069 239.1069
   239.8045 240.1861 240.1861 240.5449 240.5449 241.3099 241.6830 241.6830
   242.1425 242.6110 242.6110 242.9114 244.0688 244.5477 244.5477 244.8460
   245.3927 245.4029 245.4029 245.8889 245.8889 245.9416 247.1676 247.1676
   248.3186 248.3186 248.6158 248.9570 248.9570 249.1763 249.3453 249.5823
   249.5823 249.9376 250.3256 250.3256 250.6177 251.9514 251.9514 252.1145
   252.4823 252.4823 253.0599 253.5832 253.5832 254.2448 254.3041 254.3914
   254.3914 255.3134 255.9568 255.9568 256.2141 256.2141 256.2785 258.2254
   259.5375 259.5375 260.5393 260.5393 260.5986 261.3819 261.6682 261.6683
   262.0490 263.3968 263.3968 264.5906 264.5906 265.6917 265.8042 265.8042
   265.8524 266.0908 266.0908 267.4457 267.6110 267.7394 267.7394 268.8772
   268.8772 269.0456 270.1116 270.1116 270.4795 270.5664 270.5664 271.2188
   272.4761 272.4761 273.0089 273.0089 273.5782 273.9322 273.9322 273.9862
   274.0455 274.4881 274.4881 275.0984 275.0984 275.8363 276.1362 276.3700
   276.6720 276.6720 277.0199 277.0199 277.0907 277.1422 277.9486 277.9486
   278.1349 278.8412 278.8412 280.1606 280.5294 280.5294 282.9122 282.9122
   283.5551 284.3438 284.6366 284.6366 285.0292 285.0292 285.2064 285.6555
   286.3465 286.3465 286.6958 286.6958 286.7496 287.1448 287.1448 287.5142
   288.3272 288.3272 288.6579 288.8322 288.8322 289.8380 289.8864 289.8864
   291.1574 292.2198 292.2198 292.2696 293.0427 293.0427 294.4978 294.4978
   294.9087 295.4803 295.7554 296.4122 296.4122 296.9973 298.0880 298.0880
   299.5808 299.5808 300.1468 300.1468 300.4095 300.8136 302.1277 302.7028
   302.7028 303.8543 303.8543 304.0434 304.7281 304.9056 304.9056 304.9642
   305.7356 305.7356 306.6380 306.9832 306.9832 307.3163 307.4263 307.4263
   307.8014 307.8503 308.1352 308.1352 308.5529 308.5529 309.0460 309.0460
   309.0873 309.5404 310.3517 310.3517 310.3541 310.8908 311.2015 311.2015
   312.1667 312.1667 312.9294 312.9294 313.2049 313.3780 314.0442 314.0442
   314.2724 314.4077 314.4077 314.9893 315.5494 315.5494 315.9195 318.8183
   318.8183 318.8444 319.6902 319.6902 320.1435 320.5231 320.5231 320.8902
   320.8902 321.3333 321.3333 321.3365 321.4475 321.4944 321.9741 321.9741
   322.2479 322.3873 323.3151 323.4720 323.4720 325.2013 325.2013 327.1195
   327.1195 327.2838 327.5592 327.7340 327.7340 328.1632 328.1632 328.5454
   328.9549 328.9549 329.2558 329.3388 329.3388 329.4127 329.8439 329.8439
   330.6132 331.0086 331.0086 331.2209 331.6805 331.6805 331.9692 332.5676
   332.5676 333.6026 333.6030 333.6030 334.2655 334.2655 334.5348 334.7992
   334.7997 334.7997 335.1842 335.1842 335.2643 335.6740 336.5091 336.9025
   336.9025 337.3423 337.3423 337.8252 337.8252 337.8818 338.1758 338.6098
   338.6098 339.1146 339.2891 339.2891 339.3278 339.7499 339.7697 339.7697
   340.0287 340.4176 340.4176 341.0170 341.0170 341.3506 341.5116 342.2138
   342.2138 342.2553 343.2346 343.2346 343.7060 344.0459 344.0459 344.6247
   345.0190 345.0190 345.0604 345.6118 345.6118 346.2669 346.4585 346.4585
   347.0951 347.0951 348.0916 348.7800 351.0372 351.0372 351.2884 351.2884
   351.4852 352.1269 352.1269 352.6583 352.7100 353.0544 353.0544 354.1602
   354.1602 354.7421 354.9398 354.9398 355.0640 355.6924 355.6924 356.0737
   356.1545 356.2035 356.2035 356.3714 356.3714 356.6524 356.6964 356.9483
   356.9483 357.2146 357.2146 357.8966 358.0838 358.0838 359.5441 360.1092
   360.1092 360.1982 360.3392 360.4491 360.4491 361.1675 362.0652 362.1028
   362.1028 362.7592 362.7592 363.1703 363.2380 363.2380 364.3288 364.3891
   364.3891 364.5770 365.5252 365.5252 366.6658 366.6658 367.0481 367.1403
   367.3922 367.3922 367.7652 367.7652 367.7740 369.4510 369.4510 369.5424
   371.0420 371.9105 371.9105 372.3677 372.7692 372.7692 372.7974 373.0303
   373.0303 373.5180 374.0084 374.0084 374.2479 374.8283 374.8283 375.1647
   375.2535 375.2535 375.4947 375.9336 375.9336 376.1158 377.4142 377.6092
   377.6092 378.0914 378.0914 378.5762 378.5762 378.6508 378.6743 379.2365
   379.2365 379.4581 379.5943 380.7027 380.7027 381.5393 381.5393 381.6081
   381.6620 381.7470 381.7470 382.1774 382.1774 382.5831 383.0654 383.4085
   383.4739 383.4739 383.9988 383.9988 384.1672 385.8705 385.8705 386.0308
   386.3873 386.3873 386.5492 388.1986 389.2300 389.2300 390.2126 390.2126
   390.4417 390.9975 390.9975 391.0724 391.2328 391.2772 391.2772 391.4316
   391.4316 391.6388 392.9710 393.2122 393.2122 394.2164 394.2164 394.7738
   394.7738 394.9755 395.5946 395.5946 396.2437 397.0793 397.0793 397.7886
   397.7886 398.6317 398.6317 398.6794 399.1281 399.3823 399.3823 400.0508
   400.1092 400.7058 400.7058 401.1412 401.3759 401.3759 402.0737 402.0737
   402.4094 402.4269 402.4269 402.7286 403.0480 403.1521 403.1521 403.4544
   404.7512 404.7512 405.0415 406.2531 406.2531 406.9590 407.0446 407.4558
   407.4558 408.1512 408.7209 408.7209 410.9877 410.9877 411.1196 411.1196
   411.4593 411.6661 412.3381 413.5956 413.5956 414.5071 414.6078 415.0177
   415.0177 415.8263 415.8263 416.5935 416.5935 416.9393 417.1544 417.5196
   417.5196 417.8355 419.4529 419.4529 419.9575 420.3193 420.5780 420.5780
   420.8774 420.8774 420.9077 421.2315 421.2315 421.7309 421.9013 421.9013
   422.3774 422.3774 422.5383 422.6016 422.6016 422.7817 423.2379 423.2379
   423.3088 423.9319 423.9319 424.6899 425.0254 425.0254 425.2534 425.2534
   425.2701 425.6164 426.1479 426.1479 426.5118 426.9368 427.4555 427.4555
   427.7993 427.9279 427.9279 428.3373 428.3373 428.3453 428.8319 428.8319
   429.4405 430.5865 430.5865 430.9904 430.9904 431.0075 431.0769 431.0922
   431.1316 431.1316 431.6691 431.8733 431.8733 432.1530 432.1530 432.2766
   432.6607 432.6607 433.0969 433.2785 433.2785 433.8133 433.8487 435.0072
   435.0072 435.2191 435.7417 435.7477 435.7477 437.0189 437.0189 438.3681
   438.3681 438.3983 439.6097 439.6983 439.7086 439.7086 440.2124 440.2124
   440.3554 440.4525 440.4525 440.5029 441.1439 441.1439 441.8845 442.1788
   442.1788 442.2633 443.0102 443.0102 444.0272 444.0272 444.0571 444.4086
   444.4086 444.4825 445.0722 445.0722 445.2273 445.6350 445.6350 445.7947
   446.0691 447.7020 448.0127 448.0127 448.5868 448.5868 449.0678 449.0678
   449.1429 450.0886 450.0886 450.2721 450.3263 451.2066 451.2066 451.3160
   452.0545 452.0545 452.1923 452.1923 452.2139 452.4144 452.5180 452.7908
   452.7909 452.9330 452.9330 453.0521 453.1566 453.1566 453.2780 453.2780
   453.3183 453.3829 453.7344 453.8604 453.8605 455.0031 455.5067 455.5067
   455.7022 455.7022 455.7560 456.0522 456.7573 457.3082 457.3082 457.6815
   457.6815 458.1005 458.6552 458.6552 458.7308 460.6468 460.6468 460.7744
   461.0892 461.0892 461.2302 461.7909 462.3950 462.3950 463.0821 463.0821
   463.2383 463.2580 463.3151 463.3151 463.6596 463.7797 463.7797 464.4804
   464.4804 464.8381 464.8381 464.9283 464.9688 465.2152 465.2152 466.4776
   467.4974 467.4974 468.2780 468.4483 468.4483 468.7215 469.2964 469.3555
   469.3555 470.0993 470.0993 470.8203 470.8203 470.8267 470.9526 471.9443
   471.9443 472.0633 472.0633 472.1710 472.1710 472.3652 472.9007 472.9007
   473.4283 473.4283 473.6521 473.9913 474.1595 474.1827 474.1827 474.2825

          k =-0.3750 0.3750-0.3750 (  2530 PWs)   bands (ev):

   -77.8743 -41.1625 -41.1564 -41.1564 -40.2709 -16.5562 -16.5455 -16.5455
   -12.0580 -12.0580 -12.0569 -12.0529 -12.0529   6.4793  11.3561  13.3467
    13.3467  15.0539  15.0539  15.0552  16.2520  16.2520  18.1599  18.1599
    18.5070  20.3719  20.9512  20.9512  22.5679  22.5679  26.0600  27.2408
    27.7928  27.7928  32.2225  32.2225  32.3238  34.3473  34.6908  34.6908
    39.8124  40.0056  40.5355  40.5355  42.1040  44.0133  44.2291  44.2291
    44.6343  44.6343  47.3427  47.5897  47.5897  49.7598  50.4688  50.4688
    50.5120  51.9076  54.3450  54.3450  55.1226  55.3862  55.3862  55.7102
    55.7102  61.1841  61.1841  61.7797  62.5969  62.5969  62.9981  63.8093
    64.7563  64.7563  65.8566  65.8566  66.2953  68.1830  68.1830  69.1499
    70.6485  70.6485  71.6267  71.6267  72.0115  72.0158  72.9183  72.9183
    73.8904  73.8904  75.2377  76.1346  77.0402  77.0402  78.6716  80.1207
    80.5301  82.5789  83.1175  83.1175  84.0749  85.3307  85.3307  87.2237
    87.2343  87.2343  88.5182  89.2397  89.2397  89.7384  90.9075  90.9075
    91.6328  91.6328  92.5055  93.6250  93.6250  93.7484  94.5873  94.5873
    95.4117  96.1116  96.7999  96.7999  97.0634  99.3482  99.3482  99.6021
    99.9285  99.9285 101.7811 101.7811 102.0559 102.0559 102.0780 103.5268
   104.0842 104.3797 104.3797 105.3600 107.1289 107.1289 108.0735 108.5707
   108.5707 109.4035 109.9757 109.9757 110.2772 110.2772 111.6358 112.0360
   112.0360 112.2407 112.2407 112.9329 113.4729 114.4853 114.4853 115.5727
   115.5727 116.1700 118.0020 118.2170 118.2170 119.0293 120.2964 120.2964
   120.4350 120.7947 122.2887 123.3201 123.3201 124.7315 125.0703 125.0703
   125.6569 125.6569 127.1935 127.9790 128.0473 128.0473 128.8926 130.0779
   130.9946 130.9946 131.9408 131.9408 132.0788 133.1265 133.1265 134.1218
   134.3181 134.3181 134.8028 134.8028 135.3336 135.6343 135.6343 136.3341
   136.5266 138.0910 138.0910 138.2661 138.7416 138.7416 139.5099 139.5099
   141.3123 141.4764 143.0021 144.4414 144.4414 145.6308 145.6308 146.6821
   146.6906 146.6906 147.3223 147.3223 148.1763 149.0555 149.0555 149.1461
   149.7384 150.3994 150.3994 150.7997 151.4057 152.0032 152.0032 152.2431
   152.2431 152.7052 153.8072 153.8072 155.1800 155.1800 155.3389 155.5778
   155.7701 155.7701 157.0493 157.0493 157.8258 158.5913 158.9754 158.9754
   159.2960 160.6538 161.3414 161.3414 161.9120 162.6483 162.6483 163.2989
   163.2989 163.5807 164.3941 164.3941 164.6547 164.8016 166.0524 166.0524
   166.2261 166.4273 166.4273 167.8794 168.5358 168.6590 168.6590 169.5890
   169.5890 170.7279 170.7279 171.6793 172.0719 172.0719 172.9419 174.0081
   174.6100 175.5258 175.5258 176.5437 176.8612 176.8612 177.1329 178.1941
   178.1941 179.1123 179.3019 179.3019 180.0505 180.9545 180.9545 181.3400
   181.8934 181.8934 183.2751 183.2751 183.8630 184.6740 184.6741 184.7034
   185.5147 185.8553 185.8553 185.9624 186.9296 186.9296 187.2756 188.3947
   188.3947 188.7246 188.9587 188.9587 189.1733 189.8496 192.0080 192.0080
   192.5950 192.5950 193.2537 193.2537 194.1532 195.3179 195.3730 195.3730
   196.2298 196.2298 197.0218 197.4827 197.6360 197.6360 198.8698 198.8698
   200.4224 200.9348 201.2215 201.4116 201.4116 201.7223 201.7223 202.1137
   202.2244 202.2244 203.3546 203.3546 203.4909 204.2865 204.8740 204.8740
   205.1327 205.7306 205.8381 205.8381 206.7313 206.7313 208.9586 209.4578
   209.4578 210.2600 210.2600 210.6889 210.6889 211.3512 211.8990 212.3949
   212.3949 212.4099 212.8657 213.4567 213.4567 213.6639 214.0037 214.0238
   214.0238 214.8298 214.8298 215.2333 215.8505 215.8505 216.9025 218.5159
   218.5159 218.7074 219.5524 219.5524 219.8718 219.8718 219.9829 220.9493
   221.2174 221.2174 222.7849 222.9902 222.9902 223.0581 224.4800 224.4800
   225.0674 225.1938 225.1938 226.2005 226.2988 226.6917 226.6917 228.0861
   228.0861 228.5505 228.7418 228.7418 229.5592 229.5592 230.5088 230.7801
   231.2360 231.2360 231.8109 232.2320 232.2320 232.3073 232.3073 232.4740
   233.9043 233.9044 234.6618 234.6619 235.2189 235.2189 235.3038 236.2511
   236.2511 238.0826 238.4638 238.4638 239.9896 240.0187 240.0187 240.6934
   240.6934 240.7499 241.2381 242.0383 242.0383 242.0513 243.1161 243.7172
   243.7172 245.2601 245.3359 245.3359 246.1838 246.1838 246.5543 246.7007
   246.7007 246.7471 247.3065 247.3065 247.6152 247.7701 247.8967 247.8967
   248.0085 248.6457 248.6457 249.0980 249.7360 249.7360 250.0663 251.0080
   251.0080 252.0856 252.0856 252.3290 252.8734 253.2912 253.2912 253.5647
   254.5088 254.5088 254.7389 255.3056 255.3056 255.6039 255.9017 255.9017
   257.0262 257.0262 257.6117 258.8204 259.0290 259.0290 260.4451 260.6710
   260.6710 261.4113 261.5317 261.5317 262.4933 262.4933 262.6310 262.9127
   263.1677 263.1677 265.0178 265.1684 265.3967 265.3967 266.7947 266.7947
   267.6893 268.1693 268.1693 268.3813 268.3813 268.5017 269.2394 269.3719
   269.5713 269.5713 270.3266 270.3266 270.7772 270.7772 270.7818 271.7948
   271.8664 271.8664 271.9430 272.7763 273.6588 273.6588 273.9326 274.2904
   274.2904 275.0932 275.7277 275.7940 275.7940 276.3589 276.3589 276.7546
   278.1903 278.2477 278.2477 278.9075 278.9075 279.3242 280.0016 280.0016
   280.2137 280.7107 280.7107 281.2677 281.2677 281.6777 281.6922 281.6922
   281.8776 283.6106 284.0354 284.0354 285.5704 285.5704 285.5903 286.5721
   286.5722 286.8980 287.0504 287.0504 287.3699 287.3699 287.4866 288.0487
   288.0487 288.5652 288.6666 288.6666 289.3302 289.6373 289.7686 290.1531
   290.1531 290.7765 290.7765 291.0392 291.3339 291.6837 291.7149 291.7149
   293.0885 293.0885 293.2493 294.8632 294.9048 294.9048 296.0627 296.0627
   296.2209 296.4635 296.4635 296.5299 297.9211 298.6243 298.6243 299.3645
   299.3645 299.5440 300.2177 300.7601 300.7601 302.1257 302.1257 302.8804
   304.2886 304.2886 304.5485 305.1845 305.1845 306.7028 306.7028 307.7493
   307.8585 307.8830 307.8830 308.4915 308.4915 308.6663 308.6663 309.1103
   309.5293 309.9944 309.9944 310.2295 310.2295 310.5040 311.5930 311.5930
   311.5932 312.5896 312.6510 312.6510 312.6653 313.3493 313.6582 315.1680
   315.1680 315.1997 315.2731 315.2731 316.2376 316.2376 316.7907 317.1758
   317.5908 317.5908 318.0531 318.0531 318.2286 318.6905 318.6905 320.3054
   320.4169 320.5027 320.5027 321.0093 321.0093 321.1753 321.9073 322.4344
   322.4344 323.9288 324.2896 324.2896 325.9564 325.9564 326.4542 326.5518
   326.5518 326.5814 326.8671 326.8671 327.4347 327.5443 327.8147 327.8147
   328.1178 328.7863 328.7863 329.2024 329.2024 329.7191 330.0444 330.0444
   330.1938 330.1945 330.6817 330.6817 331.7437 332.0667 332.2865 332.2865
   332.6679 332.9001 332.9001 333.3046 333.3046 333.3461 333.6867 333.6867
   334.0774 334.0774 334.2157 334.4815 335.0270 335.0270 335.4214 335.6437
   335.6437 335.9975 335.9975 336.0015 336.5625 337.1940 337.1940 337.4824
   337.4824 337.5649 337.7139 337.7139 338.9049 339.1932 339.3069 339.3069
   340.0574 340.0574 340.1954 340.8017 340.8017 341.0311 341.1104 341.7725
   342.0578 342.0578 342.7740 343.1946 343.1946 343.3411 343.3411 343.4869
   345.6005 345.6005 345.9037 345.9037 346.3512 347.2826 347.4472 347.4472
   348.6949 348.6949 349.0911 349.2153 349.2153 349.8444 349.9524 349.9524
   350.2990 350.2990 350.6679 351.6858 352.3703 352.3703 353.3729 353.5278
   353.5278 354.3727 354.6748 354.6748 355.5998 355.8097 355.8097 356.0052
   356.0052 356.0103 356.3682 357.0264 357.0264 358.3324 358.9907 358.9907
   359.8856 360.6698 360.6698 360.9658 361.5536 361.5536 361.9624 362.3870
   362.3870 362.4592 362.9464 363.1890 363.1890 363.5893 364.1705 364.1705
   364.2669 364.5710 364.5710 364.7658 364.8586 364.8586 365.8266 365.8266
   366.0193 366.3052 367.3739 367.3739 368.2201 368.2201 368.5694 369.0696
   369.0878 369.1624 369.1624 369.7447 369.7447 370.0201 370.2982 370.2982
   371.2005 371.9108 371.9383 371.9383 372.7614 373.3450 373.3450 374.1519
   374.1519 374.2885 374.5096 374.5096 375.0842 375.1795 375.1795 375.2183
   375.7704 376.3464 376.3464 377.0494 377.0494 377.8525 378.2890 378.2890
   378.3077 378.9007 378.9857 378.9857 379.1589 379.1589 379.3396 379.5647
   379.5647 380.2866 380.8982 380.8982 380.9793 381.5024 381.5024 383.9289
   383.9289 384.3144 384.3895 384.3895 385.0587 385.1602 385.1602 385.5182
   386.3673 386.3674 386.8930 387.0009 387.4268 387.4268 387.7922 387.9413
   387.9413 388.6873 388.6873 388.7443 389.3598 389.3598 389.5857 390.2949
   390.2949 390.6641 391.1124 391.1124 391.4666 391.8386 391.8386 391.8739
   392.1144 392.3497 392.3497 392.6251 394.0378 394.0841 394.0841 394.1033
   394.2024 394.2024 396.0601 396.0601 396.5015 396.6443 396.6443 396.8016
   397.2747 397.2747 398.5850 399.6366 400.2202 400.2202 400.9866 400.9866
   401.6181 401.6321 401.7472 401.7472 401.9432 401.9432 402.8026 402.8679
   402.9822 403.0442 403.0442 403.1433 403.1433 404.1118 405.2213 405.8294
   405.8294 406.2060 406.2060 406.5108 408.0572 408.0572 408.4651 409.6682
   410.0365 410.0365 410.4422 410.4422 411.2570 411.2570 411.6382 411.8951
   411.8951 411.9875 412.1078 412.1078 412.5785 413.1769 413.4728 413.4728
   413.7262 414.1439 414.1439 414.8799 415.0577 415.0577 415.6445 415.6445
   415.8034 416.3239 416.4294 416.4294 416.5288 416.5288 416.7848 416.8062
   416.9730 416.9730 417.6133 417.6133 417.8690 417.9962 418.7595 418.7595
   419.2252 419.2252 419.6184 419.6184 419.7980 420.3600 420.3600 420.4156
   420.5078 421.0782 421.2260 421.2260 422.0976 422.2027 422.2027 422.3582
   422.6510 422.6510 422.7847 422.9577 422.9577 423.2583 423.9229 423.9229
   423.9987 424.5454 425.0409 425.0409 425.7789 425.7789 426.1042 426.7176
   427.0527 427.2490 427.2490 427.7796 427.7796 428.2054 429.0038 429.0468
   429.0468 429.7241 429.7241 430.9206 430.9206 431.4405 431.4980 431.4980
   431.6876 432.6179 432.6179 432.6858 433.1963 433.1963 433.4334 433.5228
   434.1084 434.1084 434.5852 434.5852 435.1366 435.6095 437.1900 437.1900
   438.1391 439.1142 439.3169 439.3169 440.0324 440.0324 440.1168 440.5144
   440.6794 440.6794 440.8045 440.8045 441.0775 441.0775 441.3234 441.4390
   441.4390 441.4735 442.3193 442.3193 442.7167 442.7167 442.8331 443.0817
   443.0817 443.2783 443.3130 443.9344 444.5688 444.5688 445.1335 445.1335
   445.2371 445.4155 445.4155 445.7222 446.2144 446.2219 446.2219 446.3748
   446.3748 447.6085 449.1976 449.1976 449.4832 449.4832 449.6273 449.6492
   450.6292 450.6292 451.0763 451.9119 451.9119 452.4736 452.8159 452.8159
   453.1614 453.1614 453.2757 453.7019 453.7515 453.7515 453.7861 453.8603
   453.8603 454.9749 454.9749 455.3947 455.3947 455.5606 455.6912 455.9033
   455.9033 456.1977 457.4058 458.2688 458.2688 458.5213 458.7426 458.7426
   459.0466 459.0466 459.1548 459.1595 459.6238 459.6238 459.7455 460.1655
   460.1655 460.5306 460.5306 460.5374 460.8811 460.9549 460.9549 461.2535
   461.3434 461.3434 461.8352 462.4355 462.4355 462.6094 463.0947 463.9219
   463.9219 464.8600 464.8600 465.0229 465.3346 468.2324 468.7149 468.7149
   468.9746 468.9746 469.0588 469.3178 469.3178 469.4878 469.5473 469.5925
   469.5925 470.2011 470.2011 470.2558 470.7342 470.7342 471.0934 472.8086
   473.6619 473.6619 474.6108 474.6108 475.5043 475.5043 475.6603 475.7462
   475.9963 476.6337 476.6337 476.8757 477.0460 477.0460 477.2460 477.2460

          k = 0.5000-0.5000 0.5000 (  2512 PWs)   bands (ev):

   -77.8743 -41.1636 -41.1564 -41.1564 -40.2696 -16.5592 -16.5466 -16.5466
   -12.0567 -12.0567 -12.0567 -12.0516 -12.0516   6.8575  10.7420  13.2796
    13.2796  15.0332  15.0332  15.0535  16.3008  16.3008  18.2336  18.2336
    18.3863  20.0503  21.1034  21.1034  22.2342  22.2343  26.1974  28.8143
    28.8143  29.1939  30.7060  30.7060  31.1687  35.9798  36.8851  36.8851
    38.0297  38.0297  38.2085  40.3804  42.4456  43.0485  44.3940  44.3940
    45.4523  45.4523  46.4953  47.2292  47.2292  48.7923  49.2539  49.2539
    50.3619  51.7811  54.6636  54.6636  55.0302  55.1169  55.1169  59.3136
    59.3136  60.1803  60.1803  62.3358  63.6711  63.6711  64.4041  64.4041
    65.2805  65.9630  65.9630  66.9913  67.5843  67.5843  67.9129  67.9429
    68.5888  70.1802  70.1802  71.3393  71.3393  71.8600  73.8496  73.8557
    73.8557  74.8565  74.8565  76.2647  76.2647  77.1564  78.1218  78.1218
    78.4890  79.3871  82.3460  82.6694  84.3945  85.3882  85.4999  85.4999
    86.9250  86.9250  88.9914  90.0398  90.0398  90.5097  91.1853  91.8050
    91.8050  92.2882  92.2882  93.3727  93.3834  93.3834  94.3233  95.6312
    95.6312  96.0675  96.0675  96.5167  98.5079  98.5079  99.4270  99.4270
    99.7298  99.7980 100.6150 101.5502 102.4589 102.4589 102.8704 103.9068
   103.9068 104.0833 104.3919 104.3919 106.1260 106.1260 107.9199 107.9199
   108.7147 109.4941 110.3878 110.3878 111.7367 111.7367 112.3807 112.5032
   112.5032 114.3546 114.3546 114.4558 116.4280 116.4280 117.1051 117.6362
   117.6878 117.6878 118.5515 118.5515 118.9872 119.3685 119.3685 120.4237
   120.5121 120.8678 120.8678 121.4691 122.2677 122.2677 122.3870 124.3350
   125.5945 125.5945 125.7929 126.1266 126.7853 127.3911 127.4985 127.4985
   128.1993 128.1993 129.2367 129.2367 130.2871 133.8281 133.9689 133.9689
   135.0565 135.0565 135.5837 135.8958 135.9543 135.9543 136.3612 136.3612
   138.9824 140.1973 140.6069 141.2281 141.2281 141.5040 141.5040 142.0063
   142.0063 142.7088 142.7088 143.2324 143.5900 143.6128 143.6128 144.1499
   144.1499 144.9027 147.0794 147.3585 148.3694 148.3694 148.4664 149.1573
   149.1573 149.9154 149.9154 150.0985 150.2630 150.3389 150.3390 151.1514
   151.1514 153.6631 153.6631 154.3155 154.3155 154.6417 155.1755 155.1850
   155.1850 155.3619 156.5329 156.5329 157.0680 158.0572 158.0572 159.0674
   159.9738 159.9738 160.3201 160.3201 160.5674 161.9718 163.0033 163.9155
   163.9155 165.1215 165.1215 165.1568 165.9637 166.2692 166.2692 166.6705
   166.6705 166.8939 167.2104 167.6382 167.9280 171.0566 171.0566 171.3182
   171.5427 171.5427 172.1972 172.3494 172.3494 172.3597 172.6170 173.0898
   173.3981 173.3981 173.7082 173.7082 175.4151 175.4151 176.0855 176.1774
   176.1774 178.4638 178.7464 178.7464 182.6271 182.6271 182.9800 183.1384
   183.1384 184.5065 184.7595 186.1621 186.1621 186.2309 186.4648 186.5537
   186.5537 187.2175 187.2175 187.5210 187.5210 187.9480 188.0765 188.0901
   189.4924 189.4924 191.4505 191.4505 191.7668 191.7668 192.1899 192.4864
   192.9761 192.9761 193.4686 194.0746 194.2018 194.2018 194.8794 194.9514
   195.0301 195.0301 196.8225 196.8225 197.6514 198.0979 198.0979 198.2013
   198.3016 198.3016 199.1233 199.1233 200.4342 200.4342 200.8281 200.8311
   202.2918 203.0262 203.0263 203.6594 203.6594 205.3882 205.3882 205.6948
   206.7843 206.7843 207.1562 207.1562 207.6567 207.7856 207.7856 207.9209
   208.6099 208.6099 210.1551 210.1551 210.2786 210.3103 211.3002 211.5302
   211.5302 211.8156 212.1257 212.1257 212.6719 212.6719 213.0103 213.0246
   213.4032 214.4637 214.7199 214.7199 215.3374 215.3374 215.8884 215.8884
   216.7621 216.7621 216.7841 217.7280 219.0167 219.0167 220.3160 221.5036
   221.5036 221.5528 221.5528 221.7043 221.7092 222.0727 222.0727 222.2127
   222.8805 224.2710 224.7862 224.7862 225.8593 225.8593 226.1684 226.5383
   228.3395 228.3395 229.7059 229.7059 230.2904 230.2904 230.3912 231.4259
   231.4259 231.8115 232.2482 233.1740 234.1027 234.1027 234.1484 234.7986
   235.1386 235.1386 235.5212 235.5255 235.5255 235.8068 235.8068 236.6774
   237.2736 237.3888 237.3888 237.5332 237.5332 237.9925 238.1457 238.8530
   238.8530 239.2172 239.2172 240.8441 241.3836 241.3836 241.5984 241.5985
   243.5401 243.5401 244.3839 244.6004 244.6004 245.7309 246.9074 246.9074
   247.6230 247.7581 247.7581 248.0985 248.1713 248.1713 249.0231 249.6920
   250.4469 250.4469 251.5667 251.5667 251.6931 251.7379 251.7379 251.7857
   252.3231 252.3421 252.3421 252.9079 253.8718 253.8718 254.8250 255.8367
   255.8367 256.1207 256.2355 256.5693 256.5693 257.7640 257.7640 257.8582
   258.4150 258.4150 258.9756 259.4693 259.4693 260.6851 261.1835 261.1835
   262.1604 262.1604 262.3016 262.8060 262.8308 262.8308 263.0593 263.1561
   263.8005 264.5765 264.5765 264.9239 265.0563 265.0563 265.2085 265.7460
   265.7460 266.1954 266.8047 266.8047 267.9319 267.9319 268.0738 268.6652
   269.5390 269.5390 269.8352 270.0018 270.8458 270.8458 272.7176 272.7176
   273.2488 273.4955 273.6119 273.6119 273.8932 273.8932 274.4172 274.4172
   275.0222 275.0280 275.2022 275.2022 275.8781 275.8781 276.0850 276.0850
   276.5374 276.7597 276.8979 277.9378 277.9378 278.5764 278.5764 279.3553
   280.2048 280.2048 280.7977 281.1999 281.1999 281.3253 281.9008 281.9008
   282.5412 282.5527 282.6086 284.7231 284.7232 285.5718 285.5718 285.8785
   285.8931 285.9783 285.9783 286.3776 286.4709 286.4709 287.9461 287.9461
   288.0533 288.7518 289.2871 289.2871 290.6915 290.6915 290.9798 291.1455
   291.1455 291.3445 293.0572 293.0572 293.0878 293.8289 293.8289 294.3243
   294.3243 296.3919 296.3919 296.4117 296.7598 296.7598 297.4427 297.4427
   297.5922 297.9421 297.9613 297.9930 298.4778 298.4778 298.6359 298.8743
   298.8743 299.6378 299.6378 300.9411 301.0141 301.0141 301.4137 301.4137
   302.3333 302.5289 302.5289 302.6970 303.5875 303.5875 303.5976 303.7078
   304.8780 305.0846 305.5268 305.5276 306.0170 306.0170 306.7194 306.7194
   308.1940 308.9025 308.9025 309.0054 309.0054 309.4344 310.2612 310.2612
   311.2167 311.2167 311.7695 312.4703 312.4703 312.5699 312.7078 312.7078
   312.8485 312.8656 314.3323 314.3323 316.2339 316.2339 316.7460 318.8426
   319.4341 319.4341 319.9748 320.0221 320.0221 320.2882 320.2882 320.6151
   321.7728 321.9518 321.9518 322.7029 322.7029 322.9613 323.4493 323.4493
   323.5381 323.6243 323.6243 323.9745 324.1977 324.1977 324.9738 325.2461
   325.2461 325.4139 326.2583 326.4428 326.4428 326.5366 326.5366 326.7144
   326.9559 326.9559 327.5117 327.5117 327.5956 327.6527 328.0321 328.0321
   328.4830 328.4830 329.1430 329.1729 329.4643 329.4643 330.5157 330.5157
   330.5169 331.0694 331.8662 331.8662 331.9338 332.1924 332.1924 332.4409
   332.8849 332.8849 333.5988 333.5988 333.7376 333.8064 334.0525 334.0525
   334.0860 336.6193 336.6193 338.0088 338.0791 338.0791 339.4116 339.4116
   339.5400 340.4932 340.4932 341.3477 341.4941 341.4941 341.5546 341.9684
   341.9684 342.3483 342.7858 343.1555 343.4607 343.4607 344.0109 344.0109
   344.0776 344.0776 344.1220 344.1387 344.2243 344.4369 344.4369 344.9439
   345.5305 345.5305 345.7808 345.7808 345.9435 346.0581 346.5782 346.6126
   346.6126 347.3832 347.3832 347.5803 349.0751 349.5516 349.5516 350.6368
   350.9337 350.9337 351.0874 351.0874 352.0220 352.0962 352.0962 352.1218
   352.5756 352.5756 352.6121 352.6627 354.5781 354.5781 355.0001 355.7612
   355.7613 356.1810 359.8877 360.1039 360.1039 360.3360 360.3360 361.1117
   361.6877 361.6877 362.5699 362.5699 363.4701 363.4793 363.4793 363.9456
   363.9456 364.1178 364.1178 364.1441 364.2748 364.4261 364.4261 364.6972
   364.6972 364.7286 365.3792 365.3792 366.5038 366.6391 366.8372 366.8372
   367.0021 367.0021 367.5749 367.8671 367.8671 367.9145 367.9948 367.9948
   368.0183 368.0432 368.9398 368.9398 369.2752 369.2752 369.7698 369.9016
   370.6402 370.6402 371.3025 371.3025 371.6759 371.6759 371.7162 372.1956
   372.9118 372.9118 373.0612 373.4466 373.4466 374.1240 375.3362 375.3362
   376.1878 376.2068 376.2925 376.2925 378.9182 378.9182 379.6495 379.6543
   380.5238 380.5238 380.7142 380.7142 381.2436 381.3623 381.5813 381.5813
   382.4501 382.4501 382.6008 382.6215 382.6215 382.6717 382.7961 383.7030
   383.7030 383.8192 384.0655 384.0655 384.4656 384.4678 384.4678 384.9004
   384.9004 385.3502 385.4319 385.4319 385.4485 385.4902 386.0017 389.1148
   389.4212 389.4212 389.7917 389.7917 390.5552 390.5552 390.6234 390.6259
   391.4247 391.4247 392.0813 392.7019 392.7019 392.8130 393.1446 393.1446
   393.5681 393.5681 394.3498 394.3952 394.6927 395.0764 395.0764 395.2656
   395.2656 395.5668 395.5668 395.8945 396.2222 396.3956 398.0147 398.0147
   400.1133 400.2416 400.4208 400.4208 400.8569 400.8569 401.8901 401.8901
   402.1241 402.1680 402.1779 402.1982 402.1982 402.2955 402.4193 402.4193
   402.9959 402.9959 403.0672 403.3177 403.3177 403.3265 405.0417 405.0417
   405.0891 405.0969 405.3229 405.3229 406.2848 406.2848 407.2698 407.2698
   407.4160 407.4475 407.8452 407.8452 407.8975 407.8975 408.1520 408.1618
   408.5637 408.5637 410.0565 410.8800 411.4413 411.4413 412.3851 412.5941
   412.5941 414.3635 414.3635 414.4244 414.6915 414.6915 415.1781 415.1781
   415.2519 415.2667 415.3810 415.9247 415.9247 416.2024 416.2024 416.8009
   417.4550 417.4550 417.5237 418.1896 418.1896 418.5211 419.1389 419.1389
   419.2623 419.8608 420.6766 420.6767 421.0998 421.0998 421.2223 421.4251
   421.4251 421.4468 422.0228 422.0228 422.0526 422.5819 422.6218 422.6303
   422.6303 423.0594 423.1887 423.1887 423.3272 423.3272 423.4324 423.4324
   423.6231 423.7588 423.7588 424.0981 425.3322 425.3322 425.6426 426.9099
   426.9099 426.9208 427.2151 427.3562 427.3761 427.3761 427.8241 427.8241
   428.8932 428.8932 429.7007 429.7007 430.2147 430.2147 430.4027 430.6663
   431.2628 431.2628 431.3519 431.3868 432.5527 432.6279 432.6279 433.0598
   433.0598 433.1068 433.1068 433.7924 433.7938 434.7490 434.7490 435.5303
   435.9592 435.9592 435.9922 435.9922 437.8315 437.8315 438.1150 438.1154
   439.9720 440.4098 440.4098 440.5158 441.0580 441.0580 441.2207 441.8388
   441.8388 442.4665 442.9923 444.1414 444.1414 444.1893 444.8811 444.8811
   445.3372 445.3372 445.4136 445.4226 445.5666 445.5666 445.6100 445.8609
   446.1201 446.1201 446.6948 446.6948 446.7143 446.7386 446.7386 446.7981
   446.9029 446.9029 447.1104 447.1292 447.1342 447.1342 447.4042 447.4042
   447.6140 447.8010 450.1606 450.1606 451.4859 451.4859 453.0187 453.0187
   453.5020 453.5914 453.6704 454.0872 454.0872 454.1416 454.3770 454.6966
   454.6966 454.8654 454.8654 455.2418 455.5255 455.5339 455.5339 455.6431
   455.6431 455.8041 455.9863 455.9863 456.0629 456.0629 456.0871 456.1138
   459.3095 459.3095 459.4113 459.4113 459.6021 459.6021 459.6141 459.6378
   459.6646 459.7010 459.7010 459.7575 459.8364 459.8364 459.8797 459.8797
   460.9870 460.9870 461.4088 461.4088 461.5157 461.5181 461.5362 461.5362
   461.9562 461.9562 462.0506 462.1431 465.5596 465.5596 467.6278 467.6278
   467.6735 467.6950 467.8054 467.8054 468.5291 468.5291 468.9178 468.9505
   470.6497 470.6497 471.7885 471.7885 472.5889 472.5889 472.8243 473.3828
   473.4519 473.4519 473.6813 473.7310 474.1343 474.7824 474.7824 474.8539
   474.8539 475.1514 475.1772 475.1904 475.1904 475.2364 475.2364 475.3260

          k = 0.0000 0.2500 0.0000 (  2549 PWs)   bands (ev):

   -77.8743 -41.1577 -41.1563 -41.1563 -40.2764 -16.5440 -16.5400 -16.5400
   -12.0668 -12.0643 -12.0590 -12.0567 -12.0567   5.3612  13.2746  13.9349
    13.9349  14.8283  14.8885  15.9745  16.1153  16.1153  17.9785  18.1544
    19.1904  19.5857  19.5857  22.4326  23.5754  24.2769  24.2769  24.3707
    26.5019  27.7536  27.7536  29.6035  30.9682  35.8536  36.6199  37.8110
    37.8110  40.2499  42.0764  42.0764  44.7321  45.2337  46.1856  46.3291
    46.3291  47.9804  47.9804  48.5748  49.3482  49.3482  50.0317  50.7951
    51.2556  52.3853  53.9193  53.9193  54.4243  55.9823  55.9823  56.0600
    57.5404  57.5404  57.6719  57.9726  58.2572  59.0223  59.5447  59.5447
    61.6694  62.0593  62.6193  62.6193  63.2640  65.0926  65.7904  65.7904
    68.7902  70.7389  73.4060  75.2316  75.4490  75.4490  76.3671  76.3671
    78.0778  79.7948  80.1250  80.1477  80.1477  81.7396  82.5195  82.5195
    82.8237  83.8884  83.8884  84.2193  84.9996  85.3395  86.1230  88.1172
    88.1172  88.6855  88.9908  89.2633  89.4994  89.4994  90.5461  90.5461
    91.1157  91.6150  92.1470  92.7508  93.1470  93.8124  93.8124  94.0202
    95.0624  95.0624  95.4027  95.9594  95.9594  97.5028  97.6495  97.6495
    97.9524  98.7684 100.1047 100.1047 100.6261 101.0840 101.3014 101.8146
   101.8146 102.2244 103.3644 105.1847 105.3494 105.3494 105.9552 107.5272
   109.0208 109.1514 109.1514 110.2702 110.2702 111.1510 111.1671 111.1671
   111.8865 111.9827 112.8361 112.8361 114.4739 114.4739 114.7026 115.5918
   116.4455 117.2472 117.9390 117.9390 117.9771 118.1906 118.5760 118.9189
   119.3354 119.7133 119.7134 120.9170 120.9170 122.1149 124.3773 124.5090
   124.8320 124.8320 125.7253 126.2458 126.8713 127.5858 128.1696 128.1696
   128.7428 130.3837 132.0990 132.0990 132.4435 132.4435 133.5953 133.5953
   133.8771 134.8421 135.8336 138.4077 138.4077 139.9694 140.2268 140.2268
   140.6139 140.7598 141.6607 141.6607 142.9414 143.2781 143.4792 144.2939
   144.6558 144.6888 144.6888 145.7045 145.7045 145.7124 146.1244 146.8669
   146.8669 148.0779 148.6207 149.2231 149.2231 149.7780 150.5580 151.0837
   151.1587 151.3902 151.3902 151.7885 151.9613 151.9613 152.0892 152.7162
   152.7162 152.8832 153.9780 154.5923 155.4977 155.5517 155.5517 155.9058
   156.0808 156.0808 157.3207 159.0048 159.0048 159.0164 159.0739 159.8279
   159.9945 159.9945 160.0633 160.6565 160.6565 160.7556 160.9172 162.7431
   162.7431 164.2268 164.9144 165.2254 165.2254 165.6453 165.8025 166.1119
   166.1119 166.2935 166.7021 167.3062 167.3062 167.8420 167.9222 168.2359
   168.6784 169.2491 169.2491 169.3369 170.1814 170.8614 171.4127 171.4127
   171.4248 171.6499 171.9610 171.9610 173.1716 173.9351 174.0677 175.3791
   175.3791 177.1439 177.1439 177.1950 178.8921 180.1982 180.2109 180.2109
   180.4423 180.6327 180.8428 180.8428 182.2100 182.7298 182.7298 183.1546
   183.2781 184.0654 184.2558 184.2558 184.4461 185.6137 185.6137 186.6396
   186.6396 187.3260 187.9635 188.1676 188.1676 188.5293 189.0665 189.3143
   192.3611 192.4246 193.3736 193.6340 193.6340 194.3125 194.7646 194.7646
   194.9165 196.3549 196.3549 196.8074 197.5243 197.6551 197.6551 197.9900
   198.9803 199.5405 199.5405 200.1296 200.3905 200.3905 200.4959 201.4999
   201.8385 202.2189 202.4789 202.4789 203.1749 204.6573 204.6573 204.7766
   205.4206 206.0237 208.1142 208.3224 208.3224 209.1083 209.1083 209.4524
   211.2507 212.0770 212.7892 212.7893 213.2621 214.0626 214.7661 214.9169
   214.9169 216.0789 216.0789 216.4033 216.4842 217.4939 217.5324 217.5324
   217.9550 217.9550 218.1295 219.3639 219.3639 220.8357 221.2734 222.2970
   222.4924 222.6880 222.9336 222.9336 223.6981 224.0895 224.0895 224.7909
   224.8799 224.8799 224.9315 225.1349 225.4636 225.4636 226.1088 227.4950
   227.7844 227.7844 227.9293 228.1110 228.2710 228.5017 228.5017 229.4952
   229.6702 229.9369 229.9369 230.8182 230.8228 230.9174 230.9174 232.0364
   232.3271 233.3129 233.3129 233.9586 234.5320 234.6684 234.8068 234.8068
   235.4925 236.4993 236.4993 236.8576 236.9968 236.9968 237.0379 237.8134
   238.1279 238.2143 238.9122 238.9122 239.1642 239.4996 239.4996 239.6337
   240.2410 240.2410 240.6856 240.8223 241.3975 241.4320 241.7017 241.7017
   243.0953 243.6876 243.6876 243.8758 244.1159 244.2042 244.7220 244.7220
   245.3986 246.0712 246.3565 246.3565 246.4423 246.6503 247.3643 247.3643
   247.6201 247.8596 247.8596 248.6724 248.8114 249.4402 249.5072 249.5072
   249.9343 249.9533 249.9533 250.0530 250.3183 251.2113 251.8751 251.8751
   251.9553 252.5410 252.5410 252.5718 253.4668 253.9474 254.2287 254.2437
   254.2437 254.7990 254.7990 254.9548 255.7399 256.0631 256.1915 256.1915
   256.5172 256.8223 256.8223 257.2034 257.5345 257.5943 258.7927 258.7927
   259.0481 260.3157 260.4001 260.4001 260.8910 261.6594 261.6594 262.0446
   262.2395 263.3358 263.5341 263.5341 263.8133 264.2578 264.2578 264.8353
   266.2496 266.2907 266.2907 266.4946 266.9540 267.8691 268.3410 268.3410
   268.8739 269.0772 269.2675 269.2675 269.3469 269.9996 271.0341 271.0341
   272.8083 273.1923 273.5366 273.5526 273.5526 274.2940 274.9528 275.2366
   275.2366 276.4432 276.4432 278.3221 279.4207 279.4780 280.0035 280.0035
   280.2411 281.5459 281.5459 281.7445 282.6225 282.6225 283.2896 284.1644
   284.9657 285.3530 285.3530 285.6953 286.4494 287.1558 287.9150 287.9461
   287.9461 288.8195 288.8195 289.4300 289.6890 290.1421 290.8856 290.8856
   291.3187 291.9107 291.9993 293.3398 293.3398 293.5236 293.7272 294.6416
   294.6416 295.2317 295.2317 295.4274 295.4458 295.8999 296.1573 296.7151
   296.7151 296.8029 297.2162 297.2162 297.4941 298.1381 298.1381 298.1779
   298.9912 299.4382 301.1492 301.1492 301.3332 302.0050 302.2300 302.5830
   302.5830 303.1102 303.9465 304.0115 304.0115 304.8266 305.6395 306.4553
   306.4553 306.4615 306.8832 307.7063 307.7063 307.8641 308.2573 308.5424
   308.5424 308.9021 309.0460 309.0460 309.1282 309.3962 309.9922 309.9922
   310.4127 310.4519 310.9983 310.9983 311.3402 311.5895 312.0337 312.0337
   312.2359 312.8971 312.8971 312.9237 313.1943 313.6090 313.9837 313.9837
   314.4938 315.1003 315.1003 315.2056 316.0771 317.2471 317.5388 317.6655
   317.6655 318.0542 318.6601 318.7264 318.7264 318.8720 318.9203 318.9203
   318.9665 319.0049 319.1675 320.1362 320.4159 320.4159 321.2709 321.2709
   321.5882 321.6782 321.7035 321.8509 321.8509 321.9279 322.6509 323.3254
   323.3254 325.7389 325.8803 325.8901 325.8901 326.1719 326.1719 326.5777
   327.9964 328.2660 328.2674 328.8229 329.4041 329.4041 329.5282 329.8125
   329.8125 330.3251 330.5023 331.0832 331.6456 331.6456 332.8031 332.8879
   332.9980 332.9980 333.3116 333.5215 333.5215 333.7400 334.1761 334.7512
   335.2161 335.2161 335.5363 336.3024 336.5201 336.5201 337.3422 338.3055
   338.3828 338.4955 338.4955 338.7588 339.7455 339.7455 340.1582 340.5104
   340.5502 340.9843 341.2849 341.2849 342.1150 342.5810 342.5810 343.1862
   343.1862 343.7483 344.0374 344.3787 344.3787 344.6510 344.6510 344.8886
   345.0782 345.1325 345.1325 345.2919 345.6113 346.0403 346.2037 346.5578
   346.5578 346.5644 346.6491 346.7444 346.7444 346.9841 347.6099 347.6099
   347.6150 347.8163 347.8163 347.9393 348.1601 348.4573 350.9340 350.9340
   351.3338 351.5682 351.6368 351.6368 352.9738 353.3823 353.3823 353.6756
   354.1328 354.1434 354.4267 354.5247 354.5247 355.0298 355.3942 355.5634
   355.5634 355.7134 356.1147 356.1147 356.1797 356.5722 356.7282 356.7282
   358.2401 358.2401 358.3810 358.5606 358.8120 359.4971 359.5465 359.5465
   359.5783 359.7182 360.6603 361.3839 362.1362 362.1362 362.1788 362.2557
   362.2557 362.6483 363.0664 363.8706 364.0773 364.1816 364.1816 364.3905
   364.3905 364.5354 364.7159 364.9000 364.9000 365.1326 365.2522 365.2785
   365.2981 365.2981 365.7960 366.8384 366.8384 367.0979 367.4375 367.4375
   367.5180 367.6203 368.3417 368.7738 368.7738 369.2302 369.4913 369.5238
   370.0514 370.0514 370.2335 370.3003 370.3003 372.4806 373.2220 373.5336
   373.5336 373.7040 373.9589 374.1743 374.1743 374.6203 374.6871 375.1783
   375.1783 375.4828 375.8853 376.6526 376.8266 376.8266 376.9089 377.1319
   377.4484 377.4484 377.5741 378.0894 378.0894 378.1533 378.4565 378.8196
   378.8196 379.2416 379.8867 380.3138 380.3138 381.3830 381.5927 381.9418
   381.9502 381.9502 382.2444 382.3838 382.3838 382.8645 383.2247 383.2247
   383.8113 383.8113 383.8495 384.3406 385.5456 385.7383 387.2442 387.5560
   387.5964 387.5964 388.2554 388.2554 388.9402 390.8353 391.3275 391.4620
   392.1786 392.1786 392.8185 393.6544 393.6544 395.0757 396.0167 396.0167
   396.0801 396.7441 396.8519 396.8519 397.2762 397.4562 397.7552 397.7552
   398.4338 398.9425 399.0681 399.3778 399.3778 399.9584 400.2340 400.2340
   400.2939 400.6945 401.0216 401.2296 401.2296 403.5473 403.5473 403.7081
   403.7118 404.2608 404.6449 404.6449 405.6060 405.9413 406.7463 406.7463
   406.7943 407.4972 407.8160 408.0595 408.0595 408.1478 408.1735 408.2485
   408.5869 408.5869 408.8024 409.3892 409.4919 409.4919 410.0207 410.1083
   410.1083 411.0913 412.6858 412.6858 412.8900 413.5532 415.9328 416.3448
   416.3804 416.3804 416.8861 418.1083 418.4575 419.0136 420.0444 420.3326
   420.3326 420.7090 420.7090 420.9094 421.4761 421.7720 422.2485 422.2485
   422.4092 422.4092 422.5134 422.6028 422.7381 422.7381 422.9466 422.9888
   423.0778 423.0778 423.3615 423.8220 423.9172 424.0315 424.0315 424.0331
   424.5573 424.5573 425.3016 425.6684 425.7195 425.7195 425.9023 425.9994
   425.9994 426.0520 426.0582 426.0902 427.2189 427.2633 427.2633 428.5914
   428.5914 429.2185 429.4244 429.4244 430.8051 431.6926 432.1662 432.1662
   432.4621 432.9234 433.4810 433.4810 433.5876 434.2288 434.2288 434.4045
   434.4195 434.6464 434.6795 434.6795 434.9489 435.2505 435.9145 436.1691
   436.1691 436.7102 436.7102 437.4586 437.8371 437.8771 438.1782 438.3375
   438.3375 438.4647 438.6254 438.7193 438.9421 438.9421 440.4859 440.7562
   440.7593 440.7593 441.2211 441.2211 441.6354 441.8119 442.0017 442.2980
   442.2980 442.3005 443.5248 443.5536 443.7650 443.7650 443.8182 444.1381
   444.7073 444.8450 445.6659 445.6659 446.1499 446.1499 446.1874 446.2509
   446.4069 446.4245 446.4245 446.6532 446.6532 446.6630 447.1688 447.6745
   447.6745 448.2620 448.5484 448.7549 448.8655 448.8655 449.1479 449.4034
   449.4034 449.5424 449.9752 449.9752 450.0593 450.3458 450.8311 450.8875
   450.9202 451.0115 451.0902 451.0902 451.1679 451.3441 451.3441 451.3623
   451.6254 451.7314 451.7314 451.9637 451.9637 452.0521 452.1413 452.4196
   452.9763 453.1343 453.1343 453.2813 453.2813 453.4273 453.5747 453.7123
   454.0621 454.0621 454.0899 454.1114 454.4174 454.4174 454.5830 454.6350
   454.6731 454.6731 454.8345 457.8439 458.1566 458.8874 459.0613 459.0613
   459.6202 459.6202 459.8884 460.4516 460.5532 460.5532 460.8026 460.9403
   461.1366 461.1366 461.2011 461.9638 462.1415 462.2568 462.2568 462.7057
   462.8179 463.1937 463.1937 463.3365 463.3386 463.3386 464.1588 464.5704
   465.0897 465.1908 465.1908 465.3364 465.6470 466.0250 466.0250 466.6653
   467.9126 467.9126 467.9574 468.2760 470.6926 470.9154 471.0660 471.0660
   471.3256 471.3256 471.3447 471.6213 471.6213 471.8879 472.0021 472.0375
   472.1410 472.1410 472.1650 472.5870 472.6512 472.6512 472.7027 473.1005

          k =-0.1250 0.3750-0.1250 (  2544 PWs)   bands (ev):

   -77.8743 -41.1598 -41.1564 -41.1564 -40.2740 -16.5491 -16.5422 -16.5416
   -12.0644 -12.0613 -12.0590 -12.0551 -12.0548   5.7504  12.6715  13.6805
    13.8207  14.9577  14.9874  15.3912  15.9826  16.0738  17.9236  18.0594
    18.9628  19.7699  19.9509  22.6460  22.8164  23.9711  24.1255  25.6595
    27.0595  28.0729  29.2226  30.8024  32.2467  34.5986  35.7277  37.5624
    37.8021  39.6283  40.2393  42.0721  43.6160  44.3451  45.3342  46.1155
    47.0173  47.2732  48.0072  48.3540  48.6446  49.2666  50.0096  50.4097
    50.8145  52.0818  53.2969  54.0920  54.4310  55.2043  55.8527  56.5154
    57.3705  57.7421  58.4689  58.7083  58.9331  60.3474  60.3497  62.2659
    62.5567  63.6648  63.9385  64.6922  65.2789  66.4592  67.2226  68.3993
    68.9237  71.4054  72.1470  73.8698  74.2766  74.6346  75.2041  75.6099
    75.9366  76.8151  77.7749  77.8454  78.8353  80.1394  80.4090  81.6528
    82.6576  82.8739  83.4211  83.4226  83.8915  84.8948  85.4832  86.4727
    86.9722  87.7548  87.9896  89.0668  89.8485  90.6772  90.9397  91.4411
    92.1049  92.1687  92.8715  93.1739  93.4628  94.0487  94.7515  95.3503
    95.8144  96.0865  96.1023  96.4154  97.5232  97.7310  97.9117  98.6780
    98.7475  99.1686  99.6488 101.1177 101.2890 101.8070 101.8642 102.2195
   103.5208 104.0610 104.3670 105.5474 105.7774 106.0475 106.0492 106.4853
   107.2719 107.4761 108.0147 108.8060 109.1047 110.2207 110.8186 110.8187
   111.1958 112.3453 113.1247 114.0852 114.1233 115.2527 115.9175 116.1161
   116.5517 117.0820 117.4570 118.2189 118.9329 119.0048 119.0659 119.8872
   120.1139 121.2454 121.5716 122.0449 123.3409 123.4562 123.6522 123.8860
   125.2647 126.0123 126.3371 127.2846 127.3846 127.6676 128.4321 129.0814
   129.5324 131.3217 131.6388 132.2659 132.9764 133.1166 133.7203 134.4373
   135.1926 135.5460 136.1966 136.4831 137.0146 137.0898 137.8750 137.9687
   138.7729 139.2485 139.6779 140.4866 141.0327 141.1512 142.1134 142.4289
   142.4385 142.5917 143.6761 144.2533 144.6714 144.6889 145.3310 145.9078
   145.9442 146.4182 146.4570 147.0816 147.6116 147.9625 148.4698 149.2478
   149.3774 150.1020 150.3428 151.3491 151.8430 151.9048 152.4117 152.5769
   153.0721 153.2261 153.8199 154.5586 154.6171 155.2141 155.3671 155.9206
   156.1325 157.6133 158.3569 158.9054 158.9400 159.2375 159.8515 160.2923
   160.6301 160.6483 161.2181 161.7564 162.3419 162.3760 162.8569 163.3485
   163.5091 163.9723 164.1832 164.6094 165.6431 165.8869 166.2956 167.2495
   167.6229 167.9652 167.9843 168.6861 168.7328 168.9618 169.6261 169.6912
   170.0692 170.5846 170.6109 170.6804 171.4956 172.0261 172.9834 173.0834
   173.7490 173.9800 174.0903 174.1594 175.0334 175.3314 175.5588 176.0562
   176.1218 176.5282 177.0956 177.1207 177.2472 177.4796 178.0466 178.2976
   179.0210 179.4704 180.4807 180.4902 181.1087 181.4334 181.7261 182.7803
   183.2857 184.0871 184.7134 185.3577 185.6373 186.4873 186.9555 187.4952
   188.2157 188.5668 188.6532 188.9074 189.2886 189.4411 189.9837 190.8502
   191.0041 191.8650 192.0993 192.9634 193.6089 193.9266 194.3661 195.0112
   195.4069 196.5273 196.7131 197.3347 197.8614 198.3775 198.7941 198.9260
   199.9107 199.9275 200.3221 200.6653 201.0928 201.5342 201.6542 201.8584
   202.8734 203.1784 203.6400 204.2004 204.4072 205.0023 205.4783 205.7876
   206.3663 206.9452 207.1316 207.1378 207.5139 208.3944 208.7378 208.8993
   209.7036 210.0787 210.6271 211.3208 211.8431 212.1821 212.2978 213.5133
   213.7900 215.0367 215.3404 215.4324 215.9930 216.0353 216.3661 216.4608
   216.4960 217.3093 218.0692 218.2226 218.5055 218.8432 218.8656 219.6450
   220.1642 220.5934 221.0195 221.2869 221.7483 222.1587 222.8591 222.9557
   223.7549 224.1408 224.3991 224.5036 225.1104 225.2064 225.3561 226.2469
   226.5912 226.9475 227.8856 228.2298 228.2383 228.7715 228.9347 229.1775
   229.2302 229.9840 230.0555 230.4454 230.7237 230.8998 231.1252 231.5396
   231.8230 232.1228 232.3798 232.8241 233.3741 233.4338 234.2022 234.4719
   234.7029 235.4814 235.5909 235.8051 236.1193 236.2666 236.5486 236.7732
[...]
   252.1455 252.1916 252.3974 253.5483 253.9017 254.4321 254.7091 254.9812
   255.5280 255.5874 256.0473 256.0786 256.7344 257.1172 257.1199 257.6795
   258.3016 258.8916 258.9103 259.5967 259.9905 260.4219 260.9802 261.2573
   262.0460 262.7060 262.8997 263.5009 263.6111 264.1047 264.1670 264.5095
   265.4486 265.5834 265.8254 266.9342 266.9869 267.3423 267.3836 267.5083
   268.4931 268.5716 269.1473 269.2783 269.7842 269.7971 270.1548 270.4710
   270.8416 270.9685 271.2073 271.3650 271.6446 272.4641 272.5560 273.3322
   273.9435 274.0150 274.0809 274.7630 275.4126 275.5374 276.4268 276.6019
   276.9204 277.0448 277.2451 277.5508 277.6708 277.9551 278.1640 278.8858
   279.4869 280.1162 280.2923 280.9703 281.1095 281.3653 281.6601 281.7697
   282.3912 282.5592 282.7347 282.8330 283.1752 283.3597 283.4794 283.6975
   284.2323 284.2457 284.6476 284.8478 284.8878 285.2775 285.8542 285.9336
   286.8454 287.1479 287.4614 287.8522 288.0659 288.1467 288.4101 288.4724
   289.1133 289.5413 289.5548 289.7501 289.8080 290.5524 290.6056 291.1758
   291.4701 291.5127 292.0985 292.1677 292.6237 292.6458 292.7097 292.8584
   293.1302 293.7430 293.8568 295.3322 295.4123 295.8931 296.0713 296.3459
   296.6240 296.6399 297.0062 297.0518 297.1074 297.5059 297.9699 298.3518
   298.5621 298.8147 299.2869 299.3848 299.6248 299.7325 300.1928 300.3981
   300.4889 300.6614 300.6780 301.4827 301.5141 302.1454 302.3963 302.8091
   302.9678 304.7301 305.0892 305.3797 305.7568 306.6674 306.9583 307.0048
   307.2761 307.3223 307.6315 308.2456 308.6255 309.0861 309.3675 309.6065
   310.2623 310.5072 310.9409 310.9719 311.0745 311.0851 311.4581 312.2363
   312.2398 312.2548 312.9188 313.4882 313.6328 314.5445 315.0307 315.1262
   315.2578 315.4571 315.6609 315.9024 315.9876 316.2236 316.7873 317.1237
   317.1954 317.2292 317.3177 317.4706 317.6286 317.7002 318.3787 318.5157
   319.1277 319.5616 319.7087 320.3452 321.8254 322.0422 322.1001 322.4548
   322.7412 323.0584 323.3558 323.5373 323.7673 323.9021 324.0908 324.2632
   324.7042 325.2337 326.5624 326.9143 327.3485 327.4087 327.5809 327.6430
   328.7060 328.8943 329.0869 329.3606 329.8874 330.0501 330.1876 330.3654
   330.6979 331.1990 331.3479 331.5008 331.7822 332.0169 332.4515 332.5489
   333.3371 333.8873 333.9968 334.2001 334.7602 335.0692 335.5319 335.8711
   336.0018 336.6711 336.8448 337.2534 337.6130 337.8522 338.6043 338.7231
   338.8299 339.1612 339.2878 339.3240 339.4201 339.5109 339.6921 339.8861
   340.1168 340.8084 341.0037 341.7879 342.1487 342.2003 342.4119 342.5617
   344.1290 345.6470 346.2411 346.3897 346.7326 347.5106 347.8191 348.4170
   348.6650 348.6798 348.8422 349.0626 349.3429 349.4810 349.5645 349.8475
   349.8659 350.1283 350.4912 350.7566 350.9995 351.9216 352.7218 353.0702
   353.3380 353.9141 354.4134 355.0044 355.0056 355.6289 355.9737 356.2378
   356.8797 356.9826 357.2886 358.2191 358.2374 358.4901 358.6057 358.7847
   359.0768 359.2768 359.8745 360.0792 360.0920 360.7996 361.4516 361.7257
   362.1928 362.4200 362.8096 362.8187 363.5737 363.7304 363.9191 364.2701
   364.3967 364.8050 365.0063 365.3142 365.5116 365.6732 365.7322 366.0145
   366.3331 366.8878 366.9557 367.3641 367.4081 367.6783 368.1243 368.1679
   368.2825 368.4842 368.5786 368.6062 369.1647 369.3740 369.7127 369.7134
   370.2810 371.1282 371.3885 371.7120 371.9100 372.6694 373.0795 373.1109
   373.2162 374.0606 374.3985 374.4149 374.6356 374.7316 375.2338 375.3428
   375.3523 375.7601 375.7639 375.7657 375.9861 376.5082 376.8275 376.9942
   377.1692 377.4097 377.4292 377.6163 377.6667 377.7636 378.2587 378.7808
   378.9501 379.6182 379.8146 379.9704 380.3767 380.7510 381.3437 381.4120
   382.6179 382.7102 382.7366 382.9622 383.3354 383.4710 383.4942 383.7072
   384.3864 384.6553 384.9608 385.3428 385.7611 385.9256 385.9396 386.0484
   386.1293 386.1468 386.4654 386.5373 387.3884 387.4805 387.9808 388.3102
   388.3254 388.3362 388.6334 388.9124 389.2742 389.5354 389.7929 389.9067
   390.0054 390.2095 390.5767 390.7502 391.0578 391.2140 391.4521 391.5719
   392.5998 392.7681 392.8593 393.0604 393.3824 393.7593 394.0609 394.2003
   394.4838 394.8847 394.9487 396.8798 396.9979 397.3197 397.5332 397.6155
   397.8311 397.9351 398.0177 398.3482 398.6235 399.0214 399.2824 399.3015
   399.8517 400.0135 400.1541 400.1986 400.2448 400.5230 400.6235 400.6879
   400.8401 400.9557 401.3243 402.0259 402.2724 402.3025 402.6122 402.8750
   402.8891 403.1360 403.4442 403.8696 404.0409 404.0871 404.3702 405.1091
   405.2186 405.5934 405.7302 405.7883 405.8319 406.5688 406.6919 408.1669
   408.2721 408.3502 408.7837 408.8614 409.1243 409.8633 410.0654 410.1945
   410.5618 410.7153 410.8274 411.3956 411.4910 411.6545 411.9354 412.0030
   412.5345 412.6922 412.9093 413.1932 413.5332 413.5608 414.1445 414.7988
   415.5202 415.6826 415.9746 416.1736 416.3837 416.8481 418.0697 419.2826
   419.8216 420.2068 420.2668 420.7849 420.9173 421.0107 421.4828 422.2706
   422.4773 422.7947 422.8954 422.9419 422.9837 423.0562 423.1026 423.1855
   423.4552 423.5022 423.6181 423.7011 423.8895 424.3123 424.3653 424.5214
   424.7979 424.9971 425.0586 425.1501 425.5082 425.6795 425.9811 426.3236
   426.7482 427.3531 427.4656 428.3637 428.5212 429.1051 429.1657 429.8049
   429.8829 430.0091 430.0287 430.2839 430.3515 430.6652 430.7891 430.9263
   431.1364 431.2214 431.4043 431.4496 431.5869 431.8322 432.0606 432.1612
   432.2876 432.5147 432.7626 432.8092 432.9180 433.0075 433.1434 433.7287
   433.9566 436.2583 436.8548 437.2686 438.0459 438.4657 438.4911 438.8212
   438.9924 439.0765 439.3112 439.6044 439.6290 440.1970 440.3265 440.8280
   440.8394 441.3234 441.3847 441.8702 441.9646 441.9925 442.3817 442.4005
   442.6350 442.8512 443.0960 443.1434 443.2540 443.5705 443.7145 443.9791
   444.8080 444.8697 445.0684 445.2239 445.5070 445.6879 446.4477 446.7561
   446.8698 447.1638 447.5172 447.6277 447.7789 448.8087 448.8561 449.1739
   449.3531 450.0077 450.4533 450.5423 450.6178 450.8016 450.9853 451.4826
   451.5814 452.3405 452.3413 452.5829 452.6754 452.9589 453.0728 453.8911
   454.1588 454.2300 454.8047 454.8353 455.0865 455.1935 455.2819 455.4993
   455.7345 455.8374 455.9625 456.0909 456.4478 456.5699 456.7000 457.2410
   457.4529 458.1881 458.3959 459.4621 459.6200 460.4721 460.7088 460.9364
   461.0711 461.7340 462.0822 462.1307 462.2039 463.7327 463.8719 464.3296
   464.6087 464.6623 464.8013 464.8223 465.0301 465.0945 466.2202 466.2448
   466.2778 466.6209 466.9800 467.5612 468.3074 468.3725 468.7205 469.1203
   469.4550 469.8291 469.9353 470.0730 470.1873 470.2358 470.3478 470.7475
   470.8964 470.9333 471.0989 471.3067 471.4710 471.5834 471.8548 471.9608
   472.2167 472.6114 472.6473 473.1870 473.8436 474.4276 474.6923 474.9138
   474.9885 475.1223 475.1388 475.2331 475.5255 476.0743 477.0249 477.5727

          k =-0.5000-1.0000 0.0000 (  2520 PWs)   bands (ev):

   -77.8743 -41.1656 -41.1567 -41.1565 -40.2670 -16.5521 -16.5496 -16.5487
   -12.0668 -12.0564 -12.0564 -12.0558 -12.0487   7.1807  12.0284  12.3120
    13.2156  14.7695  15.2091  15.2169  15.3357  16.0255  17.9805  18.1238
    18.1717  18.4315  18.6593  23.2527  24.0003  24.6450  24.6998  29.2583
    29.7855  30.4679  31.7053  33.0872  33.2406  33.3919  34.1882  37.7189
    38.0675  38.2336  39.8407  39.9632  40.3123  40.7894  40.9517  42.1379
    42.2664  43.2049  43.6618  49.5279  49.5947  50.4845  51.0015  52.9001
    52.9884  54.3692  55.0579  55.0976  55.4888  57.0482  57.7480  58.1239
    58.3655  58.4553  59.0634  59.1994  59.7450  62.9931  63.2611  63.2723
    63.8379  65.7632  66.0237  67.5038  67.9168  68.4665  69.0208  70.3615
    70.7457  70.9830  71.2576  71.8068  72.4443  72.9047  73.5199  75.4953
    75.6246  75.6983  76.8838  77.6516  77.6585  79.3083  79.5399  79.9487
    80.2368  80.4349  81.8174  82.5973  82.7525  82.8772  83.0162  83.1675
    84.0852  84.3716  85.6570  85.8202  86.0504  87.1533  88.9752  89.0833
    89.4130  90.1988  90.7348  91.0852  91.1185  92.3484  93.4633  94.1432
    94.4496  95.8076  95.8123  95.9270  96.5795  97.4977  98.7515  99.2494
   101.2621 102.3961 103.3597 104.5976 104.9622 105.1742 105.4939 105.7973
   106.3942 106.4662 106.6213 107.5869 109.1116 109.5655 109.7954 110.4391
   110.5743 110.8620 111.0569 111.0580 112.6540 113.1925 113.2121 113.5214
   113.7588 113.9504 114.4497 115.5281 116.1534 116.4827 116.9352 117.8095
   118.4106 118.4656 119.0203 119.1922 119.6509 120.1622 120.2252 121.1951
   121.2514 121.3344 122.0782 122.2198 122.9383 123.1880 124.0227 124.1345
   124.4761 125.0803 126.0901 126.2060 126.2866 127.1456 127.4137 127.8593
   128.4146 128.5296 128.7072 129.7012 130.4890 130.6482 130.6487 132.6540
   132.8843 133.6659 133.7423 134.9286 134.9531 135.7135 135.9456 135.9627
   136.4691 136.7292 136.8088 136.9224 137.8816 138.4386 138.5123 138.7971
   140.1454 140.9598 141.7088 142.0119 142.0802 142.5534 143.1843 143.4672
   143.6646 144.2970 144.3083 144.5196 145.0363 145.4362 147.3379 147.4901
   149.4633 149.5803 149.6214 149.8697 149.9526 151.4366 151.8475 151.9539
   153.0135 153.4839 153.7920 154.3546 154.4875 154.5065 154.9003 156.2549
   156.3247 156.3635 157.2562 157.2961 158.5622 158.8849 159.1212 159.7564
   160.0684 160.6338 160.8820 162.0417 162.7727 162.9957 163.7122 163.7518
   163.9713 164.4434 165.0714 167.2550 167.3902 167.5915 167.7914 168.7839
   168.9161 169.1443 169.3354 170.2318 170.3453 170.5482 170.7489 171.4175
   171.9043 171.9777 172.3025 173.0882 174.2376 174.2694 174.4419 174.4735
   174.9287 175.5773 175.6574 175.8634 176.6402 177.2246 177.6174 178.7666
   179.1149 179.7998 180.0947 180.5243 181.1364 181.8527 182.5925 183.5591
   184.0861 184.2143 184.7905 185.2981 185.7843 186.2643 186.5118 186.5963
   186.8347 186.9062 187.7888 188.0019 188.5747 188.9117 189.3161 189.7098
   190.1865 190.2441 190.7279 190.8446 190.9199 191.0193 191.4271 191.5296
   192.0951 192.1394 192.4698 193.8209 193.8738 194.2416 194.8315 195.0458
   195.1302 195.9488 196.2018 196.4747 196.5434 197.0647 197.0697 197.8010
   197.8730 198.6563 199.5311 199.8057 200.2282 200.7852 201.3366 201.7137
   201.7177 201.8353 202.1169 202.3786 203.0276 203.0782 203.3436 203.7531
   204.7399 205.3344 205.3839 205.5707 205.7851 206.0027 206.4568 206.4785
   206.8151 206.8270 207.4777 207.8298 208.1226 209.8122 210.5156 210.6987
   211.1902 211.7129 211.7313 212.2164 212.2446 212.3583 212.9591 213.0395
   214.0188 214.2045 214.2700 214.7641 215.0271 215.0836 215.2858 215.6802
   216.8293 217.5556 218.2493 219.0387 219.1326 219.3679 219.9336 220.9698
   221.1639 221.3607 221.5900 221.5927 221.7663 222.0678 222.3611 222.4047
   222.4753 222.5966 222.7474 222.8626 224.8679 225.4620 226.2550 227.1407
   227.3965 227.8592 227.9494 228.3634 228.7777 228.9014 229.3081 229.4762
   229.7863 229.8326 229.8329 232.5920 233.2708 233.3365 233.9511 234.2706
   234.8582 235.5256 235.7706 236.2800 237.5777 237.6790 238.0946 238.1004
   238.4936 239.2531 239.5689 239.5701 240.1848 240.4894 240.6021 240.6965
   240.7563 241.1494 241.1751 241.3246 241.3669 241.8673 241.9763 242.0087
   242.0956 242.6108 242.7914 243.4712 243.5657 244.5333 244.9369 245.1152
   246.1298 246.1497 246.6625 247.4793 247.6123 248.0813 248.1452 248.5956
   249.5259 250.1166 251.3129 252.1957 252.2088 252.2236 252.4770 253.9926
   254.0293 254.6020 254.8622 254.8675 255.1699 255.1790 255.8368 255.8888
   255.9631 256.1418 256.4192 257.5467 257.7664 257.8722 257.8952 258.0636
   258.2689 258.6318 258.8233 259.2354 259.3591 259.4221 259.5965 259.7402
   259.7661 260.3723 260.4135 260.6583 261.2537 261.3122 261.4443 262.3179
   262.3707 262.4482 263.4831 263.5631 263.8269 264.1502 264.3321 265.2687
   265.3977 265.6423 265.9547 266.1389 266.2138 267.2745 267.2987 268.3137
   268.5737 269.0756 269.5683 269.9217 269.9977 272.9602 273.2421 275.1147
   275.4640 276.1830 276.5826 276.6382 277.2764 278.1107 278.4106 278.4579
   279.2515 279.5590 279.9515 280.0785 280.3222 280.4082 280.6294 280.8689
   281.3042 281.3342 281.8626 281.9039 281.9310 282.1858 282.4819 282.6986
   283.0556 283.1977 283.3748 283.6604 283.6806 283.9490 284.3743 284.4210
   284.6160 284.9753 285.0835 285.1332 285.4108 285.4696 285.9319 285.9448
   286.4961 286.5299 286.7043 287.2290 287.2878 288.9647 289.2079 289.6909
   290.0996 290.2632 290.6220 290.6374 290.8560 291.1611 291.2424 291.2542
   291.8026 292.0739 292.2442 292.3225 292.8768 293.2083 293.4236 293.7791
   294.2502 294.2671 294.6366 294.6559 295.3212 295.6104 295.7782 295.8566
   295.9142 295.9483 295.9682 295.9857 296.8316 297.0038 297.3424 297.4776
   297.9063 298.0883 298.1001 298.8525 299.1322 299.4919 299.8119 299.8253
   299.9335 300.2387 300.5847 301.0667 301.6662 302.0882 302.4443 302.4946
   302.7084 303.6073 303.6733 303.8067 304.9831 305.0067 305.4139 305.9439
   306.7576 307.2690 307.3706 307.4712 307.9975 308.1308 308.6700 309.5211
   309.7019 309.9293 309.9359 310.3340 310.5082 310.6550 310.9497 310.9883
   311.0500 311.0927 314.0110 314.5453 314.5917 314.7965 315.2446 315.8830
   316.0542 316.3210 316.3504 316.9291 317.0636 317.3948 317.6137 318.2275
   318.5165 318.5532 318.8505 318.8659 319.1403 319.3965 319.7964 319.8694
   319.9993 320.0724 320.3559 320.3831 320.8147 321.3825 321.4336 321.5352
   321.5690 321.7742 321.9940 322.7574 322.7780 322.8427 323.6086 324.4767
   325.0096 325.0546 325.2531 325.8370 326.6906 326.7520 326.9169 327.7042
   327.8453 328.1989 328.3562 328.7498 328.7664 329.4464 329.4932 329.5272
   330.5912 331.0574 331.2937 331.6206 331.6922 333.4359 333.5436 333.5754
   333.6954 334.0611 334.4716 334.5809 334.6300 334.6907 335.0599 335.1016
   335.2465 335.6235 335.6695 335.8053 336.5537 337.3794 337.4203 338.6481
   339.2587 339.4583 339.9497 340.3628 340.4146 340.5387 340.5638 340.7857
   340.8806 341.0419 342.2713 342.4640 342.5052 342.5121 343.0337 343.1476
   343.1523 343.9168 344.4127 344.8631 344.9050 345.5952 346.0506 346.7513
   346.9958 347.0756 347.5808 348.0040 349.9777 350.3194 350.9256 351.0194
   351.5530 351.6638 351.8402 352.0220 352.6982 352.8581 352.8647 352.9846
   352.9983 353.2294 354.4103 354.5179 354.7551 358.5917 358.7329 358.9519
   359.2169 359.4776 360.1962 360.3631 360.4719 360.6589 361.0052 361.6948
   361.8200 362.0108 362.0849 362.0869 362.2103 362.2451 362.3389 362.3720
   362.3902 362.4978 362.5035 362.7533 363.1289 363.3623 364.1073 364.1768
   364.2613 364.8966 365.4773 366.0358 366.0919 366.2127 366.6346 366.6420
   366.8612 367.2552 367.3380 367.5640 367.9189 368.4052 368.9058 368.9448
   369.3949 369.4654 369.5116 369.9149 370.3596 370.3609 370.4543 370.8242
   370.9219 371.0097 371.0554 371.2444 371.7486 371.7881 372.0415 372.1320
   372.3366 372.6453 372.7652 373.0798 373.1278 373.2150 373.2340 373.3395
   373.3796 373.5825 373.6286 373.7425 373.8315 373.8394 374.3473 374.4335
   375.5171 375.7099 375.7887 375.8234 377.3753 377.4705 377.7834 377.9261
   377.9561 378.1320 378.4747 379.4682 379.9597 380.0296 380.1230 380.1327
   380.3526 380.7391 380.9834 381.3195 381.4049 381.4554 381.6695 381.7823
   381.8610 381.8633 382.1296 382.1976 382.1999 382.2456 384.3088 385.0970
   385.3686 385.4059 385.4528 385.5908 386.0525 386.0884 386.3720 386.5906
   386.6236 387.6485 387.8466 387.8767 388.1429 388.3650 389.5942 389.9398
   390.1715 390.3211 390.8678 391.4797 391.8032 392.0585 392.1200 393.2167
   393.4529 393.5359 393.7257 394.6623 394.8606 395.0710 395.5777 395.5778
   395.7604 396.0461 396.1316 396.2395 396.4571 396.4756 396.7884 397.3594
   397.3790 397.5190 397.7326 397.7926 397.8612 397.8648 399.7255 399.9510
   400.2534 400.2666 400.5122 400.5417 400.5987 400.6494 400.7924 400.8123
   400.8760 401.6390 401.6793 403.3253 403.4875 403.5047 403.5690 403.7590
   403.8163 404.1564 404.2998 404.3669 404.6436 404.8651 405.1206 405.3076
   409.1486 409.1676 409.3225 410.4359 410.5830 411.2262 411.6915 411.8993
   411.9446 412.1135 412.2059 412.2417 412.5256 412.6086 412.7810 412.8556
   413.0579 413.1156 413.9049 414.0088 414.2282 414.3884 414.8321 414.9589
   415.0445 415.0659 415.4013 416.1979 416.2374 416.2983 416.3493 416.3878
   416.4678 416.5076 416.8973 417.6638 418.0268 418.6125 418.8342 419.2282
   419.3338 419.3863 420.0473 420.1165 420.2006 420.3708 420.4332 420.4646
   420.5324 420.9593 421.1418 421.1902 421.3229 421.3437 421.3504 421.4663
   421.5944 421.9884 422.0334 422.0423 422.4458 422.5119 422.5246 422.8247
   422.9678 423.2198 423.4782 423.5739 423.6912 423.9873 424.0644 424.1310
   424.2467 424.3172 424.4658 424.4926 424.6888 424.8304 424.8660 425.0015
   425.4986 425.7585 425.7928 425.8719 426.0597 426.1612 426.2145 426.3166
   431.7884 431.8968 431.9197 432.1656 432.2423 432.8050 432.8903 433.0780
   433.7950 434.5167 434.6864 435.2318 435.2565 435.3409 435.6310 437.0050
   437.0171 437.3098 437.5024 437.5632 438.2501 438.4657 438.9121 439.1695
   439.3738 439.4407 439.8199 440.2133 440.3801 440.5334 440.7473 440.8807
   440.8855 440.9639 441.0941 441.3385 441.4448 442.8169 442.8758 442.9306
   443.1053 443.1847 443.3853 443.3960 443.7096 443.7569 444.0094 444.1703
   444.1917 444.2313 444.4110 444.6949 446.7578 446.9871 447.5005 447.6640
   447.7250 447.8372 448.0077 448.0439 448.3983 448.4747 448.5629 448.5782
   448.9286 449.0643 449.0807 449.0974 450.1271 450.1344 450.4187 450.4522
   451.5873 451.9321 451.9365 452.0078 452.3494 452.3659 452.3801 452.3831
   452.5995 452.9162 452.9640 452.9885 453.0660 453.1246 453.1594 453.1689
   456.9781 457.2707 457.3653 457.9259 458.1163 458.4864 458.5725 458.6606
   458.8534 458.9845 459.1117 459.1144 459.9630 460.1353 460.2389 460.4948
   461.4504 461.4506 461.4559 461.5045 462.1143 462.3299 462.6190 462.9257
   462.9937 463.1469 463.4871 463.6022 463.8627 463.9637 463.9803 466.0992
   466.7952 466.9357 467.0819 467.5458 467.7633 467.8857 468.0691 468.3277
   468.4012 468.4734 468.4932 468.5522 468.5864 468.5887 470.6752 471.1375
   471.7644 471.8977 471.9028 472.4285 472.7734 472.7915 472.7921 472.9300
   472.9960 473.1030 473.3377 473.4874 473.5501 473.5863 474.9144 475.2058
   475.3474 475.4507 475.5336 475.5697 475.8506 476.0665 476.1694 476.2454

     the Fermi energy is    16.6097 ev
     (compare with:    16.5341 eV, computed in scf)

     Writing all to output data dir out/mp-5967.save/
 
     init_run     :      0.02s CPU      0.04s WALL (       1 calls)
     electrons    :    745.43s CPU    791.11s WALL (       1 calls)

     Called by init_run:
     wfcinit      :      0.00s CPU      0.00s WALL (       1 calls)
     potinit      :      0.01s CPU      0.01s WALL (       1 calls)
     hinit0       :      0.01s CPU      0.01s WALL (       1 calls)

     Called by electrons:
     c_bands      :    745.42s CPU    791.07s WALL (       1 calls)
     v_of_rho     :      0.00s CPU      0.00s WALL (       1 calls)

     Called by c_bands:
     init_us_2    :      0.00s CPU      0.03s WALL (      15 calls)
     init_us_2:cp :      0.00s CPU      0.03s WALL (      15 calls)
     paro_k       :    717.00s CPU    760.51s WALL (      15 calls)

     Called by paro_*:
     h_psi        :     16.96s CPU     17.86s WALL (    1642 calls)
     g_psi        :      0.35s CPU      0.40s WALL (  156708 calls)

     Called by h_psi:
     h_psi:calbec :      0.63s CPU      0.68s WALL (    1642 calls)
     vloc_psi     :     15.75s CPU     16.59s WALL (    1642 calls)
     add_vuspsi   :      0.42s CPU      0.44s WALL (    1642 calls)

     General routines
     calbec       :      0.63s CPU      0.67s WALL (    1642 calls)
     fft          :      0.00s CPU      0.00s WALL (      10 calls)
     fftw         :     14.09s CPU     14.84s WALL (  253898 calls)
 
     Parallel routines
 
     PWSCF        :  12m26.52s CPU  13m12.76s WALL

 
   This run was terminated on:  18:23:25   5Dec2023            

=------------------------------------------------------------------------------=
   JOB DONE.
=------------------------------------------------------------------------------=
