
     Program PWSCF v.7.1 starts on  1Dec2023 at  5: 4:53 

     This program is part of the open-source Quantum ESPRESSO suite
     for quantum simulation of materials; please cite
         "P. Giannozzi et al., J. Phys.:Condens. Matter 21 395502 (2009);
         "P. Giannozzi et al., J. Phys.:Condens. Matter 29 465901 (2017);
         "P. Giannozzi et al., J. Chem. Phys. 152 154105 (2020);
          URL http://www.quantum-espresso.org", 
     in publications or presentations arising from this work. More details at
     http://www.quantum-espresso.org/quote

     Parallel version (MPI), running on    24 processors

     MPI processes distributed on     1 nodes
     122741 MiB available memory on the printing compute node when the environment starts
 
     Reading input from pw_mp-10182_scf_k3000_E81.in
Warning: card &CELL ignored
Warning: card / ignored

     Current dimensions of program PWSCF are:
     Max number of different atomic species (ntypx) = 10
     Max number of k-points (npk) =  40000
     Max angular momentum in pseudopotentials (lmaxx) =  4
 
     K-points division:     npool     =       2
     R & G space division:  proc/nbgrp/npool/nimage =      12
     Subspace diagonalization in iterative solution of the eigenvalue problem:
     a serial algorithm will be used

 
     Parallelization info
     --------------------
     sticks:   dense  smooth     PW     G-vecs:    dense   smooth      PW
     Min         107     107     31                 2568     2568     408
     Max         108     108     32                 2573     2573     410
     Sum        1285    1285    379                30827    30827    4909
 
     Using Slab Decomposition
 


     bravais-lattice index     =            2
     lattice parameter (alat)  =      10.7715  a.u.
     unit-cell volume          =     312.4400 (a.u.)^3
     number of atoms/cell      =            3
     number of atomic types    =            3
     number of electrons       =        28.00
     number of Kohn-Sham states=           28
     kinetic-energy cutoff     =      81.0000  Ry
     charge density cutoff     =     324.0000  Ry
     scf convergence threshold =      1.0E-10
     mixing beta               =       0.7000
     number of iterations used =            8  plain     mixing
     Exchange-correlation= PBE
                           (   1   4   3   4   0   0   0)

     celldm(1)=  10.771484  celldm(2)=   0.000000  celldm(3)=   0.000000
     celldm(4)=   0.000000  celldm(5)=   0.000000  celldm(6)=   0.000000

     crystal axes: (cart. coord. in units of alat)
               a(1) = (  -0.500000   0.000000   0.500000 )  
               a(2) = (   0.000000   0.500000   0.500000 )  
               a(3) = (  -0.500000   0.500000   0.000000 )  

     reciprocal axes: (cart. coord. in units 2 pi/alat)
               b(1) = ( -1.000000 -1.000000  1.000000 )  
               b(2) = (  1.000000  1.000000  1.000000 )  
               b(3) = ( -1.000000  1.000000 -1.000000 )  


     PseudoPot. # 1 for Li read from file:
     /usr/scratch4/magr4985/MG/HTDF/pseudo/SG15/Li.upf
     MD5 check sum: c91dd4cee9943b136ac3b62641658f95
     Pseudo is Norm-conserving, Zval =  3.0
     Generated using ONCVPSP code by D. R. Hamann
     Using radial grid of  602 points,  4 beta functions with: 
                l(1) =   0
                l(2) =   0
                l(3) =   1
                l(4) =   1

     PseudoPot. # 2 for P  read from file:
     /usr/scratch4/magr4985/MG/HTDF/pseudo/SG15/P.upf
     MD5 check sum: 0688a67b2b263c6b42d3d97c42745426
     Pseudo is Norm-conserving, Zval =  5.0
     Generated using ONCVPSP code by D. R. Hamann
     Using radial grid of  602 points,  4 beta functions with: 
                l(1) =   0
                l(2) =   0
                l(3) =   1
                l(4) =   1

     PseudoPot. # 3 for Zn read from file:
     /usr/scratch4/magr4985/MG/HTDF/pseudo/SG15/Zn.upf
     MD5 check sum: 732f41c0cd6489a4b50a33b4ec99a2d3
     Pseudo is Norm-conserving, Zval = 20.0
     Generated using ONCVPSP code by D. R. Hamann
     Using radial grid of  602 points,  6 beta functions with: 
                l(1) =   0
                l(2) =   0
                l(3) =   1
                l(4) =   1
                l(5) =   2
                l(6) =   2

     atomic species   valence    mass     pseudopotential
        Li             3.00     6.94100     Li( 1.00)
        P              5.00    30.97380     P ( 1.00)
        Zn            20.00    65.40900     Zn( 1.00)

     24 Sym. Ops. (no inversion) found



   Cartesian axes

     site n.     atom                  positions (alat units)
         1           Li  tau(   1) = (  -0.7500000   0.7500000   0.7500000  )
         2           Zn  tau(   2) = (  -0.2500000   0.2500000   0.2500001  )
         3           P   tau(   3) = (   0.0000000   0.0000000   0.0000000  )

     number of k points=    47  Gaussian smearing, width (Ry)=  0.0005
                       cart. coord. in units 2pi/alat
        k(    1) = (   0.0000000   0.0000000   0.0000000), wk =   0.0020000
        k(    2) = (  -0.1000000   0.1000000  -0.1000000), wk =   0.0160000
        k(    3) = (  -0.2000000   0.2000000  -0.2000000), wk =   0.0160000
        k(    4) = (  -0.3000000   0.3000000  -0.3000000), wk =   0.0160000
        k(    5) = (  -0.4000000   0.4000000  -0.4000000), wk =   0.0160000
        k(    6) = (   0.5000000  -0.5000000   0.5000000), wk =   0.0080000
        k(    7) = (   0.0000000   0.2000000   0.0000000), wk =   0.0120000
        k(    8) = (  -0.1000000   0.3000000  -0.1000000), wk =   0.0480000
        k(    9) = (  -0.2000000   0.4000000  -0.2000000), wk =   0.0480000
        k(   10) = (  -0.3000000   0.5000000  -0.3000000), wk =   0.0480000
        k(   11) = (   0.6000000  -0.4000000   0.6000000), wk =   0.0480000
        k(   12) = (   0.5000000  -0.3000000   0.5000000), wk =   0.0480000
        k(   13) = (   0.4000000  -0.2000000   0.4000000), wk =   0.0480000
        k(   14) = (   0.3000000  -0.1000000   0.3000000), wk =   0.0480000
        k(   15) = (   0.2000000   0.0000000   0.2000000), wk =   0.0240000
        k(   16) = (   0.0000000   0.4000000   0.0000000), wk =   0.0120000
        k(   17) = (  -0.1000000   0.5000000  -0.1000000), wk =   0.0480000
        k(   18) = (  -0.2000000   0.6000000  -0.2000000), wk =   0.0480000
        k(   19) = (   0.7000000  -0.3000000   0.7000000), wk =   0.0480000
        k(   20) = (   0.6000000  -0.2000000   0.6000000), wk =   0.0480000
        k(   21) = (   0.5000000  -0.1000000   0.5000000), wk =   0.0480000
        k(   22) = (   0.4000000   0.0000000   0.4000000), wk =   0.0240000
        k(   23) = (   0.0000000   0.6000000   0.0000000), wk =   0.0120000
        k(   24) = (  -0.1000000   0.7000000  -0.1000000), wk =   0.0480000
        k(   25) = (   0.8000000  -0.2000000   0.8000000), wk =   0.0480000
        k(   26) = (   0.7000000  -0.1000000   0.7000000), wk =   0.0480000
        k(   27) = (   0.6000000  -0.0000000   0.6000000), wk =   0.0240000
        k(   28) = (   0.0000000   0.8000000   0.0000000), wk =   0.0120000
        k(   29) = (   0.9000000  -0.1000000   0.9000000), wk =   0.0480000
        k(   30) = (   0.8000000   0.0000000   0.8000000), wk =   0.0240000
        k(   31) = (   0.0000000  -1.0000000   0.0000000), wk =   0.0060000
        k(   32) = (  -0.2000000   0.4000000   0.0000000), wk =   0.0480000
        k(   33) = (  -0.3000000   0.5000000  -0.1000000), wk =   0.0960000
        k(   34) = (   0.6000000  -0.4000000   0.8000000), wk =   0.0960000
        k(   35) = (   0.5000000  -0.3000000   0.7000000), wk =   0.0480000
        k(   36) = (  -0.2000000   0.6000000   0.0000000), wk =   0.0480000
        k(   37) = (   0.7000000  -0.3000000   0.9000000), wk =   0.0960000
        k(   38) = (   0.6000000  -0.2000000   0.8000000), wk =   0.0960000
        k(   39) = (   0.5000000  -0.1000000   0.7000000), wk =   0.0960000
        k(   40) = (   0.4000000   0.0000000   0.6000000), wk =   0.0480000
        k(   41) = (   0.8000000  -0.2000000   1.0000000), wk =   0.0480000
        k(   42) = (   0.7000000  -0.1000000   0.9000000), wk =   0.0960000
        k(   43) = (   0.6000000   0.0000000   0.8000000), wk =   0.0480000
        k(   44) = (  -0.2000000  -1.0000000   0.0000000), wk =   0.0240000
        k(   45) = (   0.6000000  -0.2000000   1.0000000), wk =   0.0480000
        k(   46) = (   0.5000000  -0.1000000   0.9000000), wk =   0.0480000
        k(   47) = (  -0.4000000  -1.0000000   0.0000000), wk =   0.0240000

     Dense  grid:    30827 G-vectors     FFT dimensions: (  45,  45,  45)

     Estimated max dynamical RAM per process >       7.12 MB

     Estimated total dynamical RAM >     163.46 MB

     Initial potential from superposition of free atoms

     starting charge      27.8421, renormalised to      28.0000
     Starting wfcs are random

     total cpu time spent up to now is        0.3 secs

     Self-consistent Calculation

     iteration #  1     ecut=    81.00 Ry     beta= 0.70
     Davidson diagonalization with overlap
     ethr =  1.00E-02,  avg # of iterations =  9.8

     total cpu time spent up to now is        2.1 secs

     total energy              =    -427.68670184 Ry
     estimated scf accuracy    <       0.37876601 Ry

     iteration #  2     ecut=    81.00 Ry     beta= 0.70
     Davidson diagonalization with overlap
     ethr =  1.35E-03,  avg # of iterations =  2.3

     total cpu time spent up to now is        2.8 secs

     total energy              =    -427.84507252 Ry
     estimated scf accuracy    <       0.31931022 Ry

     iteration #  3     ecut=    81.00 Ry     beta= 0.70
     Davidson diagonalization with overlap
     ethr =  1.14E-03,  avg # of iterations =  1.2

     total cpu time spent up to now is        3.3 secs

     total energy              =    -427.89422384 Ry
     estimated scf accuracy    <       0.00554550 Ry

     iteration #  4     ecut=    81.00 Ry     beta= 0.70
     Davidson diagonalization with overlap
     ethr =  1.98E-05,  avg # of iterations =  4.7

     total cpu time spent up to now is        4.1 secs

     total energy              =    -427.89764422 Ry
     estimated scf accuracy    <       0.00399612 Ry

     iteration #  5     ecut=    81.00 Ry     beta= 0.70
     Davidson diagonalization with overlap
     ethr =  1.43E-05,  avg # of iterations =  1.1

     total cpu time spent up to now is        4.7 secs

     total energy              =    -427.89759959 Ry
     estimated scf accuracy    <       0.00072601 Ry

     iteration #  6     ecut=    81.00 Ry     beta= 0.70
     Davidson diagonalization with overlap
     ethr =  2.59E-06,  avg # of iterations =  2.4

     total cpu time spent up to now is        5.3 secs

     total energy              =    -427.89768624 Ry
     estimated scf accuracy    <       0.00003602 Ry

     iteration #  7     ecut=    81.00 Ry     beta= 0.70
     Davidson diagonalization with overlap
     ethr =  1.29E-07,  avg # of iterations =  2.0

     total cpu time spent up to now is        5.9 secs

     total energy              =    -427.89769685 Ry
     estimated scf accuracy    <       0.00000170 Ry

     iteration #  8     ecut=    81.00 Ry     beta= 0.70
     Davidson diagonalization with overlap
     ethr =  6.07E-09,  avg # of iterations =  2.0

     total cpu time spent up to now is        6.6 secs

     total energy              =    -427.89769723 Ry
     estimated scf accuracy    <          7.8E-09 Ry

     iteration #  9     ecut=    81.00 Ry     beta= 0.70
     Davidson diagonalization with overlap
     ethr =  2.79E-11,  avg # of iterations =  3.1

     total cpu time spent up to now is        7.2 secs

     total energy              =    -427.89769723 Ry
     estimated scf accuracy    <          1.0E-10 Ry

     iteration # 10     ecut=    81.00 Ry     beta= 0.70
     Davidson diagonalization with overlap
     ethr =  3.58E-13,  avg # of iterations =  3.4

     total cpu time spent up to now is        7.9 secs

     total energy              =    -427.89769723 Ry
     estimated scf accuracy    <          1.4E-10 Ry

     iteration # 11     ecut=    81.00 Ry     beta= 0.70
     Davidson diagonalization with overlap
     ethr =  3.58E-13,  avg # of iterations =  2.0

     total cpu time spent up to now is        8.6 secs

     End of self-consistent calculation

          k = 0.0000 0.0000 0.0000 (  3839 PWs)   bands (ev):

  -117.5774 -71.7297 -71.7297 -71.7297 -37.3605  -3.1623   1.2550   1.2550
     1.2550   1.5023   1.5023   8.4378   8.4378   8.4378  10.0763  11.6546
    11.6546  11.6546  17.4529  17.4529  18.1129  18.2492  18.2492  18.2493
    24.7413  30.2236  30.2236  30.2237

          k =-0.1000 0.1000-0.1000 (  3816 PWs)   bands (ev):

  -117.5774 -71.7297 -71.7297 -71.7297 -37.3604  -3.0797   1.2563   1.2636
     1.2636   1.5002   1.5002   7.4356   8.2819   8.2819  10.4836  11.8978
    11.8978  12.2126  16.5491  16.5491  17.5025  19.2931  19.5466  19.5466
    24.8584  28.3875  28.8205  28.8206

          k =-0.2000 0.2000-0.2000 (  3810 PWs)   bands (ev):

  -117.5774 -71.7298 -71.7297 -71.7297 -37.3602  -2.8470   1.2739   1.2830
     1.2830   1.4982   1.4982   5.8894   7.9540   7.9540  10.6214  12.3502
    12.3502  13.4828  15.9515  15.9515  17.3048  20.7322  21.4286  21.4286
    24.7780  26.5040  26.5040  27.0438

          k =-0.3000 0.3000-0.3000 (  3840 PWs)   bands (ev):

  -117.5774 -71.7298 -71.7297 -71.7297 -37.3599  -2.5181   1.2987   1.2987
     1.3504   1.5050   1.5050   4.4391   7.6408   7.6408  10.5915  12.5120
    12.5121  14.6630  16.3118  16.3118  17.5859  22.1592  22.9469  22.9469
    23.7026  24.7323  24.7323  27.5520

          k =-0.4000 0.4000-0.4000 (  3837 PWs)   bands (ev):

  -117.5774 -71.7298 -71.7297 -71.7297 -37.3597  -2.2058   1.3035   1.3035
     1.5194   1.5194   1.5492   3.2652   7.4312   7.4312  10.5398  12.3948
    12.3948  15.4107  17.5507  17.5507  18.2857  21.3423  21.3423  21.5585
    24.3815  26.4156  26.4156  28.6092

          k = 0.5000-0.5000 0.5000 (  3828 PWs)   bands (ev):

  -117.5774 -71.7298 -71.7297 -71.7297 -37.3596  -2.0717   1.3036   1.3036
     1.5269   1.5269   1.7695   2.6845   7.3585   7.3585  10.5174  12.3189
    12.3189  15.6533  18.8809  19.1479  19.1480  19.4645  19.4645  20.7241
    25.1926  28.1972  28.1972  28.8154

          k = 0.0000 0.2000 0.0000 (  3815 PWs)   bands (ev):

  -117.5774 -71.7297 -71.7297 -71.7297 -37.3604  -3.0520   1.2487   1.2707
     1.2707   1.4909   1.5077   7.5608   7.9744   7.9744  10.7562  11.7527
    12.2539  12.2539  15.5744  17.5914  18.4103  18.6114  18.6114  20.5666
    24.9467  28.0343  28.0343  29.6395

          k =-0.1000 0.3000-0.1000 (  3828 PWs)   bands (ev):

  -117.5774 -71.7297 -71.7297 -71.7297 -37.3602  -2.8685   1.2515   1.2911
     1.2920   1.4824   1.5119   6.3286   7.5786   7.7759  10.9852  11.9872
    12.8042  13.0554  15.1136  17.1179  18.0258  20.0351  20.1204  21.9188
    24.9629  26.1935  26.7735  28.5925

          k =-0.2000 0.4000-0.2000 (  3842 PWs)   bands (ev):

  -117.5774 -71.7298 -71.7297 -71.7297 -37.3599  -2.5688   1.2801   1.3107
     1.3298   1.4882   1.5183   4.9029   7.2652   7.4596  11.0079  12.3262
    13.0856  13.6672  15.8333  17.1853  17.9559  21.7917  21.8383  23.2490
    23.7720  24.0750  26.5702  27.5410

          k =-0.3000 0.5000-0.3000 (  3839 PWs)   bands (ev):

  -117.5774 -71.7298 -71.7297 -71.7297 -37.3597  -2.2431   1.3008   1.3190
     1.4379   1.5273   1.5402   3.6581   7.1085   7.1142  10.9309  12.3649
    12.9639  14.6610  16.7947  18.1821  18.4415  21.0609  21.3562  23.5095
    23.9704  24.8264  26.4767  28.8132

          k = 0.6000-0.4000 0.6000 (  3837 PWs)   bands (ev):

  -117.5774 -71.7298 -71.7297 -71.7297 -37.3596  -2.0398   1.3042   1.3188
     1.5028   1.5282   1.7520   2.8360   6.8509   7.1298  10.8758  12.3665
    12.7535  15.6944  17.4633  18.9450  19.1845  19.8406  20.2732  21.9949
    24.8567  27.1209  28.1907  29.0954

          k = 0.5000-0.3000 0.5000 (  3828 PWs)   bands (ev):

  -117.5774 -71.7298 -71.7297 -71.7297 -37.3596  -2.0851   1.3058   1.3169
     1.5081   1.5138   1.6738   3.0371   6.7306   7.3180  10.8856  12.4936
    12.6597  15.6531  17.1088  18.1285  19.2449  19.9501  21.7179  21.7666
    24.4028  26.5741  27.9370  29.0439

          k = 0.4000-0.2000 0.4000 (  3832 PWs)   bands (ev):

  -117.5774 -71.7298 -71.7297 -71.7297 -37.3598  -2.3483   1.3041   1.3114
     1.4006   1.4930   1.5367   4.0398   6.7877   7.6334  10.9396  12.6673
    12.7182  14.7157  15.6731  17.8792  18.4500  21.0151  22.6682  23.0485
    23.7480  24.8162  26.1166  28.2667

          k = 0.3000-0.1000 0.3000 (  3824 PWs)   bands (ev):

  -117.5774 -71.7298 -71.7297 -71.7297 -37.3600  -2.6792   1.2811   1.2956
     1.3100   1.4834   1.5159   5.3457   7.0426   8.0016  10.9610  12.4856
    12.8245  13.6532  15.0656  16.9476  18.1471  20.7171  21.8310  23.1772
    23.3718  25.7910  26.8653  27.0562

          k = 0.2000 0.0000 0.2000 (  3821 PWs)   bands (ev):

  -117.5774 -71.7297 -71.7297 -71.7297 -37.3603  -2.9466   1.2577   1.2745
     1.2826   1.4893   1.5067   6.6504   7.5594   8.2841  10.8048  12.0404
    12.4044  12.8452  15.4958  16.4733  18.2887  19.0671  20.5021  21.2514
    24.8469  26.7608  27.6034  29.1059

          k = 0.0000 0.4000 0.0000 (  3855 PWs)   bands (ev):

  -117.5774 -71.7298 -71.7297 -71.7297 -37.3601  -2.7393   1.2381   1.3157
     1.3157   1.4699   1.5219   6.2309   7.1243   7.1243  11.0269  11.7798
    13.5184  13.5184  14.8540  18.0002  19.5499  19.6848  19.6848  22.4568
    25.4495  25.4495  25.6550  28.6511

          k =-0.1000 0.5000-0.1000 (  3853 PWs)   bands (ev):

  -117.5774 -71.7298 -71.7297 -71.7297 -37.3599  -2.4870   1.2499   1.3428
     1.3469   1.4778   1.5299   5.2210   6.7695   6.7845  11.1034  11.6674
    13.8183  14.0550  15.8732  18.1125  19.3445  21.0372  21.5212  22.8089
    23.7355  24.0186  26.2603  28.1051

          k =-0.2000 0.6000-0.2000 (  3845 PWs)   bands (ev):

  -117.5774 -71.7298 -71.7297 -71.7297 -37.3596  -2.1831   1.2863   1.3581
     1.3896   1.5361   1.5488   4.0817   6.3631   6.5961  10.9925  12.3190
    13.9495  14.0951  17.2845  18.8585  19.3699  20.9631  21.2411  23.2293
    23.6526  24.9903  26.1781  28.2914

          k = 0.7000-0.3000 0.7000 (  3852 PWs)   bands (ev):

  -117.5774 -71.7298 -71.7298 -71.7297 -37.3595  -1.9511   1.3037   1.3600
     1.4528   1.5322   1.7374   3.1883   5.9621   6.6324  10.9272  12.9129
    13.8652  14.6907  17.7307  18.8117  19.6672  20.3408  20.4197  24.0073
    24.4212  25.7584  27.8310  28.4500

          k = 0.6000-0.2000 0.6000 (  3861 PWs)   bands (ev):

  -117.5774 -71.7298 -71.7298 -71.7297 -37.3595  -1.9190   1.3087   1.3549
     1.4872   1.5127   1.8000   3.0204   5.7104   6.8685  10.9945  13.1267
    13.6678  15.7006  16.8929  17.1922  19.4154  21.4487  22.2561  22.6076
    23.8317  27.2028  27.4212  29.0541

          k = 0.5000-0.1000 0.5000 (  3839 PWs)   bands (ev):

  -117.5774 -71.7298 -71.7298 -71.7297 -37.3596  -2.1064   1.3113   1.3434
     1.4536   1.4876   1.6088   3.7255   5.7032   7.2560  11.1485  13.2592
    13.5601  14.8307  15.3148  18.5030  19.4485  20.5307  22.2218  23.2226
    24.2698  25.5546  27.0767  28.8227

          k = 0.4000 0.0000 0.4000 (  3827 PWs)   bands (ev):

  -117.5774 -71.7298 -71.7297 -71.7297 -37.3598  -2.4039   1.3028   1.3211
     1.3559   1.4764   1.5421   4.6451   6.0988   7.6951  11.2289  13.1468
    13.3506  13.7385  14.6605  18.2738  19.4572  20.8752  20.9989  22.9626
    24.8602  25.2762  27.3277  27.5632

          k = 0.0000 0.6000 0.0000 (  3848 PWs)   bands (ev):

  -117.5774 -71.7298 -71.7297 -71.7297 -37.3597  -2.2917   1.2379   1.3804
     1.3804   1.4863   1.5394   4.9249   6.3590   6.3590  10.7137  11.0677
    15.0176  15.0176  16.2156  18.6469  21.2567  21.3425  21.3425  22.9277
    23.0711  23.0711  25.5540  26.3646

          k =-0.1000 0.7000-0.1000 (  3862 PWs)   bands (ev):

  -117.5774 -71.7298 -71.7298 -71.7298 -37.3595  -2.0398   1.2553   1.4060
     1.4067   1.5453   1.5651   4.1815   5.9317   6.1335  10.5555  11.2529
    15.3141  15.4720  17.5799  19.2312  21.0376  21.0529  21.2572  22.9656
    23.1979  24.3413  25.3688  25.9985

          k = 0.8000-0.2000 0.8000 (  3850 PWs)   bands (ev):

  -117.5774 -71.7298 -71.7298 -71.7298 -37.3594  -1.8292   1.2857   1.4127
     1.4330   1.5399   1.7477   3.4675   5.3828   6.1347  10.5831  12.1537
    15.3535  15.3682  18.3646  18.8243  19.9621  20.8081  21.2640  23.7940
    24.8029  24.8766  26.5486  26.9197

          k = 0.7000-0.1000 0.7000 (  3839 PWs)   bands (ev):

  -117.5774 -71.7298 -71.7298 -71.7297 -37.3594  -1.7638   1.3042   1.4038
     1.4668   1.5189   1.8960   3.1325   4.9962   6.3609  10.7150  13.3105
    15.1279  15.5623  16.9104  16.9774  20.6934  21.6675  22.5158  23.4357
    23.9592  25.6166  27.7902  28.3642

          k = 0.6000-0.0000 0.6000 (  3841 PWs)   bands (ev):

  -117.5774 -71.7298 -71.7298 -71.7297 -37.3594  -1.8771   1.3122   1.3796
     1.4807   1.4960   1.7651   3.3848   5.0299   6.7676  10.9457  13.8344
    14.7557  15.3322  15.4256  16.8768  20.5479  22.0246  22.2934  23.1112
    24.1229  25.8350  27.0832  28.7382

          k = 0.0000 0.8000 0.0000 (  3856 PWs)   bands (ev):

  -117.5774 -71.7298 -71.7298 -71.7298 -37.3594  -1.8599   1.2403   1.4419
     1.4420   1.5535   1.6297   3.7914   5.8445   5.8445   9.9958  10.9308
    16.6754  16.6754  18.0006  19.4050  20.5582  20.5582  22.5178  23.2264
    23.9146  23.9146  24.6019  25.0353

          k = 0.9000-0.1000 0.9000 (  3869 PWs)   bands (ev):

  -117.5774 -71.7298 -71.7298 -71.7298 -37.3593  -1.7185   1.2534   1.4537
     1.4540   1.5516   1.7789   3.3684   5.4652   5.7869  10.0864  11.1657
    17.0088  17.0446  18.6699  18.8920  19.6301  20.4751  22.5705  23.4206
    24.3136  24.6514  25.6362  26.2415

          k = 0.8000 0.0000 0.8000 (  3863 PWs)   bands (ev):

  -117.5774 -71.7298 -71.7298 -71.7298 -37.3593  -1.6825   1.2823   1.4414
     1.4562   1.5350   1.9097   3.1826   4.9832   5.9710  10.4080  12.0965
    16.6247  16.7799  17.2577  17.3305  20.5996  21.8354  22.6595  23.4946
    23.9238  24.6640  27.2475  27.5816

          k = 0.0000-1.0000 0.0000 (  3892 PWs)   bands (ev):

  -117.5774 -71.7298 -71.7298 -71.7298 -37.3593  -1.6728   1.2388   1.4681
     1.4681   1.5589   1.8012   3.2373   5.6630   5.6630   9.7337  10.8966
    18.3490  18.3490  18.7023  18.7023  19.0081  19.8255  21.9946  23.8435
    24.1705  25.2496  26.2145  26.2145

          k =-0.2000 0.4000 0.0000 (  3842 PWs)   bands (ev):

  -117.5774 -71.7298 -71.7297 -71.7297 -37.3600  -2.6499   1.2601   1.3116
     1.3220   1.4764   1.5219   5.5526   6.7748   7.6115  11.2432  12.1497
    13.1402  13.5179  15.2070  17.4004  18.9679  20.1021  21.5552  22.8645
    23.7271  25.4989  26.5330  28.4561

          k =-0.3000 0.5000-0.1000 (  3848 PWs)   bands (ev):

  -117.5774 -71.7298 -71.7297 -71.7297 -37.3598  -2.3448   1.2949   1.3267
     1.3727   1.4918   1.5413   4.4435   6.2972   7.2887  11.3405  12.4443
    13.2998  14.0010  15.8404  18.4161  19.1277  20.9293  21.7718  22.8066
    24.2197  24.8391  26.5049  28.2738

          k = 0.6000-0.4000 0.8000 (  3844 PWs)   bands (ev):

  -117.5774 -71.7298 -71.7298 -71.7297 -37.3596  -2.0603   1.3101   1.3379
     1.4553   1.5200   1.6446   3.4078   6.1188   6.9558  11.2684  12.4467
    13.6432  14.7024  16.9095  18.5628  19.3325  20.2591  21.5581  23.4626
    24.0141  25.6803  27.5164  28.7017

          k = 0.5000-0.3000 0.7000 (  3854 PWs)   bands (ev):

  -117.5774 -71.7298 -71.7298 -71.7297 -37.3595  -1.9403   1.3102   1.3412
     1.4901   1.5195   1.8153   2.8969   6.0847   6.8118  11.2282  12.4107
    13.6336  15.6987  16.9474  18.1402  19.5345  20.0804  21.9464  22.4724
    24.4185  26.9811  28.0647  29.1263

          k =-0.2000 0.6000 0.0000 (  3859 PWs)   bands (ev):

  -117.5774 -71.7298 -71.7298 -71.7297 -37.3597  -2.2314   1.2681   1.3569
     1.3907   1.5088   1.5448   4.5471   6.0582   6.6065  11.3000  11.4379
    13.9238  15.0351  16.5427  18.9352  20.1903  21.1195  21.4300  22.5793
    23.5486  24.5824  25.6593  27.6435

          k = 0.7000-0.3000 0.9000 (  3847 PWs)   bands (ev):

  -117.5774 -71.7298 -71.7298 -71.7297 -37.3595  -1.9683   1.3021   1.3664
     1.4313   1.5305   1.6527   3.7346   5.6205   6.3227  11.2437  12.1972
    13.8762  15.4323  17.4453  18.9909  20.1121  20.6652  21.4173  22.7363
    24.7872  25.2036  26.6747  27.6920

          k = 0.6000-0.2000 0.8000 (  3855 PWs)   bands (ev):

  -117.5774 -71.7298 -71.7298 -71.7297 -37.3594  -1.8167   1.3152   1.3766
     1.4690   1.5180   1.8489   3.1424   5.3395   6.2643  11.2622  12.8765
    14.2120  15.5740  16.6800  18.6775  19.8067  20.7266  22.2870  23.6627
    24.0783  26.1376  27.8918  28.0437

          k = 0.5000-0.1000 0.7000 (  3852 PWs)   bands (ev):

  -117.5774 -71.7298 -71.7298 -71.7297 -37.3594  -1.8603   1.3210   1.3666
     1.4771   1.5055   1.7918   3.2798   5.2295   6.4974  11.3968  12.9794
    14.2045  15.4669  16.4595  17.4525  20.2785  21.4584  22.5327  22.8957
    23.9615  26.4330  27.3262  28.7221

          k = 0.4000 0.0000 0.6000 (  3842 PWs)   bands (ev):

  -117.5774 -71.7298 -71.7298 -71.7297 -37.3596  -2.0728   1.3257   1.3352
     1.4340   1.5021   1.6124   3.8988   5.4905   6.9029  11.5400  12.8020
    13.4021  15.0509  15.8437  18.6722  19.9128  20.7750  21.6774  22.9404
    24.8278  25.3098  27.3298  27.6892

          k = 0.8000-0.2000 1.0000 (  3860 PWs)   bands (ev):

  -117.5774 -71.7298 -71.7298 -71.7298 -37.3594  -1.8369   1.2696   1.4108
     1.4476   1.5440   1.6929   3.6702   5.5685   5.8429  10.6485  11.3433
    15.2841  16.7102  18.0232  19.2245  20.2893  20.6755  22.1429  22.5947
    24.3558  25.2326  25.4346  26.1801

          k = 0.7000-0.1000 0.9000 (  3847 PWs)   bands (ev):

  -117.5774 -71.7298 -71.7298 -71.7298 -37.3593  -1.7110   1.2966   1.4158
     1.4635   1.5291   1.8795   3.2671   5.1000   5.7894  10.9463  12.1304
    15.0508  16.5886  17.3664  18.9905  19.8246  21.4522  22.3371  23.3798
    24.2417  25.5564  26.8125  27.2359

          k = 0.6000 0.0000 0.8000 (  3847 PWs)   bands (ev):

  -117.5774 -71.7298 -71.7298 -71.7298 -37.3593  -1.7220   1.3155   1.4032
     1.4791   1.5057   1.9286   3.1813   4.8589   6.0511  11.1739  13.2371
    14.5757  15.5977  17.1626  17.3797  20.9498  21.8925  22.3281  23.0553
    24.3109  25.8271  27.4974  28.2188

          k =-0.2000-1.0000 0.0000 (  3856 PWs)   bands (ev):

  -117.5774 -71.7298 -71.7298 -71.7298 -37.3593  -1.6695   1.2663   1.4432
     1.4686   1.5448   1.8675   3.2214   5.3876   5.5748  10.4062  11.3204
    16.6581  17.0412  18.6402  18.6810  19.6193  20.5877  22.9722  23.5205
    24.4750  24.4925  26.2971  27.1573

          k = 0.6000-0.2000 1.0000 (  3845 PWs)   bands (ev):

  -117.5774 -71.7298 -71.7298 -71.7298 -37.3594  -1.7811   1.3263   1.3749
     1.4686   1.5151   1.8235   3.3904   5.1095   5.9160  11.9939  12.2393
    13.7600  16.2387  17.1715  18.1157  20.8974  21.4875  21.6809  22.7706
    24.2813  26.7022  27.2167  27.8615

          k = 0.5000-0.1000 0.9000 (  3854 PWs)   bands (ev):

  -117.5774 -71.7298 -71.7298 -71.7298 -37.3593  -1.7063   1.3308   1.3923
     1.4856   1.4968   1.9446   3.1900   4.9640   5.7227  12.0214  12.7858
    13.8647  15.3883  17.3682  19.0731  19.7224  21.7738  22.1101  23.2570
    24.5741  26.3023  27.4301  27.7918

          k =-0.4000-1.0000 0.0000 (  3852 PWs)   bands (ev):

  -117.5774 -71.7298 -71.7298 -71.7298 -37.3593  -1.6642   1.3207   1.4136
     1.4701   1.5120   1.9711   3.1941   5.0095   5.4456  11.9597  12.2486
    14.3628  15.4190  18.8106  18.9586  19.4594  20.9987  22.7435  23.3829
    24.9345  25.5905  26.6663  27.5926

     the Fermi energy is     9.4841 ev

!    total energy              =    -427.89769723 Ry
     estimated scf accuracy    <          4.4E-12 Ry
     smearing contrib. (-TS)   =      -0.00000000 Ry
     internal energy E=F+TS    =    -427.89769723 Ry

     The total energy is F=E-TS. E is the sum of the following terms:
     one-electron contribution =    -346.51036710 Ry
     hartree contribution      =     175.78877530 Ry
     xc contribution           =     -43.18113085 Ry
     ewald contribution        =    -213.99497458 Ry

     convergence has been achieved in  11 iterations

     Writing all to output data dir out/mp-10182.save/
 
     init_run     :      0.20s CPU      0.26s WALL (       1 calls)
     electrons    :      7.47s CPU      8.24s WALL (       1 calls)

     Called by init_run:
     wfcinit      :      0.17s CPU      0.21s WALL (       1 calls)
     potinit      :      0.01s CPU      0.01s WALL (       1 calls)
     hinit0       :      0.01s CPU      0.02s WALL (       1 calls)

     Called by electrons:
     c_bands      :      6.45s CPU      7.02s WALL (      11 calls)
     sum_band     :      0.95s CPU      1.12s WALL (      11 calls)
     v_of_rho     :      0.05s CPU      0.05s WALL (      12 calls)
     mix_rho      :      0.02s CPU      0.02s WALL (      11 calls)

     Called by c_bands:
     init_us_2    :      0.06s CPU      0.07s WALL (     552 calls)
     init_us_2:cp :      0.06s CPU      0.07s WALL (     552 calls)
     cegterg      :      5.83s CPU      6.03s WALL (     264 calls)

     Called by *egterg:
     cdiaghg      :      0.91s CPU      0.93s WALL (    1059 calls)
     h_psi        :      4.48s CPU      4.67s WALL (    1083 calls)
     g_psi        :      0.03s CPU      0.03s WALL (     795 calls)

     Called by h_psi:
     h_psi:calbec :      0.11s CPU      0.12s WALL (    1083 calls)
     vloc_psi     :      4.27s CPU      4.45s WALL (    1083 calls)
     add_vuspsi   :      0.08s CPU      0.08s WALL (    1083 calls)

     General routines
     calbec       :      0.11s CPU      0.11s WALL (    1083 calls)
     fft          :      0.02s CPU      0.03s WALL (     119 calls)
     ffts         :      0.00s CPU      0.00s WALL (      11 calls)
     fftw         :      4.70s CPU      4.91s WALL (   50664 calls)
     davcio       :      0.08s CPU      0.47s WALL (     966 calls)
 
     Parallel routines
 
     PWSCF        :      7.77s CPU      8.73s WALL

 
   This run was terminated on:   5: 5: 2   1Dec2023            

=------------------------------------------------------------------------------=
   JOB DONE.
=------------------------------------------------------------------------------=
