
     Program PWSCF v.7.1 starts on 30Nov2023 at 16:57:40 

     This program is part of the open-source Quantum ESPRESSO suite
     for quantum simulation of materials; please cite
         "P. Giannozzi et al., J. Phys.:Condens. Matter 21 395502 (2009);
         "P. Giannozzi et al., J. Phys.:Condens. Matter 29 465901 (2017);
         "P. Giannozzi et al., J. Chem. Phys. 152 154105 (2020);
          URL http://www.quantum-espresso.org", 
     in publications or presentations arising from this work. More details at
     http://www.quantum-espresso.org/quote

     Parallel version (MPI), running on    24 processors

     MPI processes distributed on     1 nodes
     122767 MiB available memory on the printing compute node when the environment starts
 
     Reading input from pw_mp-10182_nscf_k380_E81.in
Warning: card &IONS ignored
Warning: card / ignored
Warning: card &CELL ignored
Warning: card / ignored

     Current dimensions of program PWSCF are:
     Max number of different atomic species (ntypx) = 10
     Max number of k-points (npk) =  40000
     Max angular momentum in pseudopotentials (lmaxx) =  4

     Atomic positions and unit cell read from directory:
     out/mp-10182.save/
     Atomic positions from file used, from input discarded
 
 
     K-points division:     npool     =       2
     R & G space division:  proc/nbgrp/npool/nimage =      12
     Subspace diagonalization in iterative solution of the eigenvalue problem:
     one sub-group per band group will be used
     scalapack distributed-memory algorithm (size of sub-group:  3*  3 procs)

 
     Parallelization info
     --------------------
     sticks:   dense  smooth     PW     G-vecs:    dense   smooth      PW
     Min         107     107     31                 2568     2568     408
     Max         108     108     32                 2573     2573     410
     Sum        1285    1285    379                30827    30827    4909
 
     Using Slab Decomposition
 


     bravais-lattice index     =            2
     lattice parameter (alat)  =      10.7715  a.u.
     unit-cell volume          =     312.4400 (a.u.)^3
     number of atoms/cell      =            3
     number of atomic types    =            3
     number of electrons       =        28.00
     number of Kohn-Sham states=         1200
     kinetic-energy cutoff     =      81.0000  Ry
     charge density cutoff     =     324.0000  Ry
     Exchange-correlation= PBE
                           (   1   4   3   4   0   0   0)

     celldm(1)=  10.771484  celldm(2)=   0.000000  celldm(3)=   0.000000
     celldm(4)=   0.000000  celldm(5)=   0.000000  celldm(6)=   0.000000

     crystal axes: (cart. coord. in units of alat)
               a(1) = (  -0.500000   0.000000   0.500000 )  
               a(2) = (   0.000000   0.500000   0.500000 )  
               a(3) = (  -0.500000   0.500000   0.000000 )  

     reciprocal axes: (cart. coord. in units 2 pi/alat)
               b(1) = ( -1.000000 -1.000000  1.000000 )  
               b(2) = (  1.000000  1.000000  1.000000 )  
               b(3) = ( -1.000000  1.000000 -1.000000 )  


     PseudoPot. # 1 for Li read from file:
     /usr/scratch4/magr4985/MG/HTDF/pseudo/SG15/Li.upf
     MD5 check sum: c91dd4cee9943b136ac3b62641658f95
     Pseudo is Norm-conserving, Zval =  3.0
     Generated using ONCVPSP code by D. R. Hamann
     Using radial grid of  602 points,  4 beta functions with: 
                l(1) =   0
                l(2) =   0
                l(3) =   1
                l(4) =   1

     PseudoPot. # 2 for P  read from file:
     /usr/scratch4/magr4985/MG/HTDF/pseudo/SG15/P.upf
     MD5 check sum: 0688a67b2b263c6b42d3d97c42745426
     Pseudo is Norm-conserving, Zval =  5.0
     Generated using ONCVPSP code by D. R. Hamann
     Using radial grid of  602 points,  4 beta functions with: 
                l(1) =   0
                l(2) =   0
                l(3) =   1
                l(4) =   1

     PseudoPot. # 3 for Zn read from file:
     /usr/scratch4/magr4985/MG/HTDF/pseudo/SG15/Zn.upf
     MD5 check sum: 732f41c0cd6489a4b50a33b4ec99a2d3
     Pseudo is Norm-conserving, Zval = 20.0
     Generated using ONCVPSP code by D. R. Hamann
     Using radial grid of  602 points,  6 beta functions with: 
                l(1) =   0
                l(2) =   0
                l(3) =   1
                l(4) =   1
                l(5) =   2
                l(6) =   2

     atomic species   valence    mass     pseudopotential
        Li             3.00     6.94100     Li( 1.00)
        P              5.00    30.97380     P ( 1.00)
        Zn            20.00    65.40900     Zn( 1.00)

     24 Sym. Ops. (no inversion) found



   Cartesian axes

     site n.     atom                  positions (alat units)
         1           Li  tau(   1) = (  -0.7500000   0.7500000   0.7500000  )
         2           Zn  tau(   2) = (  -0.2500000   0.2500000   0.2500001  )
         3           P   tau(   3) = (   0.0000000   0.0000000   0.0000000  )

     number of k points=    16  Gaussian smearing, width (Ry)=  0.0005
                       cart. coord. in units 2pi/alat
        k(    1) = (   0.0000000   0.0000000   0.0000000), wk =   0.0092593
        k(    2) = (  -0.1666667   0.1666667  -0.1666667), wk =   0.0740741
        k(    3) = (  -0.3333333   0.3333333  -0.3333333), wk =   0.0740741
        k(    4) = (   0.5000000  -0.5000000   0.5000000), wk =   0.0370370
        k(    5) = (   0.0000000   0.3333333   0.0000000), wk =   0.0555556
        k(    6) = (  -0.1666667   0.5000000  -0.1666667), wk =   0.2222222
        k(    7) = (   0.6666667  -0.3333333   0.6666667), wk =   0.2222222
        k(    8) = (   0.5000000  -0.1666667   0.5000000), wk =   0.2222222
        k(    9) = (   0.3333333   0.0000000   0.3333333), wk =   0.1111111
        k(   10) = (   0.0000000   0.6666667   0.0000000), wk =   0.0555556
        k(   11) = (   0.8333333  -0.1666667   0.8333333), wk =   0.2222222
        k(   12) = (   0.6666667  -0.0000000   0.6666667), wk =   0.1111111
        k(   13) = (   0.0000000  -1.0000000   0.0000000), wk =   0.0277778
        k(   14) = (   0.6666667  -0.3333333   1.0000000), wk =   0.2222222
        k(   15) = (   0.5000000  -0.1666667   0.8333333), wk =   0.2222222
        k(   16) = (  -0.3333333  -1.0000000   0.0000000), wk =   0.1111111

     Dense  grid:    30827 G-vectors     FFT dimensions: (  45,  45,  45)

     Estimated max dynamical RAM per process >     111.65 MB

     Estimated total dynamical RAM >       2.62 GB

     The potential is recalculated from file :
     out/mp-10182.save/charge-density

     Starting wfcs are random

     Band Structure Calculation
     Davidson diagonalization with overlap

     ethr =  5.00E-06,  avg # of iterations = 10.8

     total cpu time spent up to now is      721.2 secs

     End of band structure calculation

          k = 0.0000 0.0000 0.0000 (  3839 PWs)   bands (ev):

  -117.5774 -71.7298 -71.7298 -71.7298 -37.3605  -3.1623   1.2550   1.2550
     1.2550   1.5023   1.5023   8.4378   8.4378   8.4378  10.0763  11.6546
    11.6546  11.6546  17.4529  17.4529  18.1129  18.2492  18.2492  18.2493
    24.7413  30.2236  30.2236  30.2236  30.7719  30.7719  30.7719  33.2260
    33.2260  35.5969  35.5969  35.5969  43.3654  43.3654  43.3654  44.0666
    44.0666  45.3837  45.3837  45.3837  46.7977  48.5887  48.5887  48.5887
    49.1161  49.1162  49.1162  49.7514  49.7514  49.7514  50.0072  50.0072
    50.0795  50.5354  50.5354  50.5354  54.0928  54.0928  54.0928  54.2421
    55.8099  55.8099  55.8099  62.6092  65.5345  68.2290  68.2290  68.5565
    68.5565  68.5565  72.6616  72.6616  72.6616  77.3513  77.6845  77.6845
    79.3834  79.3834  79.3834  81.7231  81.7231  81.7231  83.0203  83.0203
    83.0203  83.8977  83.8977  83.8977  85.6107  85.6107  86.2086  86.2086
    86.2086  88.4481  88.4481  88.4481  88.6792  88.6792  88.7446  90.4492
    90.4492  90.4492  91.1060  91.1060  91.1060  91.9955  91.9955  91.9955
    92.9240  92.9240  92.9575  92.9575  92.9575  93.0275  93.0275  93.0275
    93.2445  96.7865  98.8941 101.2019 101.2019 101.2019 103.9024 103.9024
   103.9024 104.0125 104.0125 105.0838 106.8776 106.8776 106.8776 107.9552
   107.9552 107.9552 108.5714 108.5714 108.5714 108.6926 108.6926 108.6926
   109.4604 109.4604 111.5095 117.0926 117.0926 117.9573 118.6324 118.6324
   118.6324 119.9254 119.9254 119.9254 120.7912 121.5948 121.5948 121.5948
   122.1652 122.1652 122.7412 122.7412 122.7412 122.8147 122.8147 122.8147
   123.3765 123.3765 123.3765 124.0134 124.0134 124.0134 126.9307 126.9307
   126.9307 131.9706 133.8146 134.7502 134.7502 134.7502 137.7467 137.7467
   138.2941 138.2941 138.2941 141.3097 145.4703 145.4703 145.4703 148.8276
   148.8276 149.2570 149.2570 149.2570 149.9913 149.9913 149.9913 151.0463
   151.5747 151.5747 151.5747 153.6866 153.6866 153.6866 154.1794 154.1794
   154.1794 155.7488 155.7488 156.7230 156.7230 156.7230 157.3078 158.2388
   158.2388 158.3995 158.3995 158.3995 158.6493 158.6493 158.6493 158.8673
   158.8673 158.8673 159.4914 159.4914 159.4914 159.9268 159.9268 160.4265
   160.5644 160.5644 160.5644 161.0503 161.0503 161.0503 161.1112 161.2590
   161.2590 161.2590 161.5595 162.6314 162.6314 162.6314 163.5150 163.5150
   165.1470 165.1470 165.1470 165.1589 165.1589 165.1589 165.3351 165.3351
   165.7346 165.7346 165.7346 166.7369 166.7369 166.7369 166.8518 167.0140
   167.0140 171.5812 171.5812 171.5812 176.4602 176.4602 176.5340 176.5340
   176.5340 179.8880 180.6880 180.6880 180.6880 181.0044 181.0044 181.0044
   181.0416 181.0416 181.0416 181.7212 182.1141 182.1141 182.1141 184.4805
   184.4805 184.5660 184.5660 184.5660 184.6929 188.5899 188.5899 188.5899
   190.7349 190.7349 190.7349 191.3895 192.0204 192.0204 192.5201 192.5201
   192.5201 193.2376 193.2376 193.2376 193.7382 193.7382 193.7382 195.0310
   195.0310 195.0310 196.7372 196.7372 199.1687 199.1687 199.1687 199.9501
   199.9501 200.2672 200.2672 200.2672 200.3221 200.4706 200.4706 200.4706
   201.3113 201.3113 201.3113 201.9292 201.9292 201.9293 202.7674 202.7674
   206.1125 207.1993 207.1993 207.1993 212.8708 214.0215 214.0215 214.0215
   215.0101 215.0101 215.0101 216.4100 217.9329 217.9329 219.4888 220.4221
   220.4221 220.4221 220.8616 220.8616 220.8616 221.4857 221.4857 221.4857
   225.7801 225.7801 226.0954 226.0954 226.0954 227.1338 227.1338 227.1338
   227.5387 227.9052 227.9052 227.9052 228.3343 228.3343 229.4180 231.6679
   232.3593 232.3593 232.3593 232.9588 232.9588 232.9588 232.9987 232.9987
   232.9987 233.1391 233.1391 233.1391 233.5977 233.5977 233.5977 234.3062
   234.3062 234.5043 234.5043 234.5043 237.5218 237.5218 237.5218 237.5988
   237.5988 237.5988 237.6541 237.6541 237.6541 237.6830 237.6830 237.7495
   237.7495 237.7495 237.8742 239.2141 239.2141 239.2141 240.6989 240.8711
   240.8711 240.8711 241.0363 241.0363 243.0928 246.1569 246.1569 246.1569
   247.3287 247.3287 247.3287 248.2019 248.2019 248.2019 249.8446 249.8446
   249.8446 249.8447 249.8447 249.8447 251.1745 251.1745 251.6437 251.6437
   253.1496 253.1496 253.1496 253.3616 254.6695 254.6695 255.4831 255.4831
   255.4832 255.5919 255.5919 255.5919 255.9895 255.9895 255.9895 256.8169
   256.8169 256.8169 257.3624 257.3624 257.4997 258.2585 258.2585 258.2585
   258.6634 258.6634 258.6634 258.9484 259.6176 261.8157 262.4277 262.4277
   262.4277 263.5947 263.5947 263.5947 264.0812 264.0812 264.3215 264.3215
   264.3215 265.0703 265.0703 265.0703 265.1347 265.1620 265.1620 265.1620
   265.3530 265.3530 265.3530 269.6313 269.6313 269.7166 269.7166 269.7166
   269.7623 269.7623 269.7623 270.4033 270.4033 270.4033 270.5958 270.5958
   270.5958 270.6090 270.6090 270.6894 270.6997 270.6997 270.6997 270.9422
   270.9422 270.9422 271.0568 271.0568 271.0568 271.3485 271.3485 271.5325
   271.5325 271.5325 271.5471 271.5471 271.5471 271.6983 271.8065 271.8065
   271.8669 271.8669 271.8669 275.7665 275.7665 278.2125 278.2125 278.2125
   284.6983 284.6983 284.6983 284.8059 288.5767 288.5767 288.5767 289.5332
   289.9675 289.9675 295.2306 296.3951 296.3951 296.3951 297.7962 297.7962
   297.7962 298.7410 298.7410 299.9705 299.9705 299.9705 300.3466 300.3466
   300.3466 300.6660 301.4924 301.4924 301.4924 302.3874 302.7685 302.7685
   302.7685 303.9408 303.9408 303.9408 304.2230 304.2230 305.3911 309.1992
   309.1992 309.1992 309.5988 309.5988 310.2702 310.2702 310.2702 310.2897
   310.2897 310.2897 310.4344 310.4344 310.4344 311.6933 311.6933 311.6933
   312.4201 312.4201 312.4201 312.5896 312.5896 312.6714 312.6714 312.6714
   312.8514 312.8514 312.8514 313.4360 313.4361 313.4361 313.8835 313.8835
   313.9212 313.9212 313.9212 313.9950 314.8259 314.8259 314.9557 315.1771
   315.1771 315.1771 319.7941 319.7941 319.7941 322.8223 322.8223 322.8223
   323.1707 323.1707 324.1587 324.1587 324.1587 325.3924 326.5215 326.5215
   327.0324 327.0324 327.0324 327.1376 327.1376 327.1376 327.8279 327.8279
   327.8279 327.8903 327.8903 327.8903 328.2651 328.2651 328.2651 329.2549
   329.8684 329.8684 329.8684 330.0031 330.0031 331.0543 331.8655 331.8655
   331.8655 331.9194 335.2184 335.2184 335.2184 335.8740 335.8740 335.8740
   337.0603 338.0436 338.0436 338.0436 338.1899 338.1899 338.6627 338.6627
   338.6627 338.7202 338.7202 338.7202 339.0656 341.1912 341.1912 343.1941
   343.1941 343.1941 343.2344 343.2344 343.3964 343.3964 343.3964 343.4909
   343.4909 343.4909 343.5499 343.6252 343.6252 343.6252 343.9612 343.9612
   343.9612 344.1685 344.1685 344.1685 344.3567 346.1147 346.1147 346.1147
   346.1677 346.6670 346.6670 347.2638 347.2638 347.2638 347.3910 347.3910
   347.3910 348.1626 348.1626 348.1626 348.1915 348.1915 348.1990 348.1990
   348.1990 348.3400 349.0637 349.0637 349.0637 352.7751 352.7751 356.7636
   356.7636 356.7636 359.0542 360.3350 360.3350 360.3350 361.2589 361.2589
   362.8486 362.8486 362.8486 363.3811 364.1024 364.1024 364.1024 364.4893
   364.4893 364.4893 364.9241 364.9241 364.9241 365.2242 365.2243 365.2243
   365.3457 365.3457 365.5883 365.5883 365.5883 365.7698 366.5667 367.9298
   367.9298 367.9298 369.9235 369.9235 369.9235 370.2817 370.2817 370.4533
   371.0058 371.0058 371.0058 371.7699 371.7699 371.7699 372.2098 372.2098
   372.2098 372.7422 374.0218 374.0218 375.0022 375.0022 375.0022 375.1673
   375.1673 375.1673 375.5497 375.5497 377.8941 377.8941 377.8941 378.6693
   378.6694 378.6694 379.1696 379.1696 379.1696 379.2325 379.2838 379.2838
   379.4398 379.4398 379.4398 379.8826 379.8827 379.8827 379.9026 379.9026
   381.4839 381.4839 381.4839 381.6745 381.6745 381.6745 381.7121 381.7121
   381.7710 381.7710 381.7710 381.8624 381.9239 381.9239 381.9239 381.9684
   382.1647 382.1647 382.1647 382.4114 382.4114 382.4114 382.6868 382.9395
   382.9395 382.9395 383.1225 383.1225 383.1225 383.5315 383.5315 383.5315
   383.5833 383.5833 383.5833 383.7530 383.7530 386.2455 386.2455 386.4993
   386.4993 386.4993 387.0397 387.0397 387.0397 387.0416 387.3158 387.3158
   387.3158 387.4806 387.4806 387.4806 387.7091 387.7091 387.7091 387.9281
   387.9281 388.1261 388.1261 388.1261 388.2777 388.5399 388.5399 388.5399
   389.9065 391.7751 391.7751 391.7751 392.7367 400.6247 400.6247 404.1154
   404.1154 404.1154 404.2936 404.2936 404.2936 404.4598 404.4598 404.4598
   404.5070 404.5070 404.6513 404.6513 404.6513 405.4155 405.4155 408.3521
   408.3521 408.3521 408.7162 409.0587 409.0587 409.0587 409.8088 409.8088
   410.1675 410.6667 410.6667 410.6667 411.7831 411.7831 411.7831 411.9328
   411.9328 411.9328 412.1081 412.1081 412.1081 417.5127 417.5127 417.5127
   417.9921 417.9921 417.9921 418.1606 418.1606 418.1606 418.2242 418.2242
   418.2988 418.2988 418.2988 418.3211 418.3845 418.3845 418.3845 419.0306
   419.0306 419.1594 419.1594 419.1594 419.3003 424.4028 424.4028 424.4028
   429.4280 429.4280 429.9093 430.9021 430.9021 430.9021 432.1328 432.8915
   432.8915 432.8915 434.5554 434.5554 434.5554 435.4322 435.4322 435.4322
   435.8794 435.8794 435.9458 435.9458 435.9458 436.1109 436.1109 436.1109
   437.8235 437.8235 437.9985 439.2732 439.2732 439.2732 441.1523 441.3642
   441.3642 441.3643 443.1289 443.1289 443.1289 444.3119 444.3119 444.3119
   444.3474 444.3474 445.0413 446.8165 446.8165 446.8165 447.3313 447.6836
   447.6836 447.6836 448.7321 448.7321 448.7321 449.3349 449.3349 450.3949
   450.3950 450.3950 451.3874 451.3874 451.8118 451.8118 451.8118 451.8368
   452.0711 452.0711 452.0711 452.1858 452.2398 452.2398 452.2398 452.7564
   452.7564 452.7564 452.8770 452.8770 452.8770 454.1752 454.1752 454.4028
   454.4028 454.4028 454.6429 455.6852 455.6852 455.7179 455.7179 455.7179
   455.8115 455.8115 455.8115 455.8172 455.8172 455.8172 455.8259 455.8259
   455.9025 455.9025 455.9025 458.0658 458.0658 458.0658 458.1338 458.3688
   458.3688 458.3688 458.7004 458.7004 459.1779 459.1779 459.1779 459.4416
   459.4518 459.4518 459.4518 459.4660 459.4660 459.4660 459.5402 459.5402
   459.5484 459.5484 459.5484 462.3682 462.3682 463.8960 464.7972 464.7972
   464.7972 466.5588 466.5588 466.5588 468.6087 468.6087 468.6087 469.2215
   469.2215 469.3844 469.3844 469.3844 469.8888 472.1822 472.3013 472.3013
   472.3013 472.7216 472.7216 472.7216 472.9567 472.9567 472.9952 472.9952
   472.9952 474.7447 474.7447 474.7447 475.3509 475.3509 475.3509 475.4274
   475.4274 475.4274 476.2571 476.2571 476.3032 476.6991 476.6991 476.6991
   477.5512 477.5512 477.5512 477.5785 477.5785 477.5785 477.9229 477.9229
   477.9229 478.7204 478.7204 478.7701 478.7701 478.7701 478.8800 478.8800
   478.8800 478.9543 478.9543 478.9543 479.0300 479.3995 479.3995 479.3995
   480.3122 480.3122 480.6365 480.6365 480.6616 480.6616 480.6616 480.7384
   481.9779 485.0694 485.0927 485.0927 485.0927 486.6219 486.6757 486.6757
   486.6757 486.8747 486.8747 486.8747 487.4761 487.4761 487.4761 487.7346
   487.7346 487.7346 487.7978 487.7978 488.5399 488.8563 488.8563 488.8563
   489.2846 489.2846 489.2846 489.3227 489.3227 489.3687 489.3687 489.3687
   489.7754 489.7754 489.7754 489.8254 489.8254 489.8804 489.8804 489.8804
   489.9023 490.1152 490.1152 490.1152 490.2134 490.2134 490.2134 490.5268
   490.5268 490.5268 490.7290 490.7290 490.7290 491.0870 491.0870 491.3305

          k =-0.1667 0.1667-0.1667 (  3801 PWs)   bands (ev):

  -117.5774 -71.7298 -71.7298 -71.7298 -37.3603  -2.9389   1.2642   1.2761
     1.2761   1.4982   1.4982   6.4061   8.0687   8.0687  10.6076  12.2101
    12.2101  13.0407  16.0614  16.0614  17.3171  20.2258  20.7784  20.7784
    24.9127  27.2972  27.2972  27.3106  31.4400  31.4400  32.8079  32.8079
    33.7761  35.9218  38.0180  38.0180  39.9216  41.4312  41.4312  42.6333
    42.6333  44.0199  44.0199  44.8273  46.0171  46.1162  46.4891  46.4891
    47.7033  48.6325  48.6325  49.5886  50.9579  50.9579  50.9832  52.1454
    52.1454  52.3802  53.9291  53.9291  55.0870  56.3800  56.8362  56.8362
    58.7143  58.7143  60.0528  62.8524  64.4300  64.4300  65.9576  67.8332
    67.8332  69.2418  70.0660  72.1033  72.1033  75.9410  75.9410  78.2190
    78.2370  78.2370  78.7180  80.0300  80.0300  80.1189  80.9345  80.9345
    82.3255  83.3546  83.3546  83.4053  83.8710  83.8710  84.5103  85.4736
    85.4736  85.6058  86.8357  86.8357  87.4313  89.4250  89.4250  90.2568
    90.2788  90.6166  90.6167  91.9232  92.0189  92.0189  94.0957  94.3931
    94.3931  94.6483  95.5788  95.5788  96.4414  96.4414  97.7662  98.4304
    98.5642  98.5642  99.4280  99.4280 101.2752 101.6725 101.8124 101.8516
   101.8516 102.0345 102.0345 103.2693 104.3993 104.3993 105.7037 107.1699
   107.1699 108.3697 109.4614 109.4614 110.3256 111.5917 111.5917 112.0098
   113.1047 113.4795 113.4795 113.8663 114.7576 114.8839 114.8839 115.5925
   116.3355 116.3355 117.1422 117.6420 117.6420 119.3164 119.3164 120.2272
   120.3429 120.3429 123.2105 124.7911 124.7911 124.9740 125.3001 125.3001
   128.8574 128.8574 128.9392 129.7033 129.7033 130.7075 130.9007 131.2944
   131.2944 132.6434 132.6434 133.0504 134.0169 136.0045 136.0045 136.4928
   138.3865 139.1660 139.1660 140.3426 142.1864 142.1864 143.9316 144.6673
   144.6673 145.0762 145.0762 145.2977 146.0733 146.8253 146.8253 147.6985
   149.3159 149.3159 149.4800 150.3557 150.3557 151.0053 151.2563 151.2910
   151.2910 152.4036 152.6537 152.6537 152.8506 152.8506 154.3583 154.3583
   154.4141 155.7669 155.9685 155.9685 156.1212 156.7878 156.7878 157.5124
   158.6870 158.6870 159.4664 160.2535 160.2535 160.2999 160.2999 160.4460
   160.6661 160.6661 161.2257 161.3184 162.9176 163.1306 163.1306 163.6863
   163.6863 163.7685 164.3361 164.3361 165.3572 166.3062 166.3062 167.5124
   167.5124 167.7191 168.7596 169.0103 169.0103 169.4212 170.0887 170.0887
   170.4776 170.7886 170.9437 170.9437 171.1454 171.1454 171.6263 172.5772
   172.5772 173.0600 174.0330 174.0330 174.4302 174.5300 174.5300 175.4297
   175.4316 176.2311 176.2311 177.4384 177.4384 177.4647 178.0410 178.0410
   180.0593 180.1207 180.1207 181.1687 181.1687 181.8047 185.0557 185.4097
   185.4097 185.4494 185.8323 185.8323 187.8333 188.0370 188.0370 188.6075
   188.8542 188.8542 190.7076 190.7286 190.7286 191.3616 191.3616 192.1988
   192.3614 192.8648 192.8648 193.3740 193.6641 193.6641 195.2427 195.2427
   195.8629 196.0367 196.0367 196.0453 197.2353 197.9993 197.9993 199.9451
   201.2982 201.2982 201.3017 201.6373 202.3073 202.4472 202.4472 203.8019
   203.8019 205.3912 205.8325 205.8325 206.8183 208.2753 208.5084 208.5084
   209.4023 210.3356 210.3356 210.7702 210.7702 212.3928 212.3928 212.4685
   213.5750 213.5750 214.5782 215.0704 215.0704 216.2577 216.9799 216.9799
   217.6134 218.5364 218.6131 218.6131 219.8269 219.8269 220.2486 220.6332
   220.6332 221.9394 222.2252 222.5296 222.5296 223.2523 223.2523 223.4697
   223.8302 223.8302 224.3535 224.6834 224.9915 224.9915 225.3591 226.2633
   226.2633 227.8917 228.9222 230.5672 230.5672 232.0220 232.0763 232.0763
   232.6468 232.7036 232.7036 233.5379 233.5379 234.5785 235.2388 235.2766
   235.2766 235.8503 236.1752 236.1752 237.4295 237.4295 237.5632 237.5632
   237.5979 238.8905 238.8905 239.1888 239.2531 239.5632 239.5632 240.2030
   240.6206 240.7322 240.7322 241.6170 242.5220 242.5220 243.2066 243.3241
   243.3241 244.2899 244.4730 244.4730 244.6040 245.0770 245.0770 245.5424
   245.5424 245.9177 246.1868 246.7584 246.7584 247.8580 248.0510 248.4570
   248.4570 249.4391 249.4391 249.8317 251.0007 251.0007 251.1768 251.1768
   251.5382 251.9094 251.9094 252.5915 253.2041 253.2041 253.2714 253.4433
   253.6553 253.6554 254.0888 254.0888 254.1105 254.2235 254.2235 254.2897
   254.8437 254.8437 254.8633 256.4106 256.4106 256.8845 257.2377 257.2822
   257.2822 258.4878 258.8162 258.8162 259.7143 260.0955 260.0955 260.9165
   260.9165 261.3135 261.7497 261.7497 261.9342 262.2519 262.7203 262.7203
   262.8704 263.9223 263.9223 264.9782 265.1463 265.1463 266.2250 266.3912
   266.3912 266.9606 266.9606 267.1859 267.2891 267.2891 267.8802 268.6653
   268.8729 268.8747 268.8747 269.4593 269.4593 270.1036 272.4480 272.4480
   273.1327 273.3290 273.3290 274.0917 274.7298 274.7298 275.4694 275.8965
   275.8965 275.9249 276.2142 276.2142 276.5252 276.6386 276.6386 277.1450
   278.8637 278.8637 279.4332 279.6691 279.6691 279.8317 281.3165 281.3165
   281.6573 282.8433 283.0620 283.0620 283.1662 283.1662 283.5835 283.5835
   283.6496 283.6831 287.2414 287.2414 288.2559 288.2559 288.4501 288.4810
   289.8067 289.8067 290.7582 290.9365 291.2413 291.2413 291.8684 291.8684
   292.5169 292.8283 292.8283 294.6277 294.6277 296.2123 296.6203 296.6203
   296.9395 297.9325 298.5720 298.5720 299.6673 299.6673 299.8429 300.6528
   300.6528 300.7706 301.4067 301.4067 302.9822 303.3569 303.5335 303.5335
   303.8680 303.8680 304.0572 304.1321 305.3700 305.3700 307.2161 307.2161
   307.8662 307.8662 308.7422 309.1803 309.3360 309.3360 309.8914 310.5905
   310.5905 311.2684 311.3319 312.4019 312.4019 312.5725 313.5279 313.5279
   314.3825 314.3825 314.4981 314.7987 315.3458 317.1747 317.1747 317.6106
   317.9213 317.9213 318.6743 319.1646 319.7129 319.7129 320.0544 320.0544
   320.5192 320.5192 320.6540 320.9051 321.0270 321.0270 321.6622 322.2445
   322.2445 322.7444 322.9420 323.2237 323.2237 323.3961 323.3961 323.9735
   323.9735 324.1509 324.2958 324.6985 324.6985 325.3634 325.6836 325.6836
   327.2332 327.3041 327.3041 327.9385 327.9385 328.0389 328.1809 328.1809
   328.4444 329.0486 329.0486 329.4995 330.9951 331.0575 331.0575 331.3297
   332.5010 332.5010 332.9109 334.2082 334.2082 334.3853 334.8160 334.8161
   336.4369 336.6341 336.6341 337.7192 337.7192 338.2364 338.3312 338.3312
   338.7542 339.7305 339.7305 339.7912 340.7320 341.7213 341.7213 341.7951
   341.8096 341.8096 342.5925 342.5925 342.7928 342.9852 343.0224 343.0224
   344.5872 344.5872 344.8389 345.2720 345.2720 345.5893 345.9893 345.9893
   346.1571 346.1810 346.5015 346.5015 346.6711 346.6921 346.6921 346.8951
   346.8951 346.9282 347.3541 347.3847 347.3847 347.4363 349.0301 349.0301
   350.2341 350.6643 350.6643 351.4509 351.4509 351.8104 352.1280 352.3219
   352.3219 353.9859 353.9859 354.0904 355.1042 355.1042 355.2220 356.8826
   357.0696 357.0696 357.5776 357.5776 358.0072 358.6885 358.9394 358.9394
   359.0511 359.3834 359.3834 359.7885 360.6493 360.6493 361.0201 361.0611
   361.0611 361.0711 361.0737 362.8042 362.8042 363.2463 363.2463 363.6102
   363.6102 364.0465 364.1190 364.1191 364.2907 365.0511 365.3666 365.3666
   365.6672 366.0903 366.0903 366.0925 366.6880 366.8569 366.8569 367.9538
   367.9538 368.2400 368.5812 368.5812 368.6852 368.8838 369.4270 369.4270
   369.9174 370.0560 370.0560 370.0845 370.3542 370.3542 370.6762 370.6917
   370.6917 371.4108 371.6257 371.7767 371.7767 372.1236 372.1236 373.2084
   374.5491 374.5491 375.0977 375.0977 375.3117 376.4686 376.7929 376.7929
   377.1919 377.6349 377.6349 378.9714 379.0186 379.0552 379.0552 379.9226
   379.9226 380.1744 380.1744 380.4407 380.4407 380.4767 380.9324 381.1330
   381.1330 381.9392 382.2362 382.2362 382.8531 383.4790 383.7276 383.7277
   384.3440 384.3440 384.4021 384.7193 384.7193 384.7199 386.2446 386.4581
   386.4581 386.8323 387.8558 387.8558 388.4094 389.1413 389.1413 389.9114
   390.0102 390.0102 390.0876 390.7660 390.8614 390.8614 391.0593 391.0593
   392.5208 392.5404 392.5404 392.7561 393.8689 393.8689 394.3288 394.3288
   394.8901 395.1592 395.1592 395.2715 395.2805 395.3640 395.3640 395.9103
   395.9103 396.0748 396.1662 396.3933 396.3933 397.1128 397.6742 397.6742
   397.7512 397.8630 397.8630 398.7379 398.7676 398.7676 398.8281 399.0262
   399.0262 399.2855 400.5388 400.5388 401.1002 401.1002 401.3891 401.8317
   402.6271 402.6271 403.3098 403.3098 403.9475 405.4684 405.4719 405.6584
   405.6584 405.8444 405.8444 406.2325 406.2325 406.4410 406.4890 409.3922
   409.3922 410.1318 410.4528 410.4528 410.6438 410.6438 410.8435 411.1500
   411.3399 411.3399 411.4135 414.4099 414.4099 415.3188 415.3188 415.4226
   415.7721 416.6055 416.6055 417.9655 418.1951 418.1951 419.7163 421.0326
   421.0326 421.1993 423.1646 423.3560 423.3560 423.7506 424.0973 424.0973
   424.8938 425.7665 425.7665 425.8033 426.4930 426.4930 426.5574 427.8855
   427.8855 429.0790 429.0790 429.0892 429.8555 429.8555 429.9832 430.3841
   430.3841 430.7090 430.9457 430.9457 432.4164 432.4164 432.8755 433.3142
   433.3142 433.4471 434.0651 434.0651 434.2222 434.3822 434.3822 434.7965
   435.4833 435.4833 436.0875 437.0164 437.2299 437.2299 437.7502 438.1776
   438.1776 438.5825 438.5825 438.6976 438.7434 438.7434 439.0326 439.2458
   439.2458 439.9911 440.5633 440.5633 440.5913 441.0330 441.7937 441.7937
   442.7594 442.7594 443.7733 444.2993 444.2993 445.3452 445.3469 445.5644
   445.5644 446.0711 446.0711 446.2617 446.8268 446.8268 448.0285 448.4080
   448.5789 448.5789 449.3233 449.3233 449.7612 449.7612 449.9415 450.2012
   450.2865 450.2865 450.4675 451.2262 451.2262 451.5096 452.9545 452.9545
   453.1663 453.5767 453.5767 453.6406 455.0255 455.7986 455.7986 456.1801
   456.5755 457.2232 457.2232 457.4114 457.4114 457.5824 457.9744 458.5848
   458.5848 458.8382 459.2967 459.2967 459.5274 459.5274 460.1351 460.1742
   460.1742 460.6448 460.8541 460.8541 461.3727 461.3745 461.3745 461.8445
   462.4055 462.4476 462.4476 463.1755 463.1888 463.1888 463.6782 463.6783
   463.7528 464.4836 464.4836 465.3202 465.3452 465.5637 465.5637 465.6820
   465.6820 466.1135 466.5597 466.6464 466.6464 466.9395 466.9395 467.1950
   467.1950 467.2946 467.3509 467.4311 467.4311 467.6853 467.7112 467.7112
   468.0173 468.2879 468.2879 468.3018 468.7701 469.4261 469.4261 469.6867
   469.7161 469.7161 470.7186 470.7186 470.8915 471.3843 471.8379 472.3417
   472.3417 472.8345 472.8345 473.1173 473.1666 473.1666 473.5027 473.8417
   473.8417 473.9021 474.4535 474.4535 474.6580 475.3121 475.3121 475.6310
   475.6310 475.7904 476.1780 476.5276 476.5276 476.8216 477.4948 477.4948
   478.3299 478.6011 479.0743 479.0743 479.9293 479.9293 480.3315 480.9883
   481.0873 481.0873 481.3242 481.3242 481.3262 481.5228 481.5228 481.8512
   481.9590 482.1065 482.1065 482.4081 482.4081 482.6059 482.6059 482.8099
   483.0646 483.0646 483.1190 483.9531 484.1396 484.1396 485.9393 485.9393
   485.9837 486.3245 486.3245 486.4197 486.9426 486.9786 486.9786 487.3873
   487.3873 487.4641 488.3580 488.3580 488.6942 488.9405 490.5754 490.7535
   490.7535 491.5145 491.5145 491.7837 492.1179 492.1179 492.7022 492.7022
   492.8838 493.2185 493.2185 494.3253 494.3943 495.0387 495.0387 495.5771
   495.5771 495.6167 495.7192 495.9417 496.1839 496.1839 496.4830 496.4830

          k =-0.3333 0.3333-0.3333 (  3855 PWs)   bands (ev):

  -117.5774 -71.7298 -71.7298 -71.7298 -37.3598  -2.4046   1.3013   1.3013
     1.4002   1.5096   1.5096   4.0088   7.5571   7.5571  10.5732  12.4856
    12.4856  14.9682  16.6481  16.6481  17.7806  22.2553  22.6432  22.6432
    23.6363  25.0267  25.0267  27.9316  31.7373  31.7373  33.4044  33.4044
    33.7294  35.1486  35.1486  36.7981  38.2995  38.6336  38.6336  39.3923
    41.7449  41.7449  42.8699  45.0146  45.9667  45.9667  46.5287  46.5287
    47.7500  48.1263  48.1263  50.7644  51.5574  52.9816  52.9816  55.0895
    55.1619  55.1619  58.3205  58.3205  59.2597  60.3919  60.3919  60.7763
    60.8119  61.9869  61.9869  63.2871  63.2871  64.0643  65.5201  65.5201
    65.6011  67.4929  67.4929  68.5088  71.0658  71.0658  73.7409  74.1577
    74.7430  74.7430  75.6129  76.0957  76.0957  77.2567  79.5905  80.7686
    80.7686  81.8822  83.0178  83.0178  84.0844  84.0844  85.2898  85.3020
    85.3020  85.3220  86.7366  86.7366  87.3663  88.0569  88.0569  89.3408
    89.5338  89.5338  90.2457  93.2879  93.9229  93.9229  95.1908  95.1908
    95.5488  96.6825  96.8136  97.0569  97.0569  98.1666  98.1666  98.7560
    98.8202  99.0345  99.0345 100.8798 101.7825 101.7825 103.4504 104.1196
   104.1196 104.7129 104.7129 105.4454 106.3429 107.4822 107.4822 108.4964
   108.9229 108.9229 109.1556 109.5853 109.5853 110.5675 110.5675 111.9008
   111.9982 112.2205 112.2205 113.5001 114.0926 114.0926 114.2312 115.2562
   115.2562 117.2097 117.2097 118.3477 119.3184 119.3184 120.6758 121.0365
   122.2440 122.2440 123.9281 125.7459 127.2103 127.2103 128.5458 129.2918
   129.2918 130.4323 131.0992 131.0992 132.0137 132.0137 133.6568 133.6568
   134.4508 134.4508 134.9490 134.9820 136.0340 136.2234 136.3342 136.3342
   136.5234 136.5234 137.9974 137.9974 138.2289 139.1147 139.1147 139.3595
   140.5833 140.8687 140.8687 140.9599 143.3582 143.6033 143.6033 144.7623
   145.1964 145.1964 145.8335 145.8335 146.7724 146.7724 146.9079 148.0356
   149.2533 149.7902 149.7902 151.1997 151.1997 151.6487 152.8129 152.8129
   152.8359 154.0792 154.6353 154.6353 155.7164 156.8554 157.0780 157.0780
   158.7100 158.7100 159.0293 159.0293 159.0991 159.2164 159.7799 159.7799
   160.0520 161.0389 161.0389 161.9098 162.3778 162.3778 164.5084 164.5084
   164.6578 164.7825 164.7825 164.9749 165.7694 165.9976 165.9976 167.4041
   168.0339 168.0339 168.0999 168.8920 168.8920 170.2156 170.2157 171.1174
   171.9261 172.1965 172.2029 172.2029 172.8972 172.8972 173.3756 173.6047
   173.6047 175.2043 176.2816 176.2816 176.6089 176.6089 177.9166 178.3260
   179.3525 179.3525 179.4552 180.7291 180.7291 182.0142 182.3680 182.5878
   182.5878 182.7470 183.2159 183.2159 184.0746 184.9584 185.0109 185.0109
   185.6743 185.6743 186.7187 187.2495 187.2495 188.3932 188.3932 190.1036
   190.1366 190.1366 190.3961 190.8017 191.0083 191.0083 192.9988 193.0638
   193.0638 193.5101 195.3434 195.3434 196.1153 196.6371 196.6371 197.2347
   197.2347 197.5751 198.7416 200.3060 200.3060 201.2589 201.2589 202.4872
   202.6598 202.6598 202.9057 204.0906 204.2235 204.2235 204.8748 204.8748
   205.7396 206.7320 206.8930 206.8930 207.7190 207.7190 207.9233 208.2036
   208.7178 208.7178 208.9396 209.1152 209.1152 210.1030 210.1030 210.2553
   210.4555 212.0792 212.0792 212.4858 212.4858 213.1044 213.7807 214.1914
   214.1914 214.9546 214.9670 214.9670 216.5720 218.5878 218.5878 218.6933
   219.3456 219.3456 219.7962 220.1357 220.1357 220.8425 220.8425 221.1521
   221.1521 221.3244 221.5462 221.8848 221.8848 222.7695 224.4581 225.9267
   226.2695 226.2695 227.3913 227.3913 227.9439 227.9822 228.8516 228.8516
   229.3784 230.9560 230.9560 231.4360 232.4075 232.4075 233.3447 233.3763
   233.3763 233.5750 233.5750 234.2868 234.2868 234.8522 234.8522 235.5660
   235.8459 236.3795 236.3795 237.4509 238.5321 238.5672 238.5672 239.3335
   239.3335 239.5466 239.9664 239.9664 241.0505 241.0505 241.1433 241.4801
   241.8700 241.8700 242.0317 242.6959 243.2911 243.2911 244.2880 244.2880
   244.3662 244.6479 245.7236 245.7236 245.8916 246.5637 246.5637 248.0465
   248.3739 248.6336 248.6336 249.4098 249.4098 250.4937 250.6664 250.6664
   252.0046 252.1433 252.1433 254.1007 254.4150 254.4150 254.5524 255.2843
   255.7188 255.7188 255.7432 256.2781 256.2781 256.8553 256.9250 257.1356
   257.1356 257.3493 257.3493 257.6594 257.6594 257.8341 259.0547 259.1506
   259.1506 259.5352 260.2974 260.2974 260.5618 262.4189 262.4189 262.8561
   263.1293 263.1345 263.1345 263.7222 263.7222 263.8489 263.8489 264.0069
   264.5726 265.1889 265.1889 266.1120 266.1718 266.2301 266.2301 268.5853
   268.5853 269.3060 269.3060 269.3619 269.9592 270.0904 270.0904 271.1512
   271.1512 271.7104 271.7104 271.7324 273.3505 274.7597 274.8592 274.8592
   275.8089 275.8089 275.8895 277.5203 277.5203 278.3028 279.1011 279.1011
   280.3999 280.4637 280.8273 280.9249 280.9249 281.5215 281.5215 281.6447
   281.6447 281.7247 281.9383 281.9522 282.4775 282.4775 283.2238 283.2238
   283.2669 283.8184 284.2062 284.2062 284.9522 285.7718 285.7718 286.1003
   286.4780 286.4780 287.5778 287.5778 289.3062 289.5166 289.5166 290.3897
   290.3897 290.4658 292.2504 292.5504 292.8160 292.8160 293.7765 293.7765
   294.2513 294.2513 294.2844 295.0017 295.5556 295.5556 295.8675 295.9421
   295.9421 296.5077 296.5197 296.5197 296.9765 297.9350 297.9350 298.3372
   298.7647 298.9903 298.9903 299.6027 299.6027 300.2716 300.8017 300.8017
   301.0969 302.0128 302.0383 302.0383 303.2332 303.2762 303.2762 303.4910
   304.6754 304.6754 305.5861 305.5861 305.7929 305.9455 305.9455 306.1741
   306.5641 306.5914 306.5914 308.1381 308.3031 308.3031 309.0066 309.8693
   309.8693 311.4080 311.4080 311.5263 312.2229 312.2229 312.5863 313.4276
   313.5421 313.5421 314.5934 314.5934 316.2503 316.5353 316.5353 316.9016
   317.8533 317.8533 319.0215 319.2887 319.9244 319.9244 320.9517 321.0918
   321.0918 321.8063 321.9737 321.9737 324.1449 324.1449 324.3227 324.3565
   325.2439 325.2439 325.7772 326.2252 326.2252 327.5064 327.5064 328.0896
   328.7973 328.9160 328.9160 329.6014 329.6014 329.8775 330.2555 330.2555
   330.3888 331.9496 331.9496 332.1895 332.3042 333.0578 333.0578 333.3336
   333.5705 334.2048 334.2048 335.0390 335.2267 335.2267 335.9146 335.9146
   336.8374 336.8374 337.7937 338.0884 338.0884 338.1418 338.6199 338.6199
   339.0311 339.8668 340.2068 340.2068 340.5021 340.9183 340.9183 341.2073
   341.6361 341.6361 341.8673 342.0432 342.0432 342.4506 343.3473 343.3473
   343.5073 344.3735 344.3735 344.5816 344.5816 344.7657 344.8125 344.9909
   344.9909 345.0049 346.0718 346.0718 346.7296 347.0599 347.0599 347.2687
   347.9659 348.1798 348.1798 348.8643 348.8643 348.9602 349.1146 349.7682
   349.7682 350.1064 350.5496 350.5516 350.5516 351.0949 351.0949 351.6534
   351.6534 351.9064 352.1440 353.3012 353.3925 353.3925 353.7929 353.7929
   354.2460 354.2460 354.4230 354.5498 355.8010 355.8509 355.8509 356.5076
   356.5076 356.6695 356.6695 356.8182 356.8438 356.8743 356.8743 356.9605
   356.9605 357.3674 357.4694 357.4694 357.8337 358.4963 358.4963 358.5938
   359.0549 359.0549 360.3994 360.3994 360.6818 362.2994 362.2994 362.6078
   363.1384 363.1384 363.9709 365.3078 365.3078 366.1764 366.3063 366.3063
   367.1659 367.2517 367.2517 368.6679 368.9306 370.1616 370.1616 370.9658
   371.0946 371.0946 371.7758 371.7758 372.0964 372.4425 372.4519 372.4519
   375.0482 375.1884 375.1884 376.2276 376.2276 376.8887 377.7575 377.7575
   378.0418 378.4913 378.4913 379.0389 379.0389 379.1406 379.2673 379.4489
   379.4489 379.9762 379.9762 380.0035 380.0109 380.1116 380.1771 380.1771
   380.3333 380.3733 380.5144 380.5144 381.8232 381.8233 382.0916 382.0916
   382.4640 382.5081 383.2742 383.2742 383.9203 385.1820 385.1820 385.2976
   385.4018 386.1377 386.1377 386.1552 387.4126 387.4126 388.0162 388.6791
   388.6791 389.2721 389.7621 389.7621 390.6649 390.8392 390.8392 391.8888
   391.8888 392.0121 392.1969 393.1452 393.1452 393.4795 393.7844 393.7844
   394.2107 394.2107 394.7155 395.1614 395.1672 395.1672 395.6777 395.6777
   396.3553 396.3698 396.4560 396.4560 397.2814 397.3871 397.3871 398.1456
   398.8495 398.8495 399.7205 399.7205 399.9941 400.6154 402.2215 402.2215
   402.6793 402.6793 403.0208 403.1454 403.1454 403.1931 403.8199 404.4896
   404.4896 404.5901 404.6046 404.7847 404.7847 405.0505 405.0505 405.1647
   405.3105 405.3105 407.1166 407.1166 407.7842 407.9322 407.9441 407.9441
   409.5667 409.6382 409.6382 410.0089 410.5836 410.5836 410.9244 410.9244
   411.0512 411.1572 411.3176 411.3176 412.4870 412.4870 412.7388 413.4749
   415.3907 415.8461 415.8461 416.3301 416.3301 416.4184 417.2979 417.2979
   417.3277 417.4129 417.4129 417.6600 418.3686 418.3686 418.5146 419.4101
   419.4101 419.6463 419.6463 420.1656 421.3051 421.3051 422.4858 423.2371
   423.2371 423.4936 423.8929 424.9830 424.9830 425.7223 425.7223 425.8604
   426.4886 426.4886 426.6241 427.5110 427.5110 427.9473 428.0959 428.0959
   428.3535 428.9366 429.0483 429.0483 429.1974 429.1974 429.9875 430.5862
   431.1171 431.1171 431.7660 432.5782 432.5782 433.1429 433.1429 433.5780
   433.9528 433.9528 433.9574 434.8704 434.8704 434.8926 435.5472 435.5724
   435.5875 435.5875 435.8977 435.8977 436.4023 436.4023 436.5492 436.7772
   436.8496 437.4541 437.4541 438.4391 438.8510 438.8511 439.6535 439.6535
   440.1750 440.9958 441.5187 441.5187 441.5882 441.6620 441.8343 441.8343
   442.9110 442.9110 443.3783 443.3783 443.4350 444.0428 444.1755 444.1755
   444.9120 445.4984 445.4984 445.9477 445.9490 445.9490 446.1587 447.1501
   447.1501 447.8839 448.1034 448.1034 449.1909 449.1909 449.3840 449.4814
   449.9601 449.9601 450.2347 450.5448 450.7169 450.7169 451.1318 451.1318
   451.4219 451.4219 451.7079 451.8347 451.8347 452.1993 452.4095 452.6798
   453.2282 453.2282 454.9226 454.9226 455.4880 455.4880 455.5232 455.6191
   455.6191 455.6862 456.1639 456.3106 456.3106 456.9064 456.9064 457.1053
   457.2570 457.2570 457.2802 459.6624 459.6624 460.0691 460.6648 460.6648
   460.9474 461.8061 461.8061 462.1162 462.1854 462.1854 462.3761 462.3761
   462.3846 462.5534 462.6490 462.7580 462.7580 462.9350 463.0814 463.0814
   463.5855 463.9360 463.9360 464.4122 466.0119 466.0384 466.0384 466.1755
   466.1755 466.2423 467.2065 467.2065 470.5010 470.5010 470.7889 472.2074
   472.7118 472.7118 473.0066 473.3830 473.3830 473.9128 474.1240 474.1240
   474.4876 474.4876 474.4952 474.6530 474.9655 474.9655 475.1842 475.1842
   475.2857 475.7622 475.8225 475.8225 476.9770 476.9770 477.0042 477.4149
   477.4149 477.4313 477.5849 477.8446 477.8446 478.3064 478.3064 478.5661
   479.1092 479.1092 479.5030 480.6743 480.6743 480.9444 481.3101 481.6846
   481.6846 481.9730 481.9730 482.0892 482.1147 482.1147 482.4755 483.5303
   483.5303 483.5493 483.7325 483.7325 483.7948 483.8873 483.8873 483.8974
   484.8786 484.8786 485.1069 486.6170 486.9479 486.9479 487.5124 487.5124
   487.6374 488.3555 488.3555 488.9217 488.9561 488.9561 488.9952 489.1340
   489.1340 489.2132 490.2767 490.6940 490.6940 491.1447 491.5313 491.5313
   491.9352 492.1142 492.1142 493.2131 493.8556 494.1187 494.1187 496.2131
   496.3855 496.3855 496.8445 496.8445 497.7750 498.6148 498.7959 498.7959
   499.2447 499.3129 499.3129 499.8273 499.8273 500.1694 500.3396 500.6854

          k = 0.5000-0.5000 0.5000 (  3828 PWs)   bands (ev):

  -117.5774 -71.7298 -71.7298 -71.7298 -37.3596  -2.0717   1.3035   1.3035
     1.5269   1.5269   1.7695   2.6845   7.3585   7.3585  10.5174  12.3189
    12.3189  15.6533  18.8809  19.1479  19.1480  19.4645  19.4645  20.7241
    25.1926  28.1972  28.1972  28.8154  30.0768  30.0768  33.0328  33.0328
    33.5853  34.1253  34.1253  34.9983  37.3255  37.3255  37.5056  38.7669
    40.9265  40.9265  41.4032  44.6019  46.3176  46.3176  47.2975  47.2975
    48.7856  49.9644  49.9644  50.4550  52.4654  55.6768  55.8942  55.8942
    56.3915  56.3915  57.0324  57.0324  59.5958  60.8476  60.8476  60.8873
    61.5718  61.5718  64.2923  64.5427  64.5427  65.2528  65.2529  66.7367
    66.8834  67.5377  68.5061  68.5061  69.1551  69.1551  70.0669  71.4242
    73.3650  73.3650  74.6175  75.1450  75.1450  75.7199  75.7199  78.4763
    79.1603  80.7445  80.7445  83.2070  84.3103  84.7705  84.7705  85.4823
    86.0449  86.0449  87.1846  87.1846  87.6171  89.8116  89.8116  89.9426
    90.4384  90.4384  90.6014  91.8086  92.4815  92.4815  93.8955  94.6210
    94.6210  94.6877  95.9205  96.0937  96.0938  98.7085  99.8458  99.8458
   100.7576 100.7576 101.4156 102.3571 102.3571 102.7129 103.4553 103.6220
   104.0657 104.0657 105.2546 105.3223 105.3223 106.5595 106.5595 107.3039
   108.0725 108.0725 110.5215 110.5215 110.5272 111.9406 112.5116 113.2268
   113.2268 113.7781 113.7781 115.0702 116.3678 116.3678 118.2125 118.2125
   118.8428 119.7835 120.5259 120.5259 120.8063 120.8063 123.0940 123.1192
   123.1236 123.1236 123.1671 124.0926 124.0926 124.4533 124.4533 125.9704
   127.1170 127.1170 127.4958 127.5877 127.5877 128.3493 129.2998 130.6317
   130.6317 133.5465 134.9820 134.9820 135.5147 135.9027 136.3943 136.3943
   137.7451 138.6399 138.6399 138.7693 139.8791 140.4300 140.4300 141.4191
   141.4191 141.9890 142.5267 142.5267 144.1991 144.3412 144.3412 146.3310
   146.3310 146.9233 147.1450 147.1500 147.1500 148.3709 148.4534 148.4534
   148.7775 148.7775 149.0994 149.4491 149.9177 149.9177 150.5371 150.5371
   151.9924 151.9924 152.7104 153.1466 153.8694 153.8694 155.5647 155.5647
   155.8979 156.7856 157.0211 157.0211 157.5408 157.5408 157.6839 158.6520
   158.6520 159.1832 159.5562 159.5562 160.6936 163.0343 163.8021 163.9435
   163.9435 165.1353 165.1632 165.1632 165.9468 167.3764 167.3764 167.8794
   168.2776 168.3649 168.3649 168.6474 168.6474 169.3016 170.0356 170.0356
   171.0667 171.8363 172.3698 172.3698 172.6288 173.2600 173.2600 175.1747
   175.8625 177.4892 177.4892 178.0161 178.0161 178.4309 178.4723 178.4723
   178.8851 179.3192 179.3192 180.0355 180.0356 181.4392 181.4392 182.5409
   182.9981 186.9305 187.0137 187.0137 188.3330 188.6906 188.6906 188.7872
   188.7872 189.2735 190.7534 191.0972 191.0972 191.6521 192.1976 192.1976
   193.0317 193.4275 193.4275 194.4251 194.4251 194.5556 194.8984 194.9145
   195.1564 195.1887 195.1887 196.0606 196.0606 196.2198 196.4296 196.4296
   197.0893 198.1232 198.1232 199.3256 199.3256 199.5756 199.5756 199.9055
   200.6085 202.6072 202.6072 203.1180 203.4975 203.4975 203.7144 203.7144
   203.9070 204.2367 204.3109 204.3109 204.7201 204.7201 206.0977 206.0977
   206.3081 206.3150 207.6188 207.6188 207.7619 209.1993 211.2272 211.6301
   211.6301 212.7415 212.7415 213.5376 213.5376 213.7761 214.1170 214.3725
   214.3725 215.4735 215.5446 215.5446 216.8692 216.8692 217.3115 217.7179
   217.7180 217.8291 219.0108 219.0108 219.7257 219.7257 219.9283 220.1200
   221.5208 221.5208 222.4931 223.2543 223.2543 223.5945 223.5945 223.6801
   223.8182 223.8182 223.8343 224.3916 225.0308 225.0308 226.4952 228.4544
   228.7184 228.7184 229.2861 229.6167 229.6167 229.8191 229.8191 230.2822
   230.6879 230.7725 232.1193 232.1193 232.4407 232.4407 232.9603 233.3228
   233.3228 234.2171 235.7307 235.7307 236.6609 237.3418 238.0724 238.0724
   238.6642 239.2538 239.2538 239.6767 239.6767 239.8796 241.2399 242.8136
   242.8136 243.4191 243.4191 243.5808 244.8996 244.8996 245.5862 246.2255
   246.2255 246.9681 246.9961 246.9961 247.9647 247.9647 248.2684 249.0350
   249.0350 249.0509 249.2438 249.6021 249.7268 249.7268 249.8214 252.0417
   252.0417 252.3829 252.3829 252.8323 252.8323 253.1194 253.1361 253.1361
   254.8267 255.0762 255.0762 256.3276 256.7534 256.8215 256.8215 257.2440
   257.2440 257.4977 257.9818 257.9818 258.2021 259.5789 260.4530 260.4530
   260.7238 260.7238 260.8175 261.4438 261.8143 261.8143 261.8536 262.4971
   262.4971 262.6805 264.1337 264.1337 264.9101 264.9101 265.9599 267.1828
   267.1828 267.8878 268.4846 268.6855 269.0566 269.0566 270.2699 270.2699
   270.4366 270.8869 270.8869 271.6169 272.9503 272.9503 273.6505 273.9451
   273.9451 273.9719 274.1502 274.2776 274.2776 274.4954 275.2006 275.4911
   275.4911 275.8068 275.8068 276.3737 276.8735 276.8735 276.9043 278.3751
   278.3751 279.4256 280.5621 280.5621 281.4976 282.1068 282.1068 282.6307
   284.5072 284.6074 284.6074 284.6637 285.5718 285.5718 286.6317 286.6317
   286.9527 287.0303 287.0303 287.0855 287.3175 287.3175 287.4381 287.8278
   287.9592 287.9592 288.0824 288.0824 288.2698 288.2698 288.4171 288.6513
   289.1404 289.3208 289.3208 290.1680 290.1680 290.1993 290.4289 290.4289
   291.0144 291.2759 291.2759 292.0908 292.4857 292.4857 293.3207 293.4352
   293.4352 293.6383 294.1366 295.4596 295.4596 296.3725 296.3725 296.8251
   296.8847 297.9065 297.9065 298.3867 299.6659 299.6813 299.6813 300.1162
   300.1162 300.8311 302.3790 302.3790 303.0555 303.6662 303.6662 303.7016
   305.3417 305.8822 305.8822 306.1927 306.1927 308.8153 308.8154 309.2064
   309.2538 309.2538 310.4875 312.0834 312.1186 312.1186 312.7447 312.7447
   313.0154 313.0154 313.0260 313.4258 313.4258 313.5633 313.5830 314.5248
   314.5248 314.5966 314.9416 314.9416 315.2024 315.2024 315.5018 316.0430
   316.0430 317.1063 317.1239 317.1363 318.2042 318.2042 319.0342 319.0342
   319.7060 320.1194 320.7141 320.7142 321.4030 321.4030 321.6545 322.9186
   323.9992 323.9992 324.5820 324.8721 324.8721 325.2671 325.2671 325.4717
   325.5181 326.2684 326.2684 327.4353 328.4185 328.9250 329.1523 329.1523
   329.6737 329.6737 330.1807 331.3715 331.8193 331.8193 332.4213 332.4213
   333.6538 333.6538 333.9296 333.9296 334.2226 334.2226 335.1531 335.2187
   335.7595 335.9425 336.6084 336.6084 337.0093 337.4065 337.4065 337.4504
   337.4504 338.2226 338.2226 338.7212 338.7212 338.9623 339.2623 340.4446
   340.4446 340.7882 341.1366 341.1366 341.2113 341.2113 341.2520 341.3017
   342.4742 342.4742 343.3753 343.3753 343.4287 343.5022 343.5152 343.5152
   343.5252 344.7250 344.7250 344.8127 344.9016 345.7200 345.7200 346.4637
   346.4637 346.8288 348.2707 348.8848 348.8848 349.9603 349.9603 349.9911
   350.5012 350.5012 350.5640 350.6874 350.7182 350.7182 351.3480 351.3480
   351.8277 352.2182 353.7720 353.7720 354.4706 354.4706 354.6264 354.9776
   354.9776 355.4837 355.5796 355.8769 355.8769 356.3155 356.3155 356.5111
   356.5111 356.6237 357.2655 358.6267 358.6267 359.1586 359.8306 359.8306
   360.2630 361.0274 361.4365 361.4664 361.6454 361.6454 361.7468 361.7468
   361.8638 361.8638 361.9609 362.0265 362.3864 362.5034 362.5034 363.0497
   363.0497 363.0676 364.0121 364.0121 364.3867 365.3505 365.3505 366.4851
   366.8500 366.8500 367.2972 367.2972 367.4505 367.4505 367.7366 367.7430
   367.7919 367.8644 367.8644 369.3239 370.3763 370.3763 371.3007 371.4266
   371.4266 371.8213 374.5755 374.5755 375.7959 377.4792 377.9587 377.9587
   378.0003 378.0003 379.3379 379.4454 379.4454 379.6118 379.6118 379.7960
   380.1111 380.1111 380.5429 380.5429 380.8477 381.4725 381.4725 381.9237
   381.9237 383.2003 384.3171 384.9768 385.3555 385.3555 385.9540 385.9540
   386.3016 386.3016 386.5690 386.6932 386.6932 386.7644 386.8544 386.8544
   386.8843 387.0454 387.0765 387.0765 387.2727 387.2765 387.2765 387.3278
   388.9398 388.9398 389.5369 389.5369 389.5896 389.6753 389.9659 390.1927
   390.1927 391.1017 391.2705 391.2705 393.9385 394.3785 394.3785 394.9063
   396.5032 396.5032 397.2088 397.2088 397.8318 397.8359 397.8359 397.9216
   398.4853 398.4853 398.5972 398.6430 398.6430 398.9726 399.7076 399.7076
   399.8139 400.6902 400.7790 400.7790 401.2352 401.2352 401.5320 401.7433
   401.8871 401.8871 401.9718 401.9718 402.2267 402.2267 402.3783 402.6258
   404.1652 405.5827 405.5827 406.6290 406.6290 407.0181 407.0181 407.3533
   407.4002 407.4004 407.4004 407.4023 409.7185 410.2343 410.2343 410.6898
   411.2947 412.1741 412.1741 412.6184 412.9536 412.9536 413.6103 413.6103
   414.0538 414.2050 414.2079 414.6017 414.6017 414.9269 415.1025 415.1025
   415.3887 415.4903 415.4903 415.8809 415.8809 416.1736 416.6470 416.6470
   417.3302 417.6010 417.6010 418.1585 419.2822 419.2822 419.9296 420.1182
   420.1182 420.6791 422.1235 422.5703 422.5703 422.8164 423.4697 423.4723
   423.4723 423.4998 423.7518 423.7518 424.0529 424.0529 425.5189 425.5189
   425.6315 425.6315 425.7191 425.7431 426.3011 426.3011 426.4770 426.5452
   426.5452 426.6363 426.7015 426.7015 426.8260 426.8260 427.0557 427.1521
   428.4249 429.4557 429.4557 430.4649 430.6814 430.6814 431.0739 431.0739
   431.6718 432.9083 432.9083 433.2404 433.2404 433.5612 433.9467 434.1755
   434.1755 434.3194 434.3408 434.3491 434.7166 434.7166 434.8147 434.8147
   435.2356 436.3801 436.3801 438.3596 439.2835 439.5370 439.5370 439.5889
   439.8371 439.8371 439.9181 440.8129 441.1001 441.1001 441.6553 441.6553
   442.0192 442.0943 442.0943 442.5091 442.6180 442.6180 443.0655 443.0655
   443.3548 443.3548 443.8795 444.4658 444.4658 444.9197 444.9864 444.9864
   445.0521 445.1692 445.1692 445.2264 446.0149 447.3183 447.3183 448.0718
   448.0718 448.2356 448.4546 449.2977 449.2977 449.4511 449.9392 449.9681
   449.9682 450.0282 450.0282 450.5083 450.5083 450.6230 450.6238 450.8119
   450.8119 451.0083 451.0083 451.2947 453.0059 453.0074 453.0916 453.0916
   453.4625 453.4625 456.6774 456.6774 456.7764 456.8465 456.8465 456.9055
   456.9055 457.3131 457.3131 457.6355 458.0767 458.0776 460.0769 460.0769
   460.6076 461.0603 461.0603 461.1668 461.3642 461.3642 462.4150 462.9708
   464.3744 464.3744 465.3727 465.5937 465.5937 467.6643 468.0334 468.0334
   468.2969 468.4484 468.4484 468.9829 469.0902 469.3336 469.3336 469.3802
   469.7627 469.7627 470.0181 470.0181 470.0579 470.0857 470.0857 470.1580
   470.2065 470.2065 470.3608 470.5058 470.5709 470.5709 470.5779 470.7142
   470.7142 470.8991 472.0712 472.0712 473.2472 473.2472 473.6643 474.1719
   474.1719 474.3230 474.4510 474.9540 475.0064 475.0064 475.4901 475.4901
   475.6745 475.6745 475.8188 475.9722 476.1621 476.1621 476.4365 476.4703
   476.4703 476.6818 476.8365 477.1562 477.1562 477.4736 477.4736 477.5309
   480.8088 480.9997 480.9997 481.3270 481.3270 481.6379 481.6379 481.8404
   481.8404 481.8824 482.1215 482.1215 482.2485 482.2801 482.3343 482.3343
   482.5892 482.6053 482.6053 482.7512 482.7512 482.8299 484.0122 484.0122
   485.1213 485.4441 485.4441 485.4605 490.5307 490.5307 491.2661 491.2661
   491.2681 491.3320 493.1514 493.1514 494.3417 494.3417 494.4608 495.0310
   495.3615 495.3639 495.3639 495.4857 495.4857 495.6489 496.4827 496.4827
   496.8190 496.8190 496.8599 497.2869 497.4488 497.4488 497.9677 497.9677
   498.1301 498.2713 499.8943 499.8943 500.1155 502.8980 502.8980 502.9784

          k = 0.0000 0.3333 0.0000 (  3839 PWs)   bands (ev):

  -117.5774 -71.7298 -71.7298 -71.7298 -37.3602  -2.8631   1.2410   1.2978
     1.2978   1.4760   1.5165   6.6780   7.4115   7.4115  11.0175  11.8954
    13.0606  13.0606  14.8032  17.8350  19.0973  19.2507  19.2507  21.9884
    25.3940  26.3044  26.3044  28.9743  29.4920  30.6713  32.8662  32.8662
    34.9574  37.0853  37.0853  39.0362  39.6538  40.7304  40.7304  40.7450
    43.6920  43.6920  43.7720  44.5926  46.1342  46.1342  46.3657  46.9791
    47.7133  49.1537  49.1537  49.1681  50.1637  50.1637  51.6480  51.9621
    52.9586  53.0037  53.0037  53.3224  56.5903  57.3930  57.3930  57.6121
    58.7129  59.9338  61.5617  61.5617  64.1919  66.2814  66.5513  66.5513
    67.3624  71.4119  71.6720  71.6720  72.0409  73.4376  75.3874  76.0151
    76.1991  76.1991  78.3082  78.4437  78.4437  80.5652  80.9186  80.9186
    81.3749  83.1057  83.1078  83.4528  83.4528  84.1390  84.1390  84.3799
    85.9817  86.4473  87.7544  87.8544  87.8544  90.2859  90.4524  90.4524
    90.7812  91.0003  91.7223  91.7223  92.1402  92.7260  93.9404  94.6039
    94.6039  94.7363  95.7268  96.1026  96.1026  96.8367  97.8875  98.6187
    98.6187  98.9303  99.1171 100.2915 100.7352 100.7352 100.9682 101.7572
   102.1140 102.1140 103.0693 103.1119 103.1119 104.0116 105.4111 106.2615
   107.7789 107.9642 107.9642 109.4987 109.4987 110.1854 110.2990 112.4552
   113.3350 113.3350 114.6146 114.6831 114.6831 115.3086 116.0400 116.9355
   116.9966 118.0139 118.0139 119.4866 119.4866 120.2238 120.5706 121.2860
   121.2860 123.3060 123.5365 124.4778 124.4778 124.6779 125.1884 125.4820
   125.4820 126.5049 127.5065 128.2914 129.1687 129.1687 129.5446 131.4976
   132.2633 132.6495 132.6495 135.0107 135.5202 137.6513 138.0646 138.0646
   138.6697 138.6697 139.7909 140.3080 141.4449 141.9816 141.9816 142.4950
   142.4950 143.5417 144.0022 145.7076 145.7076 146.2453 146.2834 147.2295
   147.2295 147.2908 148.2616 149.3093 149.9836 150.5068 151.1371 151.1371
   151.8238 152.3257 152.3257 152.4279 153.4442 153.5849 153.5849 153.8595
   153.8793 155.9825 155.9825 155.9934 156.3473 156.3863 156.3863 157.0045
   157.3880 157.3880 158.7051 158.9052 159.3585 159.3585 159.5134 160.2791
   160.9262 160.9262 161.4306 161.8439 161.8439 162.0147 162.7522 164.0390
   164.0390 164.2803 165.4729 165.6558 165.6558 166.3068 166.6739 167.0036
   167.3187 167.3187 167.4424 167.7945 168.7250 169.1699 170.1084 170.1084
   171.4930 171.4930 171.8918 173.0616 173.0616 173.0980 174.1093 174.4169
   174.6284 175.0158 175.0158 175.2232 175.8450 176.5730 176.5730 177.9789
   177.9789 178.1448 178.1672 179.1256 179.3418 179.3826 179.3826 180.2971
   180.3223 181.1024 181.1024 181.3886 181.5404 181.8098 181.8098 182.7662
   184.0270 184.0270 184.0609 184.9637 185.0696 185.0697 185.1927 187.2807
   187.3972 187.7360 188.3170 188.3170 188.6834 188.9917 189.2341 189.2341
   191.4349 193.6083 193.6083 193.7834 194.4736 195.2486 195.4475 195.4475
   195.8655 197.5518 197.5518 198.3616 199.3516 200.0398 200.0398 200.0851
   202.6417 202.6417 202.6598 203.0219 203.1547 203.5788 203.9145 203.9145
   204.1761 206.2897 206.5431 207.2280 207.2280 207.6955 208.0400 208.2062
   208.2062 208.5547 208.6588 208.6588 209.2405 210.8335 211.6437 212.0927
   212.0927 212.7475 212.7475 214.2852 214.7735 216.3820 217.4064 217.4064
   217.5393 218.2938 218.6544 218.6544 219.4458 219.4458 219.9517 220.1990
   220.7854 220.8948 220.8948 222.5620 223.2626 223.7455 223.7455 224.5337
   224.6586 224.6586 225.6296 226.1312 227.1276 227.1276 227.9359 228.2200
   228.2200 228.3092 228.9429 229.5404 229.5404 230.1011 230.7296 232.4861
   232.9840 233.3286 233.5707 233.5707 234.1144 234.5720 234.5720 235.0210
   235.3749 235.6015 235.6015 236.0922 236.0922 236.4890 236.7928 237.0697
   237.4061 237.4061 237.5082 237.7592 238.0921 238.1710 238.2827 238.2827
   238.9966 238.9966 239.2559 240.1812 240.5762 240.8611 240.8611 241.2215
   242.0841 242.0841 242.3366 243.2013 244.5513 245.2586 245.2598 245.2598
   245.8354 246.3771 246.4515 246.4515 246.6876 247.5389 248.2328 248.7086
   248.7086 249.5283 249.8614 249.8614 250.0994 250.4299 250.4574 250.4574
   250.6319 250.6712 250.8302 251.3701 251.3701 251.9526 252.5559 253.7587
   253.7587 254.2690 254.2690 254.3804 255.2634 255.8153 256.0354 256.1513
   256.1513 256.4228 256.6042 256.6042 257.5262 257.7242 257.7242 258.2293
   258.4332 258.4332 258.4854 259.0351 259.4682 259.4682 259.8778 260.4719
   260.5452 260.5452 260.8282 262.0413 263.0337 263.0337 263.5072 263.7859
   265.2964 265.5037 265.9045 265.9045 266.4638 266.4638 266.5806 266.6029
   267.0297 267.1987 267.1987 267.5677 267.6908 268.1001 268.6084 268.6084
   268.6957 270.0470 270.0470 270.0633 270.3364 270.7166 270.7166 271.5321
   271.9876 273.1881 273.1881 274.4142 274.5523 275.1023 275.7616 275.7616
   276.4970 276.9522 277.7859 277.7859 277.9694 279.2750 279.2750 279.2983
   279.3045 279.6782 279.7779 279.7779 280.2725 280.8815 282.7824 282.7824
   282.8290 283.1474 283.5569 285.5110 285.6762 285.6762 286.0907 286.0907
   286.4718 286.7072 286.8447 286.8448 286.9117 287.2127 287.2127 287.8562
   288.0009 288.9092 288.9092 289.8412 290.7851 290.7851 291.0243 291.6816
   292.3499 292.6085 292.6375 292.6375 293.5296 294.3060 295.0728 295.0728
   295.9463 296.4132 296.8465 296.8465 297.5739 298.6593 298.6593 299.5666
   300.3657 301.0233 301.0233 301.3661 301.7369 301.7369 302.5086 302.6930
   303.6284 304.7568 304.9615 304.9615 305.6632 306.4337 306.8605 307.0007
   307.0007 307.7752 308.6553 308.6553 309.7820 310.6255 310.7784 310.7784
   310.7923 311.0074 311.0074 311.5863 312.4097 312.9053 312.9053 313.0394
   313.3399 314.5076 315.7459 315.8424 315.8424 315.9621 317.1364 317.6801
   317.6801 317.7275 317.8963 318.5086 318.5519 318.5519 319.6880 319.6880
   319.7897 319.8416 320.8683 320.8683 321.5119 322.1271 322.1271 322.3994
   322.7439 322.7543 323.8549 323.8549 324.1174 324.2525 324.6501 325.1319
   325.1319 325.1679 325.3607 325.5149 325.5149 325.6507 326.3909 326.3909
   326.4507 326.4910 326.8618 327.7195 327.7195 327.7697 328.5956 329.4161
   329.7819 329.7819 329.9656 329.9656 330.0058 330.1753 330.4808 330.9833
   331.0148 331.0148 331.4088 331.4088 331.4459 331.7184 334.4698 334.7143
   334.7143 335.2996 335.3379 335.3796 335.3796 336.5825 336.5825 337.1771
   337.3421 337.7688 338.4066 338.7326 338.7326 339.0197 339.4882 339.8592
   339.8592 340.1428 341.1191 341.1244 341.1244 341.4729 341.8912 341.8912
   342.5241 343.3771 343.6452 344.0212 344.2935 344.2935 345.9323 346.3753
   346.3753 346.4779 347.0560 347.1717 347.1717 347.1991 347.7440 348.8283
   350.1702 350.1702 350.2188 350.7925 351.3410 351.4615 351.4615 352.2660
   352.4543 352.4543 352.6612 353.3261 353.5763 353.5763 354.0644 354.7180
   354.7180 354.9874 355.3884 355.3884 355.5366 355.9613 356.2099 356.2099
   356.3121 356.6291 356.6291 356.8327 356.9925 358.3138 358.4455 358.7369
   359.0539 359.0539 360.5031 360.5031 360.6084 361.0067 361.6745 361.9113
   362.0641 362.1154 362.1154 362.8633 363.2463 363.2463 363.3969 363.5696
   363.5696 363.7805 363.8070 364.2150 364.2150 364.6416 365.1051 365.1051
   365.2209 365.4724 365.6811 365.6811 366.0574 366.4637 366.5988 366.7086
   366.7086 366.8874 367.5906 367.5906 367.5959 367.8496 368.1597 368.1597
   368.6602 368.6875 369.1494 369.6253 369.9297 369.9297 370.2916 370.2916
   370.8244 372.4216 372.5851 372.5851 373.2289 373.2289 373.4418 373.5200
   373.7185 373.8107 374.2716 374.2716 375.4942 376.0327 376.3425 376.3425
   376.5359 377.1996 377.3162 377.8112 377.8112 378.9126 379.1014 379.1014
   379.1416 379.3391 379.6890 379.6890 379.9226 380.5645 380.7677 381.4284
   381.4284 382.3590 383.0786 383.1971 383.1971 383.2154 383.4180 384.2840
   384.2840 385.0150 385.1515 385.2825 385.3402 385.3402 385.6566 385.9977
   385.9977 386.3404 386.6951 386.6951 386.7546 387.5221 389.0575 389.0575
   389.4940 390.1433 390.4551 390.4551 390.8748 391.0151 391.0152 391.0152
   391.1741 391.3639 391.3639 391.3947 391.7659 391.9438 392.3179 392.3179
   392.3383 392.6762 392.7652 393.5078 393.5079 394.1673 395.5715 395.5715
   395.7355 396.6805 397.2668 397.2668 397.7991 397.9280 398.8673 398.9559
   398.9559 399.8752 400.4654 400.5815 401.2182 401.2182 401.4932 402.7443
   403.2281 403.2325 403.2325 403.6964 403.8164 404.0187 404.0187 404.3934
   404.3934 404.4406 406.3371 406.9816 407.2676 407.2676 407.7509 409.0391
   409.4499 409.4499 410.0555 410.0555 410.7538 410.9639 412.0252 412.1937
   412.1937 412.3736 412.7004 412.9395 413.3818 413.3818 413.5885 413.5885
   414.0687 414.2595 414.2595 414.5610 414.8356 415.3935 416.2534 416.4612
   416.4612 416.8322 416.8322 417.2343 418.6079 419.1204 419.3707 419.3707
   419.5401 420.1393 420.2823 420.4258 420.4258 421.6410 421.7593 422.3479
   422.6073 422.6073 423.3995 423.5253 423.5253 423.6953 423.9500 424.6048
   424.9352 424.9352 425.7923 425.7923 425.8641 425.9339 425.9809 426.6600
   426.6600 426.6669 426.6905 426.9133 426.9133 427.7507 427.9525 428.1960
   428.1960 428.2388 431.3356 433.1963 434.8278 435.5906 435.5906 435.7967
   436.0127 436.7138 436.7138 437.0538 437.3591 437.9708 438.3176 438.3440
   438.3440 438.8259 439.4955 439.4955 439.9594 439.9594 440.1416 440.3558
   440.6353 440.6353 440.7440 441.0657 441.8113 443.0221 443.0221 443.0336
   443.2675 443.6578 443.6578 444.0589 444.1114 444.1114 444.7595 445.3755
   445.3755 445.5442 446.3623 446.3623 446.5643 446.9050 446.9462 447.4692
   447.7327 447.7327 448.2403 448.2403 448.3339 448.6355 449.2336 449.4367
   449.4367 450.1381 450.3131 450.5538 450.5538 450.7697 451.2699 451.7310
   452.7278 452.7278 454.3749 454.3749 454.4893 455.6575 455.7331 455.8156
   455.8156 456.1846 457.0697 457.8235 457.8235 458.3532 458.6171 458.6704
   458.9493 458.9493 459.1285 459.2084 459.3166 459.3166 459.3395 459.5364
   459.5364 460.0601 460.2094 460.4896 460.4896 460.6622 460.7491 460.9475
   461.3705 461.3705 461.6395 462.4673 462.5369 462.5369 463.0877 463.0877
   463.2245 463.3157 463.4423 463.8091 463.8091 464.2730 464.3598 464.6239
   464.6998 464.9959 464.9959 465.3062 465.4042 465.4042 465.5600 465.6960
   465.6960 466.0992 466.7494 466.7494 466.8494 467.3170 468.3111 468.9141
   468.9141 469.0663 469.5077 469.5077 470.0723 470.0886 471.4301 471.5382
   471.5382 471.5633 471.6524 471.8582 471.8689 471.8689 471.9415 472.5333
   472.5333 473.1970 473.8572 473.8672 474.2539 474.2539 474.6760 474.7698
   475.0096 475.0096 475.3381 475.8193 475.8193 475.8656 475.9748 476.0984
   476.1932 476.2623 476.2623 476.8087 476.8087 477.1504 477.8540 478.0426
   478.2151 478.3080 478.3080 478.5202 478.6193 478.6193 478.9429 479.5757
   480.1680 480.3958 480.3958 481.0775 481.1130 481.1130 482.4680 482.5859
   483.1069 483.1069 483.5085 483.8034 483.9969 483.9969 484.0101 484.0919
   484.0964 484.1886 484.2219 484.2219 484.9085 484.9085 485.3902 486.3737
   486.5548 486.5548 486.7647 487.3498 488.1462 488.1462 488.4274 489.0450
   489.2097 489.2097 489.4374 489.5949 489.5949 489.8122 489.8631 490.6325
   490.6325 490.8917 491.4271 492.3184 492.9610 493.0783 493.0783 493.3525
   493.5090 493.5090 493.5912 493.7518 494.1763 494.1767 494.1767 494.3845
   496.6552 496.6552 496.6615 497.2024 498.1716 498.7104 498.7104 499.1581

          k =-0.1667 0.5000-0.1667 (  3848 PWs)   bands (ev):

  -117.5774 -71.7298 -71.7298 -71.7298 -37.3598  -2.4231   1.2715   1.3363
     1.3530   1.4926   1.5289   4.7382   6.8570   6.8762  11.1304  12.1797
    13.5414  13.7459  16.3179  18.0017  18.7889  21.6261  22.0425  22.6892
    23.3682  24.2066  26.5375  28.6503  28.9502  30.0131  33.2446  33.5165
    34.4723  35.2338  35.8962  37.6917  38.0019  39.7611  40.0306  40.4389
    41.7167  42.1931  42.8119  43.7046  44.6008  45.7328  46.4941  47.6771
    48.7873  49.3571  49.4176  49.8374  51.0903  51.1637  51.9109  53.1435
    54.6405  55.9134  56.0370  56.8999  58.4670  59.6651  60.2462  61.1670
    61.2352  62.2683  62.7572  63.4418  64.5396  64.7323  66.4834  66.7106
    67.9462  68.2329  68.7410  70.1649  70.8643  71.4801  72.0667  72.8001
    73.4896  75.0234  75.4278  76.8113  77.5883  77.9280  78.5580  79.8280
    79.9499  80.3272  81.1371  81.8706  82.1292  83.9550  84.2506  85.5148
    85.8784  86.2933  87.0548  87.8173  88.5509  89.0990  89.1649  90.3128
    90.3566  90.8834  92.1083  92.1103  93.3190  93.4535  93.9785  94.4484
    95.3653  95.8331  96.4887  96.8457  97.6538  97.9142  98.3779  98.3835
    99.4353  99.8264  99.9330 100.3473 101.0977 101.2345 102.2996 102.8530
   103.2156 104.3200 104.7117 104.9854 105.6886 106.5451 107.1201 107.4478
   107.9613 108.1177 109.0797 109.1508 109.7178 110.1883 110.5859 110.7976
   111.8034 112.5083 113.9769 114.6160 114.7358 115.8161 116.9155 117.2349
   117.9248 117.9627 119.3353 119.9947 120.1511 120.9830 122.7228 122.8386
   123.3787 123.4401 124.5488 124.8550 125.3652 126.1795 127.3512 127.4946
   128.3992 128.8011 129.5495 129.9926 130.1630 130.9758 131.4779 132.0430
   132.9542 133.7534 133.7680 134.3161 135.0765 135.8390 135.8915 136.6826
   136.8955 137.2777 137.8222 137.9272 138.7039 139.5063 139.8560 139.9131
   140.4819 141.3184 141.5471 142.1769 142.8497 143.0791 143.8249 144.1161
   144.7686 145.5443 146.2348 146.7209 147.1210 147.3671 147.9206 148.7531
   149.4369 149.9713 150.2424 150.8231 151.5713 151.6029 152.3844 152.6705
   153.3763 153.7131 154.1083 154.5526 154.8136 154.9651 155.2673 155.8914
   156.4395 157.2447 157.7152 158.2250 158.3994 158.9814 159.7747 160.2702
   160.6226 161.1391 161.2530 162.5886 162.5965 163.6303 164.0971 164.9047
   165.3031 165.3464 165.6396 166.9191 167.0273 167.2240 167.6029 168.0697
   168.7124 168.9949 169.4803 169.5239 170.3190 170.5609 171.4640 172.0272
   172.2422 172.7205 173.0082 173.2893 173.5969 174.4583 174.5911 175.4791
   175.9079 176.1661 176.2706 176.5282 177.0180 177.5884 177.9383 178.1643
   178.4363 178.8135 179.1924 179.8499 180.5796 181.0880 181.5042 181.5740
   181.9621 182.7632 182.8563 183.3802 183.8392 184.2741 184.2903 184.8366
   184.8826 185.5284 185.9743 186.3195 187.3631 187.8443 187.9494 188.0197
   188.5923 189.8822 190.0617 190.5577 190.6990 191.5791 191.7877 192.0771
   192.7622 193.1795 193.6217 194.2060 194.6458 194.9171 195.2043 196.2533
   196.8203 197.6699 198.6206 198.8270 199.2822 200.0968 200.2791 201.0499
   201.1337 201.7138 201.8676 202.2161 202.2448 203.1567 203.4045 204.7540
   204.8923 205.0251 206.0516 206.2314 206.8247 207.1151 207.6440 207.8197
   208.4137 208.5687 209.6770 210.2145 210.3500 210.6580 211.4821 211.7681
   212.2399 213.0673 213.1084 214.1669 215.1079 215.2505 215.6502 215.9648
   216.5642 216.6175 217.8583 217.9089 218.5750 218.9004 219.0819 219.4087
   219.5984 220.0881 220.3291 220.5323 220.8354 221.3576 222.8684 222.9351
   223.2312 223.6804 224.2460 224.5351 225.2272 225.2517 225.9117 226.0889
   226.7215 226.9082 226.9269 227.7843 227.9893 228.2427 228.6388 228.6702
   229.1599 229.2648 229.8787 230.2322 230.6179 231.2961 231.8122 232.0515
   232.6272 233.0655 233.1880 233.5301 233.9678 234.0505 234.7677 235.5051
   235.6469 235.8822 236.4602 236.7331 237.2064 237.4423 237.6011 238.0123
   238.1649 238.4810 239.2128 239.7576 240.8419 241.1321 241.2648 241.4894
   241.8911 242.1130 242.4265 242.5094 242.5809 243.0010 243.4966 244.2070
   244.6835 245.3142 245.5280 245.7547 246.2768 246.5069 247.1688 247.4738
   247.7295 248.1691 248.5161 248.8075 249.0287 249.6155 249.6694 250.0310
   250.1429 250.3372 250.5537 250.6725 251.4046 251.9676 252.4249 252.8712
   252.9450 253.9233 254.3527 254.5216 255.2760 255.5213 256.4103 256.6113
   256.9337 257.5578 258.1051 258.4850 258.7074 258.8019 259.4765 259.5402
   260.0584 260.8691 260.8962 261.6752 262.0339 262.3030 262.7260 262.8922
   263.1118 263.3023 264.5205 264.7763 264.9290 265.7481 265.9666 266.4516
   266.6376 267.1422 267.3488 267.7131 267.7346 268.3850 268.5745 269.2740
   269.6360 270.0276 270.1189 270.8977 270.9714 271.2143 271.7218 271.8492
   272.1909 272.3885 272.6770 272.7615 273.5174 273.6236 273.8710 274.4800
   275.0541 275.1709 275.6901 275.8625 276.1388 276.3107 277.5306 277.5779
   278.0526 278.1108 278.6137 279.1364 279.5740 279.6472 279.9288 280.0552
   280.3102 280.4077 280.9911 281.1975 281.2301 281.8820 282.4343 283.2737
   283.8049 284.5416 285.2060 285.5365 285.9675 286.3808 286.6632 286.7523
   287.4102 287.5842 287.9559 288.9284 289.0633 289.7237 289.8311 290.1073
   290.1478 290.8556 291.0762 291.5147 291.9327 292.5627 292.9948 293.0980
   293.6942 293.8857 294.4942 294.8603 295.1392 295.5907 296.0503 296.1177
   296.7577 297.1998 297.3926 297.5300 298.2556 298.4045 298.7040 298.7811
   299.1453 299.5074 299.7684 300.0804 300.2219 301.0442 301.2164 301.5781
   301.8628 302.1845 302.5668 303.2131 303.5498 304.5059 304.8826 305.1636
   305.5538 305.7367 306.0918 306.2640 306.5130 306.9759 307.2981 307.3912
   307.4531 308.1765 308.1899 308.7487 308.9372 309.4931 309.8353 309.8907
   310.3260 310.7248 310.8168 311.1662 311.2537 311.9461 312.3305 313.5427
   313.6020 314.3515 314.9899 315.9288 316.1863 316.6794 316.9886 317.6596
   318.0922 318.5001 318.5029 319.5109 320.4347 320.5960 320.6163 320.8725
   321.5099 321.8691 321.9201 322.9148 322.9281 323.7314 323.8094 323.9098
   324.4608 324.4901 325.0331 325.2081 325.6111 326.1211 326.6462 327.3845
   327.6373 328.2005 328.5632 328.6025 329.0571 329.4498 329.5547 329.6041
   329.9635 330.5079 330.6030 330.9985 331.3831 331.6210 332.1076 332.5366
   332.6963 333.0410 333.1590 333.3950 333.6328 333.9842 334.1408 334.4610
   335.0460 335.4397 335.4787 335.7996 336.0232 336.2889 336.2951 336.9052
   337.1342 337.3350 338.1442 338.1582 338.5025 338.6329 338.8403 340.0232
   340.5408 340.5901 340.7604 340.8042 341.2684 341.3551 341.7190 341.8416
   342.3039 342.5197 343.2234 343.2285 343.6502 343.9596 344.3365 344.9767
   345.5954 345.7472 346.1112 346.2670 347.1932 347.3989 347.5481 347.6019
   347.6145 348.0863 348.2315 348.9040 348.9923 349.4039 349.8136 350.1045
   350.2844 350.6537 351.0022 351.2594 351.9919 352.2297 352.4899 352.6869
   353.3818 353.5619 353.7046 354.1382 354.4425 354.8430 355.1180 355.6274
   356.1061 356.2957 356.6321 356.9186 356.9235 357.4367 357.6190 357.6466
   357.7556 358.0390 358.3400 358.5883 358.7408 359.0403 359.6713 359.7521
   360.4606 360.7137 360.8858 361.3033 361.7249 361.7725 362.0465 362.3880
   362.7029 362.8884 362.9274 363.2520 363.8957 363.9305 364.6265 364.7025
   364.9348 365.4894 365.7591 366.1779 366.6151 367.2861 367.3266 367.5947
   367.7673 367.8307 368.1171 368.4883 368.9110 369.1010 369.2676 369.7957
   370.0089 370.3878 370.5375 370.8232 371.2020 371.5663 371.6842 371.8971
   371.9500 372.1656 372.3252 372.5552 372.6355 373.2259 373.3904 373.4950
   373.9668 374.4554 374.8328 375.3338 375.4869 376.9791 378.2055 378.2775
   378.6381 378.7758 378.8656 379.4110 379.7071 379.8030 379.9827 380.3153
   380.5415 380.9646 381.1909 381.2055 382.2181 382.3228 382.3311 383.1695
   383.2053 383.5887 383.9677 384.1010 384.2259 384.3892 384.5339 384.6951
   384.8620 384.9723 385.4162 385.6030 386.1455 386.8031 386.8044 387.0325
   387.4179 387.7457 388.1984 388.3281 388.5724 388.9862 389.5324 390.2424
   391.3906 391.7039 392.1820 392.7944 393.1108 393.2451 393.5699 393.9255
   394.2676 394.3504 394.6721 394.7647 395.0752 395.3876 396.2440 396.3114
   396.6782 396.9186 397.2596 397.4109 397.9214 398.1229 398.2879 398.5851
   398.6990 399.1585 399.8333 399.8773 400.4449 401.1704 401.3678 401.5344
   402.3128 402.5394 402.7732 403.1010 403.1390 403.4802 403.5781 403.7032
   404.4000 404.8121 405.3933 405.8568 406.1870 406.9991 407.0367 407.9481
   408.0820 408.6176 408.8363 409.2420 409.4946 409.4968 410.4319 410.7101
   411.3057 411.4606 411.8728 412.0458 412.5821 412.5824 412.8232 413.2230
   413.9642 414.0285 414.2786 414.6470 414.6731 414.9112 415.2059 415.2971
   415.4461 415.5647 415.7198 415.7645 415.8563 416.1920 416.4217 416.4535
   417.0382 417.3444 417.3761 418.0180 418.2258 418.4036 418.6924 418.9058
   418.9834 419.4039 419.4547 419.6295 420.0655 420.2523 420.8339 421.1729
   421.8244 421.9332 422.1864 422.2451 422.4146 423.1722 423.3873 424.1757
   424.4429 424.6032 425.0219 425.3840 426.0030 426.3000 426.5009 426.5398
   427.2860 427.5663 427.5858 428.0796 428.0872 428.3830 428.6528 428.9231
   429.3092 429.7744 429.8865 429.9066 431.0266 431.0753 431.5100 431.5825
   431.7179 432.2086 432.8174 433.1283 433.5390 434.0610 434.2420 434.6679
   434.7618 434.9260 435.0487 435.1025 435.7456 436.0800 436.5782 436.6797
   437.2694 437.3155 437.7001 437.8529 438.5197 439.2204 439.2765 439.4716
   439.8850 440.2933 440.4446 440.5085 440.9514 441.5233 441.9128 442.0341
   442.3233 442.5556 442.8472 443.3781 443.5554 444.1647 444.5366 444.6711
   444.8517 445.0147 445.1768 445.8058 446.3015 446.6026 446.7459 447.2282
   447.2648 447.3862 447.5730 447.6218 448.1114 448.4396 448.6271 448.8117
   449.0266 449.2767 449.4356 450.1458 450.2236 450.3415 450.7214 450.8179
   450.8657 451.5703 452.2468 452.7385 453.0456 453.1824 454.0180 454.4886
   454.7976 455.1871 455.2393 455.5071 455.7131 456.3533 456.4262 456.9898
   457.0495 457.6252 457.8799 457.9443 458.1366 458.1765 458.8414 459.1027
   459.6686 459.7487 459.9954 460.0916 460.4587 460.7403 460.7465 461.1047
   461.3442 461.4244 461.7352 462.1327 462.6332 462.6852 462.9757 463.0793
   463.3707 463.8253 464.0578 464.1468 464.3565 464.4593 464.5838 464.6978
   465.4886 465.7177 465.7777 466.2304 466.3745 467.0129 467.0531 467.2575
   467.5179 467.8424 468.8077 469.4976 469.8317 470.2650 470.5444 470.7274
   471.6866 471.9720 472.2602 472.2919 472.3946 472.6265 472.8617 472.9265
   473.5143 473.9713 474.1597 474.1821 474.5318 474.9795 475.2664 475.5860
   475.6582 476.3951 476.9036 476.9525 477.3251 477.7717 477.8475 478.1302
   478.4308 479.0536 479.3358 479.4214 479.7301 479.8917 480.1489 480.1848
   480.5610 480.6423 480.9086 481.2652 481.4306 481.4554 481.7500 481.9728
   482.4037 483.0024 483.3694 483.6802 483.7109 484.1202 484.1915 484.3276
   484.5558 484.9439 485.4669 485.5471 485.7289 486.2169 486.3519 486.6050
   487.2794 487.2986 487.5532 487.7728 487.9396 488.0150 488.2717 488.3274
   488.5492 488.8464 488.9802 489.1432 489.4199 489.6307 489.7451 490.0336
   490.4499 490.4635 490.7349 491.0176 491.1767 491.7276 491.9191 492.0354
   492.3557 492.4387 492.5479 492.7774 492.9429 493.0918 493.3696 493.5545
   493.7167 494.3082 494.7778 494.9740 495.0775 495.1930 496.0737 496.2243
   496.9619 497.6991 497.8119 498.1633 498.3879 498.5265 498.5309 498.8556

          k = 0.6667-0.3333 0.6667 (  3848 PWs)   bands (ev):

  -117.5774 -71.7298 -71.7298 -71.7298 -37.3595  -1.9859   1.3046   1.3441
     1.4690   1.5305   1.7396   3.0613   6.2515   6.8091  10.9855  12.7248
    13.4390  15.0401  17.4876  18.8383  19.4551  20.2264  20.3160  23.4647
    24.4940  26.1773  27.9929  28.8040  29.4570  30.0165  30.8745  33.1459
    33.4942  33.8536  34.8885  35.6027  35.7449  37.3704  38.6537  40.0788
    40.7555  41.4145  42.5150  44.2115  45.2334  46.6435  46.9774  47.9084
    49.3420  50.0960  50.5703  50.8440  53.4899  53.6037  54.1052  55.2958
    55.7925  56.0072  57.5251  58.4778  59.3439  59.7505  60.8896  61.5879
    61.8980  62.8536  63.2649  63.9128  64.8931  65.2144  65.6536  66.9083
    67.3809  67.7402  67.9481  69.8096  70.2000  70.9669  71.2662  72.1835
    72.4057  73.5540  74.1807  75.0009  75.7379  76.7761  77.5550  78.1895
    79.5352  79.8860  80.2488  81.1715  81.5719  82.7384  83.0152  83.2070
    84.5417  85.0183  86.7478  87.0276  87.8992  88.6104  88.6284  89.6960
    90.1937  91.0710  91.7702  91.7974  92.9420  93.9496  94.1800  95.3776
    95.5475  95.7948  96.1585  96.5766  97.8093  97.8773  98.6577  98.7662
    99.0555 100.1586 100.2104 100.4876 101.5367 102.6138 103.2928 103.4884
   104.1724 104.5872 105.3365 106.4622 106.4977 108.0795 108.4714 108.9811
   109.3116 110.3328 111.0040 111.8823 111.9787 112.3966 112.6744 113.1265
   114.1237 114.1981 115.3105 115.5248 116.7980 117.1330 117.5671 118.1061
   118.2611 118.7471 120.1167 120.3680 121.1680 121.2544 121.7036 122.2888
   122.7858 122.7873 124.5746 124.8956 125.1496 125.6364 126.1973 126.5850
   126.9365 127.1299 127.2646 128.6052 129.4960 130.1479 130.5580 130.7507
   131.4316 131.7864 131.9712 133.0534 133.2722 134.5319 134.8475 135.7092
   136.2133 136.5294 137.5032 138.2349 138.4657 139.2970 139.7198 140.0260
   140.9453 141.8901 142.4765 142.5217 143.1324 143.5449 143.7893 143.9677
   144.1007 145.0222 145.5580 145.8445 146.3630 147.5116 147.6122 148.3502
   148.4092 149.1951 150.0062 150.5868 150.8218 151.3581 151.3927 151.9278
   152.4185 153.1976 153.6881 154.0492 154.4231 155.0865 155.1983 155.2404
   156.0573 156.5575 156.8591 157.1749 157.5492 158.2070 159.1081 159.2872
   159.4757 159.7762 160.0561 161.2278 161.7812 162.0598 162.3196 162.8167
   163.1602 163.6592 163.9044 164.6998 165.0346 166.4139 166.5790 166.7671
   167.5228 168.5394 168.5586 169.4856 169.9692 170.4692 171.8134 171.9213
   171.9950 172.8376 172.9950 173.9233 174.2702 175.5603 175.9038 176.2945
   176.7962 177.6921 177.8175 178.3311 178.5972 179.4071 179.6027 179.6402
   180.5619 180.6016 181.0539 181.3419 181.9658 182.2088 183.0873 183.1217
   183.3616 184.5169 184.9640 185.0984 185.8132 185.8992 186.7658 186.7864
   187.2293 188.0883 188.3489 189.2617 189.4827 190.7331 190.9873 191.3605
   192.5103 192.6693 193.1707 193.5919 193.7027 194.0547 194.6633 194.7693
   195.2222 195.5818 195.8717 196.0623 196.7642 196.9774 197.1527 197.2190
   197.7054 197.9345 198.1316 198.6733 199.1996 199.7177 200.3528 200.3981
   200.8526 201.0524 201.3450 202.5769 202.8649 203.5771 203.9232 204.1919
   204.2970 205.2104 205.3300 206.0201 206.2281 206.5709 206.8780 206.9356
   207.7256 207.9644 208.7937 209.4669 209.8308 210.2848 210.4095 211.1644
   211.2209 212.1767 212.2087 212.7257 213.7433 213.9005 214.2075 214.6381
   214.9655 215.1346 215.4448 215.7344 216.0477 216.3498 216.5683 216.9490
   217.0058 217.7946 218.1487 218.5754 219.0344 219.0859 219.7070 219.7792
   220.3626 220.8435 221.3327 222.1567 222.2745 222.8076 223.2533 223.5890
   224.1320 224.5302 224.7355 225.2771 225.5864 226.2878 226.5253 227.2900
   227.8832 228.1333 228.7670 229.6694 229.7407 230.4183 231.0411 231.2120
   232.1491 232.4603 232.7031 233.3020 233.5524 234.1156 234.2612 234.4559
   234.6591 234.8326 235.1362 235.5597 235.7882 235.9568 236.8491 237.7179
   238.1979 238.7760 239.1965 239.2708 239.5838 239.7809 239.9321 240.1068
   241.3822 241.9304 242.3941 242.6706 243.4164 243.9442 244.2377 244.3402
   244.4958 244.7870 245.2149 245.4193 245.5506 245.9598 247.0359 247.0824
   247.6334 248.3854 249.1141 249.6279 249.8509 249.8985 250.1175 250.5357
   251.5806 251.9913 252.1762 252.7065 253.1807 253.4591 253.7804 254.5207
   254.5631 254.6389 255.3007 255.6698 256.5049 256.6424 257.0602 257.2519
   258.1787 258.4891 258.8741 258.8940 259.7892 260.4840 261.1201 261.4384
   261.4509 262.1167 262.3300 262.6861 263.3212 263.8724 264.1912 264.1919
   265.0955 265.2436 265.3747 265.7424 266.6895 266.7162 267.0525 267.5465
   267.5969 268.0492 268.1458 268.5072 268.6654 268.8481 269.6397 270.1717
   270.2810 270.6270 270.8540 271.0301 271.4546 271.6935 272.3992 272.9854
   273.1867 273.4113 273.9864 273.9987 274.6705 274.7474 275.1259 275.2923
   275.7282 276.1630 276.1746 277.1290 277.4962 277.8411 278.1535 278.4553
   278.7668 279.0070 279.8349 280.2220 280.5421 280.7556 281.1009 281.2217
   281.5228 281.8197 282.1367 282.3695 282.8142 283.0999 283.2038 284.0910
   284.4065 284.9450 285.1878 285.6857 285.9149 286.0012 286.2612 287.4598
   287.6360 288.2488 288.4362 288.7678 289.1285 289.2920 289.2950 290.2526
   290.9453 291.1636 291.4089 291.8484 292.0327 292.1402 292.6613 292.8864
[...]
   267.0350 267.3622 267.8559 267.9291 268.0420 268.4812 269.1134 270.4233
   270.6815 270.9432 271.1572 271.5503 272.1093 272.1888 272.4740 273.1784
   273.4027 273.8686 274.2455 274.6824 275.3652 275.7344 276.1256 276.3172
   276.4276 276.6993 277.1334 277.5117 277.8467 278.2627 278.8059 279.1358
   279.4641 280.0269 280.1969 280.5035 280.8967 281.6442 281.9394 282.0760
   282.5075 282.5784 283.0456 283.4043 283.8829 284.1591 284.3512 285.0361
   285.3930 285.7191 286.2539 286.6571 287.0084 287.3976 287.4677 287.8333
   288.1937 288.3855 288.7880 288.8639 290.1438 290.1742 290.9474 291.1317
   291.6497 291.9489 292.0891 292.7457 292.9830 293.0843 293.2803 293.6384
   293.7427 294.4035 294.6104 295.1708 295.4876 296.0774 296.4851 297.3268
   297.6826 298.3592 298.9166 299.6980 299.7797 299.9340 300.2679 300.6827
   300.8509 301.2407 301.5647 301.6905 301.9058 302.3431 302.8842 303.3057
   303.4371 303.8500 304.3472 304.6187 304.7967 305.2205 305.3532 305.6152
   305.8704 306.0955 306.2469 306.3125 306.5818 306.7726 307.2167 307.6159
   307.9807 308.2230 308.7286 309.4719 309.6594 309.8461 310.2665 310.7441
   311.2261 311.2880 311.8072 311.9287 312.3459 312.6410 313.0960 313.4753
   313.4948 314.2449 314.6941 314.8940 315.1484 315.7279 315.9118 316.1535
   316.4681 316.8739 317.1125 317.1960 317.6086 317.6982 318.0491 318.3023
   318.3451 318.5745 318.7037 319.0050 319.5916 319.7162 319.9205 320.0155
   320.5188 320.9151 320.9379 321.3660 321.9928 322.6399 323.2621 323.5123
   324.3147 324.3327 324.7002 325.5993 326.1163 326.1690 326.3240 326.5865
   326.7266 326.8457 327.1091 327.1648 327.8446 328.0840 328.3493 328.7777
   329.2476 329.4909 329.5862 330.2470 330.4159 330.8100 331.2682 331.7025
   331.7780 332.0170 332.6469 332.6990 332.9331 333.3579 333.8818 334.0386
   334.5254 334.7448 335.0002 335.5300 336.4746 336.7801 337.3246 337.5842
   337.6575 338.0606 338.3692 338.8605 339.2961 339.6141 339.8386 340.0891
   340.4799 340.9368 341.3186 341.5770 341.9283 342.1862 342.3913 342.6618
   342.7636 343.1728 343.5861 344.6144 345.2377 345.6783 346.0994 346.7666
   346.9869 347.5800 347.9088 348.0989 348.1833 348.5250 348.6788 349.1599
   349.4423 349.9172 350.2159 350.6923 350.8358 351.2294 351.6011 351.8064
   352.2699 352.6966 353.0315 353.3247 353.5678 354.4021 354.7042 354.9194
   355.3881 355.9196 356.2960 356.4925 356.8460 357.0751 357.6525 357.8451
   358.2108 358.4427 359.0015 359.4789 359.9381 360.5492 361.1251 361.8569
   362.1869 362.8764 363.1180 363.6278 363.9645 364.2595 364.3536 364.8898
   365.0061 365.3468 365.8371 366.3713 366.7176 366.9052 367.0018 367.2857
   367.3865 367.7417 368.0294 368.2441 368.4290 368.6103 369.0044 369.4060
   370.5247 370.9986 371.3679 371.4274 371.9273 372.7837 373.1277 373.4642
   373.8880 374.0815 374.2269 374.4574 374.7348 375.0052 375.2649 375.4558
   376.2624 376.4273 376.6434 376.9201 377.0530 377.3740 377.6527 377.6849
   377.9908 378.3150 378.5607 378.7116 378.9881 379.1154 379.2650 379.4073
   379.4921 379.6294 379.8653 380.3627 380.9056 380.9777 381.1033 381.2817
   381.6234 381.7751 383.0020 383.5920 384.0115 384.1681 384.4021 384.6736
   384.8428 385.0732 385.6506 385.9341 385.9377 386.2308 386.5093 386.7078
   386.9803 387.1189 387.4181 387.6958 388.2386 388.3148 388.5658 388.7882
   389.8053 390.4361 391.1431 391.6579 391.9999 392.1299 392.4755 392.7774
   393.3647 393.4895 393.6685 393.9246 394.0420 394.1401 394.8939 395.0754
   395.3831 395.8446 395.9298 396.1201 396.4366 396.8019 397.0092 397.4680
   398.2628 398.4180 398.4607 398.7702 398.8989 399.4535 399.5825 399.8720
   400.1551 400.1822 400.3832 400.7027 400.7906 401.0572 401.2111 401.6005
   402.2904 402.7563 402.8139 403.0433 403.4027 403.7583 404.0693 404.3206
   404.4726 404.8643 404.9121 405.2663 405.4525 405.7838 405.9804 406.3755
   406.6246 406.9873 407.4395 408.2203 409.0691 409.1534 409.3482 409.7595
   410.1237 410.4261 410.5308 411.3685 411.5861 411.8500 411.9152 412.4698
   412.5665 412.7598 413.2507 413.4036 413.6427 413.7561 414.0410 414.1409
   414.3830 414.4850 414.7920 415.0031 415.1668 415.4273 415.5671 415.6686
   415.7472 415.8429 416.0787 416.6831 416.7825 416.9148 417.2047 417.4016
   417.5453 418.0361 418.6273 419.0492 420.2136 420.4187 421.8555 422.1921
   422.4066 422.5085 423.0607 423.3257 423.5954 424.0872 424.1770 424.5865
   425.0149 425.1557 425.4671 425.8873 426.1565 426.3092 426.3971 426.6507
   426.9356 427.4072 427.8690 428.2543 428.4778 428.6185 428.9205 429.1445
   429.2732 429.5867 430.0540 430.1317 430.4823 430.8108 431.0923 431.6114
   432.1267 432.4903 433.0262 433.1825 433.3265 433.4862 433.7804 434.1206
   434.5090 434.5355 434.6713 434.8951 435.2834 435.6324 436.0077 436.0219
   436.2642 436.8689 437.2966 437.3127 437.5165 437.6459 438.3260 438.4699
   438.6855 438.9135 439.1721 439.2198 439.4209 439.6359 439.8173 439.9713
   440.6294 441.0916 441.2192 441.5978 441.6270 441.7839 441.8672 442.1899
   442.5522 443.1000 444.0327 444.4432 444.8274 445.2151 445.5806 445.6104
   446.1052 446.1437 446.1939 446.5689 446.6647 447.0194 447.2268 447.3553
   447.4335 448.0506 448.3479 448.5017 448.8625 449.3404 449.3674 449.5950
   449.8095 449.8922 450.5978 450.7497 451.4438 451.6433 451.9343 451.9878
   452.0896 452.3719 452.4602 452.7374 452.8528 453.0152 453.2965 453.4009
   453.6126 453.7223 454.4846 454.8075 455.8250 456.0019 456.1486 456.2473
   456.8399 456.8481 457.6802 458.1651 458.6544 458.8576 458.9386 459.3166
   459.5471 460.1173 460.2227 460.2311 460.6553 460.8914 461.0509 461.3850
   461.9019 462.0981 462.2159 462.2690 462.6981 463.0410 463.2219 463.7875
   463.8421 464.0799 464.6394 464.6800 464.8066 464.9963 465.3369 465.6595
   465.8575 465.9835 466.2537 466.3693 466.8998 467.1381 468.1513 468.7938
   469.1054 469.3058 470.3098 470.8741 471.1456 471.3503 471.4501 471.7795
   471.9167 472.1503 472.2259 472.7332 473.0734 473.1437 473.5338 473.6289
   474.0839 474.1859 474.7179 474.8200 475.1326 475.3941 475.6334 475.9379
   476.1268 476.3670 477.1319 477.4383 478.4004 478.4617 478.8029 478.8400
   479.0285 479.1284 479.7034 480.2341 480.3677 480.4379 480.6053 480.6629
   480.9595 481.1976 481.4845 482.0908 482.4061 482.7176 482.8883 483.0059
   483.2018 483.6429 484.0690 484.6467 484.7702 485.2933 485.5589 485.9536
   486.2759 486.7286 486.8395 487.0761 487.1928 487.3945 487.5413 487.6066
   488.3123 488.4492 488.6156 489.1070 489.5722 489.7750 490.0952 490.2968
   490.3674 490.5242 490.7251 491.0563 491.4802 492.0141 492.3100 492.6608
   493.3034 493.6279 493.9521 494.4364 494.8472 494.9266 495.2845 495.3475
   495.9620 496.0770 496.4033 496.4484 497.2335 497.4896 497.8480 498.1277
   498.3334 498.4699 499.0397 499.5109 500.0754 500.1888 500.5306 500.6396

          k =-0.3333-1.0000 0.0000 (  3840 PWs)   bands (ev):

  -117.5774 -71.7298 -71.7298 -71.7298 -37.3593  -1.6656   1.3038   1.4209
     1.4695   1.5230   1.9423   3.2018   5.1082   5.4798  11.3923  11.9393
    15.0937  15.8854  18.7722  18.8363  19.5684  20.8971  22.9096  23.5254
    24.5673  25.3290  26.3639  27.4333  28.4395  29.2496  29.9953  30.9904
    32.3899  33.4896  33.9540  36.1082  36.9222  38.6028  38.6326  40.2634
    41.1548  42.0947  43.6724  43.9243  44.6770  45.4985  46.9040  49.1191
    49.4297  50.0021  50.8104  51.4705  53.6426  53.7782  55.0775  55.6505
    56.0854  57.0701  57.9144  58.1123  59.0516  59.5085  59.5324  62.1962
    62.7808  63.1000  63.5597  64.1141  64.4068  65.9827  66.4409  66.6633
    67.7358  68.2903  69.0559  69.6270  70.4430  71.1368  71.4173  72.9781
    73.2520  74.2418  74.3655  76.2687  76.7102  77.4761  77.9110  78.2546
    78.6600  79.8287  79.8601  80.0362  80.5180  81.5254  81.6843  82.9719
    83.4140  84.5318  84.5926  85.5900  85.6715  86.4516  86.6024  87.0763
    87.7819  88.2249  88.8671  89.3943  90.5863  91.2754  91.5929  93.9288
    94.0687  95.3421  96.6303  96.8375  97.4177  98.9095  99.5505  99.6745
   101.4949 101.9762 102.2013 103.7226 104.4332 104.6038 104.9814 105.8846
   106.6073 106.9648 107.6012 108.3878 108.7744 110.0697 110.1588 110.4637
   110.8942 111.7794 111.9136 112.6684 112.7348 113.0543 113.5774 114.1085
   115.0124 115.1582 115.3444 116.3554 116.7169 117.1663 117.6844 118.0424
   119.3551 119.9142 120.6206 120.7887 121.3545 121.7244 122.1314 122.4209
   123.2711 123.3577 124.3727 125.0124 125.0445 125.4211 126.5473 126.7637
   127.3903 128.1658 128.3202 128.8137 128.8845 129.9884 130.1139 130.8541
   131.0087 131.2702 131.9031 132.7730 133.0635 133.4191 133.9827 133.9968
   135.3547 136.1926 136.4580 136.9438 137.0241 137.2734 138.1986 138.6718
   138.9176 139.2867 139.3662 140.0300 140.3375 140.7945 140.9044 141.7370
   142.3573 142.6783 142.8412 143.4491 144.1664 145.0305 145.0508 146.2247
   146.8255 148.4534 148.5985 148.9348 149.3515 150.4547 150.9482 151.0938
   152.0335 152.5542 152.6504 153.4049 153.7261 154.2163 154.9230 155.4506
   155.8865 156.4009 158.0708 158.2675 159.3152 159.6899 160.1893 161.4513
   161.7434 162.3407 163.0344 163.2108 163.9042 164.3946 164.4121 165.6983
   166.0056 166.5271 166.5684 167.0478 167.6139 167.9318 168.1161 168.1840
   168.9111 169.0575 169.2941 169.7519 170.1812 170.3437 171.3619 172.0002
   172.1266 173.2095 173.7435 174.3131 175.0717 175.4091 175.5632 175.6961
   177.0764 177.1938 177.7213 177.8342 178.4358 178.8164 179.6691 179.7939
   179.8280 180.4383 180.6696 181.1597 181.2018 181.6091 182.1582 183.4721
   184.9188 185.5705 185.5928 185.9130 186.9468 187.1770 187.3575 187.6531
   188.7456 188.7831 188.8927 190.0300 190.3035 190.7073 190.8587 190.8956
   191.5840 191.8553 191.8956 192.4025 192.6793 192.9778 193.5309 195.0129
   195.5508 195.5982 196.6378 197.1253 197.4436 197.6333 197.6710 197.7524
   199.4091 199.4151 199.9347 200.0788 201.0780 201.4617 201.6719 202.0937
   202.2528 202.4824 202.7436 203.7816 204.0119 204.1054 204.7030 204.7846
   204.9756 205.1385 205.2862 205.6476 205.6571 205.7852 206.0657 206.1794
   206.5305 206.6462 206.9877 207.0310 207.7025 208.5239 209.0915 209.3756
   209.9551 210.6657 211.1055 211.7948 212.2236 213.2823 213.2840 213.7249
   214.1728 215.3579 215.8063 215.8793 216.1037 216.3951 216.8775 217.7038
   218.1025 218.6826 219.0553 219.2522 219.5128 219.6879 219.7823 219.9356
   220.6344 220.8685 220.9435 221.3004 221.6713 222.1200 222.2809 222.8003
   223.2400 223.7402 224.1214 224.4723 224.6592 224.9790 225.8593 226.1133
   227.0068 227.5040 227.8884 228.3089 228.6410 228.6858 229.0634 229.4161
   229.8590 229.9027 231.3575 231.4056 231.8771 232.1615 233.2915 233.6223
   233.9250 234.4680 234.6273 235.4571 236.2101 237.1692 237.4740 238.5925
   238.6095 239.0079 239.4176 240.1199 240.6405 240.6538 241.0530 241.7089
   242.0217 242.2254 242.4104 243.0996 243.2073 243.2119 243.4427 243.5590
   244.5332 244.6848 244.8079 245.2428 245.6740 246.3397 246.5869 247.0241
   247.6469 248.0607 248.0956 248.5764 249.3354 249.3960 250.3850 251.2031
   251.4627 251.5681 252.2367 252.2415 252.8656 252.9552 253.4896 253.5591
   253.6280 254.7157 254.8366 255.1557 256.1073 256.2556 256.7643 257.7524
   257.8003 258.6746 258.8420 258.8681 259.1089 259.1420 259.9874 260.6081
   260.9513 261.5550 261.8067 261.8750 262.4711 262.8056 263.3364 263.7147
   263.9967 264.6354 264.6788 265.0005 265.2469 265.7548 266.2397 266.3675
   266.5319 267.0885 267.1863 267.3192 267.7377 268.2839 268.4867 269.0577
   269.4471 270.2121 270.6343 270.6692 271.5081 271.9755 272.1767 273.3896
   273.5713 274.0579 274.2528 274.3230 274.3934 275.3772 276.0427 276.4601
   276.7440 276.7469 278.9631 279.8014 279.8956 280.7333 280.7658 281.4819
   281.5560 281.9589 282.0828 282.2303 282.5035 282.8861 283.1705 283.6606
   283.9958 284.1215 284.3113 284.3451 285.2652 285.6175 286.0298 286.7134
   287.2569 287.3740 287.8946 288.3977 288.4275 289.1035 289.3461 289.8788
   289.9983 290.5489 290.7632 290.8576 291.1014 291.3615 291.4731 291.7043
   292.0739 292.5213 293.7862 294.1364 294.4078 295.2435 295.2647 295.3625
   295.7830 295.8592 296.2294 296.6142 296.7700 297.1450 297.6832 297.7286
   297.9857 298.0583 298.4700 298.9380 299.4895 299.4956 299.7784 299.9351
   300.4162 300.4664 300.6975 300.8589 301.4430 301.6714 301.8756 302.4327
   302.6364 302.9297 303.3833 303.5628 303.7914 304.2792 304.3102 304.5824
   304.9835 305.0420 305.3044 305.3400 306.1632 306.4646 306.5060 307.0296
   307.1688 307.1710 307.3087 307.8310 308.1182 308.1380 308.4785 308.5427
   308.9902 309.0566 309.4578 309.7826 310.4077 311.3290 311.3374 311.8406
   311.9208 312.1396 312.7732 312.9118 313.0160 313.7873 314.1897 314.4307
   315.0288 315.4568 315.7075 316.6998 317.1189 317.1633 317.6363 318.0366
   318.1019 318.5474 318.7330 319.1570 319.5115 320.0015 320.1289 320.6040
   321.1634 321.4337 321.7441 322.8294 322.9581 323.4543 323.7617 324.0532
   324.2463 324.3497 324.8989 325.2354 325.6106 325.8804 326.0417 326.2519
   326.5151 327.0347 327.1964 327.4357 327.9340 328.0344 328.3630 328.4504
   328.7302 328.9362 329.8399 330.3536 331.0328 332.3532 332.4593 332.8554
   333.3351 333.3673 333.8232 334.1303 334.3530 334.4587 334.7134 334.7993
   334.9846 335.4699 335.6132 335.8240 336.1015 336.1216 336.2071 336.7716
   337.9326 337.9899 338.1506 338.6749 338.6876 338.8320 339.0441 339.1511
   339.4320 339.9962 340.1025 340.2363 340.9471 341.5863 341.8181 341.9292
   342.2937 343.0015 343.0486 343.4852 343.5399 344.3399 344.7863 344.8875
   345.4986 346.2079 346.5260 346.9295 347.2682 347.8722 347.9010 348.1500
   348.5019 348.5025 349.8017 351.1264 351.3933 351.5204 351.8425 351.9033
   351.9125 352.5397 352.6030 352.9991 353.5974 354.4093 354.5446 355.3691
   355.9929 356.3817 356.5685 356.9956 357.1437 357.2092 357.8494 358.0678
   358.3448 358.3796 358.4985 358.6077 358.8008 358.8178 359.4029 359.9112
   360.2224 360.5463 360.9621 362.0978 362.5984 363.1424 364.5236 364.8311
   365.6240 365.7247 366.2390 366.2942 366.7322 366.8839 367.2698 367.3909
   367.9848 369.3106 369.4432 369.5411 370.0353 370.2149 370.3249 370.6359
   370.7692 370.8751 371.4672 372.0140 372.2812 372.6402 373.2674 373.5366
   373.6526 373.8677 374.5602 375.0645 375.4484 375.5955 375.8254 376.7177
   376.9735 377.1978 377.3068 377.6374 377.8572 378.2090 378.6322 378.6969
   378.7545 378.8031 379.2193 379.5137 380.3611 380.9575 381.7122 381.7383
   382.0104 382.6476 383.1052 383.1939 383.5462 383.6698 383.9226 384.5087
   384.8614 384.9631 385.2625 385.3002 385.4184 385.5432 386.1787 386.9179
   387.4272 387.6202 387.6632 388.0664 388.1547 388.2121 388.2480 388.2826
   388.3871 388.6023 388.9684 389.1778 389.3201 389.3590 389.6261 389.9437
   390.8455 391.3231 391.5139 391.6529 392.0435 392.2220 392.6936 393.1640
   393.6105 393.8086 394.0906 394.3184 394.4290 394.7205 394.8108 395.1137
   395.2107 395.4013 395.8280 395.8635 396.0691 396.1234 396.2052 396.5958
   396.8294 396.8858 397.4008 397.7933 398.1203 398.3815 398.4432 398.7457
   398.9383 399.2883 399.3379 399.3659 399.5443 399.8556 399.8839 400.2865
   400.5198 401.0797 401.1799 401.4288 401.5659 402.1863 402.7859 402.8288
   403.1056 403.1645 403.2496 403.3643 405.2191 405.5509 406.4171 406.7064
   407.1109 407.1572 407.4421 407.7460 408.2438 408.2953 408.4999 408.7925
   408.8585 409.0147 409.4769 409.8442 410.1033 410.3519 410.5137 410.6800
   411.7596 412.6138 413.1106 413.3324 413.7960 413.9381 414.2205 414.3158
   414.6288 414.7457 415.2086 415.6045 415.8928 416.0004 416.5556 416.6945
   417.1757 417.2539 417.3222 417.5108 417.6053 418.0045 418.8999 418.9083
   419.7473 420.0161 420.2809 420.5396 420.5613 420.8474 420.8522 420.9790
   421.3547 421.5106 421.5596 421.8068 421.8405 421.8714 422.1930 422.8965
   423.5304 423.6785 423.8364 423.9986 424.1276 424.2265 424.5472 424.6045
   424.9288 426.1635 426.2724 427.1773 427.2961 427.4175 427.5565 427.5863
   428.1880 428.3722 428.6024 428.8792 429.6239 430.0986 430.1754 430.2881
   430.4821 430.5272 430.6177 430.7352 431.5316 432.0553 432.1381 432.3421
   434.0884 434.5837 434.9301 435.0193 435.1952 435.3327 435.6109 436.1925
   436.7299 438.0722 438.2387 438.6149 438.8006 439.0897 439.2345 439.2459
   439.4070 439.5134 439.6497 439.6526 440.0834 440.2583 440.7172 440.8208
   442.1151 442.1896 442.2509 442.4971 443.2119 443.4253 443.5712 443.8705
   444.1427 444.3976 444.5420 444.8346 445.0580 445.1438 445.2171 445.3897
   445.6608 445.9570 446.0523 446.2384 446.8571 447.4301 447.7532 448.1503
   448.7015 449.2031 449.2421 449.3351 449.6237 449.6947 449.9545 450.0767
   450.6325 450.7007 450.8057 451.1502 451.3851 451.4049 451.7446 451.8613
   451.9489 452.2104 452.3863 452.6636 452.9157 453.0309 453.2419 453.3158
   454.1444 454.7767 454.8443 455.0766 455.8839 455.9616 456.1517 456.8885
   456.9274 457.2384 457.3002 457.4263 457.5654 457.7500 457.8489 458.0978
   458.5883 458.7230 459.0243 459.2146 459.2499 459.3724 459.6874 459.7312
   459.8127 460.6374 461.4058 461.5816 462.5824 462.7196 463.3501 463.7123
   463.7540 463.9685 464.0254 464.0416 464.5726 464.6522 466.5548 466.7901
   466.8862 467.1812 468.0058 468.2923 468.7465 469.0942 469.5566 470.1055
   470.6024 470.7479 470.8110 470.8779 471.2664 471.3810 471.5086 471.6587
   472.2797 472.2875 472.5065 472.7500 473.3598 473.5689 473.8052 474.0258
   474.3913 474.4575 475.0565 475.2568 475.3359 475.3721 475.8090 475.8976
   476.1268 476.2823 476.5782 476.6689 476.8036 477.1143 477.3452 477.3470
   477.7910 477.8673 478.6342 478.8761 478.9300 479.0862 480.6095 481.0976
   481.1469 481.3530 481.6922 481.7655 481.7660 481.8131 482.1174 482.6717
   482.9848 483.6613 483.8812 484.0057 484.9404 485.4851 485.4856 485.7801
   486.2913 486.6840 487.4384 487.5948 487.8177 488.0292 488.0752 488.1064
   488.3185 488.4418 488.9730 488.9994 489.1591 489.2785 489.4050 489.4218
   489.9757 490.4431 490.6261 491.0889 491.1054 491.3884 491.6423 491.7370
   491.8600 491.8902 493.7297 494.1051 494.8980 495.3901 496.0460 496.0614
   498.2399 498.6928 498.7369 499.5184 499.6414 499.6788 499.8761 499.9599
   500.1394 500.2826 500.4576 500.4680 500.7190 501.0722 501.1382 501.2047

     the Fermi energy is     9.6481 ev
     (compare with:     9.4841 eV, computed in scf)

     Writing all to output data dir out/mp-10182.save/
 
     init_run     :      0.03s CPU      0.04s WALL (       1 calls)
     electrons    :    679.18s CPU    720.94s WALL (       1 calls)

     Called by init_run:
     wfcinit      :      0.00s CPU      0.00s WALL (       1 calls)
     potinit      :      0.01s CPU      0.01s WALL (       1 calls)
     hinit0       :      0.01s CPU      0.01s WALL (       1 calls)

     Called by electrons:
     c_bands      :    679.17s CPU    720.91s WALL (       1 calls)
     v_of_rho     :      0.00s CPU      0.00s WALL (       1 calls)

     Called by c_bands:
     init_us_2    :      0.00s CPU      0.00s WALL (       8 calls)
     init_us_2:cp :      0.00s CPU      0.00s WALL (       8 calls)
     cegterg      :    646.26s CPU    685.61s WALL (       8 calls)

     Called by *egterg:
     cdiaghg      :    598.68s CPU    636.65s WALL (      93 calls)
     h_psi        :     12.70s CPU     13.15s WALL (     101 calls)
     g_psi        :      0.10s CPU      0.10s WALL (      85 calls)

     Called by h_psi:
     h_psi:calbec :      0.27s CPU      0.28s WALL (     101 calls)
     vloc_psi     :     12.05s CPU     12.48s WALL (     101 calls)
     add_vuspsi   :      0.19s CPU      0.19s WALL (     101 calls)

     General routines
     calbec       :      0.27s CPU      0.28s WALL (     101 calls)
     fft          :      0.00s CPU      0.00s WALL (      10 calls)
     fftw         :     11.00s CPU     11.40s WALL (  122254 calls)
 
     Parallel routines
 
     PWSCF        :  11m19.97s CPU  12m 5.42s WALL

 
   This run was terminated on:  17: 9:45  30Nov2023            

=------------------------------------------------------------------------------=
   JOB DONE.
=------------------------------------------------------------------------------=
