
     Program PWSCF v.7.1 starts on 19Nov2023 at 15:11:49 

     This program is part of the open-source Quantum ESPRESSO suite
     for quantum simulation of materials; please cite
         "P. Giannozzi et al., J. Phys.:Condens. Matter 21 395502 (2009);
         "P. Giannozzi et al., J. Phys.:Condens. Matter 29 465901 (2017);
         "P. Giannozzi et al., J. Chem. Phys. 152 154105 (2020);
          URL http://www.quantum-espresso.org", 
     in publications or presentations arising from this work. More details at
     http://www.quantum-espresso.org/quote

     Parallel version (MPI), running on    24 processors

     MPI processes distributed on     1 nodes
     123528 MiB available memory on the printing compute node when the environment starts
 
     Reading input from pw_mp-984_scf_k3000_E64.in
Warning: card &CELL ignored
Warning: card / ignored

     Current dimensions of program PWSCF are:
     Max number of different atomic species (ntypx) = 10
     Max number of k-points (npk) =  40000
     Max angular momentum in pseudopotentials (lmaxx) =  4
 
     R & G space division:  proc/nbgrp/npool/nimage =      24
     Subspace diagonalization in iterative solution of the eigenvalue problem:
     a serial algorithm will be used

 
     Parallelization info
     --------------------
     sticks:   dense  smooth     PW     G-vecs:    dense   smooth      PW
     Min          16      16      5                  813      813     137
     Max          18      18      6                  817      817     148
     Sum         397     397    121                19551    19551    3377
 
     Using Slab Decomposition
 


     bravais-lattice index     =            4
     lattice parameter (alat)  =       4.7478  a.u.
     unit-cell volume          =     284.3248 (a.u.)^3
     number of atoms/cell      =            4
     number of atomic types    =            2
     number of electrons       =        16.00
     number of Kohn-Sham states=           16
     kinetic-energy cutoff     =      64.0000  Ry
     charge density cutoff     =     256.0000  Ry
     scf convergence threshold =      1.0E-10
     mixing beta               =       0.7000
     number of iterations used =            8  plain     mixing
     Exchange-correlation= PBE
                           (   1   4   3   4   0   0   0)

     celldm(1)=   4.747801  celldm(2)=   0.000000  celldm(3)=   3.067656
     celldm(4)=   0.000000  celldm(5)=   0.000000  celldm(6)=   0.000000

     crystal axes: (cart. coord. in units of alat)
               a(1) = (   1.000000   0.000000   0.000000 )  
               a(2) = (  -0.500000   0.866025   0.000000 )  
               a(3) = (   0.000000   0.000000   3.067656 )  

     reciprocal axes: (cart. coord. in units 2 pi/alat)
               b(1) = (  1.000000  0.577350  0.000000 )  
               b(2) = (  0.000000  1.154701  0.000000 )  
               b(3) = (  0.000000  0.000000  0.325982 )  


     PseudoPot. # 1 for B  read from file:
     /usr/scratch4/magr4985/MG/HTDF/pseudo/SG15/B.upf
     MD5 check sum: eb3cbeacc2d324d57d903df00f564d27
     Pseudo is Norm-conserving, Zval =  3.0
     Generated using ONCVPSP code by D. R. Hamann
     Using radial grid of  602 points,  4 beta functions with: 
                l(1) =   0
                l(2) =   0
                l(3) =   1
                l(4) =   1

     PseudoPot. # 2 for N  read from file:
     /usr/scratch4/magr4985/MG/HTDF/pseudo/SG15/N.upf
     MD5 check sum: c233fa8df51455e992258b7c3dee8a9f
     Pseudo is Norm-conserving, Zval =  5.0
     Generated using ONCVPSP code by D. R. Hamann
     Using radial grid of  602 points,  4 beta functions with: 
                l(1) =   0
                l(2) =   0
                l(3) =   1
                l(4) =   1

     atomic species   valence    mass     pseudopotential
        B              3.00    10.81100     B ( 1.00)
        N              5.00    14.00670     N ( 1.00)

     12 Sym. Ops., with inversion, found



   Cartesian axes

     site n.     atom                  positions (alat units)
         1           B   tau(   1) = (   0.5000000   0.2886752   0.7669140  )
         2           B   tau(   2) = (   0.0000000   0.5773502   2.3007420  )
         3           N   tau(   3) = (   0.5000000   0.2886752   2.3007420  )
         4           N   tau(   4) = (   0.0000000   0.5773502   0.7669140  )

     number of k points=    88  Gaussian smearing, width (Ry)=  0.0005
                       cart. coord. in units 2pi/alat
        k(    1) = (   0.0000000   0.0000000   0.0000000), wk =   0.0025510
        k(    2) = (   0.0000000   0.0000000   0.0814955), wk =   0.0051020
        k(    3) = (   0.0000000   0.0000000  -0.1629909), wk =   0.0025510
        k(    4) = (   0.0000000   0.0824786   0.0000000), wk =   0.0153061
        k(    5) = (   0.0000000   0.0824786   0.0814955), wk =   0.0153061
        k(    6) = (   0.0000000   0.0824786  -0.1629909), wk =   0.0153061
        k(    7) = (   0.0000000   0.1649572   0.0000000), wk =   0.0153061
        k(    8) = (   0.0000000   0.1649572   0.0814955), wk =   0.0153061
        k(    9) = (   0.0000000   0.1649572  -0.1629909), wk =   0.0153061
        k(   10) = (   0.0000000   0.2474358   0.0000000), wk =   0.0153061
        k(   11) = (   0.0000000   0.2474358   0.0814955), wk =   0.0153061
        k(   12) = (   0.0000000   0.2474358  -0.1629909), wk =   0.0153061
        k(   13) = (   0.0000000   0.3299144   0.0000000), wk =   0.0153061
        k(   14) = (   0.0000000   0.3299144   0.0814955), wk =   0.0153061
        k(   15) = (   0.0000000   0.3299144  -0.1629909), wk =   0.0153061
        k(   16) = (   0.0000000   0.4123930   0.0000000), wk =   0.0153061
        k(   17) = (   0.0000000   0.4123930   0.0814955), wk =   0.0153061
        k(   18) = (   0.0000000   0.4123930  -0.1629909), wk =   0.0153061
        k(   19) = (   0.0000000   0.4948717   0.0000000), wk =   0.0153061
        k(   20) = (   0.0000000   0.4948717   0.0814955), wk =   0.0153061
        k(   21) = (   0.0000000   0.4948717  -0.1629909), wk =   0.0153061
        k(   22) = (   0.0000000  -0.5773503   0.0000000), wk =   0.0076531
        k(   23) = (   0.0000000  -0.5773503   0.0814955), wk =   0.0153061
        k(   24) = (   0.0000000  -0.5773503  -0.1629909), wk =   0.0076531
        k(   25) = (   0.0714286   0.1237179   0.0000000), wk =   0.0153061
        k(   26) = (   0.0714286   0.1237179   0.0814955), wk =   0.0306122
        k(   27) = (   0.0714286   0.1237179  -0.1629909), wk =   0.0153061
        k(   28) = (   0.0714286   0.2061965   0.0000000), wk =   0.0306122
        k(   29) = (   0.0714286   0.2061965   0.0814955), wk =   0.0306122
        k(   30) = (   0.0714286   0.2061965  -0.1629909), wk =   0.0306122
        k(   31) = (   0.0714286   0.2886751   0.0000000), wk =   0.0306122
        k(   32) = (   0.0714286   0.2886751   0.0814955), wk =   0.0306122
        k(   33) = (   0.0714286   0.2886751  -0.1629909), wk =   0.0306122
        k(   34) = (   0.0714286   0.3711537   0.0000000), wk =   0.0306122
        k(   35) = (   0.0714286   0.3711537   0.0814955), wk =   0.0306122
        k(   36) = (   0.0714286   0.3711537  -0.1629909), wk =   0.0306122
        k(   37) = (   0.0714286   0.4536324   0.0000000), wk =   0.0306122
        k(   38) = (   0.0714286   0.4536324   0.0814955), wk =   0.0306122
        k(   39) = (   0.0714286   0.4536324  -0.1629909), wk =   0.0306122
        k(   40) = (   0.0714286   0.5361110   0.0000000), wk =   0.0306122
        k(   41) = (   0.0714286   0.5361110   0.0814955), wk =   0.0306122
        k(   42) = (   0.0714286   0.5361110  -0.1629909), wk =   0.0306122
        k(   43) = (   0.1428571   0.2474358   0.0000000), wk =   0.0153061
        k(   44) = (   0.1428571   0.2474358   0.0814955), wk =   0.0306122
        k(   45) = (   0.1428571   0.2474358  -0.1629909), wk =   0.0153061
        k(   46) = (   0.1428571   0.3299144   0.0000000), wk =   0.0306122
        k(   47) = (   0.1428571   0.3299144   0.0814955), wk =   0.0306122
        k(   48) = (   0.1428571   0.3299144  -0.1629909), wk =   0.0306122
        k(   49) = (   0.1428571   0.4123930   0.0000000), wk =   0.0306122
        k(   50) = (   0.1428571   0.4123930   0.0814955), wk =   0.0306122
        k(   51) = (   0.1428571   0.4123930  -0.1629909), wk =   0.0306122
        k(   52) = (   0.1428571   0.4948717   0.0000000), wk =   0.0306122
        k(   53) = (   0.1428571   0.4948717   0.0814955), wk =   0.0306122
        k(   54) = (   0.1428571   0.4948717  -0.1629909), wk =   0.0306122
        k(   55) = (   0.1428571   0.5773503   0.0000000), wk =   0.0153061
        k(   56) = (   0.1428571   0.5773503   0.0814955), wk =   0.0306122
        k(   57) = (   0.1428571   0.5773503  -0.1629909), wk =   0.0153061
        k(   58) = (   0.2142857   0.3711537   0.0000000), wk =   0.0153061
        k(   59) = (   0.2142857   0.3711537   0.0814955), wk =   0.0306122
        k(   60) = (   0.2142857   0.3711537  -0.1629909), wk =   0.0153061
        k(   61) = (   0.2142857   0.4536324   0.0000000), wk =   0.0306122
        k(   62) = (   0.2142857   0.4536324   0.0814955), wk =   0.0306122
        k(   63) = (   0.2142857   0.4536324  -0.1629909), wk =   0.0306122
        k(   64) = (   0.2142857   0.5361110   0.0000000), wk =   0.0306122
        k(   65) = (   0.2142857   0.5361110   0.0814955), wk =   0.0306122
        k(   66) = (   0.2142857   0.5361110  -0.1629909), wk =   0.0306122
        k(   67) = (   0.2857143   0.4948717   0.0000000), wk =   0.0153061
        k(   68) = (   0.2857143   0.4948717   0.0814955), wk =   0.0306122
        k(   69) = (   0.2857143   0.4948717  -0.1629909), wk =   0.0153061
        k(   70) = (   0.2857143   0.5773503   0.0000000), wk =   0.0153061
        k(   71) = (   0.2857143   0.5773503   0.0814955), wk =   0.0306122
        k(   72) = (   0.2857143   0.5773503  -0.1629909), wk =   0.0153061
        k(   73) = (   0.0000000   0.0824786  -0.0814955), wk =   0.0153061
        k(   74) = (   0.0000000   0.1649572  -0.0814955), wk =   0.0153061
        k(   75) = (   0.0000000   0.2474358  -0.0814955), wk =   0.0153061
        k(   76) = (   0.0000000   0.3299144  -0.0814955), wk =   0.0153061
        k(   77) = (   0.0000000   0.4123930  -0.0814955), wk =   0.0153061
        k(   78) = (   0.0000000   0.4948717  -0.0814955), wk =   0.0153061
        k(   79) = (  -0.0714286   0.2061965  -0.0814955), wk =   0.0306122
        k(   80) = (  -0.0714286   0.2886751  -0.0814955), wk =   0.0306122
        k(   81) = (  -0.0714286   0.3711537  -0.0814955), wk =   0.0306122
        k(   82) = (  -0.0714286   0.4536324  -0.0814955), wk =   0.0306122
        k(   83) = (  -0.0714286   0.5361110  -0.0814955), wk =   0.0306122
        k(   84) = (  -0.1428571   0.3299144  -0.0814955), wk =   0.0306122
        k(   85) = (  -0.1428571   0.4123930  -0.0814955), wk =   0.0306122
        k(   86) = (  -0.1428571   0.4948717  -0.0814955), wk =   0.0306122
        k(   87) = (  -0.2142857   0.4536324  -0.0814955), wk =   0.0306122
        k(   88) = (  -0.2142857   0.5361110  -0.0814955), wk =   0.0306122

     Dense  grid:    19551 G-vectors     FFT dimensions: (  25,  25,  75)

     Estimated max dynamical RAM per process >       1.50 MB

     Estimated total dynamical RAM >      35.96 MB

     Initial potential from superposition of free atoms

     starting charge      15.9606, renormalised to      16.0000
     Starting wfcs are random

     total cpu time spent up to now is        0.7 secs

     Self-consistent Calculation

     iteration #  1     ecut=    64.00 Ry     beta= 0.70
     Davidson diagonalization with overlap
     ethr =  1.00E-02,  avg # of iterations = 10.2

     total cpu time spent up to now is        2.4 secs

     total energy              =     -51.32128786 Ry
     estimated scf accuracy    <       0.66841211 Ry

     iteration #  2     ecut=    64.00 Ry     beta= 0.70
     Davidson diagonalization with overlap
     ethr =  4.18E-03,  avg # of iterations =  2.0

     total cpu time spent up to now is        2.9 secs

     total energy              =     -51.46777141 Ry
     estimated scf accuracy    <       0.23498759 Ry

     iteration #  3     ecut=    64.00 Ry     beta= 0.70
     Davidson diagonalization with overlap
     ethr =  1.47E-03,  avg # of iterations =  1.6

     total cpu time spent up to now is        3.5 secs

     total energy              =     -51.51775282 Ry
     estimated scf accuracy    <       0.00390504 Ry

     iteration #  4     ecut=    64.00 Ry     beta= 0.70
     Davidson diagonalization with overlap
     ethr =  2.44E-05,  avg # of iterations =  6.4

     total cpu time spent up to now is        4.3 secs

     total energy              =     -51.51922301 Ry
     estimated scf accuracy    <       0.00030606 Ry

     iteration #  5     ecut=    64.00 Ry     beta= 0.70
     Davidson diagonalization with overlap
     ethr =  1.91E-06,  avg # of iterations =  4.7

     total cpu time spent up to now is        5.0 secs

     total energy              =     -51.51929263 Ry
     estimated scf accuracy    <       0.00000865 Ry

     iteration #  6     ecut=    64.00 Ry     beta= 0.70
     Davidson diagonalization with overlap
     ethr =  5.40E-08,  avg # of iterations =  1.9

     total cpu time spent up to now is        5.5 secs

     total energy              =     -51.51929396 Ry
     estimated scf accuracy    <       0.00000079 Ry

     iteration #  7     ecut=    64.00 Ry     beta= 0.70
     Davidson diagonalization with overlap
     ethr =  4.94E-09,  avg # of iterations =  1.9

     total cpu time spent up to now is        6.0 secs

     total energy              =     -51.51929411 Ry
     estimated scf accuracy    <       0.00000007 Ry

     iteration #  8     ecut=    64.00 Ry     beta= 0.70
     Davidson diagonalization with overlap
     ethr =  4.18E-10,  avg # of iterations =  2.4

     total cpu time spent up to now is        6.6 secs

     total energy              =     -51.51929414 Ry
     estimated scf accuracy    <       0.00000001 Ry

     iteration #  9     ecut=    64.00 Ry     beta= 0.70
     Davidson diagonalization with overlap
     ethr =  7.38E-11,  avg # of iterations =  1.3

     total cpu time spent up to now is        7.1 secs

     total energy              =     -51.51929414 Ry
     estimated scf accuracy    <          1.3E-10 Ry

     iteration # 10     ecut=    64.00 Ry     beta= 0.70
     Davidson diagonalization with overlap
     ethr =  8.25E-13,  avg # of iterations =  3.6

     total cpu time spent up to now is        7.8 secs

     End of self-consistent calculation

          k = 0.0000 0.0000 0.0000 (  2437 PWs)   bands (ev):

   -14.3952 -14.3093  -2.4324  -1.4659   1.8414   1.8414   1.8473   1.8473
     7.8575  11.7877  14.1956  14.7260  14.7260  14.7598  14.7598  15.8109

          k = 0.0000 0.0000 0.0815 (  2431 PWs)   bands (ev):

   -14.3829 -14.3221  -2.3068  -1.6272   1.8417   1.8417   1.8460   1.8460
     8.2987  10.9129  14.7101  14.7307  14.7307  14.7546  14.7546  15.6924

          k = 0.0000 0.0000-0.1630 (  2390 PWs)   bands (ev):

   -14.3527 -14.3527  -1.9844  -1.9844   1.8450   1.8450   1.8450   1.8450
     9.4553   9.4554  14.7430  14.7430  14.7431  14.7431  15.3330  15.3332

          k = 0.0000 0.0825 0.0000 (  2439 PWs)   bands (ev):

   -14.2975 -14.2127  -2.2978  -1.3392   1.4296   1.4329   1.6478   1.6558
     8.0362  11.8292  14.2576  14.6814  14.8966  15.1604  15.1934  15.4973

          k = 0.0000 0.0825 0.0815 (  2421 PWs)   bands (ev):

   -14.2853 -14.2254  -2.1734  -1.4990   1.4305   1.4333   1.6491   1.6550
     8.4709  11.0177  14.5138  14.6780  15.0136  15.1654  15.1886  15.4535

          k = 0.0000 0.0825-0.1630 (  2424 PWs)   bands (ev):

   -14.2556 -14.2556  -1.8540  -1.8540   1.4320   1.4320   1.6521   1.6521
     9.6065   9.6066  14.6494  14.6494  15.1769  15.1769  15.2903  15.2905

          k = 0.0000 0.1650 0.0000 (  2451 PWs)   bands (ev):

   -14.0082 -13.9269  -1.8985  -0.9636   0.3448   0.3502   1.1539   1.1639
     8.5300  11.8883  14.0909  14.5628  14.6019  15.6097  16.3659  16.3987

          k = 0.0000 0.1650 0.0815 (  2441 PWs)   bands (ev):

   -13.9965 -13.9390  -1.7774  -1.1202   0.3473   0.3507   1.1560   1.1629
     8.9439  11.2603  14.1929  14.4650  14.7290  15.2870  16.3711  16.3941

          k = 0.0000 0.1650-0.1630 (  2448 PWs)   bands (ev):

   -13.9679 -13.9679  -1.4662  -1.4662   0.3501   0.3501   1.1592   1.1592
    10.0099  10.0100  14.3429  14.3430  14.9436  14.9437  16.3823  16.3823

          k = 0.0000 0.2474 0.0000 (  2457 PWs)   bands (ev):

   -13.5406 -13.4651  -1.2481  -1.1064  -1.0997  -0.3563   0.5328   0.5450
     9.2813  11.7279  13.2485  13.8076  14.4063  16.3166  16.6729  18.1274

          k = 0.0000 0.2474 0.0815 (  2451 PWs)   bands (ev):

   -13.5297 -13.4763  -1.1671  -1.1068  -1.0668  -0.4985   0.5347   0.5434
     9.6471  11.4001  13.3279  13.7577  14.4213  15.1672  17.9458  18.1326

          k = 0.0000 0.2474-0.1630 (  2432 PWs)   bands (ev):

   -13.5032 -13.5032  -1.1195  -1.1194  -0.8139  -0.8139   0.5394   0.5394
    10.5356  10.5357  13.5519  13.5520  14.5513  14.5513  18.1451  18.1451

          k = 0.0000 0.3299 0.0000 (  2458 PWs)   bands (ev):

   -12.9246 -12.8578  -2.6620  -2.6499  -0.3776  -0.0654  -0.0527   0.4451
    10.2521  10.9952  11.6434  13.5437  14.2783  16.1395  17.7749  20.2004

          k = 0.0000 0.3299 0.0815 (  2452 PWs)   bands (ev):

   -12.9150 -12.8677  -2.6608  -2.6523  -0.2674  -0.0636  -0.0541   0.3121
    10.4252  10.9350  11.8937  13.3875  14.2936  15.1696  18.7628  20.2067

          k = 0.0000 0.3299-0.1630 (  2448 PWs)   bands (ev):

   -12.8915 -12.8915  -2.6573  -2.6573  -0.0586  -0.0586   0.0113   0.0113
    10.7281  10.7282  12.6746  12.6746  14.4351  14.4351  19.8716  19.8717

          k = 0.0000 0.4124 0.0000 (  2458 PWs)   bands (ev):

   -12.2265 -12.1722  -4.1080  -4.0905  -0.5450  -0.5303   0.6425   1.3564
     9.6725  10.1159  11.3627  13.3423  14.2780  16.5600  18.3809  21.1394

          k = 0.0000 0.4124 0.0815 (  2451 PWs)   bands (ev):

   -12.2186 -12.1802  -4.1056  -4.0932  -0.5426  -0.5325   0.7396   1.2435
     9.6805   9.9671  11.8438  13.2399  14.3399  15.6826  19.1347  20.8364

          k = 0.0000 0.4124-0.1630 (  2464 PWs)   bands (ev):

   -12.1995 -12.1995  -4.0999  -4.0999  -0.5377  -0.5377   0.9833   0.9833
     9.7716   9.7717  12.7339  12.7340  14.6872  14.6873  20.1325  20.1325

          k = 0.0000 0.4949 0.0000 (  2448 PWs)   bands (ev):

   -11.5951 -11.5595  -5.2096  -5.1896  -0.8505  -0.8352   1.6304   2.1777
     8.3275   8.9147  12.3340  13.2182  14.6548  17.2712  17.4805  20.0293

          k = 0.0000 0.4949 0.0815 (  2465 PWs)   bands (ev):

   -11.5900 -11.5648  -5.2068  -5.1930  -0.8485  -0.8378   1.7067   2.0938
     8.3826   8.7938  12.5622  13.1682  14.8386  16.4315  18.1914  19.6627

          k = 0.0000 0.4949-0.1630 (  2466 PWs)   bands (ev):

   -11.5774 -11.5774  -5.2002  -5.2002  -0.8434  -0.8434   1.8973   1.8973
     8.5572   8.5572  12.9565  12.9565  15.4599  15.4600  18.9726  18.9727

          k = 0.0000-0.5774 0.0000 (  2448 PWs)   bands (ev):

   -11.3143 -11.2957  -5.6451  -5.6263  -0.9552  -0.9396   2.1141   2.5261
     7.7343   8.4003  12.6896  13.1764  15.4640  16.2561  17.7331  19.4711

          k = 0.0000-0.5774 0.0815 (  2462 PWs)   bands (ev):

   -11.3116 -11.2984  -5.6426  -5.6292  -0.9530  -0.9423   2.1742   2.4652
     7.8023   8.2708  12.8039  13.1427  15.7023  16.2865  17.7619  18.9451

          k = 0.0000-0.5774-0.1630 (  2460 PWs)   bands (ev):

   -11.3050 -11.3050  -5.6363  -5.6363  -0.9476  -0.9476   2.3203   2.3203
     8.0067   8.0068  13.0135  13.0136  16.1428  16.1429  18.1049  18.1049

          k = 0.0714 0.1237 0.0000 (  2436 PWs)   bands (ev):

   -14.1039 -14.0214  -2.0307  -1.0879   0.7200   0.7237   1.2665   1.2750
     8.3732  11.8817  14.4170  14.6677  14.8965  15.0045  15.8430  16.1386

          k = 0.0714 0.1237 0.0815 (  2434 PWs)   bands (ev):

   -14.0921 -14.0337  -1.9086  -1.2455   0.7221   0.7239   1.2674   1.2738
     8.7945  11.1944  14.5270  14.6627  14.9138  14.9899  15.8523  16.0110

          k = 0.0714 0.1237-0.1630 (  2442 PWs)   bands (ev):

   -14.0631 -14.0631  -1.5945  -1.5945   0.7238   0.7238   1.2704   1.2704
     9.8859   9.8860  14.6304  14.6305  14.9526  14.9527  15.8951  15.8951

          k = 0.0714 0.2062 0.0000 (  2451 PWs)   bands (ev):

   -13.7250 -13.6471  -1.5055  -0.5960  -0.4761  -0.4700   0.6363   0.6470
     9.0012  11.8419  13.7892  14.3352  14.7443  15.6729  16.5261  16.9437

          k = 0.0714 0.2062 0.0815 (  2448 PWs)   bands (ev):

   -13.7138 -13.6587  -1.3889  -0.7557  -0.4694  -0.4638   0.6378   0.6456
     9.3903  11.4040  13.8537  14.2658  14.7463  15.1079  16.8038  16.9346

          k = 0.0714 0.2062-0.1630 (  2444 PWs)   bands (ev):

   -13.6864 -13.6864  -1.0895  -1.0895  -0.4644  -0.4644   0.6418   0.6418
    10.3654  10.3656  14.0425  14.0426  14.7937  14.7937  16.9032  16.9032

          k = 0.0714 0.2887 0.0000 (  2458 PWs)   bands (ev):

   -13.1811 -13.1105  -1.9268  -1.9182  -0.7430  -0.0277  -0.0144   0.1109
     9.8781  11.4027  12.3326  14.0855  14.6923  16.1134  16.8434  18.4513

          k = 0.0714 0.2887 0.0815 (  2448 PWs)   bands (ev):

   -13.1709 -13.1210  -1.9268  -1.9207  -0.6284  -0.0383  -0.0220  -0.0083
    10.1738  11.2594  12.4945  13.8531  14.6890  15.1411  17.7328  18.4100

          k = 0.0714 0.2887-0.1630 (  2448 PWs)   bands (ev):

   -13.1461 -13.1461  -1.9250  -1.9250  -0.3403  -0.3403  -0.0199  -0.0199
    10.7988  10.7989  13.0611  13.0612  14.7275  14.7276  18.2447  18.2447

          k = 0.0714 0.3712 0.0000 (  2446 PWs)   bands (ev):

   -12.5170 -12.4567  -3.4029  -3.3884  -0.5967  -0.5825   0.2107   0.9772
    10.3597  10.7703  10.9608  13.8606  14.6246  16.2544  17.9516  20.0965

          k = 0.0714 0.3712 0.0815 (  2458 PWs)   bands (ev):

   -12.5083 -12.4657  -3.4013  -3.3911  -0.5949  -0.5851   0.3141   0.8543
    10.3210  10.4914  11.6726  13.6767  14.6352  15.4164  18.6864  19.9607

          k = 0.0714 0.3712-0.1630 (  2448 PWs)   bands (ev):

   -12.4871 -12.4871  -3.3964  -3.3964  -0.5900  -0.5900   0.5750   0.5750
    10.3447  10.3448  12.8151  12.8151  14.7557  14.7558  19.5075  19.5076

          k = 0.0714 0.4536 0.0000 (  2455 PWs)   bands (ev):

   -11.8322 -11.7871  -4.6806  -4.6613  -1.0044  -0.9896   1.2434   1.8725
     8.9606   9.4244  12.1249  13.6994  14.7029  16.7678  18.0691  20.3120

          k = 0.0714 0.4536 0.0815 (  2459 PWs)   bands (ev):

   -11.8256 -11.7938  -4.6780  -4.6644  -1.0026  -0.9919   1.3302   1.7749
     8.9935   9.3156  12.4920  13.6135  14.7789  16.0518  18.6539  20.0383

          k = 0.0714 0.4536-0.1630 (  2462 PWs)   bands (ev):

   -11.8098 -11.8098  -4.6716  -4.6716  -0.9973  -0.9973   1.5473   1.5473
     9.1202   9.1202  13.2082  13.2082  15.1541  15.1541  19.4578  19.4578

          k = 0.0714 0.5361 0.0000 (  2463 PWs)   bands (ev):

   -11.3404 -11.3162  -5.4760  -5.4563  -1.2162  -1.2007   2.0570   2.5013
     7.9240   8.5242  12.9501  13.6161  15.2439  16.8441  17.2667  19.6172

          k = 0.0714 0.5361 0.0815 (  2462 PWs)   bands (ev):

   -11.3368 -11.3198  -5.4733  -5.4594  -1.2137  -1.2027   2.1211   2.4358
     7.9838   8.4062  13.1138  13.5743  15.4340  16.4965  17.6886  19.1935

          k = 0.0714 0.5361-0.1630 (  2462 PWs)   bands (ev):

   -11.3283 -11.3283  -5.4667  -5.4667  -1.2083  -1.2083   2.2782   2.2782
     8.1668   8.1668  13.4057  13.4057  15.9332  15.9332  18.4022  18.4023

          k = 0.1429 0.2474 0.0000 (  2454 PWs)   bands (ev):

   -13.2684 -13.1965  -1.5398  -1.5337  -0.8667  -0.1667  -0.1542  -0.0026
     9.7656  11.5385  12.6068  15.1508  15.1584  15.6986  16.1268  17.3287

          k = 0.1429 0.2474 0.0815 (  2450 PWs)   bands (ev):

   -13.2581 -13.2072  -1.5408  -1.5373  -0.7499  -0.1752  -0.1556  -0.1313
    10.0867  11.3603  12.7565  14.3854  15.1775  15.2936  16.8319  17.2975

          k = 0.1429 0.2474-0.1630 (  2456 PWs)   bands (ev):

   -13.2328 -13.2328  -1.5410  -1.5410  -0.4590  -0.4590  -0.1586  -0.1586
    10.7992  10.7994  13.3004  13.3005  15.2258  15.2258  17.1775  17.1775

          k = 0.1429 0.3299 0.0000 (  2456 PWs)   bands (ev):

   -12.6698 -12.6065  -2.7792  -2.7705  -0.9383  -0.9236  -0.0137   0.7775
    10.7846  10.7849  11.2120  15.0804  15.6046  16.0586  16.6917  18.2751

          k = 0.1429 0.3299 0.0815 (  2452 PWs)   bands (ev):

   -12.6606 -12.6159  -2.7785  -2.7723  -0.9363  -0.9261   0.0933   0.6510
    10.6610  10.7541  11.7839  14.4392  15.5493  15.5865  17.4163  18.2042

          k = 0.1429 0.3299-0.1630 (  2450 PWs)   bands (ev):

   -12.6384 -12.6384  -2.7759  -2.7759  -0.9314  -0.9314   0.3624   0.3624
    10.6706  10.6707  12.9958  12.9958  15.5270  15.5270  17.9568  17.9569

          k = 0.1429 0.4124 0.0000 (  2460 PWs)   bands (ev):

   -11.9965 -11.9457  -4.0295  -4.0138  -1.5150  -1.4996   0.9812   1.6595
     9.6026   9.8618  12.0074  14.9057  15.6329  16.2286  17.7764  19.7131

          k = 0.1429 0.4124 0.0815 (  2459 PWs)   bands (ev):

   -11.9891 -11.9532  -4.0274  -4.0164  -1.5130  -1.5021   1.0743   1.5532
     9.5987   9.7731  12.4844  14.6209  15.6109  15.8183  18.1879  19.4882

          k = 0.1429 0.4124-0.1630 (  2452 PWs)   bands (ev):

   -11.9712 -11.9712  -4.0221  -4.0221  -1.5076  -1.5076   1.3072   1.3072
     9.6467   9.6467  13.5846  13.5846  15.5970  15.5970  18.8790  18.8790

          k = 0.1429 0.4949 0.0000 (  2468 PWs)   bands (ev):

   -11.3953 -11.3626  -5.0194  -4.9989  -1.8646  -1.8489   1.9392   2.4444
     8.3880   8.8037  13.2853  14.7821  15.6439  16.3689  17.6616  19.6734

          k = 0.1429 0.4949 0.0815 (  2470 PWs)   bands (ev):

   -11.3905 -11.3674  -5.0167  -5.0022  -1.8625  -1.8512   2.0112   2.3688
     8.4234   8.7165  13.5980  14.6867  15.6650  16.1310  17.9817  19.4979

          k = 0.1429 0.4949-0.1630 (  2470 PWs)   bands (ev):

   -11.3790 -11.3790  -5.0098  -5.0098  -1.8570  -1.8570   2.1884   2.1884
     8.5451   8.5451  14.2585  14.2586  15.7880  15.7880  18.6785  18.6785

          k = 0.1429 0.5774 0.0000 (  2474 PWs)   bands (ev):

   -11.1314 -11.1146  -5.4149  -5.3935  -1.9821  -1.9657   2.4095   2.7698
     7.8519   8.3439  13.9845  14.7383  15.7798  16.4020  16.9633  19.4781

          k = 0.1429 0.5774 0.0815 (  2473 PWs)   bands (ev):

   -11.1290 -11.1171  -5.4121  -5.3968  -1.9794  -1.9679   2.4633   2.7185
     7.8991   8.2464  14.1598  14.6903  15.8789  16.2087  17.4158  19.3102

          k = 0.1429 0.5774-0.1630 (  2462 PWs)   bands (ev):

   -11.1230 -11.1230  -5.4047  -5.4047  -1.9735  -1.9735   2.5930   2.5930
     8.0481   8.0481  14.4921  14.4922  16.0321  16.0321  18.3440  18.3441

          k = 0.2143 0.3712 0.0000 (  2468 PWs)   bands (ev):

   -12.0548 -12.0022  -3.6441  -3.6351  -1.8708  -1.8551   0.8892   1.5836
     9.9213  10.0065  11.9513  15.9828  16.3479  16.5352  16.7170  18.3902

          k = 0.2143 0.3712 0.0815 (  2464 PWs)   bands (ev):

   -12.0472 -12.0100  -3.6430  -3.6368  -1.8688  -1.8577   0.9846   1.4746
     9.8967   9.9277  12.4601  15.0386  16.3808  16.5864  17.2282  18.2671

          k = 0.2143 0.3712-0.1630 (  2448 PWs)   bands (ev):

   -12.0287 -12.0287  -3.6400  -3.6400  -1.8631  -1.8631   1.2227   1.2227
     9.8700   9.8700  13.6519  13.6519  16.4733  16.4733  17.8673  17.8674

          k = 0.2143 0.4536 0.0000 (  2479 PWs)   bands (ev):

   -11.4368 -11.3990  -4.4831  -4.4663  -2.5418  -2.5257   1.8531   2.3979
     8.8384   9.0033  13.3120  15.6799  16.2622  16.8329  17.7875  19.4780

          k = 0.2143 0.4536 0.0815 (  2469 PWs)   bands (ev):

   -11.4313 -11.4046  -4.4808  -4.4689  -2.5393  -2.5283   1.9308   2.3155
     8.8373   8.9565  13.6872  15.3885  16.3516  16.7353  17.8968  19.0116

          k = 0.2143 0.4536-0.1630 (  2474 PWs)   bands (ev):

   -11.4180 -11.4180  -4.4751  -4.4751  -2.5342  -2.5342   2.1204   2.1204
     8.8737   8.8737  14.5715  14.5716  16.5330  16.5330  18.3118  18.3118

          k = 0.2143 0.5361 0.0000 (  2481 PWs)   bands (ev):

   -11.0083 -10.9894  -5.0558  -5.0312  -2.8677  -2.8514   2.6058   2.9431
     8.0379   8.3244  14.6784  15.3907  16.1326  16.3976  18.0515  18.9588

          k = 0.2143 0.5361 0.0815 (  2477 PWs)   bands (ev):

   -11.0056 -10.9922  -5.0524  -5.0350  -2.8652  -2.8539   2.6572   2.8959
     8.0578   8.2610  14.9284  15.4687  16.0868  16.2858  18.1633  19.0381

          k = 0.2143 0.5361-0.1630 (  2472 PWs)   bands (ev):

   -10.9989 -10.9989  -5.0439  -5.0439  -2.8597  -2.8597   2.7789   2.7789
     8.1380   8.1380  15.4053  15.4053  16.0612  16.0613  18.6131  18.6132

          k = 0.2857 0.4949 0.0000 (  2476 PWs)   bands (ev):

   -10.9698 -10.9486  -4.7354  -4.7097  -3.3762  -3.3651   2.6615   3.0032
     8.1960   8.3177  14.7551  14.9568  16.8083  17.2143  18.6299  18.9729

          k = 0.2857 0.4949 0.0815 (  2482 PWs)   bands (ev):

   -10.9667 -10.9517  -4.7320  -4.7138  -3.3749  -3.3670   2.7134   2.9555
     8.1921   8.2802  15.0014  15.0919  16.7661  16.8649  18.7536  18.9584

          k = 0.2857 0.4949-0.1630 (  2480 PWs)   bands (ev):

   -10.9592 -10.9592  -4.7229  -4.7229  -3.3711  -3.3711   2.8363   2.8363
     8.2157   8.2157  15.2951  15.2951  16.5797  16.5798  18.8873  18.8874

          k = 0.2857 0.5774 0.0000 (  2474 PWs)   bands (ev):

   -10.7772 -10.7700  -4.8048  -4.7690  -3.7163  -3.7066   3.0652   3.2067
     7.9235   8.0310  14.6529  15.8744  16.4086  17.1404  18.2756  19.5430

          k = 0.2857 0.5774 0.0815 (  2486 PWs)   bands (ev):

   -10.7762 -10.7711  -4.7997  -4.7745  -3.7152  -3.7085   3.0906   3.1906
     7.9173   7.9939  14.8573  16.1130  16.2158  16.7464  18.8386  19.5280

          k = 0.2857 0.5774-0.1630 (  2496 PWs)   bands (ev):

   -10.7736 -10.7736  -4.7872  -4.7872  -3.7123  -3.7123   3.1451   3.1451
     7.9341   7.9341  15.4406  15.4406  16.5573  16.5573  19.4572  19.4573

          k = 0.0000 0.0825-0.0815 (  2421 PWs)   bands (ev):

   -14.2853 -14.2254  -2.1734  -1.4990   1.4305   1.4333   1.6491   1.6550
     8.4709  11.0177  14.5138  14.6780  15.0136  15.1654  15.1886  15.4535

          k = 0.0000 0.1650-0.0815 (  2441 PWs)   bands (ev):

   -13.9965 -13.9390  -1.7774  -1.1202   0.3473   0.3507   1.1560   1.1629
     8.9439  11.2603  14.1929  14.4650  14.7289  15.2870  16.3711  16.3942

          k = 0.0000 0.2474-0.0815 (  2451 PWs)   bands (ev):

   -13.5297 -13.4763  -1.1671  -1.1068  -1.0668  -0.4985   0.5347   0.5434
     9.6471  11.4001  13.3279  13.7577  14.4213  15.1672  17.9458  18.1325

          k = 0.0000 0.3299-0.0815 (  2452 PWs)   bands (ev):

   -12.9150 -12.8677  -2.6608  -2.6523  -0.2674  -0.0636  -0.0541   0.3121
    10.4251  10.9351  11.8937  13.3875  14.2936  15.1696  18.7628  20.2092

          k = 0.0000 0.4124-0.0815 (  2451 PWs)   bands (ev):

   -12.2186 -12.1802  -4.1056  -4.0932  -0.5426  -0.5325   0.7396   1.2435
     9.6805   9.9671  11.8438  13.2399  14.3399  15.6827  19.1347  20.8364

          k = 0.0000 0.4949-0.0815 (  2465 PWs)   bands (ev):

   -11.5900 -11.5648  -5.2068  -5.1930  -0.8485  -0.8378   1.7067   2.0938
     8.3825   8.7938  12.5622  13.1682  14.8385  16.4315  18.1914  19.6627

          k =-0.0714 0.2062-0.0815 (  2448 PWs)   bands (ev):

   -13.7138 -13.6587  -1.3889  -0.7557  -0.4694  -0.4638   0.6378   0.6456
     9.3903  11.4040  13.8538  14.2657  14.7463  15.1079  16.8038  16.9346

          k =-0.0714 0.2887-0.0815 (  2448 PWs)   bands (ev):

   -13.1709 -13.1210  -1.9268  -1.9207  -0.6284  -0.0383  -0.0220  -0.0083
    10.1738  11.2594  12.4945  13.8531  14.6890  15.1411  17.7327  18.4101

          k =-0.0714 0.3712-0.0815 (  2458 PWs)   bands (ev):

   -12.5083 -12.4657  -3.4013  -3.3911  -0.5949  -0.5851   0.3141   0.8543
    10.3210  10.4915  11.6726  13.6767  14.6352  15.4164  18.6864  19.9607

          k =-0.0714 0.4536-0.0815 (  2459 PWs)   bands (ev):

   -11.8256 -11.7938  -4.6780  -4.6644  -1.0026  -0.9919   1.3302   1.7749
     8.9935   9.3156  12.4920  13.6135  14.7789  16.0518  18.6539  20.0383

          k =-0.0714 0.5361-0.0815 (  2462 PWs)   bands (ev):

   -11.3368 -11.3198  -5.4733  -5.4594  -1.2137  -1.2027   2.1211   2.4358
     7.9838   8.4062  13.1138  13.5743  15.4340  16.4965  17.6886  19.1935

          k =-0.1429 0.3299-0.0815 (  2452 PWs)   bands (ev):

   -12.6606 -12.6159  -2.7785  -2.7723  -0.9363  -0.9261   0.0933   0.6510
    10.6610  10.7542  11.7839  14.4393  15.5493  15.5865  17.4163  18.2042

          k =-0.1429 0.4124-0.0815 (  2459 PWs)   bands (ev):

   -11.9891 -11.9532  -4.0274  -4.0164  -1.5130  -1.5021   1.0743   1.5532
     9.5986   9.7731  12.4844  14.6209  15.6109  15.8183  18.1879  19.4882

          k =-0.1429 0.4949-0.0815 (  2470 PWs)   bands (ev):

   -11.3905 -11.3674  -5.0167  -5.0022  -1.8625  -1.8512   2.0112   2.3688
     8.4234   8.7165  13.5980  14.6867  15.6650  16.1310  17.9817  19.4978

          k =-0.2143 0.4536-0.0815 (  2469 PWs)   bands (ev):

   -11.4313 -11.4046  -4.4808  -4.4689  -2.5393  -2.5283   1.9308   2.3155
     8.8373   8.9565  13.6872  15.3886  16.3515  16.7353  17.8968  19.0116

          k =-0.2143 0.5361-0.0815 (  2477 PWs)   bands (ev):

   -11.0056 -10.9922  -5.0524  -5.0350  -2.8652  -2.8539   2.6572   2.8959
     8.0578   8.2610  14.9284  15.4687  16.0868  16.2858  18.1633  19.0381

     the Fermi energy is     3.3721 ev

!    total energy              =     -51.51929414 Ry
     estimated scf accuracy    <          1.9E-11 Ry
     smearing contrib. (-TS)   =      -0.00000000 Ry
     internal energy E=F+TS    =     -51.51929414 Ry

     The total energy is F=E-TS. E is the sum of the following terms:
     one-electron contribution =     -28.49822227 Ry
     hartree contribution      =      21.54405800 Ry
     xc contribution           =     -14.73253576 Ry
     ewald contribution        =     -29.83259412 Ry

     convergence has been achieved in  10 iterations

     Writing all to output data dir out/mp-984.save/
 
     init_run     :      0.38s CPU      0.49s WALL (       1 calls)
     electrons    :      6.18s CPU      7.15s WALL (       1 calls)

     Called by init_run:
     wfcinit      :      0.34s CPU      0.41s WALL (       1 calls)
     potinit      :      0.01s CPU      0.01s WALL (       1 calls)
     hinit0       :      0.01s CPU      0.05s WALL (       1 calls)

     Called by electrons:
     c_bands      :      5.43s CPU      6.17s WALL (      10 calls)
     sum_band     :      0.73s CPU      0.83s WALL (      10 calls)
     v_of_rho     :      0.01s CPU      0.02s WALL (      11 calls)
     mix_rho      :      0.00s CPU      0.01s WALL (      10 calls)

     Called by c_bands:
     init_us_2    :      0.05s CPU      0.05s WALL (    1848 calls)
     init_us_2:cp :      0.04s CPU      0.05s WALL (    1848 calls)
     cegterg      :      5.17s CPU      5.62s WALL (     880 calls)

     Called by *egterg:
     cdiaghg      :      1.12s CPU      1.20s WALL (    4056 calls)
     h_psi        :      3.93s CPU      4.31s WALL (    4144 calls)
     g_psi        :      0.02s CPU      0.02s WALL (    3176 calls)

     Called by h_psi:
     h_psi:calbec :      0.14s CPU      0.16s WALL (    4144 calls)
     vloc_psi     :      3.69s CPU      4.05s WALL (    4144 calls)
     add_vuspsi   :      0.07s CPU      0.07s WALL (    4144 calls)

     General routines
     calbec       :      0.13s CPU      0.15s WALL (    4144 calls)
     fft          :      0.01s CPU      0.05s WALL (     109 calls)
     ffts         :      0.00s CPU      0.00s WALL (      10 calls)
     fftw         :      4.05s CPU      4.44s WALL (  100690 calls)
     davcio       :      0.09s CPU      0.36s WALL (    2922 calls)
 
     Parallel routines
 
     PWSCF        :      6.78s CPU      9.65s WALL

 
   This run was terminated on:  15:11:59  19Nov2023            

=------------------------------------------------------------------------------=
   JOB DONE.
=------------------------------------------------------------------------------=
