
     Program PWSCF v.7.1 starts on 19Nov2023 at 19: 9:18 

     This program is part of the open-source Quantum ESPRESSO suite
     for quantum simulation of materials; please cite
         "P. Giannozzi et al., J. Phys.:Condens. Matter 21 395502 (2009);
         "P. Giannozzi et al., J. Phys.:Condens. Matter 29 465901 (2017);
         "P. Giannozzi et al., J. Chem. Phys. 152 154105 (2020);
          URL http://www.quantum-espresso.org", 
     in publications or presentations arising from this work. More details at
     http://www.quantum-espresso.org/quote

     Parallel version (MPI), running on    24 processors

     MPI processes distributed on     1 nodes
     123381 MiB available memory on the printing compute node when the environment starts
 
     Reading input from pw_mp-984_scf_k3000_E89.in
Warning: card &CELL ignored
Warning: card / ignored

     Current dimensions of program PWSCF are:
     Max number of different atomic species (ntypx) = 10
     Max number of k-points (npk) =  40000
     Max angular momentum in pseudopotentials (lmaxx) =  4
 
     R & G space division:  proc/nbgrp/npool/nimage =      24
     Subspace diagonalization in iterative solution of the eigenvalue problem:
     a serial algorithm will be used

 
     Parallelization info
     --------------------
     sticks:   dense  smooth     PW     G-vecs:    dense   smooth      PW
     Min          23      23      6                 1341     1341     210
     Max          24      24      7                 1350     1350     227
     Sum         559     559    163                32265    32265    5285
 
     Using Slab Decomposition
 


     bravais-lattice index     =            4
     lattice parameter (alat)  =       4.7478  a.u.
     unit-cell volume          =     284.3248 (a.u.)^3
     number of atoms/cell      =            4
     number of atomic types    =            2
     number of electrons       =        16.00
     number of Kohn-Sham states=           16
     kinetic-energy cutoff     =      89.0000  Ry
     charge density cutoff     =     356.0000  Ry
     scf convergence threshold =      1.0E-10
     mixing beta               =       0.7000
     number of iterations used =            8  plain     mixing
     Exchange-correlation= PBE
                           (   1   4   3   4   0   0   0)

     celldm(1)=   4.747801  celldm(2)=   0.000000  celldm(3)=   3.067656
     celldm(4)=   0.000000  celldm(5)=   0.000000  celldm(6)=   0.000000

     crystal axes: (cart. coord. in units of alat)
               a(1) = (   1.000000   0.000000   0.000000 )  
               a(2) = (  -0.500000   0.866025   0.000000 )  
               a(3) = (   0.000000   0.000000   3.067656 )  

     reciprocal axes: (cart. coord. in units 2 pi/alat)
               b(1) = (  1.000000  0.577350  0.000000 )  
               b(2) = (  0.000000  1.154701  0.000000 )  
               b(3) = (  0.000000  0.000000  0.325982 )  


     PseudoPot. # 1 for B  read from file:
     /usr/scratch4/magr4985/MG/HTDF/pseudo/SG15/B.upf
     MD5 check sum: eb3cbeacc2d324d57d903df00f564d27
     Pseudo is Norm-conserving, Zval =  3.0
     Generated using ONCVPSP code by D. R. Hamann
     Using radial grid of  602 points,  4 beta functions with: 
                l(1) =   0
                l(2) =   0
                l(3) =   1
                l(4) =   1

     PseudoPot. # 2 for N  read from file:
     /usr/scratch4/magr4985/MG/HTDF/pseudo/SG15/N.upf
     MD5 check sum: c233fa8df51455e992258b7c3dee8a9f
     Pseudo is Norm-conserving, Zval =  5.0
     Generated using ONCVPSP code by D. R. Hamann
     Using radial grid of  602 points,  4 beta functions with: 
                l(1) =   0
                l(2) =   0
                l(3) =   1
                l(4) =   1

     atomic species   valence    mass     pseudopotential
        B              3.00    10.81100     B ( 1.00)
        N              5.00    14.00670     N ( 1.00)

     12 Sym. Ops., with inversion, found



   Cartesian axes

     site n.     atom                  positions (alat units)
         1           B   tau(   1) = (   0.5000000   0.2886752   0.7669140  )
         2           B   tau(   2) = (   0.0000000   0.5773502   2.3007420  )
         3           N   tau(   3) = (   0.5000000   0.2886752   2.3007420  )
         4           N   tau(   4) = (   0.0000000   0.5773502   0.7669140  )

     number of k points=    88  Gaussian smearing, width (Ry)=  0.0005
                       cart. coord. in units 2pi/alat
        k(    1) = (   0.0000000   0.0000000   0.0000000), wk =   0.0025510
        k(    2) = (   0.0000000   0.0000000   0.0814955), wk =   0.0051020
        k(    3) = (   0.0000000   0.0000000  -0.1629909), wk =   0.0025510
        k(    4) = (   0.0000000   0.0824786   0.0000000), wk =   0.0153061
        k(    5) = (   0.0000000   0.0824786   0.0814955), wk =   0.0153061
        k(    6) = (   0.0000000   0.0824786  -0.1629909), wk =   0.0153061
        k(    7) = (   0.0000000   0.1649572   0.0000000), wk =   0.0153061
        k(    8) = (   0.0000000   0.1649572   0.0814955), wk =   0.0153061
        k(    9) = (   0.0000000   0.1649572  -0.1629909), wk =   0.0153061
        k(   10) = (   0.0000000   0.2474358   0.0000000), wk =   0.0153061
        k(   11) = (   0.0000000   0.2474358   0.0814955), wk =   0.0153061
        k(   12) = (   0.0000000   0.2474358  -0.1629909), wk =   0.0153061
        k(   13) = (   0.0000000   0.3299144   0.0000000), wk =   0.0153061
        k(   14) = (   0.0000000   0.3299144   0.0814955), wk =   0.0153061
        k(   15) = (   0.0000000   0.3299144  -0.1629909), wk =   0.0153061
        k(   16) = (   0.0000000   0.4123930   0.0000000), wk =   0.0153061
        k(   17) = (   0.0000000   0.4123930   0.0814955), wk =   0.0153061
        k(   18) = (   0.0000000   0.4123930  -0.1629909), wk =   0.0153061
        k(   19) = (   0.0000000   0.4948717   0.0000000), wk =   0.0153061
        k(   20) = (   0.0000000   0.4948717   0.0814955), wk =   0.0153061
        k(   21) = (   0.0000000   0.4948717  -0.1629909), wk =   0.0153061
        k(   22) = (   0.0000000  -0.5773503   0.0000000), wk =   0.0076531
        k(   23) = (   0.0000000  -0.5773503   0.0814955), wk =   0.0153061
        k(   24) = (   0.0000000  -0.5773503  -0.1629909), wk =   0.0076531
        k(   25) = (   0.0714286   0.1237179   0.0000000), wk =   0.0153061
        k(   26) = (   0.0714286   0.1237179   0.0814955), wk =   0.0306122
        k(   27) = (   0.0714286   0.1237179  -0.1629909), wk =   0.0153061
        k(   28) = (   0.0714286   0.2061965   0.0000000), wk =   0.0306122
        k(   29) = (   0.0714286   0.2061965   0.0814955), wk =   0.0306122
        k(   30) = (   0.0714286   0.2061965  -0.1629909), wk =   0.0306122
        k(   31) = (   0.0714286   0.2886751   0.0000000), wk =   0.0306122
        k(   32) = (   0.0714286   0.2886751   0.0814955), wk =   0.0306122
        k(   33) = (   0.0714286   0.2886751  -0.1629909), wk =   0.0306122
        k(   34) = (   0.0714286   0.3711537   0.0000000), wk =   0.0306122
        k(   35) = (   0.0714286   0.3711537   0.0814955), wk =   0.0306122
        k(   36) = (   0.0714286   0.3711537  -0.1629909), wk =   0.0306122
        k(   37) = (   0.0714286   0.4536324   0.0000000), wk =   0.0306122
        k(   38) = (   0.0714286   0.4536324   0.0814955), wk =   0.0306122
        k(   39) = (   0.0714286   0.4536324  -0.1629909), wk =   0.0306122
        k(   40) = (   0.0714286   0.5361110   0.0000000), wk =   0.0306122
        k(   41) = (   0.0714286   0.5361110   0.0814955), wk =   0.0306122
        k(   42) = (   0.0714286   0.5361110  -0.1629909), wk =   0.0306122
        k(   43) = (   0.1428571   0.2474358   0.0000000), wk =   0.0153061
        k(   44) = (   0.1428571   0.2474358   0.0814955), wk =   0.0306122
        k(   45) = (   0.1428571   0.2474358  -0.1629909), wk =   0.0153061
        k(   46) = (   0.1428571   0.3299144   0.0000000), wk =   0.0306122
        k(   47) = (   0.1428571   0.3299144   0.0814955), wk =   0.0306122
        k(   48) = (   0.1428571   0.3299144  -0.1629909), wk =   0.0306122
        k(   49) = (   0.1428571   0.4123930   0.0000000), wk =   0.0306122
        k(   50) = (   0.1428571   0.4123930   0.0814955), wk =   0.0306122
        k(   51) = (   0.1428571   0.4123930  -0.1629909), wk =   0.0306122
        k(   52) = (   0.1428571   0.4948717   0.0000000), wk =   0.0306122
        k(   53) = (   0.1428571   0.4948717   0.0814955), wk =   0.0306122
        k(   54) = (   0.1428571   0.4948717  -0.1629909), wk =   0.0306122
        k(   55) = (   0.1428571   0.5773503   0.0000000), wk =   0.0153061
        k(   56) = (   0.1428571   0.5773503   0.0814955), wk =   0.0306122
        k(   57) = (   0.1428571   0.5773503  -0.1629909), wk =   0.0153061
        k(   58) = (   0.2142857   0.3711537   0.0000000), wk =   0.0153061
        k(   59) = (   0.2142857   0.3711537   0.0814955), wk =   0.0306122
        k(   60) = (   0.2142857   0.3711537  -0.1629909), wk =   0.0153061
        k(   61) = (   0.2142857   0.4536324   0.0000000), wk =   0.0306122
        k(   62) = (   0.2142857   0.4536324   0.0814955), wk =   0.0306122
        k(   63) = (   0.2142857   0.4536324  -0.1629909), wk =   0.0306122
        k(   64) = (   0.2142857   0.5361110   0.0000000), wk =   0.0306122
        k(   65) = (   0.2142857   0.5361110   0.0814955), wk =   0.0306122
        k(   66) = (   0.2142857   0.5361110  -0.1629909), wk =   0.0306122
        k(   67) = (   0.2857143   0.4948717   0.0000000), wk =   0.0153061
        k(   68) = (   0.2857143   0.4948717   0.0814955), wk =   0.0306122
        k(   69) = (   0.2857143   0.4948717  -0.1629909), wk =   0.0153061
        k(   70) = (   0.2857143   0.5773503   0.0000000), wk =   0.0153061
        k(   71) = (   0.2857143   0.5773503   0.0814955), wk =   0.0306122
        k(   72) = (   0.2857143   0.5773503  -0.1629909), wk =   0.0153061
        k(   73) = (   0.0000000   0.0824786  -0.0814955), wk =   0.0153061
        k(   74) = (   0.0000000   0.1649572  -0.0814955), wk =   0.0153061
        k(   75) = (   0.0000000   0.2474358  -0.0814955), wk =   0.0153061
        k(   76) = (   0.0000000   0.3299144  -0.0814955), wk =   0.0153061
        k(   77) = (   0.0000000   0.4123930  -0.0814955), wk =   0.0153061
        k(   78) = (   0.0000000   0.4948717  -0.0814955), wk =   0.0153061
        k(   79) = (  -0.0714286   0.2061965  -0.0814955), wk =   0.0306122
        k(   80) = (  -0.0714286   0.2886751  -0.0814955), wk =   0.0306122
        k(   81) = (  -0.0714286   0.3711537  -0.0814955), wk =   0.0306122
        k(   82) = (  -0.0714286   0.4536324  -0.0814955), wk =   0.0306122
        k(   83) = (  -0.0714286   0.5361110  -0.0814955), wk =   0.0306122
        k(   84) = (  -0.1428571   0.3299144  -0.0814955), wk =   0.0306122
        k(   85) = (  -0.1428571   0.4123930  -0.0814955), wk =   0.0306122
        k(   86) = (  -0.1428571   0.4948717  -0.0814955), wk =   0.0306122
        k(   87) = (  -0.2142857   0.4536324  -0.0814955), wk =   0.0306122
        k(   88) = (  -0.2142857   0.5361110  -0.0814955), wk =   0.0306122

     Dense  grid:    32265 G-vectors     FFT dimensions: (  30,  30,  90)

     Estimated max dynamical RAM per process >       2.05 MB

     Estimated total dynamical RAM >      49.30 MB

     Initial potential from superposition of free atoms

     starting charge      15.9606, renormalised to      16.0000
     Starting wfcs are random

     total cpu time spent up to now is        0.4 secs

     Self-consistent Calculation

     iteration #  1     ecut=    89.00 Ry     beta= 0.70
     Davidson diagonalization with overlap
     ethr =  1.00E-02,  avg # of iterations = 10.3

     total cpu time spent up to now is        2.5 secs

     total energy              =     -51.32351051 Ry
     estimated scf accuracy    <       0.67313553 Ry

     iteration #  2     ecut=    89.00 Ry     beta= 0.70
     Davidson diagonalization with overlap
     ethr =  4.21E-03,  avg # of iterations =  2.0

     total cpu time spent up to now is        3.2 secs

     total energy              =     -51.47173218 Ry
     estimated scf accuracy    <       0.23875334 Ry

     iteration #  3     ecut=    89.00 Ry     beta= 0.70
     Davidson diagonalization with overlap
     ethr =  1.49E-03,  avg # of iterations =  1.3

     total cpu time spent up to now is        3.8 secs

     total energy              =     -51.52238400 Ry
     estimated scf accuracy    <       0.00387274 Ry

     iteration #  4     ecut=    89.00 Ry     beta= 0.70
     Davidson diagonalization with overlap
     ethr =  2.42E-05,  avg # of iterations =  6.3

     total cpu time spent up to now is        4.8 secs

     total energy              =     -51.52390043 Ry
     estimated scf accuracy    <       0.00031411 Ry

     iteration #  5     ecut=    89.00 Ry     beta= 0.70
     Davidson diagonalization with overlap
     c_bands:  1 eigenvalues not converged
     ethr =  1.96E-06,  avg # of iterations =  4.7

     total cpu time spent up to now is        5.6 secs

     total energy              =     -51.52397170 Ry
     estimated scf accuracy    <       0.00000829 Ry

     iteration #  6     ecut=    89.00 Ry     beta= 0.70
     Davidson diagonalization with overlap
     ethr =  5.18E-08,  avg # of iterations =  2.0

     total cpu time spent up to now is        6.3 secs

     total energy              =     -51.52397298 Ry
     estimated scf accuracy    <       0.00000084 Ry

     iteration #  7     ecut=    89.00 Ry     beta= 0.70
     Davidson diagonalization with overlap
     ethr =  5.26E-09,  avg # of iterations =  1.9

     total cpu time spent up to now is        7.0 secs

     total energy              =     -51.52397313 Ry
     estimated scf accuracy    <       0.00000008 Ry

     iteration #  8     ecut=    89.00 Ry     beta= 0.70
     Davidson diagonalization with overlap
     ethr =  5.27E-10,  avg # of iterations =  2.3

     total cpu time spent up to now is        7.7 secs

     total energy              =     -51.52397316 Ry
     estimated scf accuracy    <       0.00000001 Ry

     iteration #  9     ecut=    89.00 Ry     beta= 0.70
     Davidson diagonalization with overlap
     ethr =  7.66E-11,  avg # of iterations =  1.3

     total cpu time spent up to now is        8.3 secs

     total energy              =     -51.52397317 Ry
     estimated scf accuracy    <          1.3E-10 Ry

     iteration # 10     ecut=    89.00 Ry     beta= 0.70
     Davidson diagonalization with overlap
     ethr =  8.13E-13,  avg # of iterations =  3.6

     total cpu time spent up to now is        9.4 secs

     End of self-consistent calculation

          k = 0.0000 0.0000 0.0000 (  3997 PWs)   bands (ev):

   -14.3901 -14.3041  -2.4314  -1.4653   1.8397   1.8397   1.8470   1.8470
     7.8587  11.7844  14.1997  14.7239  14.7239  14.7571  14.7571  15.8004

          k = 0.0000 0.0000 0.0815 (  4022 PWs)   bands (ev):

   -14.3777 -14.3169  -2.3064  -1.6268   1.8407   1.8407   1.8459   1.8459
     8.2997  10.9107  14.7101  14.7287  14.7287  14.7522  14.7522  15.6830

          k = 0.0000 0.0000-0.1630 (  4028 PWs)   bands (ev):

   -14.3475 -14.3475  -1.9845  -1.9845   1.8433   1.8433   1.8433   1.8433
     9.4550   9.4550  14.7404  14.7404  14.7404  14.7404  15.3267  15.3267

          k = 0.0000 0.0825 0.0000 (  3983 PWs)   bands (ev):

   -14.2923 -14.2075  -2.2970  -1.3386   1.4295   1.4323   1.6472   1.6553
     8.0373  11.8253  14.2608  14.6800  14.8943  15.1577  15.1907  15.4876

          k = 0.0000 0.0825 0.0815 (  4010 PWs)   bands (ev):

   -14.2801 -14.2201  -2.1730  -1.4988   1.4303   1.4325   1.6484   1.6541
     8.4716  11.0154  14.5137  14.6765  15.0103  15.1625  15.1858  15.4431

          k = 0.0000 0.0825-0.1630 (  4040 PWs)   bands (ev):

   -14.2503 -14.2503  -1.8536  -1.8536   1.4319   1.4319   1.6512   1.6512
     9.6062   9.6062  14.6481  14.6481  15.1741  15.1741  15.2834  15.2834

          k = 0.0000 0.1650 0.0000 (  4015 PWs)   bands (ev):

   -14.0029 -13.9215  -1.8978  -0.9633   0.3463   0.3512   1.1543   1.1640
     8.5308  11.8838  14.0927  14.5627  14.5933  15.6076  16.3622  16.3953

          k = 0.0000 0.1650 0.0815 (  4019 PWs)   bands (ev):

   -13.9912 -13.9336  -1.7770  -1.1200   0.3488   0.3520   1.1557   1.1626
     8.9444  11.2571  14.1930  14.4622  14.7230  15.2830  16.3670  16.3903

          k = 0.0000 0.1650-0.1630 (  4012 PWs)   bands (ev):

   -13.9626 -13.9626  -1.4659  -1.4659   0.3518   0.3518   1.1591   1.1591
    10.0093  10.0093  14.3413  14.3413  14.9381  14.9381  16.3786  16.3786

          k = 0.0000 0.2474 0.0000 (  4020 PWs)   bands (ev):

   -13.5351 -13.4596  -1.2475  -1.1042  -1.0971  -0.3563   0.5337   0.5452
     9.2819  11.7230  13.2418  13.8092  14.4067  16.3152  16.6698  18.1218

          k = 0.0000 0.2474 0.0815 (  4032 PWs)   bands (ev):

   -13.5243 -13.4708  -1.1659  -1.1047  -1.0652  -0.4984   0.5354   0.5435
     9.6472  11.3965  13.3219  13.7581  14.4213  15.1650  17.9427  18.1343

          k = 0.0000 0.2474-0.1630 (  4024 PWs)   bands (ev):

   -13.4977 -13.4977  -1.1175  -1.1175  -0.8139  -0.8139   0.5394   0.5394
    10.5339  10.5339  13.5481  13.5481  14.5502  14.5502  18.1391  18.1391

          k = 0.0000 0.3299 0.0000 (  4026 PWs)   bands (ev):

   -12.9190 -12.8521  -2.6593  -2.6472  -0.3771  -0.0645  -0.0517   0.4449
    10.2526  10.9912  11.6389  13.5453  14.2788  16.1383  17.7691  20.1941

          k = 0.0000 0.3299 0.0815 (  4025 PWs)   bands (ev):

   -12.9093 -12.8620  -2.6583  -2.6497  -0.2671  -0.0626  -0.0536   0.3122
    10.4245  10.9309  11.8905  13.3887  14.2939  15.1682  18.7565  20.2070

          k = 0.0000 0.3299-0.1630 (  4014 PWs)   bands (ev):

   -12.8858 -12.8858  -2.6547  -2.6547  -0.0581  -0.0581   0.0114   0.0114
    10.7250  10.7250  12.6740  12.6740  14.4349  14.4349  19.8642  19.8643

          k = 0.0000 0.4124 0.0000 (  4028 PWs)   bands (ev):

   -12.2205 -12.1661  -4.1054  -4.0875  -0.5437  -0.5301   0.6427   1.3561
     9.6701  10.1125  11.3634  13.3439  14.2783  16.5575  18.3737  21.1338

          k = 0.0000 0.4124 0.0815 (  4032 PWs)   bands (ev):

   -12.2126 -12.1742  -4.1031  -4.0904  -0.5417  -0.5321   0.7397   1.2431
     9.6780   9.9638  11.8444  13.2414  14.3398  15.6805  19.1280  20.8320

          k = 0.0000 0.4124-0.1630 (  4022 PWs)   bands (ev):

   -12.1935 -12.1935  -4.0971  -4.0971  -0.5369  -0.5369   0.9834   0.9834
     9.7690   9.7690  12.7350  12.7350  14.6864  14.6864  20.1273  20.1273

          k = 0.0000 0.4949 0.0000 (  4048 PWs)   bands (ev):

   -11.5887 -11.5530  -5.2071  -5.1871  -0.8492  -0.8351   1.6298   2.1762
     8.3259   8.9122  12.3352  13.2198  14.6541  17.2666  17.4775  20.0242

          k = 0.0000 0.4949 0.0815 (  4034 PWs)   bands (ev):

   -11.5835 -11.5583  -5.2044  -5.1903  -0.8472  -0.8372   1.7068   2.0932
     8.3810   8.7919  12.5635  13.1698  14.8373  16.4279  18.1890  19.6595

          k = 0.0000 0.4949-0.1630 (  4042 PWs)   bands (ev):

   -11.5709 -11.5709  -5.1976  -5.1976  -0.8422  -0.8422   1.8970   1.8970
     8.5555   8.5555  12.9579  12.9579  15.4576  15.4576  18.9707  18.9707

          k = 0.0000-0.5774 0.0000 (  4032 PWs)   bands (ev):

   -11.3076 -11.2890  -5.6426  -5.6239  -0.9538  -0.9395   2.1141   2.5237
     7.7330   8.3987  12.6911  13.1780  15.4614  16.2558  17.7268  19.4674

          k = 0.0000-0.5774 0.0815 (  4052 PWs)   bands (ev):

   -11.3049 -11.2917  -5.6402  -5.6270  -0.9517  -0.9416   2.1743   2.4644
     7.8011   8.2694  12.8054  13.1443  15.6990  16.2846  17.7587  18.9437

          k = 0.0000-0.5774-0.1630 (  4048 PWs)   bands (ev):

   -11.2983 -11.2983  -5.6339  -5.6339  -0.9467  -0.9467   2.3197   2.3197
     8.0054   8.0054  13.0151  13.0151  16.1388  16.1388  18.1048  18.1048

          k = 0.0714 0.1237 0.0000 (  4009 PWs)   bands (ev):

   -14.0987 -14.0161  -2.0302  -1.0875   0.7209   0.7245   1.2658   1.2744
     8.3740  11.8767  14.4201  14.6667  14.8875  15.0017  15.8400  16.1350

          k = 0.0714 0.1237 0.0815 (  4012 PWs)   bands (ev):

   -14.0868 -14.0284  -1.9082  -1.2453   0.7229   0.7249   1.2671   1.2732
     8.7949  11.1916  14.5277  14.6615  14.9048  14.9858  15.8494  16.0071

          k = 0.0714 0.1237-0.1630 (  4034 PWs)   bands (ev):

   -14.0578 -14.0578  -1.5942  -1.5942   0.7250   0.7250   1.2702   1.2702
     9.8854   9.8854  14.6295  14.6295  14.9459  14.9459  15.8917  15.8917

          k = 0.0714 0.2062 0.0000 (  4017 PWs)   bands (ev):

   -13.7196 -13.6417  -1.5049  -0.5958  -0.4742  -0.4680   0.6366   0.6473
     9.0018  11.8369  13.7820  14.3366  14.7442  15.6704  16.5242  16.9405

          k = 0.0714 0.2062 0.0815 (  4018 PWs)   bands (ev):

   -13.7084 -13.6533  -1.3885  -0.7555  -0.4673  -0.4622   0.6383   0.6458
     9.3904  11.4004  13.8467  14.2656  14.7460  15.1047  16.8012  16.9316

          k = 0.0714 0.2062-0.1630 (  4018 PWs)   bands (ev):

   -13.6810 -13.6810  -1.0892  -1.0892  -0.4625  -0.4625   0.6421   0.6421
    10.3643  10.3643  14.0377  14.0377  14.7923  14.7923  16.9002  16.9002

          k = 0.0714 0.2887 0.0000 (  4032 PWs)   bands (ev):

   -13.1756 -13.1049  -1.9243  -1.9156  -0.7424  -0.0263  -0.0139   0.1110
     9.8785  11.3981  12.3275  14.0866  14.6923  16.1123  16.8395  18.4472

          k = 0.0714 0.2887 0.0815 (  4024 PWs)   bands (ev):

   -13.1654 -13.1154  -1.9244  -1.9182  -0.6282  -0.0378  -0.0211  -0.0081
    10.1735  11.2545  12.4899  13.8535  14.6888  15.1396  17.7288  18.4058

          k = 0.0714 0.2887-0.1630 (  4028 PWs)   bands (ev):

   -13.1405 -13.1405  -1.9226  -1.9226  -0.3402  -0.3402  -0.0190  -0.0190
    10.7963  10.7963  13.0586  13.0586  14.7271  14.7271  18.2403  18.2403

          k = 0.0714 0.3712 0.0000 (  4033 PWs)   bands (ev):

   -12.5112 -12.4509  -3.4003  -3.3857  -0.5955  -0.5818   0.2109   0.9767
    10.3561  10.7663  10.9611  13.8616  14.6246  16.2526  17.9450  20.0892

          k = 0.0714 0.3712 0.0815 (  4033 PWs)   bands (ev):

   -12.5025 -12.4598  -3.3986  -3.3883  -0.5937  -0.5840   0.3143   0.8544
    10.3179  10.4882  11.6723  13.6776  14.6351  15.4148  18.6802  19.9541

          k = 0.0714 0.3712-0.1630 (  4020 PWs)   bands (ev):

   -12.4812 -12.4812  -3.3939  -3.3939  -0.5890  -0.5890   0.5749   0.5749
    10.3412  10.3412  12.8152  12.8152  14.7552  14.7552  19.5011  19.5011

          k = 0.0714 0.4536 0.0000 (  4030 PWs)   bands (ev):

   -11.8259 -11.7808  -4.6780  -4.6586  -1.0032  -0.9887   1.2432   1.8717
     8.9586   9.4215  12.1253  13.7004  14.7026  16.7645  18.0646  20.3077

          k = 0.0714 0.4536 0.0815 (  4037 PWs)   bands (ev):

   -11.8194 -11.7875  -4.6754  -4.6617  -1.0011  -0.9908   1.3302   1.7741
     8.9914   9.3130  12.4924  13.6145  14.7783  16.0490  18.6498  20.0356

          k = 0.0714 0.4536-0.1630 (  4030 PWs)   bands (ev):

   -11.8035 -11.8035  -4.6688  -4.6688  -0.9960  -0.9960   1.5469   1.5469
     9.1178   9.1178  13.2089  13.2089  15.1525  15.1525  19.4547  19.4547

          k = 0.0714 0.5361 0.0000 (  4032 PWs)   bands (ev):

   -11.3337 -11.3095  -5.4735  -5.4538  -1.2145  -1.1995   2.0567   2.4998
     7.9227   8.5224  12.9510  13.6172  15.2422  16.8426  17.2621  19.6131

          k = 0.0714 0.5361 0.0815 (  4039 PWs)   bands (ev):

   -11.3302 -11.3131  -5.4709  -5.4570  -1.2123  -1.2018   2.1211   2.4348
     7.9825   8.4046  13.1146  13.5754  15.4319  16.4929  17.6867  19.1917

          k = 0.0714 0.5361-0.1630 (  4036 PWs)   bands (ev):

   -11.3216 -11.3216  -5.4642  -5.4642  -1.2071  -1.2071   2.2776   2.2776
     8.1654   8.1654  13.4066  13.4066  15.9299  15.9299  18.4015  18.4015

          k = 0.1429 0.2474 0.0000 (  4007 PWs)   bands (ev):

   -13.2629 -13.1909  -1.5375  -1.5313  -0.8660  -0.1659  -0.1530  -0.0026
     9.7659  11.5338  12.6014  15.1528  15.1572  15.6944  16.1257  17.3261

          k = 0.1429 0.2474 0.0815 (  4012 PWs)   bands (ev):

   -13.2525 -13.2016  -1.5383  -1.5349  -0.7497  -0.1745  -0.1544  -0.1314
    10.0865  11.3553  12.7516  14.3846  15.1762  15.2921  16.8301  17.2949

          k = 0.1429 0.2474-0.1630 (  4022 PWs)   bands (ev):

   -13.2272 -13.2272  -1.5385  -1.5385  -0.4590  -0.4590  -0.1573  -0.1573
    10.7968  10.7969  13.2970  13.2970  15.2248  15.2248  17.1755  17.1755

          k = 0.1429 0.3299 0.0000 (  4020 PWs)   bands (ev):

   -12.6640 -12.6007  -2.7766  -2.7679  -0.9368  -0.9222  -0.0134   0.7775
    10.7807  10.7847  11.2083  15.0799  15.6034  16.0573  16.6875  18.2722

          k = 0.1429 0.3299 0.0815 (  4027 PWs)   bands (ev):

   -12.6549 -12.6101  -2.7759  -2.7697  -0.9349  -0.9247   0.0934   0.6509
    10.6587  10.7497  11.7822  14.4386  15.5481  15.5847  17.4130  18.2010

          k = 0.1429 0.3299-0.1630 (  4026 PWs)   bands (ev):

   -12.6326 -12.6326  -2.7733  -2.7733  -0.9301  -0.9301   0.3623   0.3623
    10.6668  10.6668  12.9950  12.9950  15.5256  15.5256  17.9537  17.9537

          k = 0.1429 0.4124 0.0000 (  4038 PWs)   bands (ev):

   -11.9904 -11.9396  -4.0267  -4.0111  -1.5136  -1.4980   0.9813   1.6591
     9.5999   9.8588  12.0072  14.9050  15.6314  16.2264  17.7713  19.7075

          k = 0.1429 0.4124 0.0815 (  4031 PWs)   bands (ev):

   -11.9830 -11.9471  -4.0247  -4.0136  -1.5114  -1.5005   1.0742   1.5528
     9.5960   9.7701  12.4840  14.6201  15.6095  15.8162  18.1837  19.4838

          k = 0.1429 0.4124-0.1630 (  4022 PWs)   bands (ev):

   -11.9651 -11.9651  -4.0195  -4.0195  -1.5061  -1.5061   1.3069   1.3069
     9.6438   9.6438  13.5838  13.5838  15.5954  15.5954  18.8753  18.8753

          k = 0.1429 0.4949 0.0000 (  4034 PWs)   bands (ev):

   -11.3887 -11.3559  -5.0168  -4.9963  -1.8631  -1.8469   1.9390   2.4435
     8.3864   8.8016  13.2850  14.7814  15.6422  16.3660  17.6589  19.6701

          k = 0.1429 0.4949 0.0815 (  4040 PWs)   bands (ev):

   -11.3840 -11.3608  -5.0140  -4.9996  -1.8609  -1.8494   2.0111   2.3679
     8.4218   8.7146  13.5974  14.6859  15.6632  16.1280  17.9795  19.4968

          k = 0.1429 0.4949-0.1630 (  4046 PWs)   bands (ev):

   -11.3724 -11.3724  -5.0071  -5.0071  -1.8552  -1.8552   2.1877   2.1877
     8.5433   8.5433  14.2578  14.2578  15.7856  15.7856  18.6773  18.6773

          k = 0.1429 0.5774 0.0000 (  4033 PWs)   bands (ev):

   -11.1246 -11.1078  -5.4124  -5.3910  -1.9801  -1.9636   2.4090   2.7684
     7.8508   8.3422  13.9842  14.7378  15.7769  16.3989  16.9629  19.4744

          k = 0.1429 0.5774 0.0815 (  4051 PWs)   bands (ev):

   -11.1221 -11.1102  -5.4095  -5.3944  -1.9778  -1.9661   2.4630   2.7177
     7.8979   8.2449  14.1593  14.6896  15.8758  16.2058  17.4153  19.3086

          k = 0.1429 0.5774-0.1630 (  4034 PWs)   bands (ev):

   -11.1162 -11.1162  -5.4022  -5.4022  -1.9720  -1.9720   2.5920   2.5920
     8.0467   8.0467  14.4914  14.4914  16.0286  16.0286  18.3438  18.3438

          k = 0.2143 0.3712 0.0000 (  4027 PWs)   bands (ev):

   -12.0488 -11.9961  -3.6411  -3.6324  -1.8689  -1.8532   0.8893   1.5834
     9.9179  10.0040  11.9510  15.9811  16.3446  16.5289  16.7173  18.3886

          k = 0.2143 0.3712 0.0815 (  4034 PWs)   bands (ev):

   -12.0411 -12.0039  -3.6401  -3.6340  -1.8668  -1.8558   0.9843   1.4742
     9.8930   9.9249  12.4596  15.0369  16.3775  16.5821  17.2274  18.2656

          k = 0.2143 0.3712-0.1630 (  4046 PWs)   bands (ev):

   -12.0226 -12.0226  -3.6374  -3.6374  -1.8615  -1.8615   1.2222   1.2222
     9.8666   9.8666  13.6507  13.6507  16.4693  16.4693  17.8661  17.8661

          k = 0.2143 0.4536 0.0000 (  4035 PWs)   bands (ev):

   -11.4303 -11.3925  -4.4804  -4.4634  -2.5396  -2.5238   1.8532   2.3972
     8.8367   9.0012  13.3112  15.6781  16.2588  16.8275  17.7861  19.4764

          k = 0.2143 0.4536 0.0815 (  4035 PWs)   bands (ev):

   -11.4248 -11.3980  -4.4781  -4.4661  -2.5375  -2.5263   1.9302   2.3148
     8.8354   8.9541  13.6860  15.3864  16.3480  16.7303  17.8958  19.0104

          k = 0.2143 0.4536-0.1630 (  4038 PWs)   bands (ev):

   -11.4114 -11.4114  -4.4723  -4.4723  -2.5321  -2.5321   2.1197   2.1197
     8.8716   8.8716  14.5697  14.5697  16.5293  16.5293  18.3113  18.3113

          k = 0.2143 0.5361 0.0000 (  4055 PWs)   bands (ev):

   -11.0014 -10.9825  -5.0533  -5.0287  -2.8656  -2.8490   2.6053   2.9419
     8.0368   8.3228  14.6770  15.3889  16.1288  16.3943  18.0504  18.9573

          k = 0.2143 0.5361 0.0815 (  4044 PWs)   bands (ev):

   -10.9987 -10.9853  -5.0499  -5.0325  -2.8634  -2.8516   2.6565   2.8950
     8.0566   8.2595  14.9263  15.4668  16.0830  16.2827  18.1623  19.0363

          k = 0.2143 0.5361-0.1630 (  4052 PWs)   bands (ev):

   -10.9920 -10.9920  -5.0414  -5.0414  -2.8577  -2.8577   2.7779   2.7779
     8.1366   8.1366  15.4025  15.4025  16.0582  16.0582  18.6121  18.6121

          k = 0.2857 0.4949 0.0000 (  4043 PWs)   bands (ev):

   -10.9629 -10.9416  -4.7330  -4.7072  -3.3741  -3.3629   2.6607   3.0019
     8.1948   8.3161  14.7531  14.9554  16.8023  17.2088  18.6293  18.9704

          k = 0.2857 0.4949 0.0815 (  4049 PWs)   bands (ev):

   -10.9598 -10.9447  -4.7294  -4.7111  -3.3727  -3.3648   2.7126   2.9542
     8.1908   8.2786  14.9993  15.0904  16.7604  16.8608  18.7517  18.9561

          k = 0.2857 0.4949-0.1630 (  4050 PWs)   bands (ev):

   -10.9523 -10.9523  -4.7203  -4.7203  -3.3690  -3.3690   2.8354   2.8354
     8.2143   8.2143  15.2929  15.2929  16.5751  16.5751  18.8848  18.8849

          k = 0.2857 0.5774 0.0000 (  4057 PWs)   bands (ev):

   -10.7701 -10.7629  -4.8024  -4.7665  -3.7140  -3.7046   3.0638   3.2050
     7.9225   8.0297  14.6517  15.8707  16.4042  17.1356  18.2751  19.5393

          k = 0.2857 0.5774 0.0815 (  4053 PWs)   bands (ev):

   -10.7691 -10.7640  -4.7972  -4.7718  -3.7129  -3.7063   3.0893   3.1895
     7.9163   7.9927  14.8560  16.1090  16.2129  16.7417  18.8361  19.5250

          k = 0.2857 0.5774-0.1630 (  4050 PWs)   bands (ev):

   -10.7665 -10.7665  -4.7846  -4.7846  -3.7099  -3.7099   3.1444   3.1444
     7.9330   7.9330  15.4389  15.4389  16.5523  16.5523  19.4536  19.4537

          k = 0.0000 0.0825-0.0815 (  4010 PWs)   bands (ev):

   -14.2801 -14.2201  -2.1730  -1.4988   1.4303   1.4325   1.6484   1.6541
     8.4716  11.0154  14.5137  14.6765  15.0103  15.1625  15.1858  15.4431

          k = 0.0000 0.1650-0.0815 (  4019 PWs)   bands (ev):

   -13.9912 -13.9336  -1.7770  -1.1200   0.3488   0.3520   1.1557   1.1626
     8.9444  11.2571  14.1930  14.4622  14.7230  15.2830  16.3670  16.3903

          k = 0.0000 0.2474-0.0815 (  4032 PWs)   bands (ev):

   -13.5243 -13.4708  -1.1659  -1.1047  -1.0652  -0.4984   0.5354   0.5435
     9.6472  11.3965  13.3219  13.7581  14.4213  15.1650  17.9426  18.1267

          k = 0.0000 0.3299-0.0815 (  4025 PWs)   bands (ev):

   -12.9093 -12.8620  -2.6583  -2.6497  -0.2671  -0.0626  -0.0536   0.3122
    10.4245  10.9309  11.8905  13.3887  14.2939  15.1682  18.7565  20.2002

          k = 0.0000 0.4124-0.0815 (  4032 PWs)   bands (ev):

   -12.2126 -12.1742  -4.1031  -4.0904  -0.5417  -0.5321   0.7397   1.2431
     9.6780   9.9638  11.8444  13.2414  14.3398  15.6805  19.1280  20.8319

          k = 0.0000 0.4949-0.0815 (  4034 PWs)   bands (ev):

   -11.5835 -11.5583  -5.2044  -5.1903  -0.8472  -0.8372   1.7068   2.0932
     8.3810   8.7919  12.5635  13.1698  14.8373  16.4279  18.1890  19.6595

          k =-0.0714 0.2062-0.0815 (  4018 PWs)   bands (ev):

   -13.7084 -13.6533  -1.3885  -0.7555  -0.4673  -0.4622   0.6383   0.6458
     9.3904  11.4004  13.8467  14.2656  14.7460  15.1047  16.8012  16.9316

          k =-0.0714 0.2887-0.0815 (  4024 PWs)   bands (ev):

   -13.1654 -13.1154  -1.9244  -1.9182  -0.6282  -0.0378  -0.0211  -0.0081
    10.1735  11.2545  12.4899  13.8535  14.6888  15.1396  17.7288  18.4058

          k =-0.0714 0.3712-0.0815 (  4033 PWs)   bands (ev):

   -12.5025 -12.4598  -3.3986  -3.3883  -0.5937  -0.5840   0.3143   0.8544
    10.3179  10.4882  11.6722  13.6776  14.6351  15.4148  18.6802  19.9541

          k =-0.0714 0.4536-0.0815 (  4037 PWs)   bands (ev):

   -11.8194 -11.7875  -4.6754  -4.6617  -1.0011  -0.9908   1.3302   1.7741
     8.9914   9.3130  12.4924  13.6145  14.7783  16.0490  18.6498  20.0356

          k =-0.0714 0.5361-0.0815 (  4039 PWs)   bands (ev):

   -11.3302 -11.3131  -5.4709  -5.4570  -1.2123  -1.2018   2.1211   2.4348
     7.9825   8.4046  13.1146  13.5754  15.4319  16.4929  17.6867  19.1917

          k =-0.1429 0.3299-0.0815 (  4027 PWs)   bands (ev):

   -12.6549 -12.6101  -2.7759  -2.7697  -0.9349  -0.9247   0.0934   0.6509
    10.6587  10.7497  11.7822  14.4386  15.5481  15.5847  17.4130  18.2010

          k =-0.1429 0.4124-0.0815 (  4031 PWs)   bands (ev):

   -11.9830 -11.9471  -4.0247  -4.0136  -1.5114  -1.5005   1.0742   1.5528
     9.5960   9.7701  12.4840  14.6201  15.6095  15.8162  18.1837  19.4838

          k =-0.1429 0.4949-0.0815 (  4040 PWs)   bands (ev):

   -11.3840 -11.3608  -5.0140  -4.9996  -1.8609  -1.8494   2.0111   2.3679
     8.4218   8.7146  13.5974  14.6859  15.6632  16.1280  17.9795  19.4968

          k =-0.2143 0.4536-0.0815 (  4035 PWs)   bands (ev):

   -11.4248 -11.3980  -4.4781  -4.4661  -2.5375  -2.5263   1.9302   2.3148
     8.8354   8.9541  13.6860  15.3864  16.3480  16.7303  17.8958  19.0104

          k =-0.2143 0.5361-0.0815 (  4044 PWs)   bands (ev):

   -10.9987 -10.9853  -5.0499  -5.0325  -2.8634  -2.8516   2.6565   2.8950
     8.0566   8.2595  14.9263  15.4668  16.0830  16.2827  18.1623  19.0363

     the Fermi energy is     3.3719 ev

!    total energy              =     -51.52397317 Ry
     estimated scf accuracy    <          1.3E-11 Ry
     smearing contrib. (-TS)   =      -0.00000000 Ry
     internal energy E=F+TS    =     -51.52397317 Ry

     The total energy is F=E-TS. E is the sum of the following terms:
     one-electron contribution =     -28.51044432 Ry
     hartree contribution      =      21.55187040 Ry
     xc contribution           =     -14.73280514 Ry
     ewald contribution        =     -29.83259411 Ry

     convergence has been achieved in  10 iterations

     Writing all to output data dir out/mp-984.save/
 
     init_run     :      0.24s CPU      0.33s WALL (       1 calls)
     electrons    :      8.06s CPU      9.03s WALL (       1 calls)

     Called by init_run:
     wfcinit      :      0.22s CPU      0.26s WALL (       1 calls)
     potinit      :      0.01s CPU      0.01s WALL (       1 calls)
     hinit0       :      0.01s CPU      0.04s WALL (       1 calls)

     Called by electrons:
     c_bands      :      7.10s CPU      7.87s WALL (      10 calls)
     sum_band     :      0.93s CPU      1.09s WALL (      10 calls)
     v_of_rho     :      0.02s CPU      0.02s WALL (      11 calls)
     mix_rho      :      0.01s CPU      0.01s WALL (      10 calls)

     Called by c_bands:
     init_us_2    :      0.08s CPU      0.09s WALL (    1848 calls)
     init_us_2:cp :      0.07s CPU      0.08s WALL (    1848 calls)
     cegterg      :      6.35s CPU      6.78s WALL (     880 calls)

     Called by *egterg:
     cdiaghg      :      1.12s CPU      1.18s WALL (    4027 calls)
     h_psi        :      4.80s CPU      5.17s WALL (    4115 calls)
     g_psi        :      0.03s CPU      0.03s WALL (    3147 calls)

     Called by h_psi:
     h_psi:calbec :      0.20s CPU      0.23s WALL (    4115 calls)
     vloc_psi     :      4.46s CPU      4.80s WALL (    4115 calls)
     add_vuspsi   :      0.10s CPU      0.11s WALL (    4115 calls)

     General routines
     calbec       :      0.19s CPU      0.22s WALL (    4115 calls)
     fft          :      0.01s CPU      0.04s WALL (     109 calls)
     ffts         :      0.00s CPU      0.00s WALL (      10 calls)
     fftw         :      4.88s CPU      5.27s WALL (  100968 calls)
     davcio       :      0.10s CPU      0.42s WALL (    2922 calls)
 
     Parallel routines
 
     PWSCF        :      8.53s CPU     10.52s WALL

 
   This run was terminated on:  19: 9:28  19Nov2023            

=------------------------------------------------------------------------------=
   JOB DONE.
=------------------------------------------------------------------------------=
