
     Program PWSCF v.7.1 starts on 19Nov2023 at 12:16: 1 

     This program is part of the open-source Quantum ESPRESSO suite
     for quantum simulation of materials; please cite
         "P. Giannozzi et al., J. Phys.:Condens. Matter 21 395502 (2009);
         "P. Giannozzi et al., J. Phys.:Condens. Matter 29 465901 (2017);
         "P. Giannozzi et al., J. Chem. Phys. 152 154105 (2020);
          URL http://www.quantum-espresso.org", 
     in publications or presentations arising from this work. More details at
     http://www.quantum-espresso.org/quote

     Parallel version (MPI), running on     8 processors

     MPI processes distributed on     1 nodes
     123700 MiB available memory on the printing compute node when the environment starts
 
     Reading input from pw_mp-984_nscf_k0_E64.in
Warning: card &IONS ignored
Warning: card / ignored
Warning: card &CELL ignored
Warning: card / ignored

     Current dimensions of program PWSCF are:
     Max number of different atomic species (ntypx) = 10
     Max number of k-points (npk) =  40000
     Max angular momentum in pseudopotentials (lmaxx) =  4

     Atomic positions and unit cell read from directory:
     out/mp-984.save/
     Atomic positions from file used, from input discarded
 
 
     R & G space division:  proc/nbgrp/npool/nimage =       8
     Subspace diagonalization in iterative solution of the eigenvalue problem:
     one sub-group per band group will be used
     scalapack distributed-memory algorithm (size of sub-group:  2*  2 procs)

 
     Parallelization info
     --------------------
     sticks:   dense  smooth     PW     G-vecs:    dense   smooth      PW
     Min          49      49     12                 2442     2442     302
     Max          50      50     13                 2447     2447     307
     Sum         397     397     97                19551    19551    2437
 
     Using Slab Decomposition
 


     bravais-lattice index     =            4
     lattice parameter (alat)  =       4.7478  a.u.
     unit-cell volume          =     284.3248 (a.u.)^3
     number of atoms/cell      =            4
     number of atomic types    =            2
     number of electrons       =        16.00
     number of Kohn-Sham states=         1200
     kinetic-energy cutoff     =      64.0000  Ry
     charge density cutoff     =     256.0000  Ry
     Exchange-correlation= PBE
                           (   1   4   3   4   0   0   0)

     celldm(1)=   4.747801  celldm(2)=   0.000000  celldm(3)=   3.067656
     celldm(4)=   0.000000  celldm(5)=   0.000000  celldm(6)=   0.000000

     crystal axes: (cart. coord. in units of alat)
               a(1) = (   1.000000   0.000000   0.000000 )  
               a(2) = (  -0.500000   0.866025   0.000000 )  
               a(3) = (   0.000000   0.000000   3.067656 )  

     reciprocal axes: (cart. coord. in units 2 pi/alat)
               b(1) = (  1.000000  0.577350  0.000000 )  
               b(2) = (  0.000000  1.154701  0.000000 )  
               b(3) = (  0.000000  0.000000  0.325982 )  


     PseudoPot. # 1 for B  read from file:
     /usr/scratch4/magr4985/MG/HTDF/pseudo/SG15/B.upf
     MD5 check sum: eb3cbeacc2d324d57d903df00f564d27
     Pseudo is Norm-conserving, Zval =  3.0
     Generated using ONCVPSP code by D. R. Hamann
     Using radial grid of  602 points,  4 beta functions with: 
                l(1) =   0
                l(2) =   0
                l(3) =   1
                l(4) =   1

     PseudoPot. # 2 for N  read from file:
     /usr/scratch4/magr4985/MG/HTDF/pseudo/SG15/N.upf
     MD5 check sum: c233fa8df51455e992258b7c3dee8a9f
     Pseudo is Norm-conserving, Zval =  5.0
     Generated using ONCVPSP code by D. R. Hamann
     Using radial grid of  602 points,  4 beta functions with: 
                l(1) =   0
                l(2) =   0
                l(3) =   1
                l(4) =   1

     atomic species   valence    mass     pseudopotential
        B              3.00    10.81100     B ( 1.00)
        N              5.00    14.00670     N ( 1.00)

     12 Sym. Ops., with inversion, found



   Cartesian axes

     site n.     atom                  positions (alat units)
         1           B   tau(   1) = (   0.5000000   0.2886752   0.7669140  )
         2           B   tau(   2) = (   0.0000000   0.5773502   2.3007420  )
         3           N   tau(   3) = (   0.5000000   0.2886752   2.3007420  )
         4           N   tau(   4) = (   0.0000000   0.5773502   0.7669140  )

     number of k points=     1  Gaussian smearing, width (Ry)=  0.0005
                       cart. coord. in units 2pi/alat
        k(    1) = (   0.0000000   0.0000000   0.0000000), wk =   2.0000000

     Dense  grid:    19551 G-vectors     FFT dimensions: (  25,  25,  75)

     Estimated max dynamical RAM per process >      51.56 MB

     Estimated total dynamical RAM >     412.44 MB

     The potential is recalculated from file :
     out/mp-984.save/charge-density

     Starting wfcs are random

     Band Structure Calculation
     ParO style diagonalization

     ethr =  5.00E-06,  avg # of iterations =  5.2

     total cpu time spent up to now is       67.3 secs

     End of band structure calculation

          k = 0.0000 0.0000 0.0000 (  2437 PWs)   bands (ev):

   -14.3952 -14.3093  -2.4324  -1.4659   1.8414   1.8414   1.8473   1.8473
     7.8575  11.7877  14.1956  14.7260  14.7260  14.7598  14.7598  15.8108
    17.1656  17.9339  21.0646  26.7713  28.4208  28.8643  32.1976  32.1976
    34.3224  34.3224  34.4747  34.8510  34.8510  36.1097  38.0961  38.0961
    38.1084  38.1084  38.9755  38.9755  40.4195  40.6198  41.3411  42.5867
    43.9717  45.6642  45.6642  45.7333  45.7333  48.3125  48.3125  51.1327
    51.1368  51.1368  53.2244  53.2244  53.6452  53.8039  57.2601  57.2784
    57.2784  57.8923  60.8675  63.2206  63.2206  64.8294  64.8294  67.3714
    68.0146  68.0146  70.1559  70.1559  70.6394  73.5250  76.8895  76.8895
    77.3939  77.3939  80.0239  80.8418  82.5275  82.8882  82.9254  82.9254
    83.0003  86.7449  87.1643  87.1643  87.2194  89.8496  89.8496  90.7945
    90.7945  93.0406  93.0406  93.2456  93.4750  95.9190  96.2216  96.2216
    96.4813  97.1371  97.1371  97.1877  97.1877  97.3721  97.3721  97.8653
    98.4379  99.9421  99.9421 100.9110 100.9110 100.9775 103.4618 103.4618
   103.8634 106.1882 106.1882 106.2403 107.0196 109.2651 110.9369 110.9369
   111.1871 111.1871 111.8552 113.2961 113.2961 113.4785 113.4785 113.9358
   114.2164 114.2164 114.3035 114.3113 114.3720 114.7278 114.7278 115.3106
   115.3106 115.6644 116.1222 117.3029 117.3029 118.0097 118.0097 119.4854
   120.3000 122.7584 123.8541 125.8658 126.5566 126.5566 126.6995 126.6995
   128.3341 128.3341 128.6914 128.6914 128.7254 128.8358 129.0498 129.0498
   129.4057 130.2224 130.2224 131.3262 131.3815 132.1401 132.1401 132.3070
   133.1848 133.1848 133.5727 133.5774 133.5774 135.5376 135.5376 135.8914
   137.5138 137.8722 138.4389 138.6532 138.6532 141.0723 141.0723 143.3103
   143.3103 143.8866 143.8866 144.1849 144.9048 145.9734 146.6250 146.9376
   146.9376 147.6809 147.6809 147.9517 147.9517 148.6667 148.6667 149.4448
   152.9926 153.1195 153.1195 153.3181 153.3181 153.7117 153.7117 153.8424
   153.9786 154.2684 154.2684 154.3935 154.5009 154.9411 154.9411 155.0010
   157.4626 160.0284 160.0400 160.0400 160.4619 160.4619 161.0584 161.3608
   161.3608 163.8830 166.4232 169.3085 169.3085 170.4088 170.9009 173.9676
   173.9676 176.4521 176.4521 177.2689 177.2689 178.4227 180.3313 180.3313
   180.7705 180.7705 181.6214 181.6261 181.7725 182.1945 183.0571 183.0571
   183.1909 183.1909 183.9759 183.9759 184.5916 185.6131 185.7475 185.7475
   186.8324 186.8324 187.2029 188.4791 188.4791 190.0876 190.0876 190.1361
   190.1361 190.1840 190.2125 190.2125 191.0962 191.1186 193.2810 193.2810
   197.6983 201.0464 201.1011 202.6654 202.6654 203.3774 203.3774 204.0103
   206.4412 206.8206 207.7669 208.4448 209.0613 209.0613 209.3855 210.2077
   210.2077 210.9744 210.9744 210.9755 211.0340 211.0340 211.3054 211.3054
   211.4236 211.4385 211.4385 211.4543 211.4543 211.7519 211.7519 212.3283
   212.3996 213.2699 213.2699 213.6389 213.6389 214.4441 214.6976 217.7550
   221.0888 221.0888 221.2425 221.3850 221.9218 222.1796 222.1796 222.6507
   222.8594 223.2346 223.2346 224.1725 224.1725 224.5638 225.0162 225.1622
   225.1622 225.2312 225.6290 225.6290 225.8063 226.5616 226.5616 227.8562
   227.8562 228.1271 228.1271 228.4001 228.4001 228.6487 228.6487 228.8575
   228.9407 228.9407 229.2731 229.7001 229.9461 229.9461 231.2947 231.2947
   231.5160 231.7722 231.8746 232.6728 232.6728 232.7649 232.7882 232.7883
   233.2593 234.1045 234.1045 234.1198 235.3428 236.3756 236.3756 237.0903
   237.0903 238.1373 238.1373 238.5872 238.5872 238.6115 239.0150 239.9349
   241.2658 241.2658 241.5680 241.5680 241.9245 241.9902 242.0651 242.0651
   242.1049 242.3302 242.3302 242.3847 243.1173 243.8934 243.9451 243.9451
   244.0341 244.0341 244.1513 244.1513 244.7862 244.7862 245.9004 246.9299
   247.5159 248.2374 248.2440 248.2440 249.8342 249.8342 251.0230 251.0230
   251.1868 251.1868 251.3274 252.2788 252.3114 252.3415 253.3017 253.3017
   253.6689 253.6689 254.7410 254.7410 255.6116 255.7243 255.7912 255.7912
   257.2752 257.2752 257.2948 258.1681 258.3349 258.3349 259.0110 259.0110
   259.2333 259.2333 259.5809 259.6118 260.1021 260.5309 263.5425 263.5425
   267.0892 267.0892 267.2096 267.2096 267.3857 267.5984 271.4558 272.0521
   272.4141 272.4141 272.5549 273.8851 273.8851 275.1395 275.1395 275.6298
   275.8556 275.8556 276.7015 276.9794 276.9794 277.1563 277.1563 277.9847
   278.0893 278.7199 280.0124 280.0124 280.1586 280.1586 280.4106 280.4106
   280.4689 280.4689 280.9917 281.2071 281.5396 281.5396 281.6318 281.6318
   281.8597 281.8597 281.9585 282.0988 282.2137 282.5506 282.5506 282.5996
   282.6527 282.6527 282.7389 282.9308 282.9308 283.5854 285.7618 286.2046
   287.4524 287.5903 287.5903 287.7095 287.7095 287.7836 289.0042 289.7683
   289.7683 289.8513 289.8513 289.9004 290.2410 290.2410 291.5409 291.5409
   292.1818 292.1818 293.6965 293.6965 293.7231 294.2586 294.2586 294.3195
   294.3196 295.4600 295.4810 295.4842 295.5102 299.0114 299.2917 299.7847
   299.7847 300.8565 301.4805 301.4805 302.2601 302.6732 302.6732 303.0152
   303.0152 303.1449 303.1961 303.3597 303.3597 303.7420 303.9148 303.9148
   304.2416 304.2416 304.7787 304.7787 305.3596 305.6424 305.6620 305.9663
   306.5495 306.5495 308.1330 308.1330 309.3279 309.3279 309.3492 309.3492
   309.8053 309.8190 309.9530 311.5122 316.9664 316.9664 318.9763 318.9763
   319.1914 320.1709 320.1709 320.2614 320.2809 320.2809 320.3315 320.3315
   320.5523 321.0753 322.3683 322.3683 324.7178 324.7558 324.7558 325.1673
   325.1673 326.4166 326.7352 327.0764 327.5964 329.2576 330.6623 330.6623
   330.9347 331.1195 331.1195 331.1986 331.1986 333.6835 333.6835 333.8844
   333.8844 334.5912 334.5912 334.6724 335.0885 336.3275 336.3275 336.6921
   337.1394 337.1394 337.4132 337.4132 338.2603 338.3791 338.4026 338.4026
   338.4121 339.6596 339.6596 339.9307 339.9307 341.0717 341.0717 341.4967
   341.5043 341.5043 342.2793 342.2793 342.3483 342.3663 342.3663 342.6149
   342.6859 343.0523 343.4902 343.5627 343.5935 343.5935 343.8649 343.8649
   343.9879 343.9879 344.2973 344.4730 344.4730 344.5289 345.5544 349.0793
   349.0793 352.4028 352.8427 352.8427 355.9163 356.8293 358.3562 358.3562
   359.9487 359.9487 360.0538 360.1468 361.1021 361.1021 363.8707 365.3951
   366.4720 368.6595 368.6595 368.8119 368.8119 368.9174 368.9174 369.5568
   369.5568 369.5606 369.6093 369.6093 369.6548 372.0678 372.0678 372.1442
   372.1442 373.2702 373.7707 373.7707 374.0026 374.1610 374.5122 375.3501
   375.3501 376.2790 376.2861 376.8839 376.9429 376.9429 377.0111 377.0111
   377.2764 377.2764 377.7502 378.0556 378.6896 379.6434 379.6434 379.9325
   379.9325 380.2920 380.2920 380.3390 380.3390 380.3457 380.4901 380.6388
   381.2595 381.2595 381.2749 382.3793 382.3793 382.4012 382.4012 382.4137
   383.0094 383.6483 384.6125 384.8430 384.8430 384.8448 384.8468 384.8468
   387.2366 387.2366 387.3250 387.3250 388.6225 388.6225 388.6353 388.7183
   388.7183 388.8552 388.8552 388.9217 390.7022 390.9373 391.5916 391.5916
   391.8715 392.0013 392.0013 392.1393 392.1393 392.1916 392.2476 392.2476
   392.3094 392.3094 393.5269 395.2114 395.2114 395.3070 395.3070 395.4575
   395.8999 395.8999 396.3518 396.5621 396.6230 396.6230 396.6891 397.1419
   397.5641 397.8244 397.8244 398.1218 398.1218 398.1996 398.1996 398.2794
   398.7715 398.8486 399.7158 399.7158 400.0830 400.0830 400.7257 400.7619
   401.5339 401.5356 401.5356 402.1181 402.2534 402.2677 402.2677 402.6835
   402.7864 402.7864 402.9104 402.9104 402.9187 402.9187 403.0010 409.4654
   411.7224 411.7224 412.1399 412.4723 412.4723 413.2939 413.2939 413.6341
   413.6341 413.8233 413.9023 413.9023 413.9511 414.1387 414.1387 414.1825
   414.3888 414.9148 415.1086 415.1086 415.1463 415.1463 415.1749 415.4347
   415.4347 415.5414 415.6691 415.7882 415.7882 415.8446 415.8446 416.7757
   416.7757 417.4918 417.8153 417.8153 417.8265 417.8265 418.1202 418.3825
   418.7641 418.7641 419.1812 419.1812 419.2658 419.2766 419.2766 419.3544
   419.4749 419.9773 420.6177 420.6177 420.9425 421.0224 421.1572 421.1971
   421.4119 421.4119 421.7268 421.7268 421.7645 421.8449 422.0809 422.0809
   422.5041 422.5041 423.1479 423.3326 423.3326 423.3955 423.3955 423.6186
   423.6803 425.1115 426.6486 426.7081 426.7081 426.7717 426.7717 426.8050
   426.9874 426.9874 427.3837 427.3837 427.4431 427.4431 428.4920 428.7267
   428.7267 428.9984 429.3585 429.3585 429.4824 429.5032 429.5032 430.4304
   430.6065 430.6138 430.6138 430.8788 430.8788 430.9816 430.9985 431.0785
   431.0785 431.2034 431.2034 431.2548 431.6039 432.7116 436.8114 436.8114
   436.8702 436.8702 437.6467 438.2275 438.2275 438.2387 438.3065 438.3065
   438.3188 438.3188 438.3206 439.5813 440.0176 440.0176 440.1144 440.1144
   440.3860 440.3860 440.4698 440.6794 442.0866 442.4029 442.4373 442.4373
   443.5596 446.0309 446.0309 446.3365 446.3917 446.3917 446.4165 446.4165
   446.5863 446.7116 447.5538 447.7612 447.8469 448.0314 448.0314 448.0763
   448.0763 448.4448 448.4448 448.5312 448.5312 448.5736 448.6034 448.6944
   450.1070 450.1070 450.5955 450.5955 451.9173 451.9173 451.9507 452.0487
   452.0487 453.2689 453.5249 453.5249 453.6124 453.6124 454.7249 454.8117
   455.3751 455.3751 455.3930 455.3930 456.2282 456.7076 461.4901 461.4901
   462.1607 462.1607 463.9707 464.2458 464.2458 464.7611 464.7611 465.0788
   465.0788 465.1924 465.2460 465.2460 465.2526 465.2669 465.2669 466.0989
   466.0989 466.1857 466.1857 466.6829 466.9018 466.9266 467.3133 467.3895
   467.7768 467.7768 468.2022 468.2510 468.2510 468.6079 468.6079 469.4283
   470.0419 470.1625 470.2631 470.3633 470.4321 470.4321 470.6942 470.6942
   470.8790 470.8790 471.0306 471.0306 471.0568 471.0568 471.1846 471.1846
   471.2520 471.3282 471.6855 471.8114 471.8114 471.8916 471.8916 472.1206
   472.1935 478.9363 479.6062 479.6062 481.8788 483.1771 483.1771 483.3672
   483.3672 483.4625 483.4625 483.6318 483.6318 483.7004 483.9158 484.0112
   484.4316 484.6249 484.6249 484.8509 485.0947 485.0947 485.2740 485.2740
   485.5156 485.5156 485.9612 486.4897 486.4897 487.6235 487.6235 487.9937
   488.1163 488.1163 488.3644 489.2161 489.6978 492.5100 492.8914 494.0621
   495.3228 495.3228 495.5044 495.5044 495.8673 495.8673 496.0138 496.0138
   496.0635 497.2340 497.3870 497.4409 497.4409 497.5797 497.5991 497.8047
   497.9309 497.9309 498.0406 498.0406 498.4650 498.4650 498.4804 498.5097
   498.5782 498.5782 498.5942 498.5942 498.8542 498.8542 498.8647 498.8647
   499.0179 499.0599 500.0127 505.7863 507.5614 509.7256 509.7583 509.7583
   509.7635 509.7635 510.4170 511.2273 512.2158 512.2887 512.2887 512.3074
   512.3074 512.4183 512.8419 512.8419 513.4387 513.4387 513.5175 513.5175
   513.5246 514.3669 515.7764 515.7764 515.8813 515.8813 516.2153 516.3094
   516.3094 516.6112 516.6238 516.6238 517.4603 517.4603 517.7776 517.8569
   519.0855 519.0855 519.1442 519.1442 519.4221 520.0050 520.0050 520.1628
   520.1628 520.3224 520.4082 522.0003 523.1560 523.4931 523.4931 523.6008
   523.6416 523.6416 523.8201 523.8201 523.9293 523.9293 524.0367 524.1636
   524.1636 524.9759 524.9868 524.9868 525.0307 525.0307 525.1424 525.1424
   525.2065 525.3486 525.3497 525.3497 525.4326 525.4344 525.4344 525.4639
   525.9374 527.6958 527.7487 527.7487 528.6762 528.6762 529.0280 529.0280

     the Fermi energy is     2.5281 ev
     (compare with:     3.3721 eV, computed in scf)

     Writing all to output data dir out/mp-984.save/
 
     init_run     :      0.05s CPU      0.06s WALL (       1 calls)
     electrons    :     62.29s CPU     67.00s WALL (       1 calls)

     Called by init_run:
     wfcinit      :      0.00s CPU      0.00s WALL (       1 calls)
     potinit      :      0.01s CPU      0.01s WALL (       1 calls)
     hinit0       :      0.03s CPU      0.03s WALL (       1 calls)

     Called by electrons:
     c_bands      :     62.29s CPU     66.99s WALL (       1 calls)
     v_of_rho     :      0.01s CPU      0.01s WALL (       1 calls)

     Called by c_bands:
     init_us_2    :      0.00s CPU      0.00s WALL (       1 calls)
     init_us_2:cp :      0.00s CPU      0.00s WALL (       1 calls)
     paro_k       :     59.86s CPU     64.25s WALL (       1 calls)

     Called by paro_*:
     h_psi        :      1.04s CPU      1.11s WALL (      88 calls)
     g_psi        :      0.02s CPU      0.03s WALL (    8692 calls)

     Called by h_psi:
     h_psi:calbec :      0.03s CPU      0.03s WALL (      88 calls)
     vloc_psi     :      0.99s CPU      1.05s WALL (      88 calls)
     add_vuspsi   :      0.02s CPU      0.02s WALL (      88 calls)

     General routines
     calbec       :      0.03s CPU      0.03s WALL (      88 calls)
     fft          :      0.01s CPU      0.01s WALL (      10 calls)
     fftw         :      0.89s CPU      0.95s WALL (   14926 calls)
 
     Parallel routines
 
     PWSCF        :   1m 2.62s CPU   1m 7.42s WALL

 
   This run was terminated on:  12:17: 9  19Nov2023            

=------------------------------------------------------------------------------=
   JOB DONE.
=------------------------------------------------------------------------------=
