
     Program PWSCF v.7.1 starts on  2Jan2024 at 18:40:26 

     This program is part of the open-source Quantum ESPRESSO suite
     for quantum simulation of materials; please cite
         "P. Giannozzi et al., J. Phys.:Condens. Matter 21 395502 (2009);
         "P. Giannozzi et al., J. Phys.:Condens. Matter 29 465901 (2017);
         "P. Giannozzi et al., J. Chem. Phys. 152 154105 (2020);
          URL http://www.quantum-espresso.org", 
     in publications or presentations arising from this work. More details at
     http://www.quantum-espresso.org/quote

     Parallel version (MPI), running on     8 processors

     MPI processes distributed on     1 nodes
     123058 MiB available memory on the printing compute node when the environment starts
 
     Reading input from pw_mp-2201_nscf_k10_E51.in
Warning: card &IONS ignored
Warning: card / ignored
Warning: card &CELL ignored
Warning: card / ignored

     Current dimensions of program PWSCF are:
     Max number of different atomic species (ntypx) = 10
     Max number of k-points (npk) =  40000
     Max angular momentum in pseudopotentials (lmaxx) =  4

     Atomic positions and unit cell read from directory:
     out/mp-2201.save/
     Atomic positions from file used, from input discarded
 
 
     R & G space division:  proc/nbgrp/npool/nimage =       8
     Subspace diagonalization in iterative solution of the eigenvalue problem:
     one sub-group per band group will be used
     scalapack distributed-memory algorithm (size of sub-group:  2*  2 procs)

 
     Parallelization info
     --------------------
     sticks:   dense  smooth     PW     G-vecs:    dense   smooth      PW
     Min         119     119     35                 2448     2448     383
     Max         120     120     36                 2452     2452     384
     Sum         955     955    283                19603    19603    3071
 
     Using Slab Decomposition
 


     bravais-lattice index     =            2
     lattice parameter (alat)  =      11.6816  a.u.
     unit-cell volume          =     398.5191 (a.u.)^3
     number of atoms/cell      =            2
     number of atomic types    =            2
     number of electrons       =        20.00
     number of Kohn-Sham states=         1200
     kinetic-energy cutoff     =      51.0000  Ry
     charge density cutoff     =     204.0000  Ry
     Exchange-correlation= PBE
                           (   1   4   3   4   0   0   0)

     celldm(1)=  11.681619  celldm(2)=   0.000000  celldm(3)=   0.000000
     celldm(4)=   0.000000  celldm(5)=   0.000000  celldm(6)=   0.000000

     crystal axes: (cart. coord. in units of alat)
               a(1) = (  -0.500000   0.000000   0.500000 )  
               a(2) = (   0.000000   0.500000   0.500000 )  
               a(3) = (  -0.500000   0.500000   0.000000 )  

     reciprocal axes: (cart. coord. in units 2 pi/alat)
               b(1) = ( -1.000000 -1.000000  1.000000 )  
               b(2) = (  1.000000  1.000000  1.000000 )  
               b(3) = ( -1.000000  1.000000 -1.000000 )  


     PseudoPot. # 1 for Pb read from file:
     /usr/scratch4/magr4985/MG/HTDF/pseudo/SG15/Pb.upf
     MD5 check sum: 7f27c247474026287e0dbe0f3167d60b
     Pseudo is Norm-conserving, Zval = 14.0
     Generated using ONCVPSP code by D. R. Hamann
     Using radial grid of  602 points,  8 beta functions with: 
                l(1) =   0
                l(2) =   0
                l(3) =   1
                l(4) =   1
                l(5) =   2
                l(6) =   2
                l(7) =   3
                l(8) =   3

     PseudoPot. # 2 for Se read from file:
     /usr/scratch4/magr4985/MG/HTDF/pseudo/SG15/Se.upf
     MD5 check sum: e78e48a4f5d8ce1f8dc76ec1271f249c
     Pseudo is Norm-conserving, Zval =  6.0
     Generated using ONCVPSP code by D. R. Hamann
     Using radial grid of  602 points,  6 beta functions with: 
                l(1) =   0
                l(2) =   0
                l(3) =   1
                l(4) =   1
                l(5) =   2
                l(6) =   2

     atomic species   valence    mass     pseudopotential
        Pb            14.00   207.20000     Pb( 1.00)
        Se             6.00    78.96000     Se( 1.00)

     48 Sym. Ops., with inversion, found



   Cartesian axes

     site n.     atom                  positions (alat units)
         1           Pb  tau(   1) = (   0.0000000   0.0000000   0.0000000  )
         2           Se  tau(   2) = (  -0.5000000   0.5000000   0.5000000  )

     number of k points=     3  Gaussian smearing, width (Ry)=  0.0005
                       cart. coord. in units 2pi/alat
        k(    1) = (   0.0000000   0.0000000   0.0000000), wk =   0.2500000
        k(    2) = (   0.5000000  -0.5000000   0.5000000), wk =   1.0000000
        k(    3) = (   0.0000000  -1.0000000   0.0000000), wk =   0.7500000

     Dense  grid:    19603 G-vectors     FFT dimensions: (  40,  40,  40)

     Estimated max dynamical RAM per process >      73.27 MB

     Estimated total dynamical RAM >     586.18 MB

     The potential is recalculated from file :
     out/mp-2201.save/charge-density

     Starting wfcs are random

     Band Structure Calculation
     ParO style diagonalization

     ethr =  5.00E-06,  avg # of iterations =  6.0

     total cpu time spent up to now is      201.9 secs

     End of band structure calculation

          k = 0.0000 0.0000 0.0000 (  2445 PWs)   bands (ev):

    -8.5123  -8.5123  -8.5123  -8.5052  -8.5052  -5.0612   1.9325   6.5473
     6.5473   6.5473  12.9285  12.9285  12.9285  14.8784  14.8784  14.8784
    16.5008  16.5594  17.2923  17.2923  28.0228  28.0228  28.0228  29.2444
    29.2444  29.2444  30.9202  30.9202  30.9202  32.2522  32.2522  35.0738
    36.7194  36.7194  36.7194  37.5863  39.5525  39.5525  39.5525  40.9514
    40.9514  41.7888  41.7888  41.7888  42.9876  42.9876  42.9876  43.7386
    43.7386  43.7386  44.4988  46.8375  46.8375  46.8375  46.9630  46.9630
    46.9630  47.5987  47.5987  48.4119  50.0213  50.0213  50.0213  52.8679
    56.1317  56.1317  56.1317  58.3314  58.3314  58.3314  62.9573  62.9573
    63.5882  65.8118  69.4184  69.4184  69.4184  69.9574  69.9574  69.9574
    70.3881  70.3881  70.3881  71.7586  71.7586  72.6621  72.6621  72.6621
    74.6253  74.6253  74.6253  75.9642  75.9642  75.9642  76.0884  76.0884
    76.0884  77.2994  77.2994  77.3262  77.3262  77.3262  78.1957  78.1957
    78.8025  79.2793  79.2793  79.2793  80.1845  80.2336  80.6122  80.6122
    82.0483  82.0483  82.0483  83.3255  83.3255  83.3255  85.8033  85.9238
    85.9238  85.9238  91.6719  91.6719  91.6719  92.8304  92.8304  92.8304
    93.3439  93.3439  93.8950  93.8950  93.8950  94.1143  94.1143  94.1143
    94.7320  94.7611  94.7611  96.4042  96.4042  96.4042  97.3826  97.6767
    97.6767  97.6767  98.4087  98.4087  98.4087 101.7680 103.5440 103.5440
   103.5440 104.8402 104.8402 104.8402 104.9815 104.9815 104.9815 108.0385
   108.0385 108.0385 109.5349 109.5997 109.5997 109.6837 109.6837 109.6837
   109.7168 110.5860 110.5860 111.0888 111.0888 111.0888 111.4968 111.4968
   111.4968 118.7063 118.7063 118.7063 121.5077 121.5077 121.5077 122.1557
   122.4100 122.4100 123.6931 123.8004 123.8004 123.8004 126.0155 126.0155
   126.0155 129.6611 129.6611 129.9698 129.9698 129.9698 130.4001 131.9130
   132.4002 132.4002 132.4002 132.4941 132.4941 133.0203 133.0203 133.0203
   133.0809 133.0809 133.0809 133.5308 133.9507 133.9507 133.9507 134.8373
   135.7286 135.7286 135.7286 137.0749 137.1486 137.1486 137.7823 137.7823
   137.7823 138.4951 138.4951 138.4951 138.7625 138.7625 138.7625 139.1827
   139.1827 139.1827 139.4309 139.4309 139.4309 139.9025 139.9025 140.0324
   140.0324 140.0324 140.4670 140.4670 140.4670 140.6941 140.6941 140.6941
   140.8732 140.8732 140.9414 140.9414 140.9414 141.1105 141.1105 141.1252
   141.2910 141.2910 141.2910 149.0783 149.0783 149.0783 149.1953 149.1953
   149.1953 149.2470 149.2470 149.8398 149.8398 149.8398 151.1603 151.6516
   151.6516 151.6516 153.8563 153.8563 153.8563 156.4140 157.1401 157.1401
   157.1401 157.1540 157.1540 157.2806 158.4421 158.4421 158.4421 161.0002
   161.0002 161.0002 161.7289 165.0767 165.0767 166.5083 166.5083 166.5083
   167.4108 167.6610 167.6610 167.6610 167.7795 167.7795 167.7795 168.1583
   168.1583 168.1583 168.2021 168.2021 169.0202 169.0202 169.0202 170.1123
   170.1123 170.1123 170.1259 170.1259 170.1259 170.1431 170.1431 170.3273
   170.3273 170.3273 170.7300 170.7300 171.0004 171.2161 171.2161 171.2161
   172.4329 172.4329 172.4329 175.1569 175.1569 179.4964 179.4964 179.4964
   181.1250 182.1928 182.1928 182.1928 182.8257 184.9358 184.9358 184.9358
   185.5962 186.3645 186.3645 186.3645 187.4032 187.4032 187.4032 190.7261
   190.7261 191.4162 191.4162 191.4162 191.4793 191.4793 191.4793 191.6442
   192.8024 192.8024 192.8024 193.7790 193.7790 196.9060 196.9060 196.9060
   197.1979 197.1979 197.1979 197.5371 197.5371 197.5371 197.8202 197.8202
   197.8202 197.9932 197.9932 197.9932 198.7503 199.5732 200.9888 200.9888
   200.9888 201.0629 201.0629 201.0629 201.3862 201.3862 201.4417 201.4417
   201.4417 201.4467 201.4467 201.4950 201.4950 201.4950 202.2133 202.2133
   202.2133 202.3083 202.3083 202.3083 202.3274 204.0149 204.0149 204.0156
   204.0260 204.0260 204.0260 209.7194 211.6137 211.6137 211.6137 212.8983
   212.8983 212.8983 213.8507 215.4655 215.4655 215.4655 215.4931 215.4931
   215.7759 215.7759 215.8556 215.8556 215.8556 215.8558 215.8558 215.8558
   215.9408 215.9408 215.9408 218.1858 218.1858 218.1858 218.6573 218.6573
   219.4550 219.4550 219.6614 219.6614 219.6614 219.6703 219.6703 219.6703
   219.8178 219.8178 219.8178 219.8267 219.8267 219.8267 220.1226 220.1226
   220.4738 220.6005 220.6005 220.6005 220.9306 221.1708 221.1708 221.1708
   221.3571 221.3571 221.3571 221.5460 221.7071 221.7071 221.7071 222.4900
   222.4900 222.4900 222.5804 223.7496 223.7496 223.7496 225.5278 225.5278
   225.5278 226.0641 226.1373 226.1373 226.1470 226.1470 226.1470 226.2583
   226.2583 226.2583 226.5639 230.0507 230.0507 230.5446 230.5446 230.5446
   230.8172 230.8172 230.8172 230.9008 230.9008 230.9008 231.2911 231.2911
   231.2911 231.3067 231.3067 231.7003 231.9655 231.9655 231.9655 231.9912
   231.9912 233.4866 233.4866 233.4866 233.5874 233.5874 233.5874 233.7015
   233.7015 233.7015 233.8101 233.8101 233.8101 234.8221 234.8960 234.8960
   234.8960 234.9116 234.9116 236.0054 236.0054 239.3166 239.3166 239.3166
   240.9515 255.7562 255.7562 255.7562 256.0082 256.0082 256.0082 256.6292
   257.1113 258.9793 258.9793 258.9793 259.0844 259.0844 259.2111 259.2111
   259.2111 259.3958 259.3958 259.3958 259.6338 259.6338 259.6338 260.2519
   260.2519 260.2519 260.4696 260.4696 260.7533 260.7533 260.9485 261.1769
   261.1769 261.1769 261.3223 261.9221 261.9221 261.9221 262.0186 262.0186
   262.0186 262.0214 262.0214 262.0214 262.4773 262.4773 262.4773 262.6738
   262.9078 262.9078 262.9078 266.0381 266.0381 266.1198 266.1198 266.1198
   266.2213 266.2213 266.2213 266.2905 266.2905 266.2905 266.3155 266.3155
   266.3841 266.3841 266.3841 267.2322 267.2322 267.2856 267.2856 267.2856
   267.3859 275.2410 275.2410 275.2410 275.2674 275.2674 275.3120 275.3120
   275.3120 275.4195 275.4195 275.4195 275.9396 280.0599 280.1495 280.1495
   280.1495 280.2115 280.2115 280.8559 280.8559 280.8559 281.1282 281.1282
   281.1282 281.1561 281.1561 281.1561 281.2031 281.2031 281.2031 281.4241
   281.4241 281.4241 281.4692 281.4692 281.5702 281.6624 281.6624 281.6624
   282.2149 282.2149 282.9379 282.9379 282.9379 284.2789 284.3859 284.3859
   284.3859 289.5334 289.6989 289.6989 289.9583 289.9583 289.9583 290.0233
   290.0233 290.0233 290.0437 290.0437 290.0437 290.1036 290.1036 290.1036
   290.2002 290.7230 290.7230 290.7230 291.3014 294.6668 294.6668 294.6898
   294.6898 294.6898 294.8047 294.8047 294.8047 294.8249 294.8249 294.8249
   294.9032 295.6748 295.6748 295.6748 295.8770 295.8770 295.8770 295.8824
   295.8824 295.9025 295.9025 295.9025 295.9255 296.5979 296.5979 296.5979
   296.8215 296.8215 296.9177 296.9177 296.9177 297.0565 297.0565 297.0894
   297.0894 297.0894 297.1078 297.1148 297.1148 297.1148 297.1608 297.1778
   297.1778 297.1778 297.2012 297.2012 297.2012 304.3884 304.3884 304.8171
   304.8171 304.8171 305.6813 308.9143 308.9143 308.9143 309.0463 309.0463
   309.0463 309.0567 309.0567 309.0567 309.1126 309.1126 309.1126 309.6834
   309.6834 309.8133 309.8959 309.8959 309.8959 310.0167 310.0167 311.3926
   311.6081 311.6081 311.6081 317.6377 317.6377 317.6377 317.7126 318.3780
   318.3780 318.3780 318.9219 321.1082 321.1082 321.1082 321.1256 321.1256
   321.1256 321.1439 321.1439 321.1439 321.2621 321.2621 321.4902 321.4902
   321.5027 321.5027 321.5027 323.4803 323.4803 323.4803 323.5192 323.5192
   323.5192 323.5479 323.5479 323.5479 323.5737 323.5737 323.5737 325.5173
   325.5173 325.5173 325.5490 325.5490 325.6968 325.6968 325.7065 325.7065
   325.7065 325.7140 325.7313 325.7313 325.7313 325.7393 325.7393 325.7393
   325.7555 325.7555 325.7555 325.8665 325.8665 326.0802 326.0802 326.0802
   326.5251 326.5251 326.5251 326.5275 326.5275 326.5275 326.5288 326.5288
   326.5288 326.7107 326.7107 327.0534 327.1132 327.1132 327.1132 327.1472
   327.2053 327.2053 327.2053 327.2425 327.2425 327.2425 327.2592 329.5980
   329.5980 329.6247 329.6247 329.6247 329.6990 329.9919 329.9960 329.9960
   329.9960 329.9981 329.9981 330.0194 330.0194 330.0194 330.0911 330.0911
   330.0911 330.1208 330.1208 330.1208 330.1776 330.1776 330.1776 330.3772
   330.3772 330.4580 330.4580 330.4580 330.5384 338.2800 338.2800 338.2800
   338.5222 338.5664 338.5664 338.5664 338.6099 344.9230 344.9230 344.9661
   344.9661 344.9661 345.0252 345.0252 345.0252 345.0280 345.0280 345.0280
   345.1050 345.1050 345.1050 345.1288 345.1288 346.7634 346.7634 347.1397
   347.1397 347.1397 347.3263 349.2311 349.2311 349.2311 349.3905 349.3905
   349.3905 349.4128 349.4128 349.4128 349.4173 349.4173 349.4173 352.1914
   352.1914 352.2290 352.2290 352.2290 352.3091 356.9734 356.9734 356.9775
   356.9775 356.9775 356.9787 359.3777 359.3777 359.3777 359.3787 359.3787
   359.3787 359.3854 359.3854 359.3854 359.3906 359.3906 359.3906 360.7454
   360.7454 360.7510 360.7510 360.7510 360.7586 372.3380 372.3521 372.3521
   372.3521 372.6869 372.6869 372.6869 373.3745 373.6745 373.6745 373.8665
   373.8665 373.8665 374.1805 374.1805 374.1805 374.2857 374.2857 374.2857
   374.3629 374.3629 374.3629 374.4868 374.4868 377.8284 377.8284 377.8342
   377.8342 377.8342 378.0241 378.0241 378.0241 378.2619 378.2619 378.2619
   378.4879 380.6885 380.6885 380.7249 380.8746 380.8746 380.8746 381.1633
   381.2887 381.2887 381.2887 381.8063 381.8063 381.8063 382.3080 384.9478
   384.9478 384.9478 385.0215 385.0215 385.0215 385.2612 385.2612 385.3752
   385.3752 385.3752 385.4839 385.4839 385.4839 385.5948 385.8309 385.8309
   385.8309 385.8749 385.8749 386.0751 386.0751 386.0751 386.2203 386.2203
   386.2203 386.3634 386.3634 386.9845 386.9977 386.9977 386.9977 387.3278
   387.3278 387.3278 387.5689 388.7171 388.7171 388.7171 388.7419 388.7419
   388.8254 388.8254 388.8254 388.8278 388.8278 388.8278 388.8580 388.8580
   388.8580 388.9377 388.9377 390.3236 390.3236 390.3280 390.3280 390.3280
   390.3495 390.3495 390.3495 390.3616 390.3621 390.3621 390.3621 390.7395
   390.8120 390.8120 390.8120 390.8988 390.8988 390.8988 390.9188 390.9188
   390.9239 390.9239 390.9239 402.6252 402.6252 402.6252 402.6280 402.6280
   402.7460 402.8807 402.8807 402.8807 402.8824 402.8824 402.8824 402.8863
   402.8863 402.8863 402.9085 402.9085 402.9085 403.7241 403.9296 403.9296
   403.9296 404.0312 404.0312 404.0312 404.0892 404.0892 404.1138 404.1138
   404.1138 405.6572 405.6572 405.7052 405.7137 405.7137 405.7137 405.7479
   405.7479 405.7479 405.8145 405.8145 405.8145 408.1441 408.1441 408.1441
   408.1523 408.1523 408.1523 408.1564 408.1564 408.1905 408.1905 408.1905
   408.2277 408.4802 408.6304 408.6304 408.6304 408.6652 408.6652 408.8238
   408.8238 408.8238 408.8756 408.8756 408.8756 409.1157 409.1157 409.1969
   409.1969 409.1969 409.2788 412.5671 412.5671 412.5671 412.7242 412.7242
   412.7242 412.7610 412.7610 412.7610 412.7983 412.7983 412.8534 412.8534
   412.8534 412.8848 412.8848 412.8848 412.8880 412.9381 412.9381 412.9702
   412.9702 412.9702 413.0221 416.4947 416.8017 416.8017 416.8017 417.1111
   417.1111 417.1111 417.5631 417.5631 417.5991 417.5991 417.5991 417.8708
   418.2454 418.2454 418.2454 418.4091 418.4091 418.4091 418.5557 418.5557
   418.5557 418.5844 418.5844 421.2378 421.2378 421.3093 421.3093 421.3093
   421.3536 421.4302 421.4302 421.4302 421.4594 421.4715 421.4715 421.4715

          k = 0.5000-0.5000 0.5000 (  2452 PWs)   bands (ev):

    -8.5276  -8.5276  -8.5091  -8.4817  -8.4817  -4.0655  -0.3529   6.9372
     6.9372   8.2695   8.6469  10.0418  10.0418  16.8129  18.4003  18.4825
    18.4825  20.0604  20.0604  24.2394  24.2394  25.7313  26.2190  26.9739
    26.9739  27.0918  30.2857  30.6570  31.5024  31.5024  31.6167  32.3008
    32.3008  33.5629  33.5629  34.3942  36.9023  36.9023  37.3823  37.7363
    40.8290  40.8290  42.0808  42.0808  42.7782  43.7657  43.7657  45.4493
    48.3750  48.9535  48.9535  49.1701  49.1701  49.3516  51.5747  51.5747
    51.6114  51.6114  52.6501  52.7372  54.1840  54.1840  54.5688  56.2544
    56.2544  57.0042  57.7956  57.8851  57.8851  58.0342  58.0342  60.3439
    62.2796  62.2796  62.4012  62.5276  62.5592  63.8153  63.8153  66.2278
    66.2278  67.2044  67.6970  67.6970  68.0683  69.7264  69.8083  70.3269
    70.3269  71.6871  71.6871  72.0237  73.5359  73.5359  74.8422  74.8422
    76.4946  78.9387  79.4637  79.4637  79.9462  80.7720  80.8443  80.8443
    81.4859  81.4859  81.5074  81.8659  82.1713  82.1713  83.3548  83.3548
    83.4768  83.4768  83.8764  84.6346  84.6676  86.2780  87.0025  87.0025
    89.1525  89.1525  89.1758  91.0581  91.6377  91.6377  91.9743  91.9743
    94.1090  94.1090  94.3724  94.3724  94.4146  95.9407  95.9407  96.1597
    96.2323  96.5935  96.5935  96.6352  98.0069  98.0069  98.1979  98.5615
   100.3254 100.3254 101.6286 101.6923 101.6923 102.5030 102.8841 102.8841
   104.3128 104.4754 104.4754 105.3015 105.3015 106.5291 106.9432 106.9432
   107.0122 107.0122 107.0933 108.7522 110.4696 111.5622 111.7653 111.7653
   112.6308 112.6320 112.6320 112.7505 112.7505 112.9318 112.9792 114.5929
   114.5929 114.7775 117.1240 117.1240 117.8743 119.1390 119.5862 119.5862
   120.3664 120.4953 120.4953 122.6217 122.6709 122.6709 123.2555 123.2555
   124.0604 124.0604 124.7483 125.3042 125.3042 125.4048 125.6007 126.2022
   126.2022 126.4428 126.4428 126.4573 126.6995 127.8412 127.9497 127.9497
   127.9972 127.9972 128.7311 131.6454 132.2925 132.2925 132.6119 133.2164
   133.2164 133.3776 134.5646 134.5646 134.5950 134.5950 135.6305 135.6305
   135.9446 136.0003 136.0003 136.0326 136.1400 137.1669 137.1669 137.9438
   137.9438 138.1257 139.4491 139.4491 139.9447 140.2511 140.2616 140.2616
   140.7682 141.6571 143.5019 143.5019 144.2695 144.2695 144.4321 145.6689
   145.6689 145.7957 147.1696 148.0540 148.0540 149.8404 150.2946 150.2946
   150.4042 150.4042 150.6999 150.8053 150.8610 150.8610 151.0296 151.2366
   151.4565 151.6517 151.6517 151.6810 151.6810 152.3131 152.3693 152.3693
   153.9124 153.9124 153.9564 153.9564 153.9895 156.8460 156.8460 157.8664
   157.8664 158.6843 160.4095 160.4425 164.1198 164.1221 164.1221 164.1427
   164.1427 165.1948 165.4674 165.4674 165.5528 165.5795 165.5795 165.6762
   165.7206 165.9159 165.9159 166.3579 166.3845 166.3845 167.4098 167.7673
   169.3204 169.3204 169.4430 170.2288 170.2288 170.3352 170.5231 171.4713
   171.4713 171.7239 172.2058 172.2058 172.3964 172.3964 172.4698 172.5184
   172.5184 173.0727 173.2365 173.2365 173.3603 173.3603 175.2728 175.4690
   176.1098 176.1098 176.1281 176.1281 177.3644 177.3646 180.5650 180.5650
   180.7549 180.7549 182.5354 182.7493 182.8468 182.8468 183.0664 183.0664
   184.2303 184.2511 184.2511 184.4268 184.4268 184.9433 184.9433 185.4407
   185.7354 186.4402 186.4402 186.9459 187.3581 187.3581 187.4396 187.4546
   187.4546 187.7205 188.3742 188.4568 188.4568 189.3044 189.3664 189.3664
   189.4482 191.6322 191.6322 191.7656 191.7656 191.9041 191.9726 191.9726
   191.9902 192.9609 193.7141 193.7141 196.5282 196.8447 196.8447 197.0967
   197.0967 197.1228 197.5679 197.5679 197.7597 197.7597 197.9306 198.4618
   202.4792 202.7898 202.7959 202.7959 202.9383 202.9383 204.1351 204.1351
   204.2379 204.4000 204.6005 204.6005 204.8370 204.8370 205.4366 205.6202
   205.7094 205.8995 205.8995 206.4252 206.4252 206.8668 206.9914 207.3326
   207.3326 207.6789 208.7072 208.7072 208.8129 209.5907 209.5907 209.8017
   210.0582 210.2115 210.2115 210.5492 211.3978 211.3978 212.3669 212.3669
   212.7728 212.7728 213.2686 213.9567 213.9567 214.1888 214.1888 214.4201
   217.2374 217.7134 217.7134 217.8628 217.8671 217.8671 219.7413 219.7890
   219.7890 220.2590 220.3573 220.3573 222.0439 222.0943 222.2371 222.2371
   222.2476 222.2476 223.3013 223.3820 223.3820 223.5295 223.5295 223.6112
   224.9166 224.9166 225.5437 225.7020 225.7020 225.7248 226.5708 226.5708
   226.7336 226.7336 227.2049 227.6682 230.5264 230.5773 230.9479 230.9479
   231.0515 231.0515 232.7400 232.7400 233.2167 234.3499 234.4320 234.4320
   234.8744 235.6964 235.6964 235.7704 235.8299 235.8299 235.8743 236.1122
   236.6093 236.6093 237.2188 237.2188 237.3666 237.6303 237.8366 237.8366
   237.8883 237.9925 237.9925 238.5648 238.8468 238.8468 239.3049 239.3049
   239.3255 239.3255 239.8181 239.9904 240.1297 241.0807 241.0807 241.1212
   242.5748 242.9196 243.2769 243.2769 243.4551 243.4551 243.7839 243.7839
   243.8143 243.8143 244.1098 244.1779 244.7587 245.0902 245.1824 245.1824
   245.1875 245.1875 245.5946 245.5946 245.6830 245.7349 245.7349 245.8840
   251.2743 251.3463 251.4177 251.4177 251.5738 251.5738 252.4657 252.4657
   252.7222 252.7222 252.8859 253.0512 253.1726 253.1726 253.2163 253.2751
   253.3659 253.3659 254.6936 254.6936 254.7407 254.7407 254.7567 254.8046
   258.9206 258.9206 259.1006 259.1172 259.1172 259.1424 259.1962 259.1962
   259.6008 259.6278 259.6985 259.6985 261.2886 261.6645 262.8379 262.8379
   262.9111 262.9111 264.2571 265.2141 265.2141 265.2198 265.2489 265.2489
   265.2609 265.5300 265.9600 265.9600 266.4183 266.4183 266.5105 266.5105
   266.7996 266.9629 267.0640 267.0640 269.5395 269.5395 269.7729 269.7729
   270.2334 270.2334 271.2446 271.2455 272.7610 272.7610 272.8633 272.9099
   272.9099 273.0374 273.1844 273.7554 273.8576 273.8576 273.9871 274.8317
   275.0343 275.0343 275.1193 275.1373 275.1373 276.1672 276.1672 277.0764
   277.0764 277.7592 278.4037 278.4037 278.4057 278.4057 278.5272 278.5332
   279.0053 279.3942 280.0613 280.0613 280.7206 280.8053 281.5155 281.5155
   285.1892 285.1892 285.2032 285.2032 287.4796 287.4796 287.5063 287.5063
   287.6309 288.2953 288.9371 289.0499 289.0499 289.0551 289.0551 289.0576
   289.3539 289.4297 289.8680 289.8680 290.1374 290.1374 290.7016 290.7016
   291.2563 291.2563 291.3604 291.3604 291.5214 291.5773 291.7711 291.9343
   291.9343 291.9961 292.0130 292.0474 292.0474 292.1062 292.1062 292.1328
   292.3836 292.3836 292.3968 292.4598 292.4598 292.4649 292.9411 293.0319
   293.0319 293.1134 293.1134 293.2728 295.9675 295.9675 296.2790 296.3779
   296.3779 296.4034 296.5564 296.8389 296.8389 297.0773 297.0773 297.1447
   300.6463 300.7470 300.7470 300.8195 300.8195 300.8306 302.1726 302.1726
   302.4124 302.6004 302.6004 302.7175 305.8314 305.8314 306.0015 306.0015
   306.0174 306.1272 306.2564 306.3462 306.3462 306.6181 306.6181 306.8284
   306.9661 307.0092 307.0092 307.1902 307.1902 307.2518 308.3408 308.3408
   308.4892 308.4892 308.5080 308.5086 308.5719 308.5719 308.5842 308.6044
   308.6483 308.6483 312.6335 312.7902 313.1687 313.1687 313.4235 313.5089
   313.5290 313.5290 314.4200 314.4200 314.5410 314.5410 315.5885 315.6407
   315.6407 315.6811 315.6811 315.7640 316.1986 316.1986 316.2872 316.3049
   316.3049 316.3116 317.3517 318.1143 320.2524 320.2839 320.2839 320.3268
   320.3268 320.4635 323.2661 323.2661 323.3240 323.3240 324.8533 324.8590
   324.8590 324.8639 324.8639 324.8787 325.0996 325.2857 325.2985 325.2985
   325.3189 325.3189 326.4182 326.4182 326.6457 326.8686 326.9623 326.9623
   328.0455 328.0517 328.0517 328.0800 328.0800 328.2051 328.4452 328.6920
   328.6920 328.7788 328.7788 328.9815 330.6850 330.6850 330.6931 330.6931
   330.7036 330.7422 331.7117 331.7117 332.1101 332.1155 332.1155 332.2016
   332.2188 332.2188 332.2652 332.3379 332.3379 332.7897 338.0594 338.0594
   338.1555 338.1590 338.1590 338.1753 338.1753 338.1983 338.2121 338.2121
   338.2221 338.2227 339.3694 339.3694 339.4081 339.4406 339.4427 339.4427
   341.4747 341.4790 341.4790 341.4891 341.4891 341.4963 342.8853 342.8853
   343.4893 343.5111 343.5111 343.7250 344.9957 345.0706 345.2337 345.2337
   345.2782 345.2782 345.9296 345.9632 346.0794 346.0794 346.0892 346.0892
   346.2003 346.2123 346.3267 346.3267 346.3662 346.3662 349.0259 349.0259
   349.0259 349.0259 349.0985 349.0985 351.9331 351.9682 352.9797 352.9797
   353.1675 353.1675 353.4435 353.4465 353.5621 353.6249 353.6868 353.6868
   353.8336 353.8336 353.9698 353.9698 353.9708 353.9708 354.6910 354.8915
   358.0420 358.0420 358.0612 358.1013 358.1013 358.1549 358.1549 358.1965
   358.2554 358.2554 358.6174 358.7397 358.8819 358.8900 359.0824 359.0824
   359.1247 359.1247 360.9017 360.9741 361.1082 361.1082 361.1444 361.1444
   361.2368 361.2368 361.4933 361.4933 361.5930 361.6168 362.0331 362.0331
   362.0590 362.0650 362.0650 362.0703 363.6628 363.6628 363.6674 363.6764
   363.6764 363.6946 364.3266 364.3266 364.3319 364.3319 364.3382 364.3561
   370.9107 370.9599 370.9753 370.9753 371.0179 371.0179 371.1559 371.1559
   371.2528 371.2528 371.2900 371.3900 371.3929 371.4919 371.4919 371.5509
   371.5799 371.5799 372.5536 372.5536 372.5875 372.7750 372.7750 372.9477
   375.7643 375.9520 375.9520 376.1778 376.1778 376.2893 376.9046 376.9385
   376.9385 376.9847 376.9941 376.9941 377.9842 377.9842 377.9897 377.9897
   377.9950 378.0026 378.3313 378.3553 378.3553 378.3947 378.4130 378.4130
   379.0086 379.1686 379.1686 379.4245 379.4467 379.5534 379.5534 379.7922
   382.1894 382.1894 382.1912 382.1912 383.4374 383.5284 383.5284 383.5756
   383.5961 383.5961 384.5811 384.6063 384.8202 384.8202 384.8445 384.8445
   386.4415 386.4415 386.4608 386.4732 386.4732 386.5246 387.0104 387.0405
   387.0405 387.0652 387.0652 387.0766 387.6008 387.6008 387.6024 387.6024
   387.8039 387.8058 387.8126 387.8126 387.8149 387.8149 389.2426 389.2427
   394.0245 394.0563 394.0563 394.0821 394.0821 394.1129 394.2829 394.3694
   394.3694 394.5146 394.5146 394.5681 397.7639 397.7639 397.8162 397.8162
   397.8270 397.8660 398.1121 398.1399 398.1399 398.2270 398.2270 398.3310
   398.6214 398.6423 398.6423 398.6853 398.6853 398.7049 398.9102 398.9102
   398.9386 399.0188 399.0188 399.0383 399.6431 399.7354 399.7354 399.8735
   399.8839 399.8839 401.7005 401.7530 401.7530 401.8151 401.8151 401.8674
   404.0780 404.1279 408.1491 408.1765 408.1765 408.2566 408.2566 408.2682
   408.2926 408.3738 408.3738 408.5290 408.5290 408.6617 408.9136 408.9136
   408.9663 408.9663 408.9887 409.0445 409.3036 409.3202 409.3202 409.4181
   409.4181 409.4836 409.5363 409.5965 409.5965 409.6167 409.6167 409.6237
   410.7932 410.8012 410.8337 410.8337 410.8392 410.8392 410.8443 410.8443
   410.8664 410.8664 410.8779 410.8816 410.9256 410.9256 410.9294 410.9294
   412.3023 412.3023 412.3034 412.3034 412.3120 412.3123 414.7557 414.7790
   414.7790 414.8112 414.8112 414.8336 418.3204 418.3257 418.3257 418.3273
   418.3273 418.3571 421.3759 421.3759 421.4246 421.4613 421.5129 421.5129
   424.2146 424.2146 424.2429 424.2577 424.2577 424.3282 425.0250 425.0323
   425.0323 425.0587 425.0727 425.0727 425.8503 425.8503 425.8736 425.8739
   425.8739 425.9164 425.9203 425.9494 425.9761 425.9761 426.0065 426.0065

          k = 0.0000-1.0000 0.0000 (  2450 PWs)   bands (ev):

    -8.6132  -8.5281  -8.4882  -8.4726  -8.4726  -3.7384   0.9495   3.5518
     5.2405   5.2405  12.1119  13.7820  13.7820  14.2072  19.5621  19.7191
    20.9727  20.9727  21.1143  21.5122  22.5407  23.2140  23.2140  25.7157
    25.7157  25.9999  27.2980  29.8182  29.8182  31.8811  32.9746  34.2454
    34.5884  35.8564  35.8564  37.6731  37.8081  37.8081  37.8650  37.8650
    37.9899  38.5526  41.3882  41.6957  42.9490  43.2663  45.0222  45.0222
    45.7959  47.7840  47.7840  48.4995  50.2091  51.4794  51.6326  51.8902
    51.8902  52.4691  52.4691  53.0485  53.3889  55.5701  55.5701  57.1792
    57.6292  57.7339  57.7339  57.8548  58.1313  59.0804  59.0804  59.4467
    60.1362  61.8288  61.8288  63.5581  64.9162  64.9910  67.0903  67.0903
    67.1661  67.1661  67.3314  67.5641  67.5641  68.8797  70.2106  70.4497
    70.4497  70.8997  71.9941  72.0308  72.6899  72.6899  72.9152  73.1791
    73.1791  74.1494  76.5733  77.2720  77.4147  77.6138  78.2004  79.6913
    79.6913  81.6608  81.8218  82.1792  82.4268  82.4268  83.2818  83.2818
    84.4190  84.5056  84.5056  84.5564  86.2605  86.2605  86.4039  86.5685
    86.5685  86.7291  87.5715  88.9745  92.8108  93.0985  93.3284  93.6978
    95.2920  95.2920  95.4977  95.4977  96.0018  96.1377  96.1807  96.1807
    96.4377  98.4916 101.7095 101.7648 102.7244 102.7985 102.7985 102.9300
   102.9300 103.0676 103.8213 103.8213 104.0152 104.0152 104.0498 104.1275
   104.1275 104.1956 104.8157 104.8185 104.8391 105.3567 106.3569 107.7660
   108.5125 108.5125 109.7524 110.1173 110.1173 110.4458 110.4458 111.9017
   112.5631 113.1084 113.1340 113.2118 113.2118 113.3985 113.4576 113.4576
   113.8275 114.2169 114.2448 114.2448 114.5997 114.7189 116.2304 116.4894
   118.5728 118.5728 118.8895 118.8895 118.9228 118.9698 119.9780 120.0780
   120.0780 121.1458 122.2403 123.8850 123.8850 124.2634 124.2634 124.6350
   124.6628 125.0558 126.2867 126.3492 126.3492 127.2019 127.2099 128.6679
   128.8964 128.8964 129.5963 129.5963 129.6476 130.3111 130.5237 130.6574
   130.6574 130.9206 131.0703 131.4348 131.5758 131.7451 132.1599 132.1599
   133.0857 133.0857 134.4330 134.5118 138.4729 139.4429 139.4429 142.3139
   142.7906 143.4172 143.4172 143.6567 144.4536 144.4536 144.9243 145.0653
   145.0807 146.0619 146.0619 146.0923 146.0923 146.3033 147.9550 147.9550
   148.3760 148.7910 148.7910 148.8759 148.9007 149.0625 149.0625 149.5421
   149.5421 150.7949 151.6041 151.9074 152.1697 152.5607 152.5607 152.8210
   152.8323 152.8385 153.0184 153.8591 154.8602 155.0891 155.5471 155.5471
   156.2595 156.2595 156.5470 157.5281 157.5281 157.6216 157.6443 157.7049
   157.7049 158.3747 158.4682 158.4861 158.4861 159.2757 161.5615 161.9443
   161.9443 162.0736 162.1217 162.4568 162.4568 162.5065 164.4822 165.2572
   165.2572 165.2715 165.8731 165.8731 166.1337 166.1833 167.1698 169.5901
   169.5901 169.6795 169.9496 169.9496 170.0486 170.2876 170.3189 170.3347
   171.1967 171.8839 171.8839 171.9546 171.9546 172.0551 172.0551 172.1859
   172.6152 173.2446 173.2446 174.6696 175.0980 175.2200 175.8108 175.8246
   175.9450 176.4348 176.4348 176.5688 176.5688 176.9194 177.0321 177.4307
   178.4863 178.5862 178.9695 178.9695 179.4882 182.1449 182.1449 182.1630
   182.3159 182.3159 182.7484 183.6308 183.6512 186.8752 187.2105 187.2195
   187.2195 187.5370 187.8855 187.8855 188.2433 188.2433 188.6867 189.4097
   189.4298 189.4298 189.5719 189.7420 190.0148 190.1076 190.5106 190.5106
   190.6691 191.0350 191.0350 191.5303 192.0512 192.0512 192.1359 192.7292
   194.0992 194.9126 194.9126 195.0873 195.1421 195.3004 195.4328 195.4328
   195.6882 195.6882 195.6914 196.2484 196.4074 196.4251 196.4251 196.5283
   201.1715 201.1715 201.4631 201.4631 201.5326 201.8064 202.4305 203.0320
   203.1657 203.4409 203.4409 203.4489 203.4489 203.8103 205.3289 206.2394
   206.3617 206.3617 207.4414 207.6941 207.6941 207.8547 208.2533 208.3191
   208.8051 208.8051 208.8246 208.8700 208.9011 209.1581 209.1581 209.3460
   209.4584 209.4584 209.5800 209.6684 209.9567 210.0996 210.0996 210.5133
   210.5872 210.5872 210.6048 210.6981 213.0741 213.0741 213.0821 213.2558
   213.2694 213.2716 213.2929 213.2929 217.2657 217.2657 217.4791 218.2502
   218.6464 218.6464 219.2136 219.2279 221.9010 221.9125 222.4607 222.6192
   222.6192 222.7313 222.7313 222.7690 222.7997 222.8987 222.8987 222.9798
   223.0189 223.1553 223.1553 223.4775 228.7509 229.4339 229.7730 230.2406
   230.2406 230.4742 230.6556 230.6556 231.3223 231.3223 232.5062 233.1761
   233.4671 234.2605 234.2863 234.2863 234.3940 235.1467 235.1467 235.2538
   235.5647 235.5647 235.7796 236.7724 237.5495 237.5495 237.6075 238.1598
   238.6005 238.6745 238.7803 238.7803 238.8049 238.8789 239.2845 239.4433
   239.4433 239.7774 240.0163 240.2528 240.2528 240.3650 240.5046 240.8614
   240.8614 240.9213 241.1791 241.3798 241.3798 241.4319 241.8596 242.8273
   243.1588 243.1588 244.2149 244.3337 244.5496 244.5496 244.5869 244.5869
   244.7454 244.7537 248.9497 248.9584 248.9584 249.1470 249.1470 249.7287
   250.0935 250.3459 251.0605 251.0605 251.4326 251.5758 251.6265 251.7071
   252.0374 252.1793 252.1793 252.2771 252.2771 252.3529 252.3529 252.5836
   252.7263 252.7530 253.8162 253.8162 254.1036 254.1842 254.3060 254.3290
   254.3819 254.3819 254.7214 254.9532 254.9532 255.0508 255.3809 255.4392
   255.7172 255.7172 255.8970 255.8970 256.1431 256.1633 256.6621 256.6621
   256.7797 256.7797 260.4092 260.4887 260.4887 260.5501 260.6034 260.6537
   260.6537 260.6610 261.4935 262.2371 262.2371 262.6565 262.9662 262.9682
   264.8537 264.9127 265.2130 265.2130 266.1294 266.1529 266.5781 266.5781
   266.6436 266.6436 267.1553 267.2736 269.8088 269.8088 270.3662 270.4026
   270.4478 270.4875 270.4875 270.6412 270.6522 271.0730 271.0781 271.0781
   271.1623 271.1623 271.4391 271.4591 271.9133 271.9133 271.9288 272.0912
   272.2024 272.2024 272.2028 272.2158 274.0108 274.0773 274.1612 274.1612
   274.1894 274.1894 274.2638 274.3001 275.4970 275.4970 275.5433 275.7824
   279.5273 280.4365 280.6092 281.3916 281.5124 281.5124 281.7874 281.8786
   281.8786 282.1170 282.1366 282.5794 282.5794 282.6399 282.6399 282.6727
   283.2127 283.2127 285.4207 285.4349 286.6989 286.8336 286.8343 286.8343
   286.9765 287.2890 287.4019 287.4019 288.0882 288.1305 288.1305 288.2051
   288.2524 288.2555 288.2555 288.3196 288.3591 288.3591 288.4420 288.5183
   289.1827 289.1957 289.1961 289.1961 290.1261 290.1302 292.4840 292.4840
   292.4887 292.4887 293.8466 293.8501 294.9306 295.0071 295.0071 295.5059
   295.8557 296.0568 296.0568 296.2008 298.8916 298.9697 298.9697 299.0262
   299.3044 299.4833 299.4833 299.8946 300.0674 300.1526 300.1526 300.3017
   300.3561 300.8168 300.8168 301.1145 302.1490 302.1490 302.1892 302.2779
   302.2779 302.3113 302.3151 302.3181 302.4031 302.4187 302.4187 302.4650
   303.3418 303.6051 303.7837 303.7837 305.1985 305.3274 305.9629 305.9898
   305.9898 306.0210 306.3818 306.3818 306.4783 306.5776 307.1954 307.2456
   307.4226 307.4226 309.9276 310.5996 310.5996 310.6538 310.9278 311.0778
   311.7501 311.7501 314.8434 314.8434 314.9050 314.9070 314.9070 315.0570
   315.3236 315.3667 315.3667 315.3954 315.4028 315.4922 316.3328 316.3717
   316.3743 316.3743 318.9828 318.9828 319.1161 319.2080 319.2080 319.3328
   319.6179 319.6558 319.6558 319.6952 319.6970 319.7403 320.0267 320.0659
   320.0659 320.1023 321.9365 322.0209 322.0337 322.0337 324.0012 324.3116
   324.4270 324.4270 324.6883 324.6883 324.8407 325.3633 328.0892 328.0933
   328.0933 328.2329 328.7638 328.7638 329.3867 329.5246 329.5246 329.6113
   330.0179 330.4677 330.4741 330.4741 330.6041 330.6041 330.8567 330.9412
   332.3922 332.4123 332.4717 332.4717 333.2153 333.4042 333.7196 333.7196
   333.8458 333.8458 334.2889 334.3045 334.3069 334.3132 338.4954 338.5958
   338.5958 338.6187 338.7020 338.8020 338.8020 338.8736 339.2094 339.2396
   339.2396 339.2575 339.3139 339.3282 339.3282 339.3352 343.6262 343.6666
   343.6666 343.8223 343.8379 343.8379 343.8428 343.9327 345.1900 345.2109
   345.3771 345.3771 345.4010 345.4743 345.4743 345.5896 345.5973 345.5973
   345.8952 345.8952 346.0125 346.0531 346.2053 346.3181 346.4298 346.5368
   346.6559 346.8289 346.8289 346.9971 347.0345 347.1228 347.1228 347.2113
   347.2113 347.2663 347.4691 347.4691 347.5454 347.5618 347.6144 347.6990
   348.5706 348.5706 348.6733 348.6733 348.7028 348.9252 348.9339 348.9339
   348.9483 348.9491 348.9491 348.9574 348.9711 349.2105 349.3022 349.3099
   349.3357 349.4101 349.4101 349.4179 349.4179 349.4950 349.5676 349.5676
   349.5967 349.7510 349.8038 349.9142 349.9142 349.9601 352.6560 352.7070
   352.7070 352.7352 352.7624 352.7859 352.7859 352.8146 354.8007 354.8067
   354.9477 354.9477 354.9495 354.9495 355.0272 355.0317 363.0177 363.0342
   363.0342 363.0668 363.1096 363.1357 363.1357 363.1679 363.7672 363.7928
   363.7928 363.8159 363.9382 363.9385 363.9385 363.9611 366.2422 366.2422
   366.3440 366.3589 366.4406 366.4705 366.5193 366.5193 366.5681 366.5852
   366.5852 366.6567 366.6587 366.8171 366.8171 366.9029 367.0770 367.1228
   367.1228 367.1907 367.2970 367.3525 367.3525 367.3832 367.4613 367.5402
   367.5402 367.6558 367.8004 367.9289 367.9289 368.0053 373.9083 373.9438
   375.4928 375.4928 375.4935 375.4935 376.2538 376.3246 376.3531 376.3531
   376.5610 376.5721 377.0232 377.1223 377.1336 377.1336 377.1774 377.1931
   377.1931 377.1949 377.6119 377.6341 377.6341 377.6382 378.2141 378.3428
   378.3428 378.3814 380.5404 380.5952 380.9105 380.9105 380.9390 380.9390
   381.2063 381.2456 382.4912 382.6703 382.6703 382.7029 383.1910 383.2263
   384.8297 384.8297 384.8299 384.8362 384.8370 384.8378 384.8378 384.8401
   385.3579 385.4281 385.4281 385.5704 386.5317 386.5478 386.5478 386.5617
   386.5892 386.5967 386.5967 386.5976 390.7481 390.8277 391.0689 391.0689
   391.0746 391.0746 391.6153 391.6167 392.1137 392.1361 392.1361 392.1781
   393.9090 393.9360 393.9945 393.9945 394.0149 394.0149 394.7397 394.7788
   395.5768 395.5876 395.6306 395.6518 395.6518 395.6630 395.6630 395.6747
   396.4938 396.5549 396.5549 396.6662 396.7083 396.8331 396.8331 396.8855
   397.0118 397.0193 397.2829 397.2829 397.2852 397.2852 397.6489 397.6518
   397.9496 397.9878 397.9878 397.9908 398.6234 398.6234 398.6485 398.6485
   399.1431 399.1694 399.1694 399.2398 399.3568 399.3687 399.3687 399.3794
   403.5265 403.6479 403.6479 403.8195 404.7470 404.7475 406.3935 406.5322
   406.5322 406.6776 409.1131 409.1873 409.1873 409.2664 409.4319 409.4494
   409.4712 409.4712 409.5162 409.5825 409.5825 409.6632 409.7214 409.7607
   409.7607 409.7930 411.6828 411.6828 411.7655 411.8186 411.9755 412.0321
   412.0321 412.1073 412.9863 412.9971 413.0068 413.0068 413.4109 413.4433
   413.4433 413.4476 414.1869 414.1869 414.1873 414.1945 414.3382 414.3502
   414.3502 414.3850 414.4354 414.4944 414.4944 414.5198 414.5427 414.5692
   414.6115 414.6115 421.7359 421.7845 423.5249 423.5249 423.5321 423.5328
   423.6165 423.6165 423.6745 423.6800 423.7176 423.7176 423.7590 423.7863
   423.9388 423.9388 423.9447 423.9447 424.1197 424.1613 424.1849 424.1849
   426.5001 426.6001 426.6079 426.6079 426.6210 426.6257 426.6971 426.6971
   426.8457 426.8527 427.9864 427.9910 427.9910 428.0051 428.0100 428.0207

     the Fermi energy is     8.3852 ev
     (compare with:     8.3284 eV, computed in scf)

     Writing all to output data dir out/mp-2201.save/
 
     init_run     :      0.04s CPU      0.04s WALL (       1 calls)
     electrons    :    188.85s CPU    201.69s WALL (       1 calls)

     Called by init_run:
     wfcinit      :      0.00s CPU      0.00s WALL (       1 calls)
     potinit      :      0.01s CPU      0.01s WALL (       1 calls)
     hinit0       :      0.01s CPU      0.02s WALL (       1 calls)

     Called by electrons:
     c_bands      :    188.84s CPU    201.69s WALL (       1 calls)
     v_of_rho     :      0.01s CPU      0.01s WALL (       1 calls)

     Called by c_bands:
     init_us_2    :      0.00s CPU      0.00s WALL (       3 calls)
     init_us_2:cp :      0.00s CPU      0.00s WALL (       3 calls)
     paro_k       :    181.89s CPU    194.26s WALL (       3 calls)

     Called by paro_*:
     h_psi        :      4.05s CPU      4.24s WALL (     310 calls)
     g_psi        :      0.08s CPU      0.09s WALL (   29947 calls)

     Called by h_psi:
     h_psi:calbec :      0.13s CPU      0.14s WALL (     310 calls)
     vloc_psi     :      3.78s CPU      3.96s WALL (     310 calls)
     add_vuspsi   :      0.11s CPU      0.11s WALL (     310 calls)

     General routines
     calbec       :      0.13s CPU      0.14s WALL (     310 calls)
     fft          :      0.00s CPU      0.01s WALL (      10 calls)
     fftw         :      3.36s CPU      3.52s WALL (   49714 calls)
 
     Parallel routines
 
     PWSCF        :   3m 9.25s CPU   3m22.23s WALL

 
   This run was terminated on:  18:43:48   2Jan2024            

=------------------------------------------------------------------------------=
   JOB DONE.
=------------------------------------------------------------------------------=
