
     Program PWSCF v.7.1 starts on  2Jan2024 at 18:50:41 

     This program is part of the open-source Quantum ESPRESSO suite
     for quantum simulation of materials; please cite
         "P. Giannozzi et al., J. Phys.:Condens. Matter 21 395502 (2009);
         "P. Giannozzi et al., J. Phys.:Condens. Matter 29 465901 (2017);
         "P. Giannozzi et al., J. Chem. Phys. 152 154105 (2020);
          URL http://www.quantum-espresso.org", 
     in publications or presentations arising from this work. More details at
     http://www.quantum-espresso.org/quote

     Parallel version (MPI), running on     8 processors

     MPI processes distributed on     1 nodes
     123047 MiB available memory on the printing compute node when the environment starts
 
     Reading input from pw_mp-2201_nscf_k60_E51.in
Warning: card &IONS ignored
Warning: card / ignored
Warning: card &CELL ignored
Warning: card / ignored

     Current dimensions of program PWSCF are:
     Max number of different atomic species (ntypx) = 10
     Max number of k-points (npk) =  40000
     Max angular momentum in pseudopotentials (lmaxx) =  4

     Atomic positions and unit cell read from directory:
     out/mp-2201.save/
     Atomic positions from file used, from input discarded
 
 
     R & G space division:  proc/nbgrp/npool/nimage =       8
     Subspace diagonalization in iterative solution of the eigenvalue problem:
     one sub-group per band group will be used
     scalapack distributed-memory algorithm (size of sub-group:  2*  2 procs)

 
     Parallelization info
     --------------------
     sticks:   dense  smooth     PW     G-vecs:    dense   smooth      PW
     Min         119     119     35                 2448     2448     389
     Max         120     120     36                 2452     2452     391
     Sum         955     955    283                19603    19603    3119
 
     Using Slab Decomposition
 


     bravais-lattice index     =            2
     lattice parameter (alat)  =      11.6816  a.u.
     unit-cell volume          =     398.5191 (a.u.)^3
     number of atoms/cell      =            2
     number of atomic types    =            2
     number of electrons       =        20.00
     number of Kohn-Sham states=         1200
     kinetic-energy cutoff     =      51.0000  Ry
     charge density cutoff     =     204.0000  Ry
     Exchange-correlation= PBE
                           (   1   4   3   4   0   0   0)

     celldm(1)=  11.681619  celldm(2)=   0.000000  celldm(3)=   0.000000
     celldm(4)=   0.000000  celldm(5)=   0.000000  celldm(6)=   0.000000

     crystal axes: (cart. coord. in units of alat)
               a(1) = (  -0.500000   0.000000   0.500000 )  
               a(2) = (   0.000000   0.500000   0.500000 )  
               a(3) = (  -0.500000   0.500000   0.000000 )  

     reciprocal axes: (cart. coord. in units 2 pi/alat)
               b(1) = ( -1.000000 -1.000000  1.000000 )  
               b(2) = (  1.000000  1.000000  1.000000 )  
               b(3) = ( -1.000000  1.000000 -1.000000 )  


     PseudoPot. # 1 for Pb read from file:
     /usr/scratch4/magr4985/MG/HTDF/pseudo/SG15/Pb.upf
     MD5 check sum: 7f27c247474026287e0dbe0f3167d60b
     Pseudo is Norm-conserving, Zval = 14.0
     Generated using ONCVPSP code by D. R. Hamann
     Using radial grid of  602 points,  8 beta functions with: 
                l(1) =   0
                l(2) =   0
                l(3) =   1
                l(4) =   1
                l(5) =   2
                l(6) =   2
                l(7) =   3
                l(8) =   3

     PseudoPot. # 2 for Se read from file:
     /usr/scratch4/magr4985/MG/HTDF/pseudo/SG15/Se.upf
     MD5 check sum: e78e48a4f5d8ce1f8dc76ec1271f249c
     Pseudo is Norm-conserving, Zval =  6.0
     Generated using ONCVPSP code by D. R. Hamann
     Using radial grid of  602 points,  6 beta functions with: 
                l(1) =   0
                l(2) =   0
                l(3) =   1
                l(4) =   1
                l(5) =   2
                l(6) =   2

     atomic species   valence    mass     pseudopotential
        Pb            14.00   207.20000     Pb( 1.00)
        Se             6.00    78.96000     Se( 1.00)

     48 Sym. Ops., with inversion, found



   Cartesian axes

     site n.     atom                  positions (alat units)
         1           Pb  tau(   1) = (   0.0000000   0.0000000   0.0000000  )
         2           Se  tau(   2) = (  -0.5000000   0.5000000   0.5000000  )

     number of k points=     8  Gaussian smearing, width (Ry)=  0.0005
                       cart. coord. in units 2pi/alat
        k(    1) = (   0.0000000   0.0000000   0.0000000), wk =   0.0312500
        k(    2) = (  -0.2500000   0.2500000  -0.2500000), wk =   0.2500000
        k(    3) = (   0.5000000  -0.5000000   0.5000000), wk =   0.1250000
        k(    4) = (   0.0000000   0.5000000   0.0000000), wk =   0.1875000
        k(    5) = (   0.7500000  -0.2500000   0.7500000), wk =   0.7500000
        k(    6) = (   0.5000000   0.0000000   0.5000000), wk =   0.3750000
        k(    7) = (   0.0000000  -1.0000000   0.0000000), wk =   0.0937500
        k(    8) = (  -0.5000000  -1.0000000   0.0000000), wk =   0.1875000

     Dense  grid:    19603 G-vectors     FFT dimensions: (  40,  40,  40)

     Estimated max dynamical RAM per process >     101.29 MB

     Estimated total dynamical RAM >     810.30 MB

     The potential is recalculated from file :
     out/mp-2201.save/charge-density

     Starting wfcs are random

     Band Structure Calculation
     ParO style diagonalization

     ethr =  5.00E-06,  avg # of iterations =  6.2

     total cpu time spent up to now is      561.2 secs

     End of band structure calculation

          k = 0.0000 0.0000 0.0000 (  2445 PWs)   bands (ev):

    -8.5123  -8.5123  -8.5123  -8.5052  -8.5052  -5.0612   1.9325   6.5473
     6.5473   6.5473  12.9285  12.9285  12.9285  14.8784  14.8784  14.8784
    16.5008  16.5594  17.2923  17.2923  28.0228  28.0228  28.0228  29.2444
    29.2444  29.2444  30.9202  30.9202  30.9202  32.2522  32.2522  35.0738
    36.7194  36.7194  36.7194  37.5863  39.5525  39.5525  39.5525  40.9514
    40.9514  41.7888  41.7888  41.7888  42.9876  42.9876  42.9876  43.7386
    43.7386  43.7386  44.4988  46.8375  46.8375  46.8375  46.9630  46.9630
    46.9630  47.5987  47.5987  48.4119  50.0213  50.0213  50.0213  52.8679
    56.1317  56.1317  56.1317  58.3314  58.3314  58.3314  62.9573  62.9573
    63.5882  65.8118  69.4184  69.4184  69.4184  69.9574  69.9574  69.9574
    70.3881  70.3881  70.3881  71.7586  71.7586  72.6621  72.6621  72.6621
    74.6253  74.6253  74.6253  75.9642  75.9642  75.9642  76.0884  76.0884
    76.0884  77.2994  77.2994  77.3262  77.3262  77.3262  78.1957  78.1957
    78.8025  79.2793  79.2793  79.2793  80.1845  80.2336  80.6122  80.6122
    82.0483  82.0483  82.0483  83.3255  83.3255  83.3255  85.8033  85.9238
    85.9238  85.9238  91.6719  91.6719  91.6719  92.8304  92.8304  92.8304
    93.3439  93.3439  93.8950  93.8950  93.8950  94.1143  94.1143  94.1143
    94.7320  94.7611  94.7611  96.4042  96.4042  96.4042  97.3826  97.6767
    97.6767  97.6767  98.4087  98.4087  98.4087 101.7680 103.5440 103.5440
   103.5440 104.8402 104.8402 104.8402 104.9815 104.9815 104.9815 108.0385
   108.0385 108.0385 109.5349 109.5997 109.5997 109.6837 109.6837 109.6837
   109.7168 110.5860 110.5860 111.0888 111.0888 111.0888 111.4968 111.4968
   111.4968 118.7063 118.7063 118.7063 121.5077 121.5077 121.5077 122.1557
   122.4100 122.4100 123.6931 123.8004 123.8004 123.8004 126.0155 126.0155
   126.0155 129.6611 129.6611 129.9698 129.9698 129.9698 130.4001 131.9130
   132.4002 132.4002 132.4002 132.4941 132.4941 133.0203 133.0203 133.0203
   133.0809 133.0809 133.0809 133.5308 133.9507 133.9507 133.9507 134.8373
   135.7286 135.7286 135.7286 137.0749 137.1486 137.1486 137.7823 137.7823
   137.7823 138.4951 138.4951 138.4951 138.7625 138.7625 138.7625 139.1827
   139.1827 139.1827 139.4309 139.4309 139.4309 139.9025 139.9025 140.0324
   140.0324 140.0324 140.4670 140.4670 140.4670 140.6941 140.6941 140.6941
   140.8732 140.8732 140.9414 140.9414 140.9414 141.1105 141.1105 141.1252
   141.2910 141.2910 141.2910 149.0783 149.0783 149.0783 149.1953 149.1953
   149.1953 149.2470 149.2470 149.8398 149.8398 149.8398 151.1603 151.6516
   151.6516 151.6516 153.8563 153.8563 153.8563 156.4140 157.1401 157.1401
   157.1401 157.1540 157.1540 157.2806 158.4421 158.4421 158.4421 161.0002
   161.0002 161.0002 161.7289 165.0767 165.0767 166.5083 166.5083 166.5083
   167.4108 167.6610 167.6610 167.6610 167.7795 167.7795 167.7795 168.1583
   168.1583 168.1583 168.2021 168.2021 169.0202 169.0202 169.0202 170.1123
   170.1123 170.1123 170.1259 170.1259 170.1259 170.1431 170.1431 170.3273
   170.3273 170.3273 170.7300 170.7300 171.0004 171.2161 171.2161 171.2161
   172.4329 172.4329 172.4329 175.1569 175.1569 179.4964 179.4964 179.4964
   181.1250 182.1928 182.1928 182.1928 182.8257 184.9358 184.9358 184.9358
   185.5962 186.3645 186.3645 186.3645 187.4032 187.4032 187.4032 190.7261
   190.7261 191.4162 191.4162 191.4162 191.4793 191.4793 191.4793 191.6442
   192.8024 192.8024 192.8024 193.7790 193.7790 196.9060 196.9060 196.9060
   197.1979 197.1979 197.1979 197.5371 197.5371 197.5371 197.8202 197.8202
   197.8202 197.9932 197.9932 197.9932 198.7503 199.5732 200.9888 200.9888
   200.9888 201.0629 201.0629 201.0629 201.3862 201.3862 201.4417 201.4417
   201.4417 201.4467 201.4467 201.4950 201.4950 201.4950 202.2133 202.2133
   202.2133 202.3083 202.3083 202.3083 202.3274 204.0149 204.0149 204.0156
   204.0260 204.0260 204.0260 209.7194 211.6137 211.6137 211.6137 212.8983
   212.8983 212.8983 213.8507 215.4655 215.4655 215.4655 215.4931 215.4931
   215.7759 215.7759 215.8556 215.8556 215.8556 215.8558 215.8558 215.8558
   215.9408 215.9408 215.9408 218.1858 218.1858 218.1858 218.6573 218.6573
   219.4550 219.4550 219.6614 219.6614 219.6614 219.6703 219.6703 219.6703
   219.8178 219.8178 219.8178 219.8267 219.8267 219.8267 220.1226 220.1226
   220.4738 220.6005 220.6005 220.6005 220.9306 221.1708 221.1708 221.1708
   221.3571 221.3571 221.3571 221.5460 221.7071 221.7071 221.7071 222.4900
   222.4900 222.4900 222.5804 223.7496 223.7496 223.7496 225.5278 225.5278
   225.5278 226.0641 226.1373 226.1373 226.1470 226.1470 226.1470 226.2583
   226.2583 226.2583 226.5639 230.0507 230.0507 230.5446 230.5446 230.5446
   230.8172 230.8172 230.8172 230.9008 230.9008 230.9008 231.2911 231.2911
   231.2911 231.3067 231.3067 231.7003 231.9655 231.9655 231.9655 231.9912
   231.9912 233.4866 233.4866 233.4866 233.5874 233.5874 233.5874 233.7015
   233.7015 233.7015 233.8101 233.8101 233.8101 234.8221 234.8960 234.8960
   234.8960 234.9116 234.9116 236.0054 236.0054 239.3166 239.3166 239.3166
   240.9515 255.7562 255.7562 255.7562 256.0082 256.0082 256.0082 256.6292
   257.1113 258.9793 258.9793 258.9793 259.0844 259.0844 259.2111 259.2111
   259.2111 259.3958 259.3958 259.3958 259.6338 259.6338 259.6338 260.2519
   260.2519 260.2519 260.4696 260.4696 260.7533 260.7533 260.9485 261.1769
   261.1769 261.1769 261.3223 261.9221 261.9221 261.9221 262.0186 262.0186
   262.0186 262.0214 262.0214 262.0214 262.4773 262.4773 262.4773 262.6738
   262.9078 262.9078 262.9078 266.0381 266.0381 266.1198 266.1198 266.1198
   266.2213 266.2213 266.2213 266.2905 266.2905 266.2905 266.3155 266.3155
   266.3841 266.3841 266.3841 267.2322 267.2322 267.2856 267.2856 267.2856
   267.3859 275.2410 275.2410 275.2410 275.2674 275.2674 275.3120 275.3120
   275.3120 275.4195 275.4195 275.4195 275.9396 280.0599 280.1495 280.1495
   280.1495 280.2115 280.2115 280.8559 280.8559 280.8559 281.1282 281.1282
   281.1282 281.1561 281.1561 281.1561 281.2031 281.2031 281.2031 281.4241
   281.4241 281.4241 281.4692 281.4692 281.5702 281.6624 281.6624 281.6624
   282.2149 282.2149 282.9379 282.9379 282.9379 284.2789 284.3859 284.3859
   284.3859 289.5334 289.6989 289.6989 289.9583 289.9583 289.9583 290.0233
   290.0233 290.0233 290.0437 290.0437 290.0437 290.1036 290.1036 290.1036
   290.2002 290.7230 290.7230 290.7230 291.3014 294.6668 294.6668 294.6898
   294.6898 294.6898 294.8047 294.8047 294.8047 294.8249 294.8249 294.8249
   294.9032 295.6748 295.6748 295.6748 295.8770 295.8770 295.8770 295.8824
   295.8824 295.9025 295.9025 295.9025 295.9255 296.5979 296.5979 296.5979
   296.8215 296.8215 296.9177 296.9177 296.9177 297.0565 297.0565 297.0894
   297.0894 297.0894 297.1078 297.1148 297.1148 297.1148 297.1608 297.1778
   297.1778 297.1778 297.2012 297.2012 297.2012 304.3884 304.3884 304.8171
   304.8171 304.8171 305.6813 308.9143 308.9143 308.9143 309.0463 309.0463
   309.0463 309.0567 309.0567 309.0567 309.1126 309.1126 309.1126 309.6834
   309.6834 309.8133 309.8959 309.8959 309.8959 310.0167 310.0167 311.3926
   311.6081 311.6081 311.6081 317.6377 317.6377 317.6377 317.7126 318.3780
   318.3780 318.3780 318.9219 321.1082 321.1082 321.1082 321.1256 321.1256
   321.1256 321.1439 321.1439 321.1439 321.2621 321.2621 321.4902 321.4902
   321.5027 321.5027 321.5027 323.4803 323.4803 323.4803 323.5192 323.5192
   323.5192 323.5479 323.5479 323.5479 323.5737 323.5737 323.5737 325.5173
   325.5173 325.5173 325.5490 325.5490 325.6968 325.6968 325.7065 325.7065
   325.7065 325.7140 325.7313 325.7313 325.7313 325.7393 325.7393 325.7393
   325.7555 325.7555 325.7555 325.8665 325.8665 326.0802 326.0802 326.0802
   326.5251 326.5251 326.5251 326.5275 326.5275 326.5275 326.5288 326.5288
   326.5288 326.7107 326.7107 327.0534 327.1132 327.1132 327.1132 327.1472
   327.2053 327.2053 327.2053 327.2425 327.2425 327.2425 327.2592 329.5980
   329.5980 329.6247 329.6247 329.6247 329.6990 329.9919 329.9960 329.9960
   329.9960 329.9981 329.9981 330.0194 330.0194 330.0194 330.0911 330.0911
   330.0911 330.1208 330.1208 330.1208 330.1776 330.1776 330.1776 330.3772
   330.3772 330.4580 330.4580 330.4580 330.5384 338.2800 338.2800 338.2800
   338.5222 338.5664 338.5664 338.5664 338.6099 344.9230 344.9230 344.9661
   344.9661 344.9661 345.0252 345.0252 345.0252 345.0280 345.0280 345.0280
   345.1050 345.1050 345.1050 345.1288 345.1288 346.7634 346.7634 347.1397
   347.1397 347.1397 347.3263 349.2311 349.2311 349.2311 349.3905 349.3905
   349.3905 349.4128 349.4128 349.4128 349.4173 349.4173 349.4173 352.1914
   352.1914 352.2290 352.2290 352.2290 352.3091 356.9734 356.9734 356.9775
   356.9775 356.9775 356.9787 359.3777 359.3777 359.3777 359.3787 359.3787
   359.3787 359.3854 359.3854 359.3854 359.3906 359.3906 359.3906 360.7454
   360.7454 360.7510 360.7510 360.7510 360.7586 372.3380 372.3521 372.3521
   372.3521 372.6869 372.6869 372.6869 373.3745 373.6745 373.6745 373.8665
   373.8665 373.8665 374.1805 374.1805 374.1805 374.2857 374.2857 374.2857
   374.3629 374.3629 374.3629 374.4868 374.4868 377.8284 377.8284 377.8342
   377.8342 377.8342 378.0241 378.0241 378.0241 378.2619 378.2619 378.2619
   378.4879 380.6885 380.6885 380.7249 380.8746 380.8746 380.8746 381.1633
   381.2887 381.2887 381.2887 381.8063 381.8063 381.8063 382.3080 384.9478
   384.9478 384.9478 385.0215 385.0215 385.0215 385.2612 385.2612 385.3752
   385.3752 385.3752 385.4839 385.4839 385.4839 385.5948 385.8309 385.8309
   385.8309 385.8749 385.8749 386.0751 386.0751 386.0751 386.2203 386.2203
   386.2203 386.3634 386.3634 386.9845 386.9977 386.9977 386.9977 387.3278
   387.3278 387.3278 387.5689 388.7171 388.7171 388.7171 388.7419 388.7419
   388.8254 388.8254 388.8254 388.8278 388.8278 388.8278 388.8580 388.8580
   388.8580 388.9377 388.9377 390.3236 390.3236 390.3280 390.3280 390.3280
   390.3495 390.3495 390.3495 390.3616 390.3621 390.3621 390.3621 390.7395
   390.8120 390.8120 390.8120 390.8988 390.8988 390.8988 390.9188 390.9188
   390.9239 390.9239 390.9239 402.6252 402.6252 402.6252 402.6280 402.6280
   402.7460 402.8807 402.8807 402.8807 402.8824 402.8824 402.8824 402.8863
   402.8863 402.8863 402.9085 402.9085 402.9085 403.7241 403.9296 403.9296
   403.9296 404.0312 404.0312 404.0312 404.0892 404.0892 404.1138 404.1138
   404.1138 405.6572 405.6572 405.7052 405.7137 405.7137 405.7137 405.7479
   405.7479 405.7479 405.8145 405.8145 405.8145 408.1441 408.1441 408.1441
   408.1523 408.1523 408.1523 408.1564 408.1564 408.1905 408.1905 408.1905
   408.2277 408.4802 408.6304 408.6304 408.6304 408.6652 408.6652 408.8238
   408.8238 408.8238 408.8756 408.8756 408.8756 409.1157 409.1157 409.1969
   409.1969 409.1969 409.2788 412.5671 412.5671 412.5671 412.7242 412.7242
   412.7242 412.7610 412.7610 412.7610 412.7983 412.7983 412.8534 412.8534
   412.8534 412.8848 412.8848 412.8848 412.8880 412.9381 412.9381 412.9702
   412.9702 412.9702 413.0221 416.4947 416.8017 416.8017 416.8017 417.1111
   417.1111 417.1111 417.5631 417.5631 417.5991 417.5991 417.5991 417.8708
   418.2454 418.2454 418.2454 418.4091 418.4091 418.4091 418.5557 418.5557
   418.5557 418.5844 418.5844 421.2378 421.2378 421.3093 421.3093 421.3093
   421.3536 421.4302 421.4302 421.4302 421.4594 421.4715 421.4715 421.4715

          k =-0.2500 0.2500-0.2500 (  2463 PWs)   bands (ev):

    -8.5173  -8.5173  -8.5105  -8.4961  -8.4961  -4.6432   0.7842   6.7009
     6.7009   7.2946  10.4562  11.2149  11.2149  14.8708  16.0617  16.0617
    19.3611  20.1100  20.1100  20.5244  24.0565  24.1754  24.1754  28.9494
    28.9494  29.7951  31.2257  31.2257  31.6106  33.4106  33.4106  33.4881
    35.9673  36.1370  36.1370  36.5341  36.8587  36.8587  36.8958  39.6285
    39.6679  39.6679  40.9669  41.6118  41.6118  43.0930  43.9166  43.9166
    46.4925  46.4925  46.5799  46.9626  46.9626  47.9826  47.9826  48.0257
    48.9456  50.8865  50.8865  51.7974  54.8319  54.8640  54.8640  55.5811
    55.8433  55.8433  58.1300  58.1723  58.1723  58.7841  60.6132  60.6132
    61.6890  62.4658  62.4658  63.2595  65.7218  65.7218  66.6898  66.8504
    67.8393  67.8393  69.8329  70.8742  70.8742  71.0864  71.9355  71.9523
    71.9523  72.5589  73.7549  73.7549  76.0694  76.0694  76.5098  76.6866
    76.6866  77.4111  77.4111  78.3399  78.6099  79.0071  79.0071  79.3573
    79.3573  79.6417  80.3368  80.3368  80.6728  82.5804  82.5804  83.7250
    84.7068  85.8967  86.3449  86.3449  86.5539  86.9194  86.9194  87.6928
    87.6928  88.5158  89.2105  89.2105  89.7285  89.7285  90.6748  90.6888
    90.8440  90.8440  92.1892  92.5275  93.0665  93.0665  93.5346  94.9265
    95.1067  95.1067  96.9722  96.9722  97.4438  97.9026  97.9026  98.9340
    99.1581  99.1581 100.0025 100.7722 100.7722 101.2693 102.3590 102.7684
   102.7684 103.2035 103.2035 105.0930 106.7504 106.7504 106.8440 106.8440
   107.3873 108.5335 109.1687 109.1687 109.2248 110.4433 110.4433 111.6876
   113.2607 113.2607 113.5844 113.5844 114.9336 115.1359 116.9978 117.0557
   117.0557 117.9648 117.9648 118.4812 118.4867 119.2030 120.6250 120.6250
   120.9017 121.5529 121.5529 121.7274 122.1426 122.2436 122.2436 122.6614
   122.6614 123.1008 123.6320 123.6320 124.7784 124.7784 125.5740 125.5740
   126.1934 126.2940 127.8075 127.8075 128.1020 129.5632 130.4801 130.4801
   132.3629 132.3629 132.4687 133.3739 133.3739 133.6233 134.3427 134.3427
   134.4203 135.1495 135.5015 135.5015 135.7605 135.7605 136.3395 136.3945
   136.3945 137.1405 137.1405 137.3383 137.4811 137.6637 137.6637 137.7120
   138.5651 138.5651 139.1145 139.4723 139.7190 139.7190 141.2696 142.9084
   142.9084 142.9232 143.1585 143.1585 143.7455 143.9235 144.4692 144.5855
   144.5855 144.7408 144.7408 145.3841 145.3841 145.8985 146.8207 146.8207
   147.7403 148.0291 148.0291 148.1609 148.1609 149.6128 150.2991 150.6521
   151.5740 151.5740 152.0316 152.1539 152.1539 152.2650 152.2650 152.9108
   154.2614 154.2614 154.6447 156.8711 156.8711 157.8831 157.8831 157.9317
   158.0263 158.4878 158.6615 158.6615 159.2714 159.2714 159.5615 159.6556
   159.6556 159.7508 160.8158 160.8158 161.4144 161.4469 161.6862 161.6862
   162.7050 162.7050 163.7487 164.9801 164.9801 165.3923 165.6640 165.6640
   166.2715 166.6943 166.6943 167.6353 167.6353 167.9245 169.4053 169.7969
   169.7969 170.9470 171.0460 171.0460 171.4368 173.5305 173.5305 174.5302
   174.5691 174.5691 175.3599 175.5644 175.5644 177.1673 177.4890 178.0388
   178.0388 178.0871 178.3165 178.3165 181.2999 181.9564 181.9564 182.0902
   182.1014 182.1014 182.2792 182.4896 182.4896 182.7764 182.9369 183.3528
   183.3528 183.3968 183.4542 183.4542 183.8333 184.2675 184.2675 187.6500
   187.6500 188.0881 188.9396 189.0779 189.4987 189.4987 190.2236 190.5085
   190.5085 190.8045 190.8045 190.9581 191.5239 191.5239 191.8167 192.2991
   192.2991 192.6503 192.9101 192.9101 192.9290 192.9290 193.8486 194.0285
   194.0285 195.2595 195.2595 196.5372 197.1044 197.1044 198.3204 198.4903
   199.7931 199.7931 200.2707 200.7547 200.7547 201.5813 202.2187 202.2187
   202.4657 202.4657 202.4923 203.0287 203.5600 203.5600 203.8079 203.8079
   203.8561 204.2069 204.5329 204.5329 204.6777 204.8499 204.8499 206.2699
   206.7366 206.7366 207.4469 207.4469 207.5272 209.4687 210.1627 210.2804
   210.2804 210.9349 210.9349 210.9903 211.1176 211.1306 211.1306 211.6866
   211.6866 211.8072 212.5428 212.5428 212.8252 212.9454 212.9454 213.8336
   213.8336 213.9924 214.3410 214.9349 214.9349 215.1325 215.6763 215.7235
   215.7235 216.5280 216.5280 216.5729 217.4668 217.4668 217.5485 217.7665
   217.7665 217.9986 219.2389 219.4988 219.4988 219.6608 219.7758 219.7758
   220.9179 220.9179 220.9319 221.4837 221.4837 221.6497 221.9180 221.9180
   222.0066 222.1749 222.1749 222.3860 222.9331 222.9331 224.4825 224.6839
   224.6839 224.7960 225.7584 225.7584 225.7793 225.7816 226.0668 226.0668
   226.2830 226.2982 226.2982 227.7870 227.7870 227.8193 230.0493 230.0493
   230.0983 230.6631 230.6631 230.6646 231.7351 233.0088 233.3200 233.3200
   233.3235 234.2633 234.2633 235.5562 235.5562 235.6634 236.4131 236.4131
   236.5207 236.7161 237.5087 237.5087 237.6980 239.0496 239.0496 239.3350
   239.3350 240.4075 240.4075 240.7191 241.4229 241.4229 241.9769 242.4577
   242.5334 242.5334 243.0514 243.0514 243.3311 243.3311 243.3314 243.7971
   243.7971 243.9773 244.3939 244.3939 244.5448 245.3858 245.6092 246.0139
   246.0139 246.0552 246.4951 246.4951 247.3840 247.3840 247.7992 248.7107
   248.7107 249.0621 249.3941 249.3941 249.4468 249.6816 252.4897 252.4897
   252.8036 252.8036 253.0033 253.6607 253.7006 253.9006 253.9006 254.0517
   254.0517 255.1341 255.1341 255.2445 255.2445 255.3293 255.3564 256.0959
   257.6423 257.6423 258.3560 258.4923 258.4923 258.7663 258.7663 258.8441
   259.2939 259.2939 260.0893 261.2878 261.2878 261.2895 262.5949 263.1830
   263.1830 263.3196 265.5785 265.5785 265.7080 265.7080 265.8662 265.9163
   266.2778 266.3454 266.3454 266.8267 266.8267 267.1211 269.5987 269.9076
   269.9076 271.9265 271.9907 271.9907 272.5875 272.7626 272.7626 272.9221
   272.9221 273.2339 273.3330 273.3330 273.3377 274.7354 274.7354 274.7681
   274.7805 275.0724 275.0724 275.7601 275.7601 276.0678 276.2055 276.2055
   276.4493 276.4938 276.4938 276.8155 277.0172 277.0172 277.1248 277.2170
   277.2170 277.2304 278.8548 278.8548 279.0490 280.2789 280.2998 280.2998
   280.5594 280.5594 280.9191 281.7061 282.0376 282.0376 282.5654 282.8654
   282.8654 284.5932 284.5932 284.8233 285.0531 285.3775 285.3775 285.5644
   286.6435 286.7106 286.7106 286.9195 286.9195 288.4332 289.5685 289.5685
   289.7096 289.8274 289.8274 290.0179 290.9736 291.6389 291.6389 291.7385
   291.8949 291.9180 291.9180 292.7903 292.7903 292.8270 293.0157 293.0157
   293.0812 293.0812 293.0936 293.3621 293.3621 293.4552 293.5395 293.6262
   293.6262 294.2743 294.2743 296.9954 296.9954 297.1170 297.1493 297.1493
   297.5009 297.5009 297.8256 298.4844 298.9178 299.3254 299.3254 299.5292
   299.6169 299.6169 299.8026 299.8026 299.9290 300.3066 300.3066 300.4321
   301.0711 301.0711 301.1197 301.1776 301.1776 301.2611 302.0360 302.0360
   302.1971 302.2457 302.2457 302.3973 302.6547 302.6547 302.7506 303.3564
   303.3564 303.4730 303.7726 303.7726 303.8241 305.0732 305.0732 305.1610
   306.2154 306.2265 306.3351 306.3351 306.5275 306.5275 306.9688 306.9688
   307.4511 307.7841 307.7841 308.1179 308.1329 308.7837 308.7837 308.8406
   308.9169 308.9169 309.0729 313.6599 313.6599 313.7780 313.7780 313.8014
   313.8037 314.0406 314.0406 314.0514 314.3729 314.3729 314.7924 314.7924
   314.8274 316.5738 316.5778 316.5778 316.9535 316.9535 317.0058 317.6248
   317.6453 317.6453 317.6671 317.6671 317.7325 318.1063 318.1063 318.1210
   318.2721 319.2828 319.2828 321.0653 321.0682 321.0682 321.4456 321.4588
   321.4588 321.5503 321.9010 321.9010 321.9965 324.2738 324.3629 324.3629
   324.4041 324.4041 324.5649 324.5649 324.7279 324.7786 324.7809 324.7809
   324.8455 325.1893 325.1893 325.7303 326.2913 326.2913 326.4905 326.6860
   326.6879 326.6879 327.6440 327.6440 327.6616 328.0350 328.0350 328.1572
   330.8123 330.8125 330.8125 332.4691 332.4691 332.8176 333.0274 333.1784
   333.1784 334.1907 334.1907 334.3323 334.4542 334.4542 334.5742 334.7393
   334.7393 334.7580 334.8965 334.8965 334.9141 335.2877 335.2877 335.2997
   336.2403 336.2619 336.2619 337.9940 337.9940 338.0334 338.3210 338.3453
   338.3453 339.4157 339.4157 339.5953 339.7167 339.8339 339.8339 339.8710
   339.9854 339.9854 341.1350 341.1350 341.2689 341.5395 341.5397 341.5397
   342.0379 342.3110 342.3110 342.3789 343.5970 343.5970 344.4124 344.4124
   344.4280 346.9940 346.9940 346.9942 347.7270 348.0785 348.0785 348.1989
   348.3221 349.0379 349.0379 349.2291 349.3546 349.3546 349.4307 349.4647
   349.4647 349.6564 349.7374 349.7374 349.7527 350.2247 350.2247 351.4573
   351.4573 351.5980 353.6808 353.6808 353.6830 354.6298 354.6298 354.6299
   355.0986 355.0986 355.9372 355.9372 357.3585 357.4662 357.5662 357.5662
   358.0293 358.0293 358.1417 358.1417 358.2607 358.3375 359.1996 359.1996
   359.2890 359.4389 359.4389 359.5305 359.9574 359.9574 360.0379 360.2608
   360.2608 360.2717 362.0071 362.0071 362.2906 363.3848 363.3848 363.3848
   363.7808 363.7808 363.8168 363.8767 364.0826 364.0826 367.8915 367.8915
   368.1125 369.0082 369.2639 369.2639 370.2059 370.2059 370.2848 370.5018
   370.7653 370.7653 370.8858 371.6490 371.6490 371.6522 373.6505 373.6505
   373.7017 374.1475 374.1823 374.1823 374.2231 374.5024 374.5024 374.9510
   374.9510 375.0902 375.1821 375.1821 375.2249 375.2815 375.3321 375.3321
   377.2527 377.2527 377.8152 377.8152 377.8747 377.9868 378.0296 378.0296
   378.2916 378.2916 378.3969 380.3271 380.3529 380.3529 381.0664 381.1353
   381.1353 381.3550 381.3550 381.8939 381.8939 381.9066 381.9443 382.0797
   382.4743 382.4743 382.4790 382.6127 382.6127 383.5866 384.1221 384.2177
   384.2177 384.3398 384.3400 384.3400 384.4590 384.4590 385.1603 385.1603
   385.1818 385.2993 385.2993 385.3779 386.1763 386.1763 386.2720 386.4891
   387.1131 387.1131 387.5277 387.5587 387.5587 387.5780 389.0066 389.0066
   389.0350 390.4380 390.4380 390.4566 391.4570 391.4750 391.4750 391.5427
   391.5427 391.5657 391.7654 391.7694 391.7694 392.1776 392.2298 392.2298
   392.5059 392.5059 392.5376 393.3346 393.3442 393.3442 394.1150 394.1259
   394.1259 394.7743 394.8426 394.8426 395.4623 395.4623 395.5650 396.5832
   396.5832 396.5950 397.7661 397.7661 397.7662 399.1709 399.1709 399.1726
   399.3690 399.3690 399.4173 399.4186 399.4731 399.4731 401.0031 401.0031
   401.2227 402.1216 402.3240 402.3240 403.6219 403.6219 403.6503 403.8179
   403.8300 403.8300 404.1416 404.6686 404.6686 404.9135 404.9184 404.9184
   405.2575 405.2891 405.2891 405.3324 405.5365 405.6525 405.6525 405.7704
   405.7704 407.0818 407.1317 407.1317 407.2423 407.2423 407.2797 407.3255
   407.3255 407.7302 407.8925 407.8925 407.9196 408.2124 408.2278 408.2278
   409.6245 409.6307 409.6307 411.5017 411.5017 411.5213 411.8570 412.7913
   412.8318 412.8318 413.0629 413.0996 413.0996 413.2294 413.2548 413.2548
   413.8348 413.8348 414.8396 415.0729 415.0730 415.0730 415.0840 415.0840
   415.0882 415.6725 415.6725 415.6836 415.6904 415.7086 415.7086 416.1381
   416.1381 416.3794 417.2592 417.2592 417.6160 418.8811 418.8848 418.8848
   418.9518 418.9518 418.9600 419.1246 419.1246 419.1798 419.2239 419.2239
   419.2261 420.3053 420.3073 420.3073 420.7198 420.7198 422.0810 422.1058
   422.1058 422.3306 422.6136 422.6427 422.6427 422.6741 422.6741 423.4663
   423.4938 423.4938 424.0714 424.0714 424.1680 424.4188 424.4448 424.4448

          k = 0.5000-0.5000 0.5000 (  2452 PWs)   bands (ev):

    -8.5276  -8.5276  -8.5091  -8.4817  -8.4817  -4.0655  -0.3529   6.9372
     6.9372   8.2695   8.6469  10.0418  10.0418  16.8129  18.4003  18.4825
    18.4825  20.0604  20.0604  24.2394  24.2394  25.7313  26.2190  26.9739
    26.9739  27.0918  30.2857  30.6570  31.5024  31.5024  31.6167  32.3008
    32.3008  33.5629  33.5629  34.3942  36.9023  36.9023  37.3823  37.7363
    40.8290  40.8290  42.0808  42.0808  42.7782  43.7657  43.7657  45.4493
    48.3750  48.9535  48.9535  49.1701  49.1701  49.3516  51.5747  51.5747
    51.6114  51.6114  52.6501  52.7372  54.1840  54.1840  54.5688  56.2544
    56.2544  57.0042  57.7956  57.8851  57.8851  58.0342  58.0342  60.3439
    62.2796  62.2796  62.4012  62.5276  62.5592  63.8153  63.8153  66.2278
    66.2278  67.2044  67.6970  67.6970  68.0683  69.7264  69.8083  70.3269
    70.3269  71.6871  71.6871  72.0237  73.5359  73.5359  74.8422  74.8422
    76.4946  78.9387  79.4637  79.4637  79.9462  80.7720  80.8443  80.8443
    81.4859  81.4859  81.5074  81.8659  82.1713  82.1713  83.3548  83.3548
    83.4768  83.4768  83.8764  84.6346  84.6676  86.2780  87.0025  87.0025
    89.1525  89.1525  89.1758  91.0581  91.6377  91.6377  91.9743  91.9743
    94.1090  94.1090  94.3724  94.3724  94.4146  95.9407  95.9407  96.1597
    96.2323  96.5935  96.5935  96.6352  98.0069  98.0069  98.1979  98.5615
   100.3254 100.3254 101.6286 101.6923 101.6923 102.5030 102.8841 102.8841
   104.3128 104.4754 104.4754 105.3015 105.3015 106.5291 106.9432 106.9432
   107.0122 107.0122 107.0933 108.7522 110.4696 111.5622 111.7653 111.7653
   112.6308 112.6320 112.6320 112.7505 112.7505 112.9318 112.9792 114.5929
   114.5929 114.7775 117.1240 117.1240 117.8743 119.1390 119.5862 119.5862
   120.3664 120.4953 120.4953 122.6217 122.6709 122.6709 123.2555 123.2555
   124.0604 124.0604 124.7483 125.3042 125.3042 125.4048 125.6007 126.2022
   126.2022 126.4428 126.4428 126.4573 126.6995 127.8412 127.9497 127.9497
   127.9972 127.9972 128.7311 131.6454 132.2925 132.2925 132.6119 133.2164
   133.2164 133.3776 134.5646 134.5646 134.5950 134.5950 135.6305 135.6305
   135.9446 136.0003 136.0003 136.0326 136.1400 137.1669 137.1669 137.9438
   137.9438 138.1257 139.4491 139.4491 139.9447 140.2511 140.2616 140.2616
   140.7682 141.6571 143.5019 143.5019 144.2695 144.2695 144.4321 145.6689
   145.6689 145.7957 147.1696 148.0540 148.0540 149.8404 150.2946 150.2946
   150.4042 150.4042 150.6999 150.8053 150.8610 150.8610 151.0296 151.2366
   151.4565 151.6517 151.6517 151.6810 151.6810 152.3131 152.3693 152.3693
   153.9124 153.9124 153.9564 153.9564 153.9895 156.8460 156.8460 157.8664
   157.8664 158.6843 160.4095 160.4425 164.1198 164.1221 164.1221 164.1427
   164.1427 165.1948 165.4674 165.4674 165.5528 165.5795 165.5795 165.6762
   165.7206 165.9159 165.9159 166.3579 166.3845 166.3845 167.4098 167.7673
   169.3204 169.3204 169.4430 170.2288 170.2288 170.3352 170.5231 171.4713
   171.4713 171.7239 172.2058 172.2058 172.3964 172.3964 172.4698 172.5184
   172.5184 173.0727 173.2365 173.2365 173.3603 173.3603 175.2728 175.4690
   176.1098 176.1098 176.1281 176.1281 177.3644 177.3646 180.5650 180.5650
   180.7549 180.7549 182.5354 182.7493 182.8468 182.8468 183.0664 183.0664
   184.2303 184.2511 184.2511 184.4268 184.4268 184.9433 184.9433 185.4407
   185.7354 186.4402 186.4402 186.9459 187.3581 187.3581 187.4396 187.4546
   187.4546 187.7205 188.3742 188.4568 188.4568 189.3044 189.3664 189.3664
   189.4482 191.6322 191.6322 191.7656 191.7656 191.9041 191.9726 191.9726
   191.9902 192.9609 193.7141 193.7141 196.5282 196.8447 196.8447 197.0967
   197.0967 197.1228 197.5679 197.5679 197.7597 197.7597 197.9306 198.4618
   202.4792 202.7898 202.7959 202.7959 202.9383 202.9383 204.1351 204.1351
   204.2379 204.4000 204.6005 204.6005 204.8370 204.8370 205.4366 205.6202
   205.7094 205.8995 205.8995 206.4252 206.4252 206.8668 206.9914 207.3326
   207.3326 207.6789 208.7072 208.7072 208.8129 209.5907 209.5907 209.8017
   210.0582 210.2115 210.2115 210.5492 211.3978 211.3978 212.3669 212.3669
   212.7728 212.7728 213.2686 213.9567 213.9567 214.1888 214.1888 214.4201
   217.2374 217.7134 217.7134 217.8628 217.8671 217.8671 219.7413 219.7890
   219.7890 220.2590 220.3573 220.3573 222.0439 222.0943 222.2371 222.2371
   222.2476 222.2476 223.3013 223.3820 223.3820 223.5295 223.5295 223.6112
   224.9166 224.9166 225.5437 225.7020 225.7020 225.7248 226.5708 226.5708
   226.7336 226.7336 227.2049 227.6682 230.5264 230.5773 230.9479 230.9479
   231.0515 231.0515 232.7400 232.7400 233.2167 234.3499 234.4320 234.4320
   234.8744 235.6964 235.6964 235.7704 235.8299 235.8299 235.8743 236.1122
   236.6093 236.6093 237.2188 237.2188 237.3666 237.6303 237.8366 237.8366
   237.8883 237.9925 237.9925 238.5648 238.8468 238.8468 239.3049 239.3049
   239.3255 239.3255 239.8181 239.9904 240.1297 241.0807 241.0807 241.1212
   242.5748 242.9196 243.2769 243.2769 243.4551 243.4551 243.7839 243.7839
   243.8143 243.8143 244.1098 244.1779 244.7587 245.0902 245.1824 245.1824
   245.1875 245.1875 245.5946 245.5946 245.6830 245.7349 245.7349 245.8840
   251.2743 251.3463 251.4177 251.4177 251.5738 251.5738 252.4657 252.4657
   252.7222 252.7222 252.8859 253.0512 253.1726 253.1726 253.2163 253.2751
   253.3659 253.3659 254.6936 254.6936 254.7407 254.7407 254.7567 254.8046
   258.9206 258.9206 259.1006 259.1172 259.1172 259.1424 259.1962 259.1962
   259.6008 259.6278 259.6985 259.6985 261.2886 261.6645 262.8379 262.8379
   262.9111 262.9111 264.2571 265.2141 265.2141 265.2198 265.2489 265.2489
   265.2609 265.5300 265.9600 265.9600 266.4183 266.4183 266.5105 266.5105
   266.7996 266.9629 267.0640 267.0640 269.5395 269.5395 269.7729 269.7729
   270.2334 270.2334 271.2446 271.2455 272.7610 272.7610 272.8633 272.9099
   272.9099 273.0374 273.1844 273.7554 273.8576 273.8576 273.9871 274.8317
   275.0343 275.0343 275.1193 275.1373 275.1373 276.1672 276.1672 277.0764
   277.0764 277.7592 278.4037 278.4037 278.4057 278.4057 278.5272 278.5332
   279.0053 279.3942 280.0613 280.0613 280.7206 280.8053 281.5155 281.5155
   285.1892 285.1892 285.2032 285.2032 287.4796 287.4796 287.5063 287.5063
   287.6309 288.2953 288.9371 289.0499 289.0499 289.0551 289.0551 289.0576
   289.3539 289.4297 289.8680 289.8680 290.1374 290.1374 290.7016 290.7016
   291.2563 291.2563 291.3604 291.3604 291.5214 291.5773 291.7711 291.9343
   291.9343 291.9961 292.0130 292.0474 292.0474 292.1062 292.1062 292.1328
   292.3836 292.3836 292.3968 292.4598 292.4598 292.4649 292.9411 293.0319
   293.0319 293.1134 293.1134 293.2728 295.9675 295.9675 296.2790 296.3779
   296.3779 296.4034 296.5564 296.8389 296.8389 297.0773 297.0773 297.1447
   300.6463 300.7470 300.7470 300.8195 300.8195 300.8306 302.1726 302.1726
   302.4124 302.6004 302.6004 302.7175 305.8314 305.8314 306.0015 306.0015
   306.0174 306.1272 306.2564 306.3462 306.3462 306.6181 306.6181 306.8284
   306.9661 307.0092 307.0092 307.1902 307.1902 307.2518 308.3408 308.3408
   308.4892 308.4892 308.5080 308.5086 308.5719 308.5719 308.5842 308.6044
   308.6483 308.6483 312.6335 312.7902 313.1687 313.1687 313.4235 313.5089
   313.5290 313.5290 314.4200 314.4200 314.5410 314.5410 315.5885 315.6407
   315.6407 315.6811 315.6811 315.7640 316.1986 316.1986 316.2872 316.3049
   316.3049 316.3116 317.3517 318.1143 320.2524 320.2839 320.2839 320.3268
   320.3268 320.4635 323.2661 323.2661 323.3240 323.3240 324.8533 324.8590
   324.8590 324.8639 324.8639 324.8787 325.0996 325.2857 325.2985 325.2985
   325.3189 325.3189 326.4182 326.4182 326.6457 326.8686 326.9623 326.9623
   328.0455 328.0517 328.0517 328.0800 328.0800 328.2051 328.4452 328.6920
   328.6920 328.7788 328.7788 328.9815 330.6850 330.6850 330.6931 330.6931
   330.7036 330.7422 331.7117 331.7117 332.1101 332.1155 332.1155 332.2016
   332.2188 332.2188 332.2652 332.3379 332.3379 332.7897 338.0594 338.0594
   338.1555 338.1590 338.1590 338.1753 338.1753 338.1983 338.2121 338.2121
   338.2221 338.2227 339.3694 339.3694 339.4081 339.4406 339.4427 339.4427
   341.4747 341.4790 341.4790 341.4891 341.4891 341.4963 342.8853 342.8853
   343.4893 343.5111 343.5111 343.7250 344.9957 345.0706 345.2337 345.2337
   345.2782 345.2782 345.9296 345.9632 346.0794 346.0794 346.0892 346.0892
   346.2003 346.2123 346.3267 346.3267 346.3662 346.3662 349.0259 349.0259
   349.0259 349.0259 349.0985 349.0985 351.9331 351.9682 352.9797 352.9797
   353.1675 353.1675 353.4435 353.4465 353.5621 353.6249 353.6868 353.6868
   353.8336 353.8336 353.9698 353.9698 353.9708 353.9708 354.6910 354.8915
   358.0420 358.0420 358.0612 358.1013 358.1013 358.1549 358.1549 358.1965
   358.2554 358.2554 358.6174 358.7397 358.8819 358.8900 359.0824 359.0824
   359.1247 359.1247 360.9017 360.9741 361.1082 361.1082 361.1444 361.1444
   361.2368 361.2368 361.4933 361.4933 361.5930 361.6168 362.0331 362.0331
   362.0590 362.0650 362.0650 362.0703 363.6628 363.6628 363.6674 363.6764
   363.6764 363.6946 364.3266 364.3266 364.3319 364.3319 364.3382 364.3561
   370.9107 370.9599 370.9753 370.9753 371.0179 371.0179 371.1559 371.1559
   371.2528 371.2528 371.2900 371.3900 371.3929 371.4919 371.4919 371.5509
   371.5799 371.5799 372.5536 372.5536 372.5875 372.7750 372.7750 372.9477
   375.7643 375.9520 375.9520 376.1778 376.1778 376.2893 376.9046 376.9385
   376.9385 376.9847 376.9941 376.9941 377.9842 377.9842 377.9897 377.9897
   377.9950 378.0026 378.3313 378.3553 378.3553 378.3947 378.4130 378.4130
   379.0086 379.1686 379.1686 379.4245 379.4467 379.5534 379.5534 379.7922
   382.1894 382.1894 382.1912 382.1912 383.4374 383.5284 383.5284 383.5756
   383.5961 383.5961 384.5811 384.6063 384.8202 384.8202 384.8445 384.8445
   386.4415 386.4415 386.4608 386.4732 386.4732 386.5246 387.0104 387.0405
   387.0405 387.0652 387.0652 387.0766 387.6008 387.6008 387.6024 387.6024
   387.8039 387.8058 387.8126 387.8126 387.8149 387.8149 389.2426 389.2427
   394.0245 394.0563 394.0563 394.0821 394.0821 394.1129 394.2829 394.3694
   394.3694 394.5146 394.5146 394.5681 397.7639 397.7639 397.8162 397.8162
   397.8270 397.8660 398.1121 398.1399 398.1399 398.2270 398.2270 398.3310
   398.6214 398.6423 398.6423 398.6853 398.6853 398.7049 398.9102 398.9102
   398.9386 399.0188 399.0188 399.0383 399.6431 399.7354 399.7354 399.8735
   399.8839 399.8839 401.7005 401.7530 401.7530 401.8151 401.8151 401.8674
   404.0780 404.1279 408.1491 408.1765 408.1765 408.2566 408.2566 408.2682
   408.2926 408.3738 408.3738 408.5290 408.5290 408.6617 408.9136 408.9136
   408.9663 408.9663 408.9887 409.0445 409.3036 409.3202 409.3202 409.4181
   409.4181 409.4836 409.5363 409.5965 409.5965 409.6167 409.6167 409.6237
   410.7932 410.8012 410.8337 410.8337 410.8392 410.8392 410.8443 410.8443
   410.8664 410.8664 410.8779 410.8816 410.9256 410.9256 410.9294 410.9294
   412.3023 412.3023 412.3034 412.3034 412.3120 412.3123 414.7557 414.7790
   414.7790 414.8112 414.8112 414.8336 418.3204 418.3257 418.3257 418.3273
   418.3273 418.3571 421.3759 421.3759 421.4246 421.4613 421.5129 421.5129
   424.2146 424.2146 424.2429 424.2577 424.2577 424.3282 425.0250 425.0323
   425.0323 425.0587 425.0727 425.0727 425.8503 425.8503 425.8736 425.8739
   425.8739 425.9164 425.9203 425.9494 425.9761 425.9761 426.0065 426.0065

          k = 0.0000 0.5000 0.0000 (  2477 PWs)   bands (ev):

    -8.5457  -8.5202  -8.4967  -8.4930  -8.4930  -4.4920   0.9577   5.8482
     5.8482   6.7537  10.6740  12.9519  12.9889  12.9889  17.6602  17.8700
    17.8700  18.0096  20.3435  23.1465  24.3845  24.3845  24.4008  24.7744
    29.2750  29.2750  30.1603  30.9585  30.9585  31.0387  34.2978  35.1995
    35.9421  35.9421  36.5926  37.0719  37.7639  37.7639  38.4433  39.6751
    39.6751  40.0680  41.0982  41.9264  41.9264  42.2344  42.2457  42.2900
    42.4668  46.0316  47.4349  47.4349  48.1675  48.9426  48.9426  49.7380
    50.7348  50.7348  51.0544  52.0490  53.8574  53.8574  54.5243  55.2058
    57.5883  57.5883  59.1963  59.2156  59.2156  59.5781  60.7633  61.5055
    61.8772  62.3293  62.3293  63.3641  65.2285  65.2285  66.3354  66.5154
    66.5284  67.1234  68.2815  68.2815  69.4555  69.6072  70.3713  70.3713
    70.8212  71.7066  73.4204  73.4204  74.4032  74.4032  75.9437  76.7135
    76.7260  78.5279  78.6781  78.6781  79.0320  79.1646  80.0457  80.4478
    80.4478  81.8384  81.8384  82.4423  82.4579  83.3813  83.3813  83.5367
    84.1791  85.1898  85.5792  85.5792  87.0429  87.1586  87.3597  87.8285
    87.8285  88.3481  88.5542  88.5542  88.8325  89.3941  89.3941  89.9088
    89.9088  90.0715  90.5504  90.7067  92.0608  92.9236  92.9236  95.0357
    95.5161  96.2091  97.3119  97.9481  97.9481  99.4489  99.9037 100.1334
   100.1334 100.7754 101.4408 101.4408 102.1177 102.2500 102.6661 103.3662
   104.3550 104.3550 106.4662 106.6224 106.6224 106.8250 107.2260 107.7779
   107.8330 107.8330 109.1997 109.4188 109.4188 109.6867 112.5412 112.5910
   112.5910 112.9126 113.1509 113.1509 113.4699 114.4320 115.4661 115.4661
   115.6467 116.4710 117.9070 118.7206 118.8165 118.8165 119.5109 119.7553
   119.7913 119.7913 120.9421 121.1504 121.1504 121.4017 121.9915 121.9915
   122.6338 123.6358 124.9585 125.2396 125.7419 125.7419 125.8531 125.9792
   126.0815 126.0815 126.9074 126.9074 127.3858 128.1355 128.7611 128.9170
   128.9170 129.7490 129.7490 130.2162 131.7993 131.7993 131.9706 132.0302
   132.5346 132.6219 132.6219 132.6476 133.3387 133.3474 134.8617 135.1759
   135.1759 135.7610 136.8939 137.2086 138.5642 138.5938 138.5938 140.1543
   140.1543 141.0540 142.0600 142.2052 142.4761 142.4761 142.9319 143.1915
   143.5093 144.0808 144.0808 144.7201 145.0947 145.0947 145.9429 146.9138
   147.0205 147.3319 147.3319 148.2682 148.5991 148.5991 149.2866 149.2866
   149.5279 150.0182 150.1952 150.1952 151.2998 151.3124 151.4321 151.5215
   151.5215 151.9243 152.1757 152.3525 153.1849 153.2953 153.2953 153.5736
   153.6520 154.4482 154.5655 154.5655 155.2530 155.2530 155.4592 155.8744
   156.9694 156.9694 157.1283 157.2423 157.2520 157.3996 157.3996 157.5052
   157.7617 159.6536 159.6536 161.0873 161.2920 161.3137 161.3137 161.8356
   162.3332 163.8092 164.0950 164.0950 164.4784 164.5745 165.0414 165.0414
   166.3705 166.3705 168.2627 169.0673 169.5500 169.8019 169.8019 170.9315
   171.5351 171.5351 172.3854 172.8549 173.3428 173.5217 173.5217 174.2841
   174.2841 175.2070 175.4771 175.4771 175.9206 176.8378 177.2388 177.4288
   177.8971 177.8971 178.9880 179.1768 179.2448 179.2448 179.4848 180.0098
   180.0098 180.9418 181.2337 181.3101 181.3101 181.3367 181.3450 181.8566
   182.8187 182.8609 182.8609 184.1803 184.4827 184.9609 184.9609 186.3150
   186.3493 186.3493 187.3141 187.3430 189.3749 189.3749 190.2164 190.3842
   191.8059 191.8059 192.1736 192.6437 193.1134 193.4174 193.4174 194.2833
   194.3573 194.3573 195.7158 195.7158 195.8954 195.9270 196.5678 196.5678
   196.6177 196.8201 196.9032 196.9032 197.0271 197.0968 197.7870 198.4428
   198.9952 198.9952 199.7479 200.4096 200.7179 200.7179 200.7796 201.3583
   201.6172 201.6172 201.8189 202.1315 202.6931 202.8894 202.8894 202.8908
   203.4503 203.4594 203.4764 203.4764 203.5460 203.7961 203.9329 203.9329
   205.6261 205.6261 205.8053 206.4525 206.8350 206.8350 206.8705 206.8996
   207.2248 207.2518 207.2518 208.1904 208.8913 209.4809 209.6027 209.6027
   210.1335 210.3620 210.5431 210.5431 211.0649 211.3326 211.3326 211.6367
   211.8449 212.2709 212.9974 212.9974 213.4135 213.4831 213.4831 213.5006
   213.5901 213.8839 214.3102 214.3102 216.3001 217.3863 218.2654 218.2654
   218.6954 220.8826 220.8934 220.8934 220.9603 221.5339 221.7779 221.7779
   222.0941 222.4802 222.6956 222.7911 222.7911 222.9992 223.0342 223.4793
   223.4793 224.0028 224.0028 224.4365 224.6928 224.7815 224.9271 224.9271
   225.3812 226.2595 226.2595 227.2838 227.5816 227.5816 227.8316 229.6483
   229.6988 229.6988 232.2861 232.4120 232.4120 232.6229 232.8687 232.9638
   233.3629 233.3629 233.5634 233.7461 233.7551 233.7551 234.0146 234.0687
   234.4739 234.9014 234.9014 235.3679 235.3679 235.4665 235.5203 236.4871
   236.9248 237.7924 237.7924 237.9268 238.0824 238.2872 238.4251 238.4251
   239.3000 239.3084 239.6273 239.6872 239.6872 240.0239 240.0239 240.5093
   240.6124 241.1538 241.1538 241.9647 244.1903 244.6251 244.6251 244.9897
   245.8897 245.9039 245.9039 245.9154 247.4505 247.4505 247.5029 247.5987
   247.5987 247.6036 247.6939 248.3851 248.5279 249.0995 249.0995 249.2942
   249.7008 249.7829 249.8243 250.1513 250.1513 250.3547 250.5056 250.5056
   250.6984 250.8645 251.3094 251.3094 251.3723 251.5213 251.5213 251.6304
   251.8043 252.7389 252.7389 253.4737 253.6523 253.6523 253.6889 255.1331
   256.9092 257.0084 257.0693 257.0693 257.6442 257.6442 258.2878 259.4532
   259.7489 260.8760 261.5112 261.5112 261.9191 262.0287 262.0287 263.3601
   263.5727 263.6222 263.8284 263.8284 268.1197 268.4371 268.6801 268.6801
   268.7448 268.9666 268.9666 269.2061 270.5019 270.9254 270.9254 271.0490
   271.1011 271.2734 271.3382 271.3382 271.5638 271.7718 272.0492 272.2592
   272.2592 272.9327 273.1908 273.2052 273.2052 273.3635 273.4029 273.4556
   273.6331 273.6331 273.8565 273.8565 273.9509 274.3274 274.6770 274.6770
   274.7472 274.9860 275.3030 275.3057 275.4537 275.4663 275.4663 276.2575
   276.2575 276.4040 277.4047 277.4367 277.4367 277.4510 277.7387 277.7387
   277.8046 278.0259 278.9843 278.9843 279.5617 279.6867 281.5228 282.6469
   282.7685 282.7685 282.7703 282.8646 283.1730 283.1730 287.5595 287.5595
   287.6511 288.5064 288.6104 288.7042 288.7042 288.7631 288.8404 288.8404
   289.3071 289.5258 289.5258 289.7317 289.8247 289.8253 289.8253 289.9983
   290.0740 290.1269 290.1269 290.1346 290.2197 290.3332 290.3962 290.3962
   292.7890 293.4022 293.4022 293.4499 293.7891 294.0170 294.0170 294.1142
   294.3525 294.3525 294.6457 295.6146 296.0800 296.0800 296.0843 296.6751
   296.8187 296.8404 296.8404 297.0084 298.4416 298.5081 298.5081 298.5149
   298.6566 299.1157 299.5876 299.5876 299.8318 299.8318 299.8347 299.8657
   299.9365 299.9365 299.9472 300.1338 300.5043 303.6458 303.7456 303.7456
   303.8803 303.9008 304.2685 304.4975 304.5538 304.5538 304.7567 304.7567
   304.8456 305.5697 305.6354 305.6354 306.3888 306.6206 306.6206 306.6696
   306.7104 308.9909 309.1785 309.2084 309.2084 310.2125 310.3336 310.7732
   310.9093 310.9093 311.3841 311.3841 311.7675 311.8448 311.9746 312.1515
   312.1515 312.5869 312.6496 312.6796 312.7829 312.7829 312.8072 313.4478
   313.4478 313.4951 313.5733 313.5733 313.6157 313.7207 314.9381 314.9381
   315.2161 315.2456 315.2489 315.2489 316.2797 316.3396 316.3559 316.3559
   316.4326 316.5129 316.5129 316.7458 317.1667 317.3398 317.3398 317.5756
   317.8234 320.3007 320.3272 320.3272 320.3966 321.2197 321.2197 321.2503
   321.4058 322.0091 322.0195 322.0195 322.0316 322.1718 322.2063 322.2328
   322.2328 322.5798 322.5853 322.5853 322.5915 322.6242 322.7722 322.9221
   322.9221 322.9568 324.4562 324.4930 324.4930 324.5491 324.5555 324.5999
   324.5999 324.6323 324.9641 324.9641 326.3163 327.1882 327.2714 327.2714
   327.3131 329.1262 329.1566 329.1583 329.1583 331.9623 332.2228 332.2228
   332.5818 333.0946 333.2719 333.2719 333.4055 335.8545 335.9448 335.9448
   336.0243 336.4657 336.6648 336.6648 336.7018 337.7749 337.8309 337.8483
   337.8483 338.5423 338.6707 338.6988 338.6988 338.8733 341.1577 341.1577
   341.6735 342.1394 343.3410 343.3410 343.4660 343.7178 343.7178 343.7435
   343.7831 344.0877 344.3368 344.3580 344.3580 344.4070 344.9032 344.9587
   344.9587 344.9965 345.6829 345.7985 345.7985 345.8039 345.8648 346.4997
   346.6046 346.6046 346.6125 349.3391 349.3850 349.4201 349.4201 349.8037
   349.8037 350.0502 350.2431 350.4122 350.4122 350.4994 350.6117 350.6917
   350.6917 350.7222 350.7242 351.8477 352.5839 352.5839 353.0907 354.4589
   354.4618 354.4618 354.4683 356.7420 357.0683 357.0683 357.1172 357.1172
   357.1519 357.2615 357.2969 357.4696 357.4696 357.7340 357.9271 358.4114
   358.4114 358.5339 359.4287 359.5307 359.6492 359.6492 359.6754 359.8746
   359.8746 359.8807 359.8995 360.0720 360.1189 360.1189 360.1548 360.4835
   360.4835 361.1505 361.1760 361.1760 361.1825 362.0268 362.5500 362.5500
   362.8395 363.6337 363.7178 363.7178 363.7731 364.0797 364.0845 364.0845
   364.0948 364.3970 364.7705 364.7705 365.9329 365.9592 365.9621 365.9621
   366.2244 366.3769 366.4133 366.4133 366.5334 366.7362 366.7362 366.7503
   366.7563 369.2350 369.3449 369.3449 369.4379 369.5908 369.6300 369.6300
   369.6641 370.6228 371.9738 371.9850 371.9850 371.9921 374.9094 375.0301
   375.0301 375.1814 375.2137 375.2737 375.2737 375.4887 375.5716 375.8701
   375.8701 376.0545 376.0618 376.1772 376.1772 376.3063 377.9506 377.9506
   377.9525 377.9684 378.8162 378.8162 378.9134 378.9710 381.6455 381.7914
   381.7914 381.8838 383.3747 383.3762 383.9918 383.9938 383.9938 384.0098
   384.6537 384.6537 384.8781 384.9657 384.9722 384.9722 385.0643 385.1789
   385.1789 385.2609 385.4320 385.6441 385.6441 387.1234 387.2833 387.2833
   387.3704 388.5684 390.4492 390.4835 390.4835 390.5523 390.5529 390.5663
   390.5663 390.5732 390.8926 390.9353 390.9353 391.0674 391.2866 391.5131
   391.5131 391.6405 391.7256 391.7866 391.7866 391.8427 392.8084 392.8274
   392.8289 392.8289 393.3254 394.3496 394.3801 394.3801 394.4067 395.7748
   395.7748 397.1552 397.6695 397.6880 397.6966 397.6966 398.3601 398.3939
   398.3939 398.4575 398.6351 398.7719 398.7719 398.8780 399.0309 399.0443
   399.0675 399.0675 399.5373 399.5413 399.5413 399.5556 402.0195 402.0687
   402.0687 402.1305 402.7688 402.9003 402.9003 403.0017 403.1565 403.1565
   403.1581 403.2241 403.8265 403.8265 403.8359 403.8611 405.7053 405.7477
   405.7477 405.8005 405.9913 405.9913 405.9999 406.0442 406.9671 406.9952
   406.9952 407.0394 407.0453 407.5042 407.5042 408.0185 408.9469 409.1745
   409.1745 409.3180 409.8948 411.0058 411.0058 411.9853 412.0294 412.0294
   412.1261 412.1297 412.1343 412.1414 412.1414 412.2822 412.2845 412.2845
   412.3589 412.5566 412.8396 413.6967 413.7391 413.7391 413.7984 413.9202
   413.9202 414.1416 414.1605 414.2035 414.2035 414.2844 415.0708 415.2118
   415.2118 415.3708 416.3726 416.3786 416.3786 416.3996 417.1148 417.1293
   417.1293 417.1468 417.2464 417.2724 417.2724 417.3111 417.3134 417.3166
   417.3166 417.3409 418.7512 418.8144 418.8144 418.8532 419.6988 420.1801
   420.2639 420.2639 420.3550 420.9117 420.9117 421.0820 421.9810 423.0113
   423.1849 423.2364 423.2364 424.0239 424.0688 424.0688 424.0704 424.1085
   424.1085 424.1218 424.1387 424.3062 424.3805 424.4061 424.4061 424.4263

          k = 0.7500-0.2500 0.7500 (  2454 PWs)   bands (ev):

    -8.5675  -8.5127  -8.5067  -8.4869  -8.4785  -3.9128   0.2009   4.8785
     5.8886   6.2457  11.2007  11.9444  12.6590  14.2525  18.3800  19.0296
    19.5865  20.3341  22.1667  22.4605  23.5625  24.7756  25.4333  26.0455
    26.4628  28.3431  28.8318  29.2687  29.5537  30.3560  31.8832  32.5358
    32.8227  33.7997  34.9157  36.3674  37.2955  37.9526  38.4860  39.1716
    40.3483  40.8955  42.0884  42.1682  43.1244  43.6486  45.5559  45.7448
    46.0101  46.8065  47.2732  48.5173  49.2149  49.4133  49.7992  50.6195
    51.1308  51.9328  52.1506  53.5690  54.3770  55.0626  56.2226  56.4076
    57.2329  58.0588  58.2996  58.7565  59.0663  59.9235  60.1230  60.7128
    60.9267  61.4759  61.7246  62.3901  62.9142  64.1087  64.6534  65.7757
    66.0210  67.4190  67.7439  68.0832  68.8776  68.9612  69.4531  70.1617
    70.6332  71.2713  71.9971  72.5045  72.8203  73.7129  74.2150  74.4033
    74.9231  75.4663  75.8148  77.4860  77.7850  78.6863  79.6481  80.0472
    80.4602  80.7015  80.7219  81.5362  81.8502  82.1372  83.4961  83.6549
    83.7223  84.1954  84.7489  85.5703  87.5583  87.7849  88.5349  89.0244
    89.0524  89.5582  90.1236  91.1926  91.3636  91.7184  92.0087  92.4923
    92.9864  93.8480  94.1603  94.4491  94.9108  95.2622  95.7980  96.2332
    96.3999  97.0203  97.2778  98.2380  98.6913  98.7991  99.2087 100.3447
   101.0758 101.5448 102.2011 102.6499 102.7956 103.5195 103.6279 103.9529
   104.8134 105.1071 105.9874 106.3219 106.5335 106.6521 107.1695 108.1900
   108.2634 108.3506 108.7580 109.8802 109.9137 110.1056 111.0709 111.3675
   112.1284 112.1408 112.8370 113.1587 113.5302 113.5303 114.1246 114.4749
   115.1053 115.1058 115.8631 116.2373 116.3322 116.9013 117.2713 117.7826
   117.9984 118.7734 119.2297 119.4849 119.7011 120.6812 121.0418 121.2953
   121.4575 122.6392 122.8699 123.1405 123.4574 124.7462 125.2561 125.2802
   125.5308 125.9725 126.1393 126.8810 127.1673 127.2876 127.6620 128.3979
   129.7327 130.0322 130.4692 130.8441 130.9310 131.5811 131.9070 132.0711
   132.2736 132.9367 133.1315 133.7854 134.4160 134.7164 135.1164 135.6007
   135.7423 135.8384 136.6037 136.8434 136.9536 137.4003 137.7262 138.5809
   138.6097 139.0230 139.1320 139.8440 139.9546 140.2889 140.4134 141.7191
   142.5977 142.9820 144.3135 144.5944 145.2084 145.5686 146.0334 146.7458
   147.1930 147.4464 147.6305 147.6345 148.0761 148.3701 148.7728 148.7979
   149.4734 149.5276 149.8851 149.9968 151.1207 151.5895 152.4133 152.6310
   153.0433 153.4958 154.1827 154.3788 154.9042 155.1736 155.5875 156.0184
   156.1176 156.4410 156.6027 156.8735 156.8934 157.2223 157.4791 158.0403
   158.4251 159.1029 159.8025 160.5297 160.5763 161.2945 161.8067 162.1964
   162.8447 162.9615 163.3454 164.1060 164.3803 164.5126 165.0475 165.1248
   165.7042 165.8958 166.1478 166.6191 166.8301 167.2740 167.3465 168.2802
   168.5501 168.5602 168.8512 169.1183 169.2359 169.4306 169.6409 169.6711
   169.9600 170.3231 170.6501 171.1939 171.4150 171.7579 172.3312 172.4909
   172.8633 173.5875 174.1563 175.0345 175.1470 175.6627 176.2107 176.4466
   177.0508 177.3139 177.7431 178.4619 178.9254 179.1498 179.3162 179.6541
   179.7218 179.9149 180.5607 180.6054 180.8774 180.8777 181.1838 181.5980
   182.5813 182.6648 183.7027 184.2640 184.7652 185.1623 186.0427 186.0920
   186.5294 186.8566 186.9753 187.3950 187.5413 187.6871 187.8036 188.0642
   188.2096 188.7093 188.9606 189.2684 189.8701 189.9143 190.0314 190.3558
   190.5217 190.5554 191.1560 191.2687 191.2993 192.0148 192.2432 192.3656
   192.5693 193.9278 194.0334 194.0706 194.5182 194.8149 195.1549 195.3854
   196.2821 196.5499 196.6760 196.8152 197.0354 197.1430 197.2182 198.5019
   198.5275 198.5762 199.3533 200.4116 200.6214 201.7438 202.1587 202.8944
   203.1545 203.2888 203.5914 203.8568 205.1813 205.2654 205.4607 205.5809
   205.8870 206.0090 206.1596 206.1669 206.4416 206.7378 207.0654 207.5720
   207.8747 208.6666 209.6065 209.9849 210.0269 210.3042 210.5448 211.0944
   211.1311 211.5612 211.7353 211.8386 212.1701 212.1839 212.7139 213.3917
   213.9279 214.1029 214.1044 214.3323 214.7199 214.8140 214.8154 215.0187
   215.2717 215.5398 216.1989 216.2969 216.3225 217.7376 218.5788 219.2025
   219.4801 220.7330 221.0143 221.4646 222.0813 222.2811 222.4769 222.6125
   223.1335 223.5840 223.6842 223.8502 224.2311 224.2465 224.4889 225.4177
   225.4621 225.8908 225.8948 226.4227 226.7193 226.7856 227.1767 227.6839
   228.2908 228.3941 228.6797 228.8967 228.9787 229.0306 229.3860 229.9007
   230.1876 230.2776 230.5922 230.8070 231.2415 231.4828 231.5382 231.6758
   231.8383 231.8850 232.5529 232.7839 233.4372 233.6151 234.0814 235.3133
   235.3984 235.9619 236.1207 236.3915 236.4908 236.7360 236.8015 237.0418
   237.5582 237.8076 239.0898 239.5297 239.9745 240.1229 240.2658 240.2731
   240.5134 241.2654 242.3001 242.6049 242.8471 242.9087 243.3968 243.4959
   243.7694 243.7915 244.3445 244.6458 244.9068 245.0661 245.4866 245.5713
   246.3841 246.3979 246.4693 246.5603 247.0764 247.2322 247.4740 247.6398
   247.7023 248.0527 248.1804 248.2649 248.4103 248.6733 249.1463 251.1047
   251.2185 251.2992 251.5760 251.6643 251.8480 252.3772 252.3899 252.6482
   252.7210 253.1116 253.9207 254.0414 254.0509 254.3074 254.5361 254.6803
   254.9033 255.6022 255.8923 255.9027 256.4623 256.4940 257.0470 257.2374
   257.3055 257.7378 257.8742 258.2213 258.7481 258.9908 259.1155 259.6174
   259.9881 260.0111 260.0692 260.2096 260.7431 260.8147 261.0197 261.2656
   261.4093 262.4963 262.6357 263.2358 263.7363 263.8196 264.7173 265.0820
   265.2302 265.2941 265.4325 265.5046 265.5798 265.6190 266.1035 267.1442
   267.3116 267.3949 267.5273 267.8258 268.3793 269.8043 269.9011 270.1427
   270.5265 270.6139 270.9333 271.2982 271.3523 271.4446 272.1041 272.1439
   272.3186 272.4109 272.4969 272.5199 272.6054 273.0044 273.5150 273.7628
   273.8756 274.0146 274.3734 274.4755 274.7446 274.9222 275.4711 275.9793
   276.0889 276.2289 277.0346 277.2825 277.4213 277.4291 278.2619 278.5891
   278.9411 279.2129 279.5844 279.6988 280.2766 280.4473 280.7024 280.7593
   281.7097 282.2799 282.3974 282.6258 282.6490 282.9581 283.0633 283.3558
   283.5633 284.2558 284.8035 284.9215 285.0769 285.2479 285.4590 285.6489
   285.7251 286.2213 286.3588 287.6328 287.7772 287.8854 288.0627 288.1304
   288.2757 288.5004 288.5072 288.6133 288.7272 288.9584 289.0805 289.2669
   289.4457 289.5615 289.8308 290.4064 291.0732 291.2922 291.3693 291.8809
   291.8953 292.6422 292.8534 292.9141 293.6756 293.8142 294.5478 294.6055
   294.7060 294.8548 294.8570 296.8632 297.2157 297.2634 297.2713 297.3665
   298.1133 298.4647 298.7960 299.2349 299.7679 300.5475 301.2451 301.4957
   302.0695 302.2157 302.3036 302.4403 302.6243 302.7782 302.7883 302.9011
   303.6518 304.3321 304.3782 304.4847 304.7673 304.8566 304.9134 305.1886
   305.3351 305.4482 305.5624 305.6187 305.7061 305.7192 305.7914 305.9660
   306.2990 306.4569 306.9206 307.3893 307.4172 308.0735 309.6272 309.7403
   309.9447 310.5778 310.6057 311.4871 312.5031 312.6524 312.7365 312.7477
   313.2210 313.2389 313.3262 313.6567 313.7648 314.3137 314.3453 314.4223
   314.4634 314.8091 315.1006 315.9319 316.1389 316.3156 316.3383 316.4185
   316.7490 316.8362 317.4450 317.6310 317.7247 318.5311 318.7350 318.7809
   318.8147 318.9408 319.1554 319.3126 320.1886 320.1961 320.3868 320.3889
   320.9026 321.1320 321.9573 322.0251 322.4948 322.5082 322.7077 322.7239
   323.3531 323.9191 324.1565 324.2007 324.3634 324.4513 325.0213 325.0526
   325.2384 325.3552 325.6282 325.9916 326.5343 326.7805 326.8336 326.9322
   327.1042 327.3522 327.3895 328.0412 328.9395 328.9434 329.6090 329.8961
   330.1704 330.2342 330.2865 330.4537 330.8385 331.0607 331.0975 331.2156
   331.3555 331.5249 331.5728 332.1483 333.0949 333.2904 333.3140 333.9573
   334.6982 334.8808 334.9792 335.0314 335.6894 335.8368 336.0135 336.1462
   336.4315 337.5440 337.5632 337.6508 338.1738 338.1835 338.2448 339.1242
   339.1322 340.0827 340.0918 340.6357 340.6793 340.6885 340.7581 340.8379
   340.9699 341.5189 342.0433 342.5709 342.5725 342.9168 342.9258 343.1013
   343.2944 343.7948 344.2726 344.4600 344.4970 344.7751 344.8342 344.9028
   344.9091 344.9350 346.4024 346.5497 346.6089 346.6177 346.7408 347.4794
   347.4879 347.5899 347.8319 348.0963 348.1220 348.1605 348.6999 349.4817
   349.5591 349.9090 349.9347 350.0832 350.2059 350.4046 350.4342 350.8832
   350.9755 351.0864 351.2047 351.4932 351.6311 351.9362 352.0500 352.2543
   352.2689 352.7158 353.1732 353.5652 353.5739 354.0575 354.0792 354.2096
   354.3989 354.4374 354.6726 355.0294 355.0666 355.1804 355.1868 356.5262
   356.5634 358.2298 359.0739 359.2905 359.3439 359.3683 359.5277 359.8132
   360.0907 360.0927 361.3806 361.8009 361.8099 362.0043 362.0128 362.0344
   362.2428 362.2762 362.5313 362.5682 362.6851 362.8023 362.8471 362.8581
   363.0247 363.2663 363.2947 363.9189 363.9475 364.0177 364.0671 364.6065
   364.9215 364.9819 364.9891 365.0914 365.6951 366.3392 366.4004 366.6190
   366.6598 366.6691 366.7050 366.8987 367.4329 368.0449 368.0495 368.0916
   368.1174 368.2260 368.4378 368.8312 369.5942 369.5981 370.3673 371.2997
   371.3954 371.6331 371.6441 371.7393 372.1957 372.2180 372.2329 373.0004
   373.0811 373.0918 373.4740 373.5982 374.0086 374.2570 374.4030 375.1961
   375.5068 375.7693 375.9741 375.9748 376.6635 376.7987 376.9444 377.1859
   377.4631 377.4816 377.6838 377.7016 377.8163 377.8233 378.0066 378.0801
   378.1549 378.1813 378.7529 379.4335 380.4586 381.2900 381.3143 381.4545
   381.5698 381.6182 381.6888 382.4424 382.4670 383.3723 383.3800 383.5320
   383.6109 384.3023 384.3027 384.8092 385.3537 385.4262 385.5923 385.6323
   385.7767 385.7939 385.9501 385.9717 386.0898 386.4395 386.4559 386.7126
   386.8924 386.9762 387.1535 387.1787 387.8927 388.4754 388.4813 388.9263
   388.9895 389.5285 389.5321 390.4960 390.4971 391.3051 391.5895 391.7003
   391.7243 392.4370 392.4383 392.6897 393.4253 393.4271 393.8851 393.8926
   394.5585 394.5713 395.0229 395.0373 395.3267 395.3394 395.3445 395.3592
   395.4178 395.9148 395.9594 395.9608 396.7578 396.8905 397.2347 397.6973
   397.7043 398.2883 398.2940 398.6523 398.9974 399.0078 399.0723 399.6713
   399.8268 399.9456 399.9923 400.2633 400.3087 400.3104 400.6161 401.3928
   401.4809 401.7356 402.5066 402.5141 402.7931 403.2424 403.4619 403.4839
   403.5580 403.5887 403.8419 404.0611 404.0630 404.0883 404.4368 404.4994
   405.1180 405.1331 405.5102 405.8665 406.2965 407.2424 407.4666 407.7990
   407.8249 408.2070 408.2097 408.9292 409.0061 409.1325 409.2940 409.6106
   409.6525 410.9009 411.0209 411.0496 411.1576 411.3890 411.3940 411.5935
   411.7742 412.5407 412.6590 412.6677 412.7822 412.8081 412.9653 413.2061
   413.2063 413.3688 413.3861 413.4873 413.4898 413.5237 415.0331 416.5925
   416.5963 416.9934 417.2150 417.2157 417.6697 417.6743 417.9064 417.9760
   418.3255 419.0925 419.5986 419.5987 419.6700 419.8063 419.9969 420.0606
   420.4758 420.7031 420.7102 421.2131 421.2207 422.4175 422.4638 422.5821
   422.5862 422.7279 422.8380 422.8456 423.7570 423.7792 424.1248 424.1730
   424.1986 424.2554 424.5824 424.6286 425.5470 425.5531 425.5970 426.2867
   426.2933 426.3131 426.5866 426.5923 426.6111 426.6989 426.8931 427.0470

          k = 0.5000 0.0000 0.5000 (  2437 PWs)   bands (ev):

    -8.5384  -8.5174  -8.5025  -8.4921  -8.4916  -4.1113   0.1689   4.9711
     6.8031   7.5663   9.6893  10.4940  12.7236  16.2719  16.4421  17.7724
    18.6162  19.9140  23.6359  23.8169  24.3743  24.3840  25.3473  26.0479
    26.0778  28.0393  29.0010  29.9678  30.0835  31.4891  31.8835  32.0069
    33.9260  34.3200  34.7602  37.3202  37.4006  37.8350  38.0525  39.1658
    39.6309  40.9329  41.1676  41.3917  42.8425  44.2698  44.6944  44.9006
    45.5399  46.5522  47.7102  49.1022  49.1041  49.2053  50.0001  50.6777
    50.9959  52.3452  52.8013  52.8423  54.2055  54.3525  54.6402  56.4456
    56.7341  56.8379  58.2369  58.5004  58.6885  59.1984  59.8552  60.6674
    61.6254  61.8107  62.3432  63.4625  64.0712  64.3030  64.8946  65.7610
    66.4731  67.2662  67.9509  68.8231  68.8707  68.9251  69.1323  70.4269
    70.7352  70.9442  71.1735  72.6949  73.6051  73.7883  74.0805  75.6703
    76.3362  76.4168  77.0858  77.6979  78.1482  78.3728  78.9203  79.3258
    81.1458  81.4447  81.5408  82.4102  82.5654  83.2716  84.0754  84.1184
    84.5339  84.7616  85.0410  86.3140  86.9548  87.5494  87.6350  89.2643
    89.2738  89.7438  89.9573  90.3052  90.6329  90.8391  91.3147  91.9778
    92.3475  92.4205  92.8273  93.0376  93.1422  94.2064  94.5974  94.6733
    96.4742  97.0391  97.2369  97.3720  98.4896  98.5771  99.2400 100.3684
   100.9713 101.4863 101.5382 101.6134 101.8799 103.3189 103.4829 103.6158
   103.8548 104.8477 105.1071 106.2176 106.3066 106.3385 106.4513 107.2210
   107.4530 107.6607 108.2613 109.2310 110.1711 110.3394 110.7888 111.0205
   111.0834 112.4956 113.2233 113.4546 113.6935 115.1999 115.4452 115.4690
   116.1436 116.3918 116.8735 117.2845 117.8932 118.2572 118.9425 119.0134
   119.5318 119.7052 119.8306 119.9889 120.4227 121.7970 122.0963 122.1226
   122.2149 123.0240 123.4274 123.7034 123.8638 123.9536 124.1301 125.2198
   125.6431 125.9710 126.4011 126.9271 127.3340 128.1530 128.5940 129.1958
   130.2479 130.2676 130.8244 130.8921 130.9453 131.8379 131.9104 132.5115
   132.6496 132.8422 132.9522 133.2873 133.4730 134.1213 134.4653 135.4283
   135.4642 136.7474 137.0132 137.3425 137.5665 138.1606 138.7818 138.8257
   139.2066 139.7250 139.7622 140.4253 140.7709 141.3880 141.6904 141.8200
   141.9979 142.1746 142.2038 142.8383 144.1624 144.9623 145.0261 145.2002
   146.3317 146.3953 146.7811 147.8060 148.0568 148.3690 148.4262 148.7199
   149.8076 149.8131 149.9467 150.3399 150.6866 150.7901 151.4262 151.6817
   151.7344 152.2522 152.8244 153.2343 153.2685 153.9443 155.2802 155.3140
   155.3770 155.4206 155.8879 156.9005 156.9767 157.4243 157.6087 158.0994
   158.1170 158.9774 159.0604 159.3178 160.0452 160.6652 160.7762 160.9302
   161.3787 161.6155 162.3460 162.6777 162.9216 163.0221 163.4812 164.0709
   165.1387 166.0603 166.0639 166.4296 166.8945 167.3341 167.5847 167.9054
   168.7700 169.2251 170.0386 170.2970 170.3877 171.0509 171.3391 171.4838
   171.6183 172.1286 172.3141 172.3701 172.6037 172.8832 173.0548 173.1394
   173.2885 173.5195 173.8385 174.5610 175.0355 175.3384 175.4076 175.8328
   176.1510 176.2135 176.8255 177.4210 177.6564 177.6989 178.9538 179.5080
   179.8478 180.1891 180.5430 181.6533 181.8019 182.3729 183.4472 183.6678
   184.5294 184.5359 184.5450 184.5982 184.8657 184.9086 185.3568 185.3991
   185.9526 186.0073 186.3119 186.8380 187.0275 187.0336 187.5022 187.8817
   188.6835 188.9431 189.0148 189.0806 189.3154 189.3223 189.5918 189.7221
   189.9296 189.9881 190.3384 191.1979 191.2097 192.0481 192.9917 193.3424
   194.7665 195.4227 195.4716 196.1068 196.1461 196.8024 197.0696 197.5795
   197.8646 198.1703 198.2762 198.3726 198.4153 198.6880 198.8295 198.8904
   198.8958 199.7090 201.0386 201.5617 201.7088 201.9455 202.1712 202.5683
   202.7377 202.7704 202.8339 203.0729 203.3160 203.3586 204.0853 204.5224
   205.6929 206.0522 207.2806 207.7561 207.8182 207.8521 208.0507 208.2171
   208.5126 208.6066 208.7879 208.9804 209.7438 209.9065 210.0238 210.3138
   210.5942 211.2692 211.3353 211.3935 211.3941 211.7661 212.2215 212.3351
   212.4666 213.0865 213.1426 213.4083 213.6786 214.4924 214.7321 215.2944
   215.3751 218.0650 218.1535 218.8600 218.9637 219.8452 220.5870 220.6092
   220.6856 221.0211 221.2148 222.7423 222.9253 223.2622 223.2880 223.2893
   223.6494 224.0754 224.2367 224.2786 224.2940 224.4315 224.4977 224.5570
   225.1429 225.1576 225.1898 225.4644 225.6640 225.7931 226.0389 226.4848
   227.1322 227.2120 227.2235 227.7138 228.2857 228.3458 228.5218 228.5263
   228.5512 228.5747 228.9909 230.4358 230.7461 230.7546 230.8566 231.0646
   231.1128 231.2019 231.8883 233.1248 233.4990 234.0285 234.1764 234.5898
   235.1878 235.3306 235.3490 235.4158 236.0081 236.1477 236.6817 236.7606
   236.8454 236.9076 237.0945 237.9842 238.5225 239.0964 239.4073 239.5374
   239.6008 239.6307 240.1984 240.7114 241.0176 241.0631 241.0694 241.4666
   241.8124 242.4554 242.8742 243.9827 244.0535 244.1212 244.5014 244.6031
   244.8053 245.3485 246.0704 246.3065 246.3263 246.4437 246.6413 246.6588
   248.8317 248.9730 248.9926 249.8370 249.9026 249.9584 250.0838 250.3559
   250.6082 250.9442 251.0720 251.2212 251.2709 251.5179 251.5455 251.8468
   252.1597 252.6668 252.8727 253.2845 253.9740 254.4529 255.6825 255.8416
   255.9703 256.5297 256.5714 257.2202 257.2596 257.3246 257.4021 257.8504
   258.0383 258.0585 258.0693 258.9556 259.1429 259.3707 259.4113 259.4872
   259.8426 259.9251 260.7779 260.7845 262.1046 262.2494 262.3192 262.4129
   262.4434 262.7074 263.0084 263.7179 263.9761 264.0606 264.8356 265.1664
   265.9022 265.9077 266.0724 266.1075 266.4563 266.7260 266.9500 267.0176
   267.6139 267.6453 267.8797 268.2890 268.4296 268.5572 268.6967 268.7282
   269.3237 269.5954 270.2683 270.6577 271.1470 271.2802 271.4934 271.5230
   271.6627 271.6705 272.1241 272.3591 273.7518 273.7665 273.8871 274.1257
   274.2738 274.2754 274.5827 274.9335 275.0946 275.4462 276.3302 276.4595
   277.7920 278.2218 278.2531 278.4180 278.5671 278.6905 279.3974 279.6250
   279.6955 279.7555 279.8469 280.0025 280.0934 280.0950 280.3443 281.4418
   281.9112 281.9634 282.0711 282.4528 282.6576 282.7553 283.1033 283.3059
   283.5156 283.5308 283.9870 284.0029 285.5417 285.6619 285.8192 285.9752
   286.6302 286.7063 288.2388 288.2424 289.1547 289.2156 289.5103 289.5998
   290.5975 290.6059 291.2755 291.4488 291.8150 291.8578 292.0021 292.0978
   292.2878 292.3126 292.4939 292.5782 293.0797 293.6123 293.9468 294.8135
   294.9089 294.9846 295.1939 295.2898 295.5124 295.5492 295.8501 296.2572
   296.3588 296.4234 296.6765 296.7236 297.0217 297.3273 297.5999 297.7100
   298.3224 298.3521 298.3724 298.3926 299.6408 299.6583 299.7556 299.8532
   300.6328 300.7781 301.3125 301.7191 301.7999 302.1714 303.6872 303.7361
   303.9068 304.2419 304.5223 304.6023 304.6554 305.0612 305.0778 305.0814
   305.3433 305.3825 305.4331 305.4498 305.7391 305.7875 305.8726 306.0153
   306.3006 306.3587 307.1394 307.2289 307.4169 307.4196 307.4224 307.6380
   307.6457 307.8472 307.8842 307.8886 308.7787 308.9372 308.9854 308.9888
   309.2403 309.2502 312.2469 312.2759 314.2973 314.3224 314.5604 314.5676
   314.5786 314.5873 314.8271 314.8967 315.2530 315.3510 315.4050 315.4982
   315.5867 315.6593 316.3077 316.3090 317.2734 317.2904 317.3598 317.4190
   317.8345 317.9783 317.9982 318.0229 318.6304 318.6791 318.9145 318.9287
   321.0061 321.1775 321.3300 321.5287 321.6652 321.7141 321.8374 322.4369
   323.4712 323.4798 323.7453 325.0041 325.1038 325.1278 325.3752 325.4051
   326.4171 326.5758 326.6085 326.7138 326.7210 326.7549 326.8645 326.9747
   327.1285 327.2319 327.2469 327.3231 328.5343 329.0693 329.2918 329.3062
   329.5163 329.5438 329.6929 329.7043 329.9669 329.9946 331.6791 331.8769
   331.8894 332.1518 332.2342 332.4220 332.5103 333.3238 333.8758 333.9113
   333.9235 333.9676 334.9857 335.1031 335.6714 335.8531 335.8924 336.0584
   336.0616 336.4733 336.8433 337.2604 337.3455 337.5553 337.5673 337.8053
   338.8910 338.8930 338.9063 338.9067 338.9176 340.1027 340.1337 340.1918
   340.3666 340.6377 340.7276 340.8958 340.9178 340.9449 341.7835 342.6121
   342.6212 342.9118 342.9467 343.0710 343.6001 343.7109 343.9934 344.1016
   344.2156 344.2626 344.3667 344.4778 344.8566 344.8911 344.9344 345.0202
   345.1678 346.1100 346.2326 346.2620 346.2806 347.0055 347.0607 349.0981
   349.1787 349.8414 349.8730 350.1984 350.2567 350.4275 350.4347 351.0589
   351.1024 351.1527 351.4959 351.6084 352.5632 352.9829 352.9839 352.9889
   353.0086 354.7263 354.8212 355.0812 355.1929 355.2063 355.2269 355.2345
   355.3425 355.3465 355.5845 356.9103 357.0020 357.0959 357.1948 357.5030
   358.0648 358.2445 358.4454 358.7104 358.7555 358.9998 359.0357 360.3163
   360.3475 360.5144 360.5195 361.0725 361.2971 361.4989 361.5135 362.1986
   362.2218 362.5633 362.5812 363.7165 364.0605 364.1323 364.2499 364.2991
   364.3314 364.3353 364.6408 364.7197 364.7273 364.9637 365.3904 365.5786
   365.7122 365.7514 365.8638 366.0084 366.0568 366.7936 366.7973 367.0748
   367.1390 367.8748 367.9012 368.1748 368.2857 368.7280 368.7927 368.8048
   369.2216 369.5030 369.5635 369.7241 369.7430 369.8768 369.9106 371.5048
   371.5676 372.5243 372.5255 374.3739 374.3962 375.0692 375.0834 375.0887
   375.1498 375.1525 375.2152 375.7893 375.7895 375.9117 375.9217 376.0055
   376.0073 377.0808 377.1059 377.2358 377.2614 377.3052 377.5123 377.9051
   377.9141 378.0609 378.2194 378.2257 378.2480 378.3160 378.3442 378.3509
   378.3556 378.8856 378.8910 378.9044 378.9307 379.8548 379.8550 380.9701
   381.0164 381.0488 381.0631 381.0752 381.1006 381.6518 381.6561 382.8903
   382.8999 383.6256 383.6327 384.5610 384.5899 384.5904 384.6101 385.6502
   385.7491 386.3101 386.3815 386.7876 386.8315 386.9719 387.0937 387.1499
   387.1902 389.3165 389.3316 389.5351 389.5580 389.8199 389.8204 389.9050
   389.9108 391.5692 391.5692 392.0142 392.0355 392.5376 392.5460 392.6017
   392.6371 392.6377 392.7518 392.7728 392.8553 392.8624 392.9273 393.3790
   393.3913 393.9435 393.9702 394.1728 394.1836 394.2309 394.8266 395.0310
   395.8391 396.0555 396.1248 396.4601 396.4693 396.4721 396.4827 397.5047
   397.5239 397.6859 397.6935 398.3009 398.3415 398.4792 398.5488 398.9872
   398.9993 399.3757 399.3926 399.9639 399.9790 400.1429 400.1641 400.4592
   400.4972 401.4154 401.5247 402.0557 402.0656 403.7881 403.8118 403.8303
   403.8420 404.7951 404.8319 404.9407 404.9603 404.9807 404.9948 405.7824
   405.8038 406.1853 406.1943 406.2738 406.2780 407.6000 407.6045 407.9963
   408.0014 408.0633 408.0753 408.3124 408.3256 408.3560 408.3658 409.8567
   409.8661 411.0092 411.0111 411.8746 411.8795 412.1495 412.2122 412.2317
   412.2331 412.4816 412.5385 412.7068 412.7232 412.7818 412.7891 413.0226
   413.0280 414.1596 414.1803 415.5743 415.5840 416.1408 416.1682 416.2527
   416.2612 416.9481 416.9870 417.2164 417.2206 418.3269 418.3319 418.4549
   418.4833 419.6116 419.6156 419.6241 419.6340 420.3201 420.3996 420.5496
   420.6621 421.5468 421.5665 421.7305 421.7395 422.0973 422.1652 422.2174
   422.2187 422.5817 422.6901 422.6957 422.6961 422.7989 422.8262 422.9662
   423.1131 423.7719 423.7908 424.6187 424.6249 424.9553 424.9758 425.3426
   425.3559 425.5595 425.5669 425.6265 425.6387 425.6579 425.6586 425.9427

          k = 0.0000-1.0000 0.0000 (  2450 PWs)   bands (ev):

    -8.6132  -8.5281  -8.4882  -8.4726  -8.4726  -3.7384   0.9495   3.5518
     5.2405   5.2405  12.1119  13.7820  13.7820  14.2072  19.5621  19.7191
    20.9727  20.9727  21.1143  21.5122  22.5407  23.2140  23.2140  25.7157
    25.7157  25.9999  27.2980  29.8182  29.8182  31.8811  32.9746  34.2454
    34.5884  35.8564  35.8564  37.6731  37.8081  37.8081  37.8650  37.8650
    37.9899  38.5526  41.3882  41.6957  42.9490  43.2663  45.0222  45.0222
    45.7959  47.7840  47.7840  48.4995  50.2091  51.4794  51.6326  51.8902
    51.8902  52.4691  52.4691  53.0485  53.3889  55.5701  55.5701  57.1792
    57.6292  57.7339  57.7339  57.8548  58.1313  59.0804  59.0804  59.4467
    60.1362  61.8288  61.8288  63.5581  64.9162  64.9910  67.0903  67.0903
    67.1661  67.1661  67.3314  67.5641  67.5641  68.8797  70.2106  70.4497
    70.4497  70.8997  71.9941  72.0308  72.6899  72.6899  72.9152  73.1791
    73.1791  74.1494  76.5733  77.2720  77.4147  77.6138  78.2004  79.6913
    79.6913  81.6608  81.8218  82.1792  82.4268  82.4268  83.2818  83.2818
    84.4190  84.5056  84.5056  84.5564  86.2605  86.2605  86.4039  86.5685
    86.5685  86.7291  87.5715  88.9745  92.8108  93.0985  93.3284  93.6978
    95.2920  95.2920  95.4977  95.4977  96.0018  96.1377  96.1807  96.1807
    96.4377  98.4916 101.7095 101.7648 102.7244 102.7985 102.7985 102.9300
   102.9300 103.0676 103.8213 103.8213 104.0152 104.0152 104.0498 104.1275
   104.1275 104.1956 104.8157 104.8185 104.8391 105.3567 106.3569 107.7660
   108.5125 108.5125 109.7524 110.1173 110.1173 110.4458 110.4458 111.9017
   112.5631 113.1084 113.1340 113.2118 113.2118 113.3985 113.4576 113.4576
   113.8275 114.2169 114.2448 114.2448 114.5997 114.7189 116.2304 116.4894
   118.5728 118.5728 118.8895 118.8895 118.9228 118.9698 119.9780 120.0780
   120.0780 121.1458 122.2403 123.8850 123.8850 124.2634 124.2634 124.6350
   124.6628 125.0558 126.2867 126.3492 126.3492 127.2019 127.2099 128.6679
   128.8964 128.8964 129.5963 129.5963 129.6476 130.3111 130.5237 130.6574
   130.6574 130.9206 131.0703 131.4348 131.5758 131.7451 132.1599 132.1599
   133.0857 133.0857 134.4330 134.5118 138.4729 139.4429 139.4429 142.3139
   142.7906 143.4172 143.4172 143.6567 144.4536 144.4536 144.9243 145.0653
   145.0807 146.0619 146.0619 146.0923 146.0923 146.3033 147.9550 147.9550
   148.3760 148.7910 148.7910 148.8759 148.9007 149.0625 149.0625 149.5421
   149.5421 150.7949 151.6041 151.9074 152.1697 152.5607 152.5607 152.8210
   152.8323 152.8385 153.0184 153.8591 154.8602 155.0891 155.5471 155.5471
   156.2595 156.2595 156.5470 157.5281 157.5281 157.6216 157.6443 157.7049
   157.7049 158.3747 158.4682 158.4861 158.4861 159.2757 161.5615 161.9443
   161.9443 162.0736 162.1217 162.4568 162.4568 162.5065 164.4822 165.2572
   165.2572 165.2715 165.8731 165.8731 166.1337 166.1833 167.1698 169.5901
   169.5901 169.6795 169.9496 169.9496 170.0486 170.2876 170.3189 170.3347
   171.1967 171.8839 171.8839 171.9546 171.9546 172.0551 172.0551 172.1859
   172.6152 173.2446 173.2446 174.6696 175.0980 175.2200 175.8108 175.8246
   175.9450 176.4348 176.4348 176.5688 176.5688 176.9194 177.0321 177.4307
   178.4863 178.5862 178.9695 178.9695 179.4882 182.1449 182.1449 182.1630
   182.3159 182.3159 182.7484 183.6308 183.6512 186.8752 187.2105 187.2195
   187.2195 187.5370 187.8855 187.8855 188.2433 188.2433 188.6867 189.4097
   189.4298 189.4298 189.5719 189.7420 190.0148 190.1076 190.5106 190.5106
   190.6691 191.0350 191.0350 191.5303 192.0512 192.0512 192.1359 192.7292
   194.0992 194.9126 194.9126 195.0873 195.1421 195.3004 195.4328 195.4328
   195.6882 195.6882 195.6914 196.2484 196.4074 196.4251 196.4251 196.5283
   201.1715 201.1715 201.4631 201.4631 201.5326 201.8064 202.4305 203.0320
   203.1657 203.4409 203.4409 203.4489 203.4489 203.8103 205.3289 206.2394
   206.3617 206.3617 207.4414 207.6941 207.6941 207.8547 208.2533 208.3191
   208.8051 208.8051 208.8246 208.8700 208.9011 209.1581 209.1581 209.3460
   209.4584 209.4584 209.5800 209.6684 209.9567 210.0996 210.0996 210.5133
   210.5872 210.5872 210.6048 210.6981 213.0741 213.0741 213.0821 213.2558
   213.2694 213.2716 213.2929 213.2929 217.2657 217.2657 217.4791 218.2502
   218.6464 218.6464 219.2136 219.2279 221.9010 221.9125 222.4607 222.6192
   222.6192 222.7313 222.7313 222.7690 222.7997 222.8987 222.8987 222.9798
   223.0189 223.1553 223.1553 223.4775 228.7509 229.4339 229.7730 230.2406
   230.2406 230.4742 230.6556 230.6556 231.3223 231.3223 232.5062 233.1761
   233.4671 234.2605 234.2863 234.2863 234.3940 235.1467 235.1467 235.2538
   235.5647 235.5647 235.7796 236.7724 237.5495 237.5495 237.6075 238.1598
   238.6005 238.6745 238.7803 238.7803 238.8049 238.8789 239.2845 239.4433
   239.4433 239.7774 240.0163 240.2528 240.2528 240.3650 240.5046 240.8614
   240.8614 240.9213 241.1791 241.3798 241.3798 241.4319 241.8596 242.8273
   243.1588 243.1588 244.2149 244.3337 244.5496 244.5496 244.5869 244.5869
   244.7454 244.7537 248.9497 248.9584 248.9584 249.1470 249.1470 249.7287
   250.0935 250.3459 251.0605 251.0605 251.4326 251.5758 251.6265 251.7071
   252.0374 252.1793 252.1793 252.2771 252.2771 252.3529 252.3529 252.5836
   252.7263 252.7530 253.8162 253.8162 254.1036 254.1842 254.3060 254.3290
   254.3819 254.3819 254.7214 254.9532 254.9532 255.0508 255.3809 255.4392
   255.7172 255.7172 255.8970 255.8970 256.1431 256.1633 256.6621 256.6621
   256.7797 256.7797 260.4092 260.4887 260.4887 260.5501 260.6034 260.6537
   260.6537 260.6610 261.4935 262.2371 262.2371 262.6565 262.9662 262.9682
   264.8537 264.9127 265.2130 265.2130 266.1294 266.1529 266.5781 266.5781
   266.6436 266.6436 267.1553 267.2736 269.8088 269.8088 270.3662 270.4026
   270.4478 270.4875 270.4875 270.6412 270.6522 271.0730 271.0781 271.0781
   271.1623 271.1623 271.4391 271.4591 271.9133 271.9133 271.9288 272.0912
   272.2024 272.2024 272.2028 272.2158 274.0108 274.0773 274.1612 274.1612
   274.1894 274.1894 274.2638 274.3001 275.4970 275.4970 275.5433 275.7824
   279.5273 280.4365 280.6092 281.3916 281.5124 281.5124 281.7874 281.8786
   281.8786 282.1170 282.1366 282.5794 282.5794 282.6399 282.6399 282.6727
   283.2127 283.2127 285.4207 285.4349 286.6989 286.8336 286.8343 286.8343
   286.9765 287.2890 287.4019 287.4019 288.0882 288.1305 288.1305 288.2051
   288.2524 288.2555 288.2555 288.3196 288.3591 288.3591 288.4420 288.5183
   289.1827 289.1957 289.1961 289.1961 290.1261 290.1302 292.4840 292.4840
   292.4887 292.4887 293.8466 293.8501 294.9306 295.0071 295.0071 295.5059
   295.8557 296.0568 296.0568 296.2008 298.8916 298.9697 298.9697 299.0262
   299.3044 299.4833 299.4833 299.8946 300.0674 300.1526 300.1526 300.3017
   300.3561 300.8168 300.8168 301.1145 302.1490 302.1490 302.1892 302.2779
   302.2779 302.3113 302.3151 302.3181 302.4031 302.4187 302.4187 302.4650
   303.3418 303.6051 303.7837 303.7837 305.1985 305.3274 305.9629 305.9898
   305.9898 306.0210 306.3818 306.3818 306.4783 306.5776 307.1954 307.2456
   307.4226 307.4226 309.9276 310.5996 310.5996 310.6538 310.9278 311.0778
   311.7501 311.7501 314.8434 314.8434 314.9050 314.9070 314.9070 315.0570
   315.3236 315.3667 315.3667 315.3954 315.4028 315.4922 316.3328 316.3717
   316.3743 316.3743 318.9828 318.9828 319.1161 319.2080 319.2080 319.3328
   319.6179 319.6558 319.6558 319.6952 319.6970 319.7403 320.0267 320.0659
   320.0659 320.1023 321.9365 322.0209 322.0337 322.0337 324.0012 324.3116
   324.4270 324.4270 324.6883 324.6883 324.8407 325.3633 328.0892 328.0933
   328.0933 328.2329 328.7638 328.7638 329.3867 329.5246 329.5246 329.6113
   330.0179 330.4677 330.4741 330.4741 330.6041 330.6041 330.8567 330.9412
   332.3922 332.4123 332.4717 332.4717 333.2153 333.4042 333.7196 333.7196
   333.8458 333.8458 334.2889 334.3045 334.3069 334.3132 338.4954 338.5958
   338.5958 338.6187 338.7020 338.8020 338.8020 338.8736 339.2094 339.2396
   339.2396 339.2575 339.3139 339.3282 339.3282 339.3352 343.6262 343.6666
   343.6666 343.8223 343.8379 343.8379 343.8428 343.9327 345.1900 345.2109
   345.3771 345.3771 345.4010 345.4743 345.4743 345.5896 345.5973 345.5973
   345.8952 345.8952 346.0125 346.0531 346.2053 346.3181 346.4298 346.5368
   346.6559 346.8289 346.8289 346.9971 347.0345 347.1228 347.1228 347.2113
   347.2113 347.2663 347.4691 347.4691 347.5454 347.5618 347.6144 347.6990
   348.5706 348.5706 348.6733 348.6733 348.7028 348.9252 348.9339 348.9339
   348.9483 348.9491 348.9491 348.9574 348.9711 349.2105 349.3022 349.3099
   349.3357 349.4101 349.4101 349.4179 349.4179 349.4950 349.5676 349.5676
   349.5967 349.7510 349.8038 349.9142 349.9142 349.9601 352.6560 352.7070
   352.7070 352.7352 352.7624 352.7859 352.7859 352.8146 354.8007 354.8067
   354.9477 354.9477 354.9495 354.9495 355.0272 355.0317 363.0177 363.0342
   363.0342 363.0668 363.1096 363.1357 363.1357 363.1679 363.7672 363.7928
   363.7928 363.8159 363.9382 363.9385 363.9385 363.9611 366.2422 366.2422
   366.3440 366.3589 366.4406 366.4705 366.5193 366.5193 366.5681 366.5852
   366.5852 366.6567 366.6587 366.8171 366.8171 366.9029 367.0770 367.1228
   367.1228 367.1907 367.2970 367.3525 367.3525 367.3832 367.4613 367.5402
   367.5402 367.6558 367.8004 367.9289 367.9289 368.0053 373.9083 373.9438
   375.4928 375.4928 375.4935 375.4935 376.2538 376.3246 376.3531 376.3531
   376.5610 376.5721 377.0232 377.1223 377.1336 377.1336 377.1774 377.1931
   377.1931 377.1949 377.6119 377.6341 377.6341 377.6382 378.2141 378.3428
   378.3428 378.3814 380.5404 380.5952 380.9105 380.9105 380.9390 380.9390
   381.2063 381.2456 382.4912 382.6703 382.6703 382.7029 383.1910 383.2263
   384.8297 384.8297 384.8299 384.8362 384.8370 384.8378 384.8378 384.8401
   385.3579 385.4281 385.4281 385.5704 386.5317 386.5478 386.5478 386.5617
   386.5892 386.5967 386.5967 386.5976 390.7481 390.8277 391.0689 391.0689
   391.0746 391.0746 391.6153 391.6167 392.1137 392.1361 392.1361 392.1781
   393.9090 393.9360 393.9945 393.9945 394.0149 394.0149 394.7397 394.7788
   395.5768 395.5876 395.6306 395.6518 395.6518 395.6630 395.6630 395.6747
   396.4938 396.5549 396.5549 396.6662 396.7083 396.8331 396.8331 396.8855
   397.0118 397.0193 397.2829 397.2829 397.2852 397.2852 397.6489 397.6518
   397.9496 397.9878 397.9878 397.9908 398.6234 398.6234 398.6485 398.6485
   399.1431 399.1694 399.1694 399.2398 399.3568 399.3687 399.3687 399.3794
   403.5265 403.6479 403.6479 403.8195 404.7470 404.7475 406.3935 406.5322
   406.5322 406.6776 409.1131 409.1873 409.1873 409.2664 409.4319 409.4494
   409.4712 409.4712 409.5162 409.5825 409.5825 409.6632 409.7214 409.7607
   409.7607 409.7930 411.6828 411.6828 411.7655 411.8186 411.9755 412.0321
   412.0321 412.1073 412.9863 412.9971 413.0068 413.0068 413.4109 413.4433
   413.4433 413.4476 414.1869 414.1869 414.1873 414.1945 414.3382 414.3502
   414.3502 414.3850 414.4354 414.4944 414.4944 414.5198 414.5427 414.5692
   414.6115 414.6115 421.7359 421.7845 423.5249 423.5249 423.5321 423.5328
   423.6165 423.6165 423.6745 423.6800 423.7176 423.7176 423.7590 423.7863
   423.9388 423.9388 423.9447 423.9447 424.1197 424.1613 424.1849 424.1849
   426.5001 426.6001 426.6079 426.6079 426.6210 426.6257 426.6971 426.6971
   426.8457 426.8527 427.9864 427.9910 427.9910 428.0051 428.0100 428.0207

          k =-0.5000-1.0000 0.0000 (  2468 PWs)   bands (ev):

    -8.5824  -8.5051  -8.5011  -8.5011  -8.4726  -3.7086   0.3742   4.2803
     4.2803   7.5553  10.1950  13.2193  13.2193  15.9644  15.9644  19.9817
    20.8356  20.9965  21.8292  21.8292  24.0109  24.6383  25.6100  26.3162
    26.3162  28.1112  28.2608  29.1047  29.5124  29.5124  31.0792  31.0792
    31.4234  33.4638  33.4638  35.9671  38.3305  39.3324  39.3324  40.3466
    40.6977  41.7962  42.5013  42.5013  42.8011  44.0458  45.7120  45.7793
    45.7793  47.3886  47.3886  48.2939  49.3450  49.3450  49.6619  50.9109
    51.8562  51.8562  52.8246  53.0557  53.8778  54.8203  56.0828  56.0828
    56.4298  57.5181  57.5181  58.2194  59.8912  59.8912  60.4537  60.9023
    62.1976  62.1976  62.4459  63.6215  63.6215  63.8550  63.9318  66.0094
    67.4970  67.6494  68.3389  68.5081  68.5081  68.5974  69.4465  69.4465
    70.2773  70.7022  72.0580  72.1764  72.2777  72.2777  74.1084  74.1084
    75.3902  75.6346  76.0269  76.2416  76.2416  76.9214  76.9214  77.2281
    79.3616  80.1551  80.3641  80.3641  80.4218  82.2218  82.2218  83.8968
    83.8968  83.9354  85.2182  86.4114  86.9457  87.2843  87.2843  90.0925
    90.0925  90.5569  92.2082  93.0787  93.2756  93.2756  93.3723  93.3874
    94.8444  94.8444  95.0410  95.6197  95.9732  96.9331  96.9331  97.4408
    97.7960  97.7960  97.9192  99.1927  99.8706  99.9880 100.0158 101.4190
   101.4190 101.6179 101.8474 102.5162 102.5162 103.1062 103.4969 103.6756
   103.8326 103.8326 105.4938 105.4938 106.3277 106.6941 106.6941 106.8247
   107.1538 108.3437 108.4878 108.4878 109.7853 109.9163 110.1579 110.1579
   111.3226 111.7486 111.7486 112.2660 113.0450 113.2506 115.4161 116.1231
   116.1231 116.2560 116.2715 116.3621 116.3621 116.6794 117.5276 118.4083
   118.4083 118.9173 119.5345 119.5345 120.0161 120.3536 120.4713 120.9122
   120.9122 121.3926 121.3926 121.6476 121.7458 122.3370 123.6821 123.6821
   124.0786 124.0786 125.9402 126.3310 126.3310 126.7233 126.8144 127.4514
   128.9883 128.9883 130.1830 130.3615 131.0386 131.0386 132.4420 132.4420
   132.5633 132.9572 132.9800 134.6846 135.0776 135.9769 136.1385 136.1385
   136.6868 137.0559 137.4792 137.4792 137.5720 138.1606 138.5656 138.6191
   138.6191 140.0109 140.1093 140.1093 141.1563 141.1768 141.2752 142.2149
   142.2149 143.1226 143.1226 143.4417 144.4087 145.0192 145.0192 145.7323
   146.5833 146.9231 146.9544 146.9544 147.0270 147.2680 147.4154 148.1259
   148.1259 149.2821 149.2821 149.8837 149.9836 151.8102 152.3121 152.3932
   152.3932 153.4971 154.7502 155.2065 155.2065 155.7547 156.1546 156.1546
   156.1599 157.0302 157.2352 157.2352 157.9923 158.4442 158.6289 159.3518
   159.3518 159.4868 160.0577 161.7020 161.8107 161.8107 164.9229 164.9229
   165.6780 166.1805 166.3336 166.3336 166.5610 166.5610 166.7355 167.1438
   167.2739 167.4814 167.5644 167.5644 167.9179 168.2826 168.3890 168.3890
   168.6420 168.9019 168.9498 168.9498 169.2527 170.2792 170.2792 170.5292
   171.2755 171.4860 171.4860 172.4754 172.8708 172.9656 173.0002 173.0002
   173.0906 173.0906 173.7651 173.8503 174.0841 174.1386 174.5220 174.5220
   174.8070 175.0886 175.0886 175.2034 177.2487 177.2487 177.4869 178.5335
   179.6704 179.7464 179.7464 181.7706 182.0131 182.0131 182.0518 182.2429
   182.2605 182.9851 182.9851 182.9851 183.2406 183.3387 183.5417 183.5417
   183.5659 183.6901 184.2260 184.2260 186.1977 186.1977 186.3578 186.3862
   186.5693 186.5693 186.6829 186.8722 187.2879 187.3515 187.6044 187.6044
   190.7569 190.7829 190.7829 190.9132 191.0578 191.1781 191.1781 191.6077
   194.7259 194.7373 194.8534 194.8534 195.9126 196.4251 196.7693 196.7693
   196.8121 196.9486 196.9960 196.9960 197.6108 198.2160 198.2942 198.2942
   198.5026 198.7192 198.7192 198.7547 199.5570 201.1901 201.1901 201.9311
   202.8205 202.8205 203.2816 203.3632 204.1221 204.2244 204.4232 204.4812
   204.4812 204.9443 205.4124 205.4124 206.5522 206.8329 209.4297 209.4297
   210.6683 210.6916 211.0823 211.0823 212.1913 212.4620 212.7860 212.7860
   213.3589 213.3589 213.5503 213.5539 213.6376 213.9052 214.1004 214.1004
   214.1672 214.5981 214.6715 214.6847 214.6847 215.2742 215.4087 215.4087
   215.4842 215.6496 215.6678 215.7363 215.7363 216.0571 216.4755 216.7259
   216.7259 216.8438 221.4910 221.9101 221.9101 221.9468 222.2091 222.3466
   222.4794 222.4794 224.0488 224.0488 225.3202 225.4631 225.4886 225.6494
   225.6494 225.9220 225.9220 226.0484 228.3504 228.3990 228.3990 228.4819
   228.8772 229.5044 229.5044 229.7177 229.7800 229.8722 229.8977 229.8977
   230.2819 230.2819 230.7210 230.8224 231.6484 231.6484 231.7498 231.9630
   231.9630 232.1169 232.2645 233.4988 233.8837 233.9154 233.9154 234.1717
   234.5021 235.1139 235.1139 235.2976 235.5690 235.5690 235.8754 235.9890
   236.7192 236.7192 236.7376 236.7893 236.8450 236.8450 237.0031 237.1862
   237.6572 240.1383 240.1383 240.3850 241.4650 241.4650 241.7330 241.7645
   246.3243 246.3569 246.3569 246.3734 246.5597 246.9174 246.9859 246.9859
   249.8015 249.8994 249.8994 250.0739 250.1176 250.6155 250.9974 251.0698
   251.0929 251.0929 251.5168 251.5168 251.8671 251.8671 251.9224 252.1918
   252.2264 252.3094 252.3094 252.7833 252.8880 253.0371 253.0621 253.0621
   253.7986 253.8958 253.8958 254.0384 254.5245 254.6350 254.6350 254.7261
   255.6852 255.7929 255.7929 256.0401 257.3987 257.3987 257.8938 258.6508
   258.6966 258.7107 258.7107 258.8984 261.1935 261.2643 261.2643 261.4021
   261.4910 261.6874 261.6904 261.7251 261.7251 261.9958 261.9958 262.0280
   262.1764 262.1786 262.1786 262.3461 263.0773 263.3894 263.4442 263.4442
   263.4522 263.4522 263.4652 263.4677 264.9845 265.0257 265.0302 265.0302
   265.9305 265.9320 265.9320 265.9575 267.1612 267.4159 267.4413 267.4413
   268.5582 268.5582 268.6291 268.7972 269.0402 269.0648 269.7908 269.7908
   271.2835 271.5351 271.9320 271.9320 272.5298 273.8635 274.5446 274.6010
   274.6028 274.6028 275.1952 275.1952 275.3301 275.4615 276.4950 276.7699
   276.7699 277.0154 277.4375 277.4627 277.4627 277.4880 277.6752 277.7058
   277.7076 277.7076 278.1470 278.1470 278.5250 278.5453 279.4177 279.8839
   279.8839 279.9741 280.3537 280.3537 280.4284 281.2744 282.0471 282.4302
   282.4302 282.4444 283.2493 283.4660 283.5492 283.5492 284.7775 284.7886
   284.8273 284.8273 285.0698 285.0698 285.1450 285.1516 286.0680 286.1476
   286.1688 286.1688 286.8388 286.8763 286.8763 286.9371 287.6345 287.6345
   288.9195 288.9195 289.0102 289.0126 292.0676 292.0676 292.0720 292.3289
   293.4213 293.4213 293.4219 293.4283 293.9813 294.0067 294.0142 294.0142
   294.1951 294.1951 294.4740 294.4803 294.4875 294.4875 296.4673 297.0981
   297.3455 297.3455 297.3674 297.3940 298.5919 298.5919 298.9875 299.0221
   300.4754 300.5662 300.5833 300.5833 301.6510 301.7337 301.7337 301.8144
   304.3570 304.3570 304.6420 304.6538 304.8622 305.1064 305.1079 305.1079
   305.1139 305.6564 305.6564 305.8262 306.3015 306.3435 306.3435 306.8014
   308.2838 308.4908 308.4935 308.4935 308.7950 309.3106 309.6470 309.6470
   312.0941 312.0941 312.1389 312.1930 313.0334 313.2102 313.8656 313.8656
   313.8723 313.8723 314.5316 314.5981 314.7116 314.9268 314.9903 314.9903
   315.2452 315.2452 315.2972 315.4068 316.7039 316.8001 317.0247 317.0247
   317.2167 317.2167 317.3080 317.4669 323.1241 323.1241 323.1575 323.1683
   323.6178 323.6548 323.6553 323.6553 323.7708 323.9635 323.9635 324.0124
   324.0203 324.0203 324.1087 324.3339 324.4150 324.4150 324.4180 324.5464
   325.5408 325.5632 325.5632 325.6567 327.8068 327.8720 327.9492 327.9492
   328.0765 328.5885 328.5885 329.2714 329.5503 330.1342 330.2050 330.2050
   330.5673 330.6076 330.7710 330.7710 331.6745 331.6969 331.6969 331.9415
   332.0972 332.0972 332.1698 332.1822 332.2576 332.2593 332.4083 332.4083
   332.4631 332.4934 332.6958 332.6958 333.1301 333.1417 333.1652 333.1652
   333.2177 333.2665 333.3005 333.3005 333.3231 333.3372 333.6947 333.6947
   334.1216 334.1216 334.2158 334.3098 336.0746 336.0886 336.0886 336.0994
   338.8167 338.8167 338.8256 338.8532 339.9637 339.9663 339.9663 340.0360
   340.4363 340.4363 340.4540 340.4580 340.8986 340.8986 340.9062 340.9788
   341.0971 341.2745 341.2745 341.3244 341.7461 341.8432 341.8432 341.8634
   342.0812 342.1687 342.3626 342.3626 342.3732 342.3797 343.5878 343.5878
   345.0808 345.3139 345.3148 345.3376 345.3376 345.6424 345.7592 346.0402
   346.0507 346.0507 350.1559 350.1559 350.2482 350.3755 352.1546 352.1546
   352.1848 352.1861 353.5788 353.6943 353.6943 354.0011 354.0425 354.2542
   354.2542 354.5164 355.8182 355.9973 355.9973 356.0554 356.2393 356.3149
   356.3149 356.4824 356.6126 356.6126 356.6213 356.6665 356.9091 357.0027
   357.0027 357.0803 357.4492 357.4492 357.5463 357.5490 357.7406 357.8230
   357.8230 357.8929 357.9198 357.9917 357.9917 358.0090 358.3542 358.3542
   360.6030 360.6030 360.6041 360.6627 363.2759 363.2993 363.2993 363.3184
   364.0130 364.0410 364.0454 364.0454 365.5418 365.5418 367.2237 367.2402
   367.3623 367.3623 367.3781 367.3797 367.3849 367.3849 368.5373 368.5753
   370.2926 370.3436 370.3781 370.3781 370.3978 370.3978 370.4511 370.5191
   371.3345 371.3422 371.3602 371.3602 372.4328 372.4328 372.4428 372.4821
   372.5512 372.5671 372.5671 372.5935 372.6431 372.6431 372.6757 372.7104
   374.9964 374.9964 375.3898 375.3943 375.6423 375.6423 375.6459 375.6463
   375.8355 375.8508 375.8508 375.8580 376.3569 376.3569 376.3614 376.3755
   377.1091 377.1091 377.1144 377.1948 378.5636 378.5636 378.6688 378.7342
   379.0493 379.1071 379.2530 379.2530 379.5432 379.6373 379.6373 379.6674
   379.8160 379.8945 379.9206 379.9206 379.9904 379.9904 379.9941 380.0732
   380.3383 380.3383 380.3463 380.3799 380.4282 380.4305 380.4305 380.4352
   380.5674 380.5674 380.5777 380.5906 382.8320 382.9255 382.9255 382.9810
   385.5219 385.5369 385.9420 385.9420 389.2691 389.2740 389.2740 389.2798
   389.3091 389.3137 389.3137 389.3177 392.0211 392.0211 392.0277 392.0414
   393.6578 393.6790 393.6790 393.6916 394.4621 394.4799 394.4799 394.4951
   395.2966 395.3034 395.3383 395.3383 395.5506 395.5506 395.5520 395.5587
   396.0585 396.0725 396.0758 396.0758 396.7900 396.7900 396.8641 396.8861
   397.3779 397.3779 397.3818 397.3908 400.1997 400.2190 400.2197 400.2197
   401.2165 401.2165 401.2613 401.2783 401.3139 401.3544 401.4513 401.4513
   402.6572 402.6572 402.7384 402.7415 402.9112 402.9112 403.0574 403.0930
   403.2696 403.2696 403.3482 403.3626 403.6847 403.6885 403.9950 403.9950
   404.3925 404.3951 404.3951 404.4056 404.4089 404.4395 404.4457 404.4457
   406.0075 406.0097 406.0896 406.0896 407.6502 407.6502 407.6549 407.6549
   410.8470 410.8696 410.8890 410.8890 410.9378 410.9378 410.9476 410.9532
   411.6866 411.6991 411.6991 411.7079 412.0356 412.1145 412.1145 412.1530
   412.6066 412.6089 412.6089 412.6225 413.7189 413.7286 413.9350 413.9350
   414.0443 414.0443 414.0645 414.0730 419.3082 419.3223 419.3223 419.3382
   419.3398 419.3439 419.3439 419.3456 420.8674 420.8674 420.8796 420.9000
   421.9075 421.9931 422.2915 422.2915 422.4817 422.4875 422.4875 422.4936
   422.9991 422.9991 423.0089 423.0121 423.0886 423.1508 423.7139 423.7754
   423.7754 423.8580 425.0125 425.0835 425.0835 425.1478 425.7031 425.7031
   425.7147 425.7306 425.7328 425.7502 425.7502 425.7630 426.9755 427.0004

     the Fermi energy is     8.3852 ev
     (compare with:     8.3284 eV, computed in scf)

     Writing all to output data dir out/mp-2201.save/
 
     init_run     :      0.03s CPU      0.04s WALL (       1 calls)
     electrons    :    524.95s CPU    560.89s WALL (       1 calls)

     Called by init_run:
     wfcinit      :      0.00s CPU      0.00s WALL (       1 calls)
     potinit      :      0.01s CPU      0.01s WALL (       1 calls)
     hinit0       :      0.01s CPU      0.02s WALL (       1 calls)

     Called by electrons:
     c_bands      :    524.94s CPU    560.88s WALL (       1 calls)
     v_of_rho     :      0.01s CPU      0.01s WALL (       1 calls)

     Called by c_bands:
     init_us_2    :      0.00s CPU      0.00s WALL (       8 calls)
     init_us_2:cp :      0.00s CPU      0.00s WALL (       8 calls)
     paro_k       :    506.49s CPU    541.33s WALL (       8 calls)

     Called by paro_*:
     h_psi        :     11.10s CPU     11.60s WALL (     863 calls)
     g_psi        :      0.23s CPU      0.26s WALL (   82786 calls)

     Called by h_psi:
     h_psi:calbec :      0.36s CPU      0.38s WALL (     863 calls)
     vloc_psi     :     10.38s CPU     10.84s WALL (     863 calls)
     add_vuspsi   :      0.29s CPU      0.30s WALL (     863 calls)

     General routines
     calbec       :      0.35s CPU      0.37s WALL (     863 calls)
     fft          :      0.00s CPU      0.01s WALL (      10 calls)
     fftw         :      9.25s CPU      9.67s WALL (  136522 calls)
 
     Parallel routines
 
     PWSCF        :   8m45.58s CPU   9m21.79s WALL

 
   This run was terminated on:  19: 0: 3   2Jan2024            

=------------------------------------------------------------------------------=
   JOB DONE.
=------------------------------------------------------------------------------=
