
     Program PWSCF v.7.1 starts on 14Nov2023 at 10:18:21 

     This program is part of the open-source Quantum ESPRESSO suite
     for quantum simulation of materials; please cite
         "P. Giannozzi et al., J. Phys.:Condens. Matter 21 395502 (2009);
         "P. Giannozzi et al., J. Phys.:Condens. Matter 29 465901 (2017);
         "P. Giannozzi et al., J. Chem. Phys. 152 154105 (2020);
          URL http://www.quantum-espresso.org", 
     in publications or presentations arising from this work. More details at
     http://www.quantum-espresso.org/quote

     Parallel version (MPI), running on     8 processors

     MPI processes distributed on     1 nodes
     123583 MiB available memory on the printing compute node when the environment starts
 
     Reading input from pw_mp-682_nscf_k0_E92.in
Warning: card &IONS ignored
Warning: card / ignored
Warning: card &CELL ignored
Warning: card / ignored

     Current dimensions of program PWSCF are:
     Max number of different atomic species (ntypx) = 10
     Max number of k-points (npk) =  40000
     Max angular momentum in pseudopotentials (lmaxx) =  4

     Atomic positions and unit cell read from directory:
     out/mp-682.save/
     Atomic positions from file used, from input discarded
 
 
     R & G space division:  proc/nbgrp/npool/nimage =       8
     Subspace diagonalization in iterative solution of the eigenvalue problem:
     one sub-group per band group will be used
     scalapack distributed-memory algorithm (size of sub-group:  2*  2 procs)

 
     Parallelization info
     --------------------
     sticks:   dense  smooth     PW     G-vecs:    dense   smooth      PW
     Min         119     119     30                 2398     2398     302
     Max         120     120     31                 2400     2400     304
     Sum         955     955    241                19195    19195    2421
 
     Using Slab Decomposition
 


     bravais-lattice index     =            2
     lattice parameter (alat)  =       8.6394  a.u.
     unit-cell volume          =     161.2111 (a.u.)^3
     number of atoms/cell      =            2
     number of atomic types    =            2
     number of electrons       =        16.00
     number of Kohn-Sham states=          880
     kinetic-energy cutoff     =      92.0000  Ry
     charge density cutoff     =     368.0000  Ry
     Exchange-correlation= PBE
                           (   1   4   3   4   0   0   0)

     celldm(1)=   8.639428  celldm(2)=   0.000000  celldm(3)=   0.000000
     celldm(4)=   0.000000  celldm(5)=   0.000000  celldm(6)=   0.000000

     crystal axes: (cart. coord. in units of alat)
               a(1) = (  -0.500000   0.000000   0.500000 )  
               a(2) = (   0.000000   0.500000   0.500000 )  
               a(3) = (  -0.500000   0.500000   0.000000 )  

     reciprocal axes: (cart. coord. in units 2 pi/alat)
               b(1) = ( -1.000000 -1.000000  1.000000 )  
               b(2) = (  1.000000  1.000000  1.000000 )  
               b(3) = ( -1.000000  1.000000 -1.000000 )  


     PseudoPot. # 1 for F  read from file:
     /usr/scratch4/magr4985/MG/HTDF/pseudo/SG15/F.upf
     MD5 check sum: 1d8275f47d602dd53cad6bcdc0eda7dc
     Pseudo is Norm-conserving, Zval =  7.0
     Generated using ONCVPSP code by D. R. Hamann
     Using radial grid of  602 points,  4 beta functions with: 
                l(1) =   0
                l(2) =   0
                l(3) =   1
                l(4) =   1

     PseudoPot. # 2 for Na read from file:
     /usr/scratch4/magr4985/MG/HTDF/pseudo/SG15/Na.upf
     MD5 check sum: 425b17ce8ead78efa4860b7b3310c7e3
     Pseudo is Norm-conserving, Zval =  9.0
     Generated using ONCVPSP code by D. R. Hamann
     Using radial grid of  602 points,  4 beta functions with: 
                l(1) =   0
                l(2) =   0
                l(3) =   1
                l(4) =   1

     atomic species   valence    mass     pseudopotential
        F              7.00    18.99840     F ( 1.00)
        Na             9.00    22.98980     Na( 1.00)

     48 Sym. Ops., with inversion, found



   Cartesian axes

     site n.     atom                  positions (alat units)
         1           Na  tau(   1) = (   0.0000000   0.0000000   0.0000000  )
         2           F   tau(   2) = (  -0.5000000   0.5000000   0.5000000  )

     number of k points=     1  Gaussian smearing, width (Ry)=  0.0005
                       cart. coord. in units 2pi/alat
        k(    1) = (   0.0000000   0.0000000   0.0000000), wk =   2.0000000

     Dense  grid:    19195 G-vectors     FFT dimensions: (  40,  40,  40)

     Estimated max dynamical RAM per process >      57.70 MB

     Estimated total dynamical RAM >     461.56 MB

     The potential is recalculated from file :
     out/mp-682.save/charge-density

     Starting wfcs are random

     Band Structure Calculation
     Davidson diagonalization with overlap

     ethr =  5.00E-06,  avg # of iterations = 13.0

     total cpu time spent up to now is       66.2 secs

     End of band structure calculation

          k = 0.0000 0.0000 0.0000 (  2421 PWs)   bands (ev):

   -45.3642 -17.5271 -17.2648 -17.2648 -17.2648   1.6185   1.6185   1.6185
     8.1954  21.0545  21.0545  21.0545  23.8919  26.3236  26.3236  29.1736
    29.1736  29.1736  36.2919  36.2919  36.2919  41.8615  51.1760  51.1760
    51.1760  52.7277  55.4661  55.4661  55.9197  55.9197  55.9197  65.0008
    65.0008  68.4835  68.4835  68.4835  71.1555  71.1555  71.1555  75.6114
    75.6114  75.6114  76.7711  76.7711  76.7711  78.1893  78.1893  78.1893
    78.3555  80.4798  80.4798  80.4798  81.0085  81.0085  81.0954  81.3291
    81.3291  81.3291  82.1547  90.6034  90.6034  90.6034  98.9475  98.9475
    98.9475 104.9495 104.9495 106.6101 118.3627 118.3627 118.3627 121.9677
   123.4860 123.4860 123.4860 128.7316 128.7316 129.3757 129.3757 129.3757
   131.8905 132.6814 132.6814 132.6814 133.6900 133.6900 134.1301 135.0870
   135.0870 135.0870 136.2493 136.2493 136.2493 137.0046 137.0046 137.0046
   137.1968 137.1968 137.1968 137.2165 137.2165 139.2366 139.2366 139.2366
   140.6794 140.6794 140.6794 142.0133 142.0133 143.0041 143.0041 143.0041
   143.7402 152.7597 152.7597 152.7597 156.4195 156.4195 156.4195 162.7002
   162.7002 162.7002 163.4012 165.6072 169.2936 169.2936 169.4878 169.4878
   169.4878 169.8260 169.8260 169.8260 170.0405 170.0405 170.0405 170.1255
   170.1255 170.1255 170.2649 170.2649 172.7113 172.7113 180.8330 185.1804
   185.1804 185.1804 185.6405 185.6405 185.6405 188.0865 190.1575 190.2986
   190.2986 190.2986 190.6753 190.6753 190.6753 191.6276 191.6276 191.6276
   191.8294 191.8294 191.8294 195.4111 195.4111 195.4691 195.4691 195.4691
   195.5712 200.7173 200.7173 200.7173 215.3983 215.3983 215.3983 221.8155
   221.8155 221.8155 222.8828 222.8828 223.1922 223.1922 223.1922 225.2308
   234.3720 234.3720 234.3720 235.7754 235.7754 235.7754 236.5298 236.5298
   237.9344 237.9344 237.9344 241.6598 243.4696 243.4696 243.4696 244.8435
   244.8435 244.8435 245.3387 245.3387 246.4780 246.7856 246.7856 246.9701
   246.9701 246.9701 247.5857 247.5857 247.5857 247.9859 248.0209 248.3483
   248.3483 248.3483 249.5854 249.5854 249.5854 249.6000 249.6000 250.3573
   250.3573 250.3573 250.9804 250.9804 250.9804 251.5077 251.6482 251.6482
   251.6482 252.1567 252.1567 252.1567 252.2810 252.2810 252.7679 252.7679
   252.7679 253.0526 255.3449 255.5835 255.5835 255.5835 255.9439 255.9439
   255.9439 255.9842 255.9842 256.2844 256.2844 256.2844 256.3789 256.3789
   256.3789 256.4499 256.4499 271.5409 271.5409 271.5409 275.9314 275.9314
   280.8385 280.8385 280.8385 281.0432 281.0432 281.0432 281.2500 281.2500
   281.2500 281.5862 281.5862 281.5862 281.8354 286.0744 286.0744 286.1363
   286.1363 286.1363 286.2654 288.0278 288.0278 288.0278 297.5832 297.5832
   297.5832 297.9501 303.1252 305.1674 305.1674 305.1674 305.7115 305.7115
   305.8857 305.8857 305.8857 306.0286 306.0286 306.0286 306.2234 306.2234
   306.2234 306.2766 306.2766 306.2766 306.4376 306.4376 310.7119 310.7119
   310.7119 311.0287 311.0287 311.2934 311.4357 311.4357 311.4357 311.5978
   311.5978 311.5978 311.8016 311.8016 311.8016 312.1308 312.1308 312.1308
   312.3680 312.3680 314.6619 328.6014 328.6014 328.6014 336.5960 336.5960
   336.5960 338.7115 338.7115 338.7115 338.8843 341.0539 343.6882 343.6882
   351.9579 353.1305 353.1305 353.1305 353.8348 353.8348 353.8348 354.7387
   354.7387 354.7387 354.9543 354.9543 354.9543 355.6890 355.6890 360.8220
   362.0384 362.0384 362.0384 362.5956 362.5956 362.5956 362.7889 362.7889
   362.7889 362.8000 362.8000 363.0457 363.0457 363.0457 363.3407 363.3407
   363.3407 363.4571 363.4571 363.4571 365.0586 365.4502 365.4502 365.4502
   365.7378 365.7378 365.7378 365.8809 365.8809 365.9810 365.9810 365.9810
   368.0510 368.0715 368.0715 368.0715 368.0950 368.0950 369.8610 369.8610
   369.8610 369.9845 369.9845 370.1913 370.2756 370.2756 370.2756 370.5694
   370.5694 370.5694 370.8026 386.5551 386.5551 386.5551 391.2706 391.3267
   391.3267 391.3267 395.2099 395.2099 395.3212 395.3212 395.3212 395.4294
   395.4294 395.4294 395.7030 395.7030 395.7030 396.0023 396.0023 396.0023
   396.1499 396.1499 398.2162 398.6501 398.6501 398.6501 400.0521 400.0521
   400.1805 400.1805 400.1805 400.2488 400.2488 400.2488 400.3440 400.3440
   400.3440 400.3916 400.3916 400.3916 400.5067 400.5067 401.7909 401.8090
   401.8090 401.8090 401.8533 401.8533 401.8533 401.9206 408.7140 408.7140
   408.7140 408.9220 408.9220 411.0355 411.0355 411.0355 411.2065 412.1978
   412.1978 412.1978 413.0533 413.0533 413.0533 415.1334 415.1334 415.1334
   415.9330 416.4288 416.4288 416.4288 416.8330 416.8330 417.2820 417.2820
   417.2820 417.9021 419.1728 420.3422 420.3422 421.0536 421.0536 421.0536
   421.2758 421.2758 421.2758 421.2931 421.2931 421.2931 421.9565 421.9565
   422.0035 422.0035 422.0035 422.4047 422.6009 422.6009 422.6009 422.6508
   422.6508 424.0039 424.0039 424.0039 424.1108 424.1108 424.1108 424.2453
   424.2453 424.2453 424.3214 424.3214 424.3214 425.1322 425.1920 425.1920
   425.1920 425.2326 425.2326 443.9054 443.9054 443.9054 448.2142 448.2142
   452.0418 466.1215 466.1215 466.1215 474.9258 474.9258 474.9258 475.3845
   475.3845 475.3845 475.5613 475.6795 475.6795 476.1546 476.1546 476.1546
   476.4173 476.4173 476.4173 476.4946 476.4946 476.4946 476.7222 476.7222
   476.7222 476.8378 476.8378 476.9031 476.9031 476.9031 477.0480 477.0955
   477.0955 477.8096 477.8096 477.8096 478.7137 478.8630 481.9782 481.9782
   481.9782 482.1711 482.1711 482.1711 482.5102 482.5102 482.5102 482.6793
   482.6793 482.6793 482.9055 485.9929 485.9929 485.9968 485.9968 486.0557
   486.0557 486.0557 486.0747 486.0747 486.0747 486.2097 486.2097 486.2097
   486.2750 486.2750 486.2750 487.5288 487.5288 487.5315 487.5315 487.5315
   487.6267 505.1727 505.1727 505.1727 509.1989 509.1989 509.1989 509.4125
   509.4125 509.4195 509.4195 509.4195 512.4417 512.4696 512.4696 512.4696
   512.6738 512.6738 512.9124 512.9124 512.9124 513.2698 513.2698 513.2698
   513.2963 513.2963 513.2963 513.5185 513.5185 513.5185 513.5310 513.5443
   513.5443 513.5542 513.5542 513.5542 514.2690 517.9525 517.9525 517.9525
   522.3707 522.3707 522.3707 522.8439 522.8439 522.8811 522.8811 522.8811
   528.6297 531.8528 532.5628 532.5628 532.5628 532.5803 532.5803 532.5803
   532.7267 532.7267 532.8191 532.8191 532.8191 533.0148 533.0148 533.0148
   533.1014 533.1014 533.1014 533.3735 534.1034 537.3362 537.3362 537.3650
   537.3650 537.3650 537.4536 537.4536 537.4536 537.5404 537.5404 537.5404
   537.6018 539.0490 539.0490 539.0490 539.5205 539.5205 539.5205 539.5349
   539.5349 539.5956 539.5956 539.5956 539.6640 539.6640 539.6640 539.7172
   540.4741 540.4741 540.4741 540.8592 540.8592 540.8889 540.8889 540.8889
   541.0032 541.5085 541.5085 541.5085 541.7420 541.7420 541.7420 541.9919
   541.9919 541.9948 541.9948 541.9948 542.5784 563.5142 563.5142 563.5142
   567.1253 567.1253 568.1764 568.1764 568.1764 568.1873 568.1873 568.1873
   568.2777 568.2777 568.2777 568.4098 568.4098 568.4098 569.1346 569.1346
   569.2499 569.2499 569.2499 569.4126 569.6683 573.0470 573.0470 573.0470
   574.5596 574.5596 577.8577 582.9426 582.9426 582.9426 584.4447 584.4447
   584.4447 584.5533 588.0558 588.8992 588.8992 588.8992 589.1686 589.1686
   589.1686 589.2472 589.2472 589.2472 589.2938 589.2938 589.3069 589.3069
   589.3069 589.4836 589.4836 592.9853 592.9853 592.9853 593.0879 593.0879
   593.0879 593.1722 593.1722 593.1722 593.2215 593.2215 593.2215 594.1958
   594.1958 594.3352 594.3352 594.3352 594.3743 594.3743 594.3743 594.3977
   594.3977 594.4130 594.4130 594.4130 594.5535 594.5535 594.5535 594.5805
   594.5805 594.5805 595.7633 595.7633 595.7633 595.8633 595.9700 595.9700
   595.9700 595.9718 595.9718 595.9718 595.9941 596.0056 596.3094 596.3094
   596.3094 596.3425 596.3425 596.5252 596.5252 596.5252 596.5756 596.5756
   596.5756 596.7544 596.7544 596.7544 596.8438 596.8438 598.2944 598.3637
   598.3637 598.3637 598.3988 598.3988 598.9410 601.2805 601.2805 601.3713
   601.3713 601.3713 601.5645 601.5645 601.5645 601.5693 601.5693 601.5693
   601.6614 601.7150 601.7150 601.7150 601.8119 601.8119 601.8278 601.8278
   601.8278 601.9861 601.9861 601.9861 602.0818 620.3473 620.3473 620.3473
   621.2834 621.3384 621.3384 621.3384 622.6487 629.9372 629.9372 629.9646

     the Fermi energy is     7.3431 ev
     (compare with:     7.3431 eV, computed in scf)

     Writing all to output data dir out/mp-682.save/
 
     init_run     :      0.03s CPU      0.07s WALL (       1 calls)
     electrons    :     61.36s CPU     65.95s WALL (       1 calls)

     Called by init_run:
     wfcinit      :      0.00s CPU      0.00s WALL (       1 calls)
     potinit      :      0.01s CPU      0.01s WALL (       1 calls)
     hinit0       :      0.01s CPU      0.04s WALL (       1 calls)

     Called by electrons:
     c_bands      :     61.36s CPU     65.95s WALL (       1 calls)
     v_of_rho     :      0.01s CPU      0.01s WALL (       1 calls)

     Called by c_bands:
     init_us_2    :      0.00s CPU      0.00s WALL (       1 calls)
     init_us_2:cp :      0.00s CPU      0.00s WALL (       1 calls)
     cegterg      :     60.19s CPU     64.64s WALL (       1 calls)

     Called by *egterg:
     cdiaghg      :     57.81s CPU     62.24s WALL (      14 calls)
     h_psi        :      0.79s CPU      0.84s WALL (      15 calls)
     g_psi        :      0.01s CPU      0.01s WALL (      13 calls)

     Called by h_psi:
     h_psi:calbec :      0.01s CPU      0.02s WALL (      15 calls)
     vloc_psi     :      0.77s CPU      0.81s WALL (      15 calls)
     add_vuspsi   :      0.01s CPU      0.01s WALL (      15 calls)

     General routines
     calbec       :      0.01s CPU      0.02s WALL (      15 calls)
     fft          :      0.00s CPU      0.04s WALL (      10 calls)
     fftw         :      0.69s CPU      0.72s WALL (   10030 calls)
 
     Parallel routines
 
     PWSCF        :   1m 1.60s CPU   1m 6.33s WALL

 
   This run was terminated on:  10:19:27  14Nov2023            

=------------------------------------------------------------------------------=
   JOB DONE.
=------------------------------------------------------------------------------=
