
     Program PWSCF v.7.1 starts on 14Nov2023 at 10:39: 0 

     This program is part of the open-source Quantum ESPRESSO suite
     for quantum simulation of materials; please cite
         "P. Giannozzi et al., J. Phys.:Condens. Matter 21 395502 (2009);
         "P. Giannozzi et al., J. Phys.:Condens. Matter 29 465901 (2017);
         "P. Giannozzi et al., J. Chem. Phys. 152 154105 (2020);
          URL http://www.quantum-espresso.org", 
     in publications or presentations arising from this work. More details at
     http://www.quantum-espresso.org/quote

     Parallel version (MPI), running on     8 processors

     MPI processes distributed on     1 nodes
     123475 MiB available memory on the printing compute node when the environment starts
 
     Reading input from pw_mp-682_nscf_k60_E92.in
Warning: card &IONS ignored
Warning: card / ignored
Warning: card &CELL ignored
Warning: card / ignored

     Current dimensions of program PWSCF are:
     Max number of different atomic species (ntypx) = 10
     Max number of k-points (npk) =  40000
     Max angular momentum in pseudopotentials (lmaxx) =  4

     Atomic positions and unit cell read from directory:
     out/mp-682.save/
     Atomic positions from file used, from input discarded
 
 
     R & G space division:  proc/nbgrp/npool/nimage =       8
     Subspace diagonalization in iterative solution of the eigenvalue problem:
     one sub-group per band group will be used
     scalapack distributed-memory algorithm (size of sub-group:  2*  2 procs)

 
     Parallelization info
     --------------------
     sticks:   dense  smooth     PW     G-vecs:    dense   smooth      PW
     Min         119     119     35                 2398     2398     389
     Max         120     120     36                 2400     2400     391
     Sum         955     955    283                19195    19195    3119
 
     Using Slab Decomposition
 


     bravais-lattice index     =            2
     lattice parameter (alat)  =       8.6394  a.u.
     unit-cell volume          =     161.2111 (a.u.)^3
     number of atoms/cell      =            2
     number of atomic types    =            2
     number of electrons       =        16.00
     number of Kohn-Sham states=         1200
     kinetic-energy cutoff     =      92.0000  Ry
     charge density cutoff     =     368.0000  Ry
     Exchange-correlation= PBE
                           (   1   4   3   4   0   0   0)

     celldm(1)=   8.639428  celldm(2)=   0.000000  celldm(3)=   0.000000
     celldm(4)=   0.000000  celldm(5)=   0.000000  celldm(6)=   0.000000

     crystal axes: (cart. coord. in units of alat)
               a(1) = (  -0.500000   0.000000   0.500000 )  
               a(2) = (   0.000000   0.500000   0.500000 )  
               a(3) = (  -0.500000   0.500000   0.000000 )  

     reciprocal axes: (cart. coord. in units 2 pi/alat)
               b(1) = ( -1.000000 -1.000000  1.000000 )  
               b(2) = (  1.000000  1.000000  1.000000 )  
               b(3) = ( -1.000000  1.000000 -1.000000 )  


     PseudoPot. # 1 for F  read from file:
     /usr/scratch4/magr4985/MG/HTDF/pseudo/SG15/F.upf
     MD5 check sum: 1d8275f47d602dd53cad6bcdc0eda7dc
     Pseudo is Norm-conserving, Zval =  7.0
     Generated using ONCVPSP code by D. R. Hamann
     Using radial grid of  602 points,  4 beta functions with: 
                l(1) =   0
                l(2) =   0
                l(3) =   1
                l(4) =   1

     PseudoPot. # 2 for Na read from file:
     /usr/scratch4/magr4985/MG/HTDF/pseudo/SG15/Na.upf
     MD5 check sum: 425b17ce8ead78efa4860b7b3310c7e3
     Pseudo is Norm-conserving, Zval =  9.0
     Generated using ONCVPSP code by D. R. Hamann
     Using radial grid of  602 points,  4 beta functions with: 
                l(1) =   0
                l(2) =   0
                l(3) =   1
                l(4) =   1

     atomic species   valence    mass     pseudopotential
        F              7.00    18.99840     F ( 1.00)
        Na             9.00    22.98980     Na( 1.00)

     48 Sym. Ops., with inversion, found



   Cartesian axes

     site n.     atom                  positions (alat units)
         1           Na  tau(   1) = (   0.0000000   0.0000000   0.0000000  )
         2           F   tau(   2) = (  -0.5000000   0.5000000   0.5000000  )

     number of k points=     8  Gaussian smearing, width (Ry)=  0.0005
                       cart. coord. in units 2pi/alat
        k(    1) = (   0.0000000   0.0000000   0.0000000), wk =   0.0312500
        k(    2) = (  -0.2500000   0.2500000  -0.2500000), wk =   0.2500000
        k(    3) = (   0.5000000  -0.5000000   0.5000000), wk =   0.1250000
        k(    4) = (   0.0000000   0.5000000   0.0000000), wk =   0.1875000
        k(    5) = (   0.7500000  -0.2500000   0.7500000), wk =   0.7500000
        k(    6) = (   0.5000000   0.0000000   0.5000000), wk =   0.3750000
        k(    7) = (   0.0000000  -1.0000000   0.0000000), wk =   0.0937500
        k(    8) = (  -0.5000000  -1.0000000   0.0000000), wk =   0.1875000

     Dense  grid:    19195 G-vectors     FFT dimensions: (  40,  40,  40)

     Estimated max dynamical RAM per process >      95.28 MB

     Estimated total dynamical RAM >     762.26 MB

     The potential is recalculated from file :
     out/mp-682.save/charge-density

     Starting wfcs are random

     Band Structure Calculation
     ParO style diagonalization

     ethr =  5.00E-06,  avg # of iterations =  5.6

     total cpu time spent up to now is      575.9 secs

     End of band structure calculation

          k = 0.0000 0.0000 0.0000 (  2421 PWs)   bands (ev):

   -45.3642 -17.5271 -17.2648 -17.2648 -17.2648   1.6185   1.6185   1.6185
     8.1954  21.0545  21.0545  21.0545  23.8919  26.3236  26.3236  29.1736
    29.1736  29.1736  36.2919  36.2919  36.2919  41.8615  51.1760  51.1760
    51.1760  52.7277  55.4661  55.4661  55.9197  55.9197  55.9197  65.0008
    65.0008  68.4835  68.4835  68.4835  71.1555  71.1555  71.1555  75.6114
    75.6114  75.6114  76.7711  76.7711  76.7711  78.1893  78.1893  78.1893
    78.3555  80.4798  80.4798  80.4798  81.0085  81.0085  81.0954  81.3291
    81.3291  81.3291  82.1547  90.6034  90.6034  90.6034  98.9475  98.9475
    98.9475 104.9495 104.9495 106.6101 118.3627 118.3627 118.3627 121.9677
   123.4860 123.4860 123.4860 128.7316 128.7316 129.3757 129.3757 129.3757
   131.8905 132.6814 132.6814 132.6814 133.6900 133.6900 134.1301 135.0870
   135.0870 135.0870 136.2493 136.2493 136.2493 137.0046 137.0046 137.0046
   137.1968 137.1968 137.1968 137.2165 137.2165 139.2366 139.2366 139.2366
   140.6794 140.6794 140.6794 142.0133 142.0133 143.0041 143.0041 143.0041
   143.7402 152.7597 152.7597 152.7597 156.4195 156.4195 156.4195 162.7002
   162.7002 162.7002 163.4012 165.6072 169.2936 169.2936 169.4878 169.4878
   169.4878 169.8260 169.8260 169.8260 170.0405 170.0405 170.0405 170.1255
   170.1255 170.1255 170.2649 170.2649 172.7113 172.7113 180.8330 185.1804
   185.1804 185.1804 185.6405 185.6405 185.6405 188.0865 190.1575 190.2986
   190.2986 190.2986 190.6753 190.6753 190.6753 191.6276 191.6276 191.6276
   191.8294 191.8294 191.8294 195.4111 195.4111 195.4691 195.4691 195.4691
   195.5712 200.7173 200.7173 200.7173 215.3983 215.3983 215.3983 221.8155
   221.8155 221.8155 222.8828 222.8828 223.1922 223.1922 223.1922 225.2308
   234.3720 234.3720 234.3720 235.7754 235.7754 235.7754 236.5298 236.5298
   237.9344 237.9344 237.9344 241.6598 243.4696 243.4696 243.4696 244.8435
   244.8435 244.8435 245.3387 245.3387 246.4780 246.7856 246.7856 246.9701
   246.9701 246.9701 247.5857 247.5857 247.5857 247.9859 248.0209 248.3483
   248.3483 248.3483 249.5854 249.5854 249.5854 249.6000 249.6000 250.3573
   250.3573 250.3573 250.9804 250.9804 250.9804 251.5077 251.6482 251.6482
   251.6482 252.1567 252.1567 252.1567 252.2810 252.2810 252.7679 252.7679
   252.7679 253.0526 255.3449 255.5835 255.5835 255.5835 255.9439 255.9439
   255.9439 255.9842 255.9842 256.2844 256.2844 256.2844 256.3789 256.3789
   256.3789 256.4499 256.4499 271.5409 271.5409 271.5409 275.9314 275.9314
   280.8385 280.8385 280.8385 281.0432 281.0432 281.0432 281.2500 281.2500
   281.2500 281.5862 281.5862 281.5862 281.8354 286.0744 286.0744 286.1363
   286.1363 286.1363 286.2654 288.0278 288.0278 288.0278 297.5832 297.5832
   297.5832 297.9501 303.1252 305.1674 305.1674 305.1674 305.7115 305.7115
   305.8857 305.8857 305.8857 306.0286 306.0286 306.0286 306.2234 306.2234
   306.2234 306.2766 306.2766 306.2766 306.4376 306.4376 310.7119 310.7119
   310.7119 311.0287 311.0287 311.2934 311.4357 311.4357 311.4357 311.5978
   311.5978 311.5978 311.8016 311.8016 311.8016 312.1308 312.1308 312.1308
   312.3680 312.3680 314.6619 328.6014 328.6014 328.6014 336.5960 336.5960
   336.5960 338.7115 338.7115 338.7115 338.8843 341.0539 343.6882 343.6882
   351.9579 353.1305 353.1305 353.1305 353.8348 353.8348 353.8348 354.7387
   354.7387 354.7387 354.9543 354.9543 354.9543 355.6890 355.6890 360.8220
   362.0384 362.0384 362.0384 362.5956 362.5956 362.5956 362.7889 362.7889
   362.7889 362.8000 362.8000 363.0457 363.0457 363.0457 363.3407 363.3407
   363.3407 363.4571 363.4571 363.4571 365.0586 365.4502 365.4502 365.4502
   365.7378 365.7378 365.7378 365.8809 365.8809 365.9810 365.9810 365.9810
   368.0510 368.0715 368.0715 368.0715 368.0950 368.0950 369.8610 369.8610
   369.8610 369.9845 369.9845 370.1913 370.2756 370.2756 370.2756 370.5694
   370.5694 370.5694 370.8026 386.5551 386.5551 386.5551 391.2706 391.3267
   391.3267 391.3267 395.2099 395.2099 395.3212 395.3212 395.3212 395.4294
   395.4294 395.4294 395.7030 395.7030 395.7030 396.0023 396.0023 396.0023
   396.1499 396.1499 398.2162 398.6501 398.6501 398.6501 400.0521 400.0521
   400.1805 400.1805 400.1805 400.2488 400.2488 400.2488 400.3440 400.3440
   400.3440 400.3916 400.3916 400.3916 400.5067 400.5067 401.7909 401.8090
   401.8090 401.8090 401.8533 401.8533 401.8533 401.9206 408.7140 408.7140
   408.7140 408.9220 408.9220 411.0355 411.0355 411.0355 411.2065 412.1978
   412.1978 412.1978 413.0533 413.0533 413.0533 415.1334 415.1334 415.1334
   415.9330 416.4288 416.4288 416.4288 416.8330 416.8330 417.2820 417.2820
   417.2820 417.9021 419.1728 420.3422 420.3422 421.0536 421.0536 421.0536
   421.2758 421.2758 421.2758 421.2931 421.2931 421.2931 421.9565 421.9565
   422.0035 422.0035 422.0035 422.4047 422.6009 422.6009 422.6009 422.6508
   422.6508 424.0039 424.0039 424.0039 424.1108 424.1108 424.1108 424.2453
   424.2453 424.2453 424.3214 424.3214 424.3214 425.1322 425.1920 425.1920
   425.1920 425.2326 425.2326 443.9054 443.9054 443.9054 448.2142 448.2142
   452.0418 466.1215 466.1215 466.1215 474.9258 474.9258 474.9258 475.3845
   475.3845 475.3845 475.5613 475.6795 475.6795 476.1546 476.1546 476.1546
   476.4173 476.4173 476.4173 476.4946 476.4946 476.4946 476.7222 476.7222
   476.7222 476.8378 476.8378 476.9031 476.9031 476.9031 477.0480 477.0955
   477.0955 477.8096 477.8096 477.8096 478.7137 478.8630 481.9782 481.9782
   481.9782 482.1711 482.1711 482.1711 482.5102 482.5102 482.5102 482.6793
   482.6793 482.6793 482.9055 485.9929 485.9929 485.9968 485.9968 486.0557
   486.0557 486.0557 486.0747 486.0747 486.0747 486.2097 486.2097 486.2097
   486.2750 486.2750 486.2750 487.5288 487.5288 487.5315 487.5315 487.5315
   487.6267 505.1727 505.1727 505.1727 509.1989 509.1989 509.1989 509.4125
   509.4125 509.4195 509.4195 509.4195 512.4417 512.4696 512.4696 512.4696
   512.6738 512.6738 512.9124 512.9124 512.9124 513.2698 513.2698 513.2698
   513.2963 513.2963 513.2963 513.5185 513.5185 513.5185 513.5310 513.5443
   513.5443 513.5542 513.5542 513.5542 514.2690 517.9525 517.9525 517.9525
   522.3707 522.3707 522.3707 522.8439 522.8439 522.8811 522.8811 522.8811
   528.6297 531.8528 532.5628 532.5628 532.5628 532.5803 532.5803 532.5803
   532.7267 532.7267 532.8191 532.8191 532.8191 533.0148 533.0148 533.0148
   533.1014 533.1014 533.1014 533.3735 534.1034 537.3362 537.3362 537.3650
   537.3650 537.3650 537.4536 537.4536 537.4536 537.5404 537.5404 537.5404
   537.6018 539.0490 539.0490 539.0490 539.5205 539.5205 539.5205 539.5349
   539.5349 539.5956 539.5956 539.5956 539.6640 539.6640 539.6640 539.7172
   540.4741 540.4741 540.4741 540.8592 540.8592 540.8889 540.8889 540.8889
   541.0032 541.5085 541.5085 541.5085 541.7420 541.7420 541.7420 541.9919
   541.9919 541.9948 541.9948 541.9948 542.5784 563.5142 563.5142 563.5142
   567.1253 567.1253 568.1764 568.1764 568.1764 568.1873 568.1873 568.1873
   568.2777 568.2777 568.2777 568.4098 568.4098 568.4098 569.1346 569.1346
   569.2499 569.2499 569.2499 569.4126 569.6683 573.0470 573.0470 573.0470
   574.5596 574.5596 577.8577 582.9426 582.9426 582.9426 584.4447 584.4447
   584.4447 584.5533 588.0558 588.8992 588.8992 588.8992 589.1686 589.1686
   589.1686 589.2472 589.2472 589.2472 589.2938 589.2938 589.3069 589.3069
   589.3069 589.4836 589.4836 592.9853 592.9853 592.9853 593.0879 593.0879
   593.0879 593.1722 593.1722 593.1722 593.2215 593.2215 593.2215 594.1958
   594.1958 594.3352 594.3352 594.3352 594.3743 594.3743 594.3743 594.3977
   594.3977 594.4130 594.4130 594.4130 594.5535 594.5535 594.5535 594.5805
   594.5805 594.5805 595.7633 595.7633 595.7633 595.8633 595.9700 595.9700
   595.9700 595.9718 595.9718 595.9718 595.9941 596.0056 596.3094 596.3094
   596.3094 596.3425 596.3425 596.5252 596.5252 596.5252 596.5756 596.5756
   596.5756 596.7544 596.7544 596.7544 596.8438 596.8438 598.2944 598.3637
   598.3637 598.3637 598.3988 598.3988 598.9410 601.2805 601.2805 601.3713
   601.3713 601.3713 601.5645 601.5645 601.5645 601.5693 601.5693 601.5693
   601.6614 601.7150 601.7150 601.7150 601.8119 601.8119 601.8278 601.8278
   601.8278 601.9861 601.9861 601.9861 602.0818 620.3473 620.3473 620.3473
   621.2834 621.3384 621.3384 621.3384 622.6487 629.9372 629.9372 629.9645
   629.9645 629.9645 629.9762 629.9762 629.9762 629.9801 629.9801 629.9801
   630.0294 630.0294 630.0766 630.0766 630.0766 637.5356 637.5356 637.5356
   639.3653 639.3653 642.1290 642.7854 642.7854 642.7854 642.9456 642.9456
   642.9456 642.9566 642.9566 642.9566 643.0246 643.0246 643.0246 647.5839
   647.5839 647.6445 647.6445 647.6445 647.6505 651.8428 651.8542 651.8542
   651.8542 651.8897 651.8897 654.1798 654.1798 654.1798 654.2035 654.2035
   654.2035 654.2054 654.2054 654.2054 654.2606 654.2606 654.2606 655.3357
   655.3357 655.3613 655.3613 655.3613 655.4410 681.3712 681.3712 681.3712
   683.9257 683.9257 683.9257 684.1020 684.6584 684.6584 684.7292 684.7565
   684.7565 684.7565 684.8313 684.8313 684.8313 684.9255 684.9255 684.9255
   684.9317 684.9317 684.9317 685.0106 685.0106 693.3086 693.3086 693.3086
   697.1555 697.1555 697.1555 698.4250 698.6337 699.2704 699.2704 699.2968
   699.2968 699.2968 700.9810 700.9810 700.9810 701.8425 701.8425 701.8425
   702.6159 703.8902 703.8902 703.8902 704.8842 704.8842 705.5068 705.5068
   705.5068 705.7114 705.7114 705.7114 705.8136 705.8136 705.8302 705.8302
   705.8302 706.1526 706.1526 706.1526 706.5633 707.1715 707.1715 707.1715
   707.3552 707.3552 707.4854 707.4854 707.4854 707.5291 707.6225 707.6225
   707.6225 707.7756 707.7756 707.7756 707.8513 707.8513 708.2046 708.2046
   708.2046 708.6751 709.7445 709.7445 709.7445 709.7720 709.7720 709.7720
   709.7898 709.7898 709.8677 709.8677 709.8973 709.8973 709.8973 709.9343
   709.9343 709.9343 710.8006 711.2618 711.2618 711.2673 711.2673 711.2673
   711.2681 711.2681 711.2681 711.3006 711.3006 711.3006 711.3392 715.5547
   715.5565 715.5565 715.5565 715.5596 715.5596 715.5596 715.5896 715.5896
   715.5896 715.6099 715.6099 734.8805 734.8805 734.8805 735.9387 735.9387
   736.7888 739.1708 739.1708 739.1708 739.5262 739.5262 739.5262 740.0287
   740.0287 740.0287 740.1747 740.5015 740.5015 740.6244 740.6244 740.6244
   740.7692 740.7692 740.7692 740.8301 740.8705 740.8705 740.8705 740.9645
   740.9645 741.4656 741.4656 741.4656 741.7678 741.7678 741.7678 741.8042
   741.8042 741.8042 742.0880 742.0880 742.0880 745.1561 745.1561 745.2417
   745.2930 745.2930 745.2930 745.3192 745.3192 745.3192 745.4339 745.4339
   745.4339 745.4365 745.4365 745.4365 745.4492 745.4492 745.5767 745.5767
   745.5767 745.7041 745.7041 745.7041 745.8121 746.6824 746.6824 746.7352
   746.7352 746.7352 746.8600 755.3311 755.3311 755.3311 756.9140 756.9140
   756.9140 757.1083 757.1083 757.1154 757.1154 757.1154 758.6025 758.7525
   758.7525 758.7525 758.8863 758.8863 758.9382 758.9382 758.9382 759.2040
   759.2040 759.2040 759.4073 762.7547 763.0951 763.0951 763.0951 763.3903
   763.3903 763.3903 763.8057 763.8057 763.8295 763.8295 763.8295 764.9940
   765.1732 765.1732 765.1732 765.3612 765.3612 765.3612 765.5321 765.5321
   765.5321 765.5429 765.5429 768.6968 768.6968 768.6968 768.6970 768.6970
   768.8382 768.8382 768.8382 768.9643 768.9643 768.9643 769.1027 769.1116

          k =-0.2500 0.2500-0.2500 (  2418 PWs)   bands (ev):

   -45.3563 -17.9902 -17.2714 -17.2714 -16.7297   0.6864   1.4822   1.4822
    10.0947  17.1276  21.8515  21.8515  25.0299  25.0299  26.6772  30.9860
    31.3039  31.3039  34.0954  37.7950  37.7950  44.4445  44.4445  45.6328
    51.9127  54.1791  54.6650  54.6650  57.2635  59.2872  59.2872  61.8996
    63.4143  64.8761  64.8761  65.8168  65.8168  68.0374  69.3038  69.3038
    70.8274  70.8274  73.7346  74.5289  74.8031  74.8031  79.8781  80.7549
    80.7549  81.3136  84.3868  84.3868  88.5145  88.5145  89.0851  89.6088
    92.0038  92.0038  92.1451  94.5889  96.3955  96.3955  97.2124  97.2124
    99.8751 104.0364 104.0364 106.5637 110.5044 110.5044 114.5379 116.5352
   116.5352 118.2092 118.2252 118.2252 119.7923 119.7923 121.7042 124.5311
   125.8047 125.8047 126.1377 126.6324 126.6324 129.1487 129.3106 132.5614
   132.5614 133.6797 134.0221 134.9557 134.9557 137.2845 139.7222 139.7222
   139.9821 140.3344 140.3344 142.7592 142.7592 142.8483 145.7784 145.7784
   146.1984 147.2816 147.2816 148.7096 149.8184 149.8184 151.0171 151.0171
   151.6214 155.0158 156.2513 156.2513 156.6626 156.9862 156.9862 157.0903
   159.7363 161.3489 161.3489 163.2413 163.2413 165.2189 165.6755 165.6755
   167.6210 167.6210 168.3988 169.4599 169.4599 169.9262 171.7942 172.2123
   172.2123 173.8923 176.7334 176.7334 177.9409 178.5619 180.2522 180.2522
   181.4410 181.4410 181.9745 182.6906 184.9310 184.9310 185.3574 185.3574
   185.6808 185.9205 192.0766 192.0766 194.2847 198.4225 198.4225 199.6292
   199.6292 200.0449 203.0115 205.0829 205.0829 205.8631 205.8631 207.7855
   207.7855 207.9477 209.7376 209.7621 209.7621 210.4253 215.8117 215.8117
   216.1880 218.1769 218.2191 218.2191 219.2609 219.2609 221.5609 221.5609
   221.9655 222.4910 223.1799 223.1799 223.5310 224.4555 224.7192 224.7192
   225.4697 225.6182 226.8941 226.8941 227.6768 227.6768 231.7507 231.7507
   232.6035 233.5378 233.5378 234.3677 234.4518 242.4817 242.4817 242.7698
   243.2466 243.2466 244.0109 245.3602 245.3602 246.2087 246.8517 247.3286
   247.7635 247.7635 248.3704 248.3704 250.1654 250.3273 250.3273 250.7979
   251.3384 251.3384 251.6943 251.6943 251.7842 254.3576 255.8476 255.8476
   256.3099 256.5032 256.5032 258.2741 258.2741 259.1430 260.3479 260.3479
   260.6307 261.1380 263.5608 263.5608 263.8425 264.3693 265.4102 265.6177
   265.6177 265.9072 265.9072 267.8610 267.8610 268.5371 268.5371 269.8935
   270.9393 270.9393 271.0116 273.6323 273.6323 274.6216 276.4950 276.9815
   276.9815 277.3344 277.3344 277.5503 278.2289 279.1866 279.1866 280.8466
   280.8466 282.8891 283.8464 283.8464 284.9427 285.0083 288.5269 288.5269
   289.2691 289.2691 289.5326 291.1170 291.4617 291.4617 291.6322 292.7351
   292.7351 293.5045 293.5045 294.7733 297.6793 298.7576 298.7576 299.0997
   299.7494 299.7494 301.9464 303.4538 303.4538 304.7334 304.7334 304.9263
   305.7488 307.4329 308.4662 308.4662 311.7136 313.2591 313.2591 313.8039
   313.8039 314.2099 318.0443 318.0443 320.2977 320.3793 320.3793 320.8949
   320.8949 321.6151 323.7688 323.9056 323.9056 324.4775 325.3108 325.3108
   325.4399 327.1364 328.6996 328.6996 331.8789 331.8789 332.1002 332.5351
   332.5351 334.5210 334.5210 334.6292 335.3421 335.3779 335.3779 335.9449
   336.2929 336.2929 336.4565 338.4564 338.8673 338.8673 338.8830 345.4360
   345.4360 346.0547 347.0119 347.0119 347.5939 348.0022 348.0022 349.1294
   349.1294 349.7765 351.4501 351.4501 354.2631 354.2631 355.1470 355.1470
   355.3022 355.3378 356.9975 357.2353 357.2353 358.5939 358.5939 359.4492
   359.4794 359.4794 359.6447 360.0886 362.0504 366.0472 366.0472 366.7957
   366.7957 367.0747 368.1070 368.1070 368.1764 368.3809 368.9497 368.9497
   371.5131 372.0809 372.0809 372.1752 373.0478 373.0478 374.0377 374.0377
   376.0100 376.0100 376.1060 376.3977 376.9159 376.9159 377.8382 379.7357
   379.7357 380.5776 381.8517 384.1909 384.1909 385.0391 385.1768 385.1768
   385.2708 385.6663 386.1718 386.1718 387.3751 387.3751 388.5628 388.5628
   389.2441 389.3495 389.3899 389.3899 389.7658 391.6504 391.6504 391.8492
   393.1699 393.1699 394.1461 394.1461 394.8825 396.0214 396.6185 396.8971
   396.8971 397.4829 397.4829 397.9682 397.9682 398.0807 398.3497 398.9925
   398.9925 400.5687 400.5687 400.5729 400.8427 401.0121 401.0121 401.0618
   401.8400 401.8400 401.9044 403.7249 404.3363 404.3363 406.8130 406.8130
   407.2501 407.2501 407.5756 407.6896 409.3042 409.3042 410.3070 411.9246
   411.9246 412.0852 412.4624 412.5166 412.5166 413.2524 413.2524 413.3009
   413.5259 413.5259 413.5997 418.5789 418.5789 420.2357 422.5447 422.5447
   424.9521 425.9812 425.9812 426.5704 426.5993 426.5993 427.5204 428.0622
   429.9593 430.3957 430.3957 430.4843 430.7843 430.9764 430.9764 431.0940
   431.0940 433.4634 433.4634 433.8214 434.7787 436.7093 436.7093 439.1656
   439.1656 439.5633 439.9711 439.9711 440.1669 440.1669 440.3061 443.8790
   443.9987 443.9987 444.6866 444.6866 445.0947 445.0947 445.9785 446.3057
   448.1639 448.7021 448.7021 449.3543 449.3543 450.0339 451.2300 451.2300
   451.4482 451.6147 451.6147 452.6229 452.6229 452.6997 453.5500 456.0464
   456.0464 457.3898 459.4106 459.4106 459.4216 460.1202 460.1570 460.1570
   463.4621 463.5806 463.5806 463.8360 464.4753 464.9110 464.9110 465.8985
   465.8985 466.2244 466.3503 467.8178 467.8178 469.7640 469.7640 471.5354
   471.5354 471.8133 472.7790 472.7790 474.1154 475.1612 475.1612 476.8144
   478.2854 478.5895 478.5895 479.6085 479.6085 479.6115 481.0298 481.0298
   481.6631 482.7840 485.1820 485.1820 485.5963 485.6065 485.6065 485.9645
   488.1541 488.1541 489.3667 489.3667 489.7975 490.3413 492.0968 492.6153
   492.6153 496.1225 496.1225 496.2209 498.9288 498.9288 499.3690 499.3781
   499.3781 499.7246 500.2766 500.2766 502.0968 502.3187 502.3187 502.8817
   502.9876 502.9876 503.6985 503.8876 503.8876 504.5556 506.1114 506.1114
   506.5151 506.7388 507.3878 507.3878 508.7353 508.7353 509.2786 510.4685
   510.4685 511.4491 511.4491 511.5008 511.9241 514.2261 514.2261 515.6146
   516.6890 516.8144 516.8144 518.3107 518.3107 519.3745 519.8709 519.8709
   521.1038 522.5136 522.5136 522.6120 522.8240 524.4770 524.4770 525.3594
   525.5905 525.5905 526.9466 526.9466 527.1668 528.5372 528.7621 528.7621
   529.4665 531.7641 532.3606 532.3606 533.3491 533.3491 533.4227 533.4232
   534.8844 534.8844 535.7236 535.7236 535.7853 535.8423 536.3372 536.3372
   536.6036 536.6036 536.7998 537.1581 537.1581 537.2453 537.5416 537.5416
   540.7278 540.7278 541.7007 541.8998 541.8998 542.8097 542.8097 543.0478
   543.0478 543.0788 543.3957 543.5104 546.9081 547.6478 547.6478 547.9254
   547.9254 548.2367 548.2775 548.2775 548.3364 548.4669 548.4669 549.5599
   549.5599 549.6101 549.6238 552.2430 552.2430 552.3745 552.6722 552.6722
   552.9546 553.5954 554.0182 554.0182 554.9599 554.9599 555.6730 555.6730
   555.8674 556.0856 556.7535 556.7535 557.3224 557.3718 557.3718 557.8258
   560.0323 560.0323 560.1809 561.3681 561.8583 561.8583 562.7517 562.7517
   563.0963 563.3900 563.3900 563.9187 564.2476 564.2476 564.3004 565.1856
   566.0094 566.0094 566.5471 570.6481 570.6481 570.6751 573.7736 573.7736
   573.9186 573.9186 574.8590 575.1192 575.1192 575.1692 575.6776 575.6776
   575.8922 578.3794 578.3794 578.5129 579.1114 579.1114 579.4305 579.4305
   579.4511 579.6697 581.6281 582.4748 582.4748 582.7422 582.7422 583.7507
   584.4240 584.4240 584.4714 585.6084 585.6084 585.8667 586.9468 586.9468
   587.3986 588.6345 589.7729 589.7729 590.5245 591.7969 592.1330 592.1330
   592.1969 592.4179 592.4179 592.8738 592.8738 593.4409 595.6928 595.6928
   595.7342 596.9461 597.0543 597.0543 598.0784 598.0784 598.6126 598.6126
   598.6620 598.8828 603.1097 603.1097 603.2154 603.8359 603.8359 604.7134
   606.0364 606.0364 606.7027 609.8884 609.8884 610.2186 610.2921 610.2921
   610.4560 610.9412 611.1522 611.1522 611.9706 611.9706 612.3604 612.4114
   612.4114 612.6777 612.6777 612.6849 612.7862 612.9148 612.9148 613.0437
   613.0437 613.1083 613.4716 617.0075 617.0075 617.0529 620.5066 620.5066
   621.2626 621.3579 621.3579 621.4347 621.4815 621.4815 621.7221 623.2046
   623.2046 623.5969 623.7192 623.7192 623.7509 624.8197 624.8197 624.8991
   626.5812 626.8083 626.8083 627.3310 628.1579 628.1579 628.3109 628.6731
   628.6731 632.9054 632.9054 632.9687 635.0321 635.3738 635.3738 635.9643
   635.9643 636.3251 636.4336 636.4336 636.4770 637.2031 637.2031 637.2179
   637.9208 639.2223 639.2223 639.5510 640.2139 644.5841 644.5841 645.7529
   645.7529 645.8016 647.0901 647.5665 647.5665 647.9647 647.9647 649.5564
   649.6576 649.6576 650.1743 650.1743 651.2603 653.1937 653.1937 653.5105
   654.3439 654.3439 654.4450 655.1743 655.1743 656.3669 657.3519 657.3519
   657.4662 658.1844 658.1844 658.2252 659.1273 659.1368 659.1368 661.7544
   661.7544 662.6833 662.9481 662.9481 663.2807 666.3350 666.3350 666.5469
   667.8098 667.8098 667.8772 671.1899 671.1899 671.7934 673.8820 673.8820
   675.0465 675.0525 675.2151 675.2151 676.8092 676.8092 676.9640 677.4708
   677.4708 677.5233 679.1306 679.1306 679.3874 679.8120 683.9242 684.8438
   684.8438 685.2481 685.2481 685.4571 685.4909 685.4909 685.9688 685.9808
   685.9808 685.9994 686.0917 686.0917 686.4151 688.3829 688.3829 688.4882
   688.9295 688.9295 689.0996 689.0996 689.4515 695.0540 695.0540 696.2578
   696.8115 696.8450 696.8450 696.9587 696.9587 697.1122 697.6591 697.7080
   697.7080 698.3694 698.3694 698.6985 699.9658 700.1194 700.1194 700.3448
   700.3448 700.9396 701.1954 701.1954 701.2319 701.6277 701.8959 701.8959
   702.3899 703.2278 703.2278 703.5093 703.5093 703.6942 703.6942 703.7631
   704.2634 704.2768 704.2768 705.1314 707.1806 708.6068 708.6068 709.0936
   709.2476 709.3838 709.3838 711.5748 711.5748 711.6453 712.6384 712.6384
   712.8378 713.4036 713.4036 713.4254 714.2527 714.2527 714.6481 714.8849
   714.8849 714.9440 716.9110 716.9110 716.9555 717.2712 717.2712 717.5369
   718.6280 718.6280 718.7894 720.1573 720.1735 720.1735 720.7782 720.7782
   720.9266 720.9268 720.9268 721.0054 721.0054 721.0825 721.2718 723.3603
   723.3665 723.3665 726.5658 726.5658 726.5698 729.7197 729.7197 729.9501
   729.9805 729.9805 730.0011 730.2625 730.2625 730.3966 734.9795 734.9795
   735.0460 737.3574 737.3574 737.4019 737.4583 737.4583 737.4731 739.9300
   740.1586 740.1586 740.6018 740.6018 740.6943 742.2046 742.4376 742.4376
   743.1941 743.1941 743.2141 743.7651 743.7651 743.8713 743.9038 744.0054
   744.0054 744.2191 744.2191 744.3462 744.4045 744.4045 744.8086 745.0305
   745.0305 745.1792 745.1792 745.1910 745.2103 750.1271 750.2078 750.2078
   750.3768 750.4901 750.4901 751.6217 751.6217 751.6784 754.3353 754.3353
   754.5034 754.8974 754.8974 754.9555 756.4949 756.5722 756.5722 756.6660
   757.0276 757.0276 757.0647 758.0124 758.4963 758.4963 758.9601 758.9601
   758.9775 759.0064 759.0064 759.0143 759.2402 759.2402 759.4774 760.6734
   761.3418 761.3418 763.0687 763.0687 763.9750 763.9750 763.9890 764.5834
   764.5834 764.8480 765.1891 767.1437 767.1437 767.1757 768.3071 768.3071
   768.8387 768.8387 769.0005 770.0430 771.8654 771.8654 772.5570 772.5570
   773.0473 773.0473 773.1004 773.1937 773.9820 773.9820 774.0194 776.2748
   776.3023 776.3023 776.7468 776.7468 776.8292 777.4212 777.5083 777.5083

          k = 0.5000-0.5000 0.5000 (  2392 PWs)   bands (ev):

   -45.3484 -18.2089 -17.2781 -17.2781 -16.4368  -0.0382   1.3495   1.3495
    12.7042  14.4741  22.2455  22.2455  25.1878  25.1878  26.1116  29.4088
    33.9530  33.9530  35.0453  35.0453  43.4453  44.0235  47.7220  47.7220
    49.3177  49.3177  51.5444  53.9992  55.3526  58.0504  58.0504  59.0176
    59.0176  60.3423  61.0330  61.5838  65.9359  65.9359  68.3007  68.3007
    73.9949  74.0315  76.1837  76.1837  77.0339  77.0339  79.0738  83.3724
    86.0481  86.0481  86.3632  86.3632  90.8383  91.7805  93.5736  93.5736
    95.4987  95.4987  99.4978  99.4978  99.7834  99.7834 100.5729 101.9758
   102.7129 102.7129 102.8815 102.8815 104.3209 104.4169 109.2794 109.2794
   110.2524 111.7003 113.2457 113.2457 118.4145 118.4145 118.4767 118.4767
   119.8717 121.6552 124.0415 127.7222 127.7222 127.7458 127.7458 128.4137
   129.8868 131.1559 133.6483 134.4327 134.4327 134.7561 135.2018 135.2018
   141.1739 141.1739 141.5676 141.6519 141.6519 143.2654 146.6000 146.6000
   146.7012 146.7012 146.8420 147.0037 152.5271 153.3588 153.3588 153.6275
   153.6275 153.9393 158.0954 158.0954 158.8937 158.8937 159.7754 159.9739
   160.1536 160.2153 165.9413 165.9413 167.0570 167.0570 170.9829 170.9829
   171.3472 171.3472 172.2520 172.8635 173.6938 173.7859 173.8698 173.8698
   173.9521 173.9521 174.9029 176.9463 180.6136 180.6136 180.8217 180.8217
   183.0505 183.7047 188.4987 188.4987 188.5117 188.5117 189.4561 189.4561
   189.5095 189.5095 190.5445 190.5546 193.3302 193.3302 194.2228 194.2228
   198.9999 199.0013 201.6973 201.6973 202.1605 202.1605 204.0380 204.0380
   204.1160 204.2520 204.3618 204.3618 204.9830 209.3084 212.7926 212.7926
   213.6720 213.6720 215.2127 215.7490 221.1365 221.9730 221.9730 222.0963
   222.5434 222.5434 225.5016 226.3563 227.2441 227.2441 227.5462 227.5462
   227.6468 228.0953 228.0953 228.1192 228.1192 228.4130 228.8218 231.6489
   231.6489 231.6778 231.6778 231.9006 231.9339 232.5011 232.5011 232.5276
   232.5276 232.6074 241.3464 241.3464 241.7084 241.7084 243.0492 243.1636
   243.6024 244.5267 246.0954 246.0954 246.1465 246.1465 246.9738 246.9738
   247.2173 247.2522 247.2522 247.5820 250.8935 250.8935 251.8115 251.8115
   254.3121 255.2952 256.7105 257.1436 259.5428 259.5428 259.6823 260.0096
   260.0096 260.3251 264.8244 265.9948 265.9948 266.5808 266.5808 268.0903
   272.5255 272.5255 272.7834 272.7834 272.9558 274.2041 274.2255 274.2255
   274.3214 274.3214 274.3254 274.4187 275.3675 275.3675 275.5127 275.6461
   275.6461 276.0572 277.5888 280.2299 283.1548 283.1548 283.3711 283.3711
   289.1049 289.1049 289.7856 291.0318 291.0318 291.3508 294.6582 294.6582
   296.0162 296.0162 297.9732 299.9265 301.2371 301.2371 301.3446 301.3446
   302.7300 302.9263 302.9263 302.9454 302.9888 302.9888 303.0985 303.3745
   303.3745 303.3862 303.3862 303.9933 303.9956 304.6748 310.3722 310.3722
   311.2555 311.4509 311.4509 311.4637 314.4970 315.4150 315.6137 315.6553
   315.6553 315.7471 315.7471 315.7979 315.7979 316.0804 316.0804 316.3537
   317.6573 317.6573 317.6810 317.7830 317.8127 317.8127 319.7235 319.7235
   319.7287 319.7287 321.1007 321.1009 322.0347 323.7250 331.1189 331.1189
   332.1862 332.1862 332.5220 332.5813 332.5813 332.6725 332.6942 332.6942
   336.9918 336.9918 337.8079 339.9421 339.9421 340.0168 341.3461 341.3461
   341.6948 341.6948 343.9126 344.9505 345.6198 345.6198 345.7561 345.7561
   346.3384 346.3729 346.9849 346.9849 347.0336 347.0336 347.2501 347.3648
   350.1909 350.1909 352.7670 352.7670 356.1921 356.1921 356.5240 356.5240
   356.5466 356.5925 357.9765 358.7759 359.2831 359.8452 359.8452 360.1725
   360.1725 360.6675 360.6675 360.7303 360.8009 360.8009 360.8864 360.8922
   370.9499 370.9499 371.6291 372.7680 372.7680 373.2060 373.7439 373.7439
   373.8181 373.8181 374.6239 374.6578 374.6578 375.1283 375.1283 375.1620
   375.2164 375.2496 376.8868 381.2132 382.5911 382.5911 385.3960 385.3960
   385.9818 386.5282 386.7270 386.8363 386.8363 387.0217 387.4413 387.4413
   387.5926 387.9888 388.3302 388.3302 388.5049 388.5049 389.9687 389.9687
   390.0263 390.0263 392.6488 392.6488 393.0698 393.0698 395.1648 397.9112
   399.9121 399.9121 400.1106 400.1106 400.1776 400.3621 401.2046 401.2046
   401.2676 401.2676 402.3832 402.9450 405.0428 405.0830 405.0830 405.2622
   405.2622 405.3579 406.0706 406.0706 406.0818 406.1267 406.1267 406.2409
   411.3050 413.7293 413.7293 414.2955 414.2955 415.0591 417.8411 417.8411
   418.1086 418.1086 418.4427 418.4469 422.3762 425.5066 425.5066 427.7135
   427.9316 427.9316 429.8150 429.8150 430.0052 430.1142 430.1142 430.5092
   431.5024 431.5024 431.5093 431.5093 431.5787 431.6410 432.0433 432.3093
   433.1452 433.1452 433.1678 433.1678 433.2853 433.3465 436.5089 436.5089
   437.1192 439.0162 439.0981 439.0981 439.7995 439.7995 440.3135 440.3135
   441.3795 441.3795 442.0290 442.2799 442.2799 442.9053 443.6140 444.0954
   446.0497 446.3393 446.4967 446.6879 446.6879 446.8077 446.8077 446.8625
   446.8625 446.8767 446.8767 447.0079 447.2833 447.2833 447.2944 447.2944
   447.6819 447.7012 448.3013 448.3013 448.4289 448.4289 448.5806 448.7512
   458.8946 458.8946 459.0189 459.3890 459.3890 459.6357 460.7649 460.7649
   461.0819 461.0819 461.2085 461.2085 461.2229 461.2741 461.2741 461.3422
   461.4318 461.7830 463.3102 463.3102 463.3261 463.3261 463.3391 463.3414
   472.5499 472.5499 472.7887 474.0760 474.0760 474.4848 474.5830 474.5830
   474.5953 474.5953 474.8969 475.0694 478.9643 482.7598 484.2138 484.2138
   486.1306 486.1306 486.6677 486.8187 487.1355 487.1355 487.1973 487.1973
   487.4889 487.4889 487.8963 487.8963 488.0002 488.0147 488.0501 488.0501
   488.5549 488.5549 489.1802 489.5445 491.8611 491.8611 491.8617 491.8617
   493.5062 493.5066 498.8071 498.8071 499.2841 500.7924 502.0024 502.0024
   502.1781 502.1781 502.2124 502.2124 502.7446 502.8978 505.9140 505.9140
   506.6412 506.6412 506.6501 506.6501 506.8957 506.8968 508.7952 508.7952
   509.3738 511.2481 512.7039 512.7506 513.4368 513.4368 513.8471 514.0694
   514.0694 514.3923 514.4969 514.4969 514.5087 514.5087 516.0344 516.4903
   520.4030 520.4030 520.4117 520.4117 526.8171 526.8171 527.4875 528.7097
   528.7097 529.5925 529.5925 529.6094 529.6094 529.6362 529.8824 530.1477
   530.7998 530.7998 531.0899 531.0899 531.4487 531.5998 531.5998 531.7232
   531.7232 531.7792 532.0335 532.8529 532.9282 532.9509 533.0172 533.0172
   533.0883 533.1312 533.1312 533.2239 533.2239 533.4430 533.4430 533.6280
   533.6472 533.6585 533.6736 533.6736 533.9036 533.9036 534.6920 534.6920
   534.7321 534.7321 534.9569 535.0126 542.8875 542.8875 544.2276 544.2276
   544.4580 544.5589 545.0780 545.0780 545.3964 545.4567 545.4567 545.6067
   548.2006 548.2006 548.2649 548.2710 548.2710 548.4054 554.3152 555.4707
   555.4707 556.1538 556.1538 556.8220 559.7611 559.7611 560.6010 560.6010
   560.7251 560.8822 560.9260 561.1877 561.1877 561.1965 561.2244 561.2244
   561.6709 561.6709 561.7748 561.7748 561.8569 561.9487 562.0081 562.0081
   562.1424 562.1424 562.2693 562.2693 562.3306 562.3306 562.3632 562.3790
   562.4337 562.6849 572.1140 573.2820 573.2820 574.0952 574.0952 574.2281
   574.2618 574.7384 575.1119 575.1119 575.1946 575.1946 576.2049 576.2049
   576.3082 576.3082 576.3083 576.3083 576.3199 576.3199 576.3432 576.3466
   576.4445 576.7709 581.6282 582.6937 586.3148 586.3148 587.1642 587.1642
   587.4698 587.6076 591.7041 591.7041 591.7778 591.7778 592.5171 592.5171
   592.5333 592.5423 592.5423 592.6150 596.9067 596.9067 598.4939 599.5339
   599.5339 599.7351 600.6329 600.6717 600.6717 600.8320 600.8320 601.2232
   602.3581 602.5171 602.5187 602.5187 602.6919 602.6919 602.7021 602.7021
   602.8722 602.8722 602.8805 602.9740 604.4289 604.4289 604.4659 604.4659
   604.7141 604.8642 606.5103 606.5103 606.5268 606.5823 606.5823 606.6592
   610.4224 610.4224 611.0901 611.0901 611.2436 611.6846 617.4063 617.4063
   617.6542 617.6542 617.6985 617.7134 619.0384 619.0384 619.1921 619.1921
   619.2163 619.2774 619.7967 619.7967 619.8423 619.8423 619.9641 619.9705
   621.9033 621.9033 621.9278 621.9282 621.9282 621.9861 630.7243 631.2541
   631.2886 631.2886 631.9757 631.9757 632.0529 632.0529 632.4000 632.4510
   632.4510 632.6102 632.7455 632.7455 632.8068 632.8068 632.8178 632.9572
   635.6635 635.6635 635.7542 635.7542 636.1545 636.1557 637.9448 637.9448
   638.1286 639.0514 639.0514 639.4640 645.1631 645.5772 645.5772 645.8122
   646.3097 646.3097 646.6754 646.7676 646.7758 646.8146 646.8146 646.8564
   646.8564 646.9219 646.9918 647.0732 647.0732 647.0870 647.0870 647.8410
   656.3546 656.3546 656.6712 657.4017 657.4017 657.6986 658.5453 658.6336
   658.6336 658.7860 658.8173 658.8173 659.4377 659.4377 659.4733 659.4733
   659.8578 659.9133 659.9133 659.9339 659.9339 659.9559 659.9920 660.2338
   660.2404 660.2635 660.2635 660.2745 660.2745 661.3119 662.8280 662.8320
   663.1085 663.1085 663.1240 663.1240 664.1643 664.1643 664.1701 664.2251
   664.2251 664.3065 664.4953 664.4953 664.5056 664.5056 664.6717 664.6828
   676.6199 676.6973 676.6973 676.8763 676.8779 676.8779 677.3324 677.3324
   677.3716 677.3716 677.4728 677.4738 677.7082 677.7918 677.8011 677.8011
   677.8056 677.8056 683.4549 683.4549 685.1837 685.1837 685.2895 685.7155
   689.4882 689.4882 689.9510 689.9510 689.9604 690.1979 690.2886 690.2886
   690.3524 690.3524 690.4072 690.6054 690.8284 690.8624 690.8624 690.9252
   690.9252 690.9656 691.1547 691.2202 691.2202 691.2567 691.2567 691.3124
   696.2746 697.6614 700.2841 700.2841 701.0548 701.1539 701.1539 701.5120
   701.5877 701.5942 701.5942 701.6081 701.6228 701.6228 701.8381 702.1530
   702.1530 702.2126 702.2126 702.5456 702.5456 702.5472 702.5472 703.1595
   705.7622 705.7622 705.7681 705.7681 705.8231 705.8231 705.8389 705.8394
   705.8999 705.8999 705.9125 705.9329 707.3331 707.3331 707.3369 707.3369
   707.7220 707.7230 707.8383 707.8383 707.8386 707.8386 709.4095 709.4098
   718.9637 718.9637 719.4639 719.4639 719.4639 719.4895 719.9952 719.9952
   720.1742 720.1742 720.2425 720.2613 729.1757 729.1757 729.8070 730.6251
   730.7066 730.7066 730.8982 730.8982 730.9316 730.9488 730.9488 730.9824
   731.9067 731.9067 731.9277 731.9277 731.9546 732.1636 732.1636 732.2614
   732.2614 732.2808 732.2971 732.3882 732.5099 732.5116 732.5116 732.6700
   732.6700 732.7159 733.7612 733.7612 733.7738 733.7738 733.8009 734.2974
   741.2923 741.5141 746.1463 746.1463 746.4883 746.7636 746.7636 746.7830
   746.9321 746.9321 746.9575 746.9575 747.0068 747.2469 747.3277 747.3277
   747.4560 747.4560 747.5202 747.5505 748.2111 748.2669 748.2669 748.3416
   748.3416 748.3487 748.6194 748.6728 748.6728 748.7484 748.7484 748.8139
   748.8734 748.8734 748.9745 748.9769 748.9769 749.2855 749.4316 749.4316
   749.4436 749.4674 749.4674 749.5249 750.4725 750.4725 750.4761 750.4761
   751.4244 751.4244 751.4259 751.4259 751.4518 751.4557 758.7695 758.7695
   759.0512 759.0512 759.0787 759.2182 764.4400 764.4400 764.4668 764.4668
   764.4958 764.5091 775.8145 775.8145 775.9744 776.4651 776.4651 776.5183
   776.5449 776.5449 776.5698 776.5813 776.5819 776.5819 777.1946 777.1953
   777.1953 777.2005 777.2005 777.2360 777.2360 777.2559 777.2896 777.2896
   777.3293 777.6154 782.2821 782.2821 782.8506 782.8506 782.8568 782.8927

          k = 0.0000 0.5000 0.0000 (  2413 PWs)   bands (ev):

   -45.3538 -17.8709 -17.2945 -17.2945 -16.8245   0.6779   1.3959   1.3959
    10.6749  16.9335  21.2782  21.5328  21.5328  27.9689  28.8098  31.5967
    31.9684  31.9684  35.8789  35.8789  37.3115  43.3475  45.9502  45.9502
    47.7835  52.5859  54.3580  55.5214  57.2447  57.2447  60.1039  61.0435
    63.2195  63.5688  63.5688  67.5421  67.9070  67.9070  69.0850  69.8591
    71.7693  72.4571  72.4571  74.0541  75.5985  75.8911  75.8911  80.7812
    80.7812  82.0507  84.6189  85.2418  87.4811  87.4811  88.7369  90.1704
    94.1315  94.1315  94.3476  97.5904  99.1210  99.1210  99.9823  99.9823
   101.9324 103.6398 105.8988 108.0446 109.5150 110.4639 110.4639 112.7512
   114.9811 115.2018 115.2018 117.4356 117.5248 117.5248 119.0673 120.9743
   120.9743 122.5290 124.1642 125.7280 125.8872 128.8499 130.1082 130.1082
   133.3543 133.7648 133.7648 136.5216 139.0246 140.1525 140.1525 140.3800
   141.0044 141.3398 141.5191 141.5191 142.2876 142.3278 146.0613 146.2894
   146.2894 148.9564 150.6285 150.6285 152.0002 153.1424 153.1424 153.4599
   153.4599 154.0433 154.4173 155.5465 157.2734 157.4681 157.4926 157.4926
   157.8530 158.3790 158.3790 159.4802 159.4802 160.5959 161.0395 161.1722
   166.7118 166.9979 166.9979 168.4057 171.1565 171.1565 171.6405 172.8979
   175.7122 175.7122 176.0466 177.0874 180.2288 183.2667 185.7216 185.7989
   185.7989 186.2730 186.6209 186.6209 186.6530 187.2661 189.1407 190.7742
   190.7742 192.2047 192.2047 194.7938 196.3308 197.0329 198.4597 198.4597
   198.6910 199.1366 200.1892 200.1892 201.4850 202.4030 202.4030 202.4257
   204.9011 208.8536 208.8536 209.0150 209.1019 209.7628 209.7628 211.7376
   213.9757 214.4855 216.8812 216.8812 218.1106 218.1106 218.1178 219.5628
   220.8078 222.1627 222.7473 224.9357 224.9357 225.6082 225.6818 227.6580
   227.6580 228.5020 228.5966 228.5966 229.0125 229.0731 229.0731 229.2938
   230.9638 232.5353 232.5353 233.1495 233.2166 235.6234 237.0062 237.0062
   237.8751 240.2817 240.2817 241.6233 242.0979 242.4500 242.4662 242.4662
   242.8164 243.4922 243.4922 244.8171 247.4052 248.2855 248.6812 250.7203
   250.7203 252.8336 252.9373 252.9373 254.0340 254.1166 256.8957 257.3338
   257.3338 257.7125 258.1533 261.6142 261.6142 264.2970 264.5037 264.5037
   265.1899 266.4315 266.4315 267.2967 268.3507 268.6326 268.6326 268.7853
   269.1119 269.3945 270.0814 270.0814 270.6958 271.6153 273.7967 273.9512
   273.9512 274.2796 275.0117 278.5085 278.5085 279.0782 279.1868 279.1868
   280.4293 280.4293 281.9815 282.0245 282.4178 282.6326 282.6326 282.6885
   282.6885 282.9256 283.0317 283.1162 283.2045 284.6061 286.1264 286.2569
   286.2569 286.3868 286.6286 286.6891 286.6891 286.7460 287.0228 289.0637
   289.0637 290.1862 291.0723 293.4517 296.4023 296.4023 297.0679 297.8893
   297.8893 297.9837 299.0948 299.3091 299.7366 299.7366 300.0018 300.9871
   309.0193 309.0193 310.2240 311.8643 311.8643 312.1358 315.1610 315.1610
   316.2393 318.0927 319.4667 320.8812 321.2964 321.2964 322.4340 322.4340
   322.6796 323.4224 324.9168 325.3259 325.3259 326.1254 326.4555 326.4555
   327.2310 327.3053 327.7173 327.7173 327.9414 329.1304 329.3059 329.3059
   329.6226 329.8621 331.0909 331.2422 331.4416 331.4416 331.7536 335.7503
   335.7503 339.6112 339.6112 339.7021 340.0860 340.9841 341.9174 341.9174
   342.2814 343.7840 347.9488 349.9611 351.1332 351.1332 351.9238 352.4464
   352.4464 353.4305 354.3093 355.4062 355.4062 356.0840 356.7735 357.9282
   358.2646 358.2646 358.3339 358.6628 358.6628 358.7029 359.5712 359.7938
   359.7938 359.8724 362.4291 363.3957 363.3957 366.3689 366.3689 366.5161
   367.0623 368.1493 368.4134 368.8151 369.5018 369.5018 369.6020 369.8994
   369.8994 370.1577 370.5567 370.7413 370.7413 370.8846 371.0595 371.0595
   371.1718 371.5823 372.1819 372.3027 372.3696 372.3696 372.4702 372.4845
   374.9156 374.9806 374.9806 375.0742 375.1504 375.1504 376.4808 378.0664
   378.5900 378.5900 380.6281 383.9043 383.9043 384.2550 384.3794 386.3800
   386.6327 386.6327 387.2684 387.8626 387.8626 387.8871 387.9381 388.4763
   389.9756 389.9756 390.9223 392.8153 393.1104 393.1104 393.9304 394.2107
   394.2107 395.6586 396.2068 397.7584 398.2994 398.8395 398.8527 398.8527
   400.4094 403.0650 403.1002 403.2115 403.2115 403.4126 403.4126 403.4247
   403.6771 408.0852 408.0852 409.9298 410.1358 411.0099 411.0099 411.3557
   412.0035 412.0035 412.1079 412.2238 412.2789 412.2789 412.3177 412.8784
   413.5092 415.0406 415.0406 415.5727 415.5727 415.6413 415.6757 420.2110
   420.3615 424.5781 424.5781 425.4944 426.4403 426.4403 427.5481 427.5481
   427.6965 427.6998 427.7819 427.7819 428.0730 428.1068 428.2014 428.4405
   428.4636 428.4636 428.6947 428.6947 428.7921 428.9251 429.4969 431.7853
   436.0294 436.0294 436.6581 437.7369 438.2869 438.2869 439.0152 439.9869
   440.3226 440.3344 440.3344 440.9203 440.9203 440.9929 441.5033 441.8153
   445.1352 445.3109 445.3109 445.5032 445.6137 445.6137 446.8533 446.8913
   446.8913 446.9578 449.0015 451.3798 452.2199 453.5292 453.5292 454.1332
   454.1332 454.2710 454.5496 455.0892 455.3650 455.3650 456.3403 456.5071
   456.7811 456.7811 456.9153 456.9346 457.1230 457.1230 457.8204 457.8923
   458.6446 458.8150 458.8150 458.9363 459.0201 459.1077 459.1077 459.3336
   461.8831 465.5603 465.5603 467.2629 467.2629 467.9605 468.4466 469.7421
   470.6869 470.6869 470.8095 470.9791 473.9335 476.1510 476.1510 476.4777
   476.4777 477.2759 477.3435 478.1221 481.6865 481.6865 483.5589 483.6605
   483.7789 483.7789 483.8861 484.8181 489.2692 489.5813 489.5813 489.9634
   493.4474 493.4474 493.9743 495.3217 496.6477 496.6477 496.8981 498.2597
   498.3833 498.3833 498.6896 499.0417 499.0417 499.1634 499.2014 499.2515
   499.2515 499.2746 499.7765 499.7961 499.8021 499.8021 499.8756 499.9368
   500.0990 500.0990 500.2711 500.4851 500.9659 500.9659 501.2152 501.3362
   501.4028 501.5255 501.5255 501.6134 504.3837 504.4405 504.4405 504.5189
   506.2493 506.6999 506.6999 508.1531 508.6985 511.5026 512.0421 512.0421
   512.1123 512.1483 512.8491 512.8491 513.7266 514.0692 516.3400 516.3431
   516.3431 516.4629 519.6297 519.6297 521.3921 522.8966 526.9638 527.6580
   527.6580 528.3952 528.3952 528.4972 528.6153 528.6506 528.6506 528.6607
   528.9278 529.0518 529.1240 529.1240 529.2258 529.2511 529.4001 529.4001
   529.4680 529.9497 529.9497 529.9870 530.0283 530.0439 530.0439 530.1020
   535.2895 535.7405 538.4433 538.4433 538.7902 539.5769 540.5508 540.5508
   540.8546 540.8932 541.0945 541.0945 541.3088 541.7335 541.7335 541.8978
   541.8978 542.0639 542.1429 542.6417 544.9978 545.1020 545.1020 545.1686
   545.6734 545.9662 545.9662 546.0055 546.0055 546.0080 546.0323 546.3136
   546.8387 553.5100 553.5100 554.3235 554.6945 555.4657 555.4657 556.6568
   556.7274 556.8919 556.8919 556.9639 557.2117 557.2612 557.4559 557.4559
   557.6169 561.8476 561.8476 563.5912 563.6307 566.6279 566.6279 568.5623
   568.7201 568.9074 568.9074 569.0759 569.2319 570.0138 570.0619 570.0619
   570.3325 570.5560 570.7271 570.7271 570.8948 571.7464 571.9448 571.9448
   572.1295 572.2267 572.2784 572.2784 572.3212 572.4887 572.4887 572.5856
   572.8649 573.1689 573.1689 573.4032 574.5164 574.8455 574.8455 574.9138
   575.2200 576.0948 576.1892 576.1892 576.2915 576.9034 579.8474 579.8474
   581.4318 581.4318 581.4996 581.8101 581.8101 581.8285 581.9838 582.1846
   584.6938 585.1294 585.1294 585.5822 585.9404 586.2405 586.5669 586.5669
   586.8429 587.3059 587.3059 587.3548 587.5497 587.5665 587.5665 587.5862
   587.6219 588.7777 588.8236 588.8236 588.8829 588.9388 589.8066 589.8066
   589.8080 589.8653 590.4583 590.7037 590.7037 590.9031 591.2547 591.2547
   592.4016 597.0040 597.0040 597.3379 597.4404 599.0435 599.0435 599.1993
   599.4573 601.1578 601.1578 601.2448 601.3087 605.0366 605.0473 605.0473
   605.1374 610.4886 610.4886 611.2638 611.5245 613.9053 613.9053 614.1634
   614.7032 614.7298 614.7298 614.8018 614.8426 616.9198 616.9252 616.9252
   617.0004 622.5439 622.5439 623.0062 623.3381 624.8659 627.0606 627.0606
   628.3808 628.4464 628.5416 628.5416 628.8280 628.8498 628.8498 628.9250
   629.0390 629.3624 629.4126 629.4126 629.5397 629.7231 629.7231 629.8617
   630.2263 630.2551 630.3483 630.3483 630.4466 633.1291 633.1291 633.1409
   633.2057 636.0528 638.7653 640.9694 640.9694 641.4280 641.4280 641.5270
   642.0090 642.0165 642.1577 642.1708 642.1708 642.2605 642.7071 642.7071
   643.0482 643.4410 643.4582 646.4376 646.5509 646.5509 646.6859 650.0397
   650.0397 650.2895 651.0099 653.5164 653.5164 653.5413 654.2456 654.4692
   654.4692 654.7190 655.6247 655.7089 656.2484 656.2484 656.7326 656.7326
   656.8001 657.0692 657.1485 657.4166 657.4166 657.5963 657.7884 657.8869
   657.9027 657.9027 657.9631 658.1959 658.1959 658.2816 659.0689 659.0689
   659.0870 659.0931 659.2183 659.6852 659.6852 660.7123 660.9852 660.9852
   661.2309 662.4658 662.5741 662.5741 662.6874 664.8963 665.9206 667.8167
   667.8167 668.0152 668.0170 669.5259 669.5259 669.9336 669.9440 670.6157
   670.6157 670.6284 670.6359 671.0567 671.0852 671.0852 671.4177 671.4177
   671.6689 674.6139 674.6678 674.6678 674.7448 674.9357 674.9550 674.9550
   674.9959 676.4680 677.1736 677.1908 677.1908 677.2414 685.9509 685.9509
   686.0933 686.6030 686.6771 686.6771 686.6817 687.0434 687.0434 687.0686
   687.0753 687.0792 687.1348 687.2525 687.2525 687.4105 694.7991 695.3474
   695.3474 695.9773 697.4343 697.4343 698.0559 698.2979 701.2373 701.3163
   701.3163 701.7149 701.8944 701.8944 701.9111 702.1407 702.1717 702.1717
   702.2017 702.4523 705.1405 705.1405 705.3370 705.3532 705.6422 705.6422
   705.8718 707.8051 707.9851 708.5410 708.7695 708.7695 709.2174 709.4031
   709.4031 714.1472 714.7040 714.7998 714.7998 715.0690 715.0690 715.1692
   715.1863 715.2422 715.2520 715.2677 715.2677 715.3564 715.4213 715.7482
   715.7482 715.9297 716.2971 716.2971 716.3771 716.6329 717.3743 717.3867
   717.3867 717.4012 718.4057 720.7713 720.7713 721.9298 724.8311 724.8311
   724.9907 725.0603 727.5059 727.5059 727.7860 728.0576 728.7182 728.7182
   729.1213 729.1967 729.2578 729.2578 729.3978 729.4569 729.6146 729.6146
   729.6309 729.7379 730.2594 730.2939 730.2939 730.3037 733.0452 733.0752
   733.0752 733.1069 734.6308 734.6493 734.6493 734.6974 739.3688 739.5241
   739.5241 739.9961 742.2281 742.2281 742.6841 742.7439 742.8728 742.9176
   742.9176 742.9458 743.6455 743.7140 743.7140 743.8640 743.8916 743.8916
   744.1104 744.1473 746.7665 746.8321 746.8321 746.9164 751.3707 751.7841
   751.7841 752.1175 754.0959 754.6358 754.6358 754.9247 755.2148 755.5317
   755.5317 755.9463 755.9463 756.0612 756.1304 756.2077 756.8237 756.8237
   756.8425 756.8681 756.8870 756.9914 756.9914 757.0678 757.1304 757.1304
   757.8191 757.8852 758.4559 758.4559 758.4745 758.5203 758.6800 759.0606
   759.0606 759.4153 759.7000 759.7000 759.8406 760.0426 760.2699 760.2859
   760.2916 760.2916 761.3783 761.4912 761.4912 761.4917 761.5024 761.5244
   761.5244 761.6693 763.2775 763.3494 763.3494 763.4283 769.1656 769.1919
   769.1919 769.2396 771.1821 771.6424 771.6424 771.7461 773.2692 773.3543
   773.3543 773.5993 773.8037 773.8037 773.9061 774.0255 774.5128 774.5128
   774.5204 774.5280 775.2285 775.2561 775.2561 775.3124 781.0972 783.6459

          k = 0.7500-0.2500 0.7500 (  2405 PWs)   bands (ev):

   -45.3460 -17.9435 -17.3342 -17.3015 -16.6882   0.3292   1.0220   1.2719
    13.4348  15.1322  18.7621  21.9729  22.0561  27.8763  29.4628  31.1833
    32.8125  33.6906  36.9333  39.8425  41.9396  43.0601  43.8655  46.1354
    47.6045  50.2550  50.6031  53.8543  54.1114  55.4860  56.3010  57.3923
    58.6840  60.3799  62.1054  64.3057  66.2439  67.6338  68.4383  69.8570
    73.5351  74.7874  76.6229  78.0646  78.4203  80.0650  82.6753  83.0673
    84.6857  85.2444  86.5423  86.5545  87.5607  87.7214  92.5233  93.1593
    95.0111  95.1908  97.0492  97.7850  99.6503  99.9227 102.2495 102.7457
   103.5710 104.8060 105.7957 107.5517 107.6555 108.5608 108.8461 110.5495
   110.7275 112.1470 114.2241 114.9870 116.0664 117.2509 117.6626 117.8524
   120.8574 121.5781 121.8410 122.5430 123.3113 124.7174 126.0592 127.4478
   129.5236 131.2201 131.4197 132.0918 132.5254 134.5485 134.8788 137.3438
   137.5583 138.9293 140.3691 141.4994 142.6976 144.2339 144.4088 146.0896
   146.6838 147.1081 147.8508 149.4665 149.6007 149.8486 150.1767 150.4652
   154.1076 154.3266 158.3318 159.1465 159.4905 159.5363 162.0208 162.8404
   163.1760 163.8622 164.5147 166.9293 167.9155 168.8772 169.5382 170.3837
   171.2606 171.5695 173.2132 173.2722 174.0621 175.2310 175.3751 175.4701
   177.1041 178.4447 180.3807 181.2212 181.8355 182.5616 183.4241 183.7774
   184.1946 185.8007 186.7877 186.9431 188.0492 189.7994 190.7726 191.5109
   191.9908 192.0038 192.8127 194.8372 195.2535 195.3047 195.5048 196.6417
   196.7405 198.6326 200.6178 201.2421 201.6266 201.7957 202.6278 204.2483
   204.5444 205.4717 205.5668 205.7256 205.8322 207.1090 209.2401 210.7581
   211.4708 211.5277 212.5888 213.9622 214.2759 215.2896 215.3141 215.8298
   216.5950 217.0894 218.0297 218.6636 219.3443 221.5662 223.5246 223.6542
   225.5044 226.3618 227.2000 227.3375 227.5061 228.2741 228.9622 229.1817
   230.2631 230.9364 231.2582 231.6515 231.9146 232.9931 234.8020 235.6798
   236.7977 238.5844 238.7302 239.3174 240.8114 242.4581 243.1503 243.8061
   244.2686 244.4245 244.6836 245.7962 247.4151 248.0031 248.7162 249.2870
   249.8810 250.0587 250.8727 252.1302 252.8962 253.3369 253.9352 254.4811
   255.2396 256.7800 257.1832 257.3347 257.8104 258.9091 261.2691 261.3368
   264.1338 265.1579 266.5746 267.0028 267.2723 267.7326 268.7375 269.1992
   269.4469 270.2004 270.3577 271.0120 271.0926 271.1705 271.9273 273.1756
   275.0502 275.7798 277.8115 278.1166 280.9203 281.2354 282.0536 282.1315
   282.3564 282.5498 283.0399 284.9658 285.0001 285.6888 285.9794 286.2687
   287.5907 287.8472 288.7255 289.4936 290.1707 290.6519 290.7115 291.5956
   292.3625 293.4512 294.2238 294.3208 294.6616 297.1160 298.3675 299.3874
   299.5542 299.6114 299.8900 299.9519 300.6029 301.0781 301.2460 302.5686
   305.3867 306.4146 306.6958 307.1568 307.2793 307.5289 308.0627 308.7352
   309.0716 309.3440 309.5083 310.5813 310.8513 311.2122 312.0938 312.3222
   312.9112 312.9592 314.0912 315.1575 315.5013 318.6147 318.7571 319.5146
   319.7936 319.8465 320.7873 321.6238 322.5112 322.9031 323.4858 323.7114
   324.2115 324.7556 325.4959 325.5528 326.9919 328.7052 329.1652 329.6704
   330.0500 330.1331 330.8677 330.9657 332.2101 333.1429 333.3505 334.8587
   334.8619 335.2981 335.9746 336.7907 338.6752 339.0106 340.3811 341.3666
   341.4331 342.1329 342.9657 343.5172 344.5399 344.8977 344.9741 345.2911
   345.4051 345.7435 346.1426 346.6910 347.8674 348.4015 349.5710 350.0514
   350.9838 351.3752 351.4841 352.3360 353.1623 354.0811 354.1132 354.8217
   355.7147 357.4197 357.5807 357.6805 357.8721 358.0646 359.3488 360.7060
   361.5696 361.7798 361.9252 362.0621 362.5402 362.7028 362.9689 364.2101
   365.6340 365.6347 366.4608 366.6342 366.7954 367.8348 368.4736 371.7746
   371.8502 372.2739 372.4922 373.0102 375.3715 375.3989 375.9339 376.0841
   376.5443 376.6356 377.1714 377.8593 378.4451 379.0662 379.8337 380.2334
   381.8902 383.2272 384.1665 384.9793 385.0734 386.2386 386.4787 386.8575
   388.0684 388.3869 389.3590 389.6405 390.1406 390.2559 390.3383 391.0293
   392.2921 392.5823 392.7168 393.2294 393.7702 394.8564 395.5531 395.9248
   396.4105 396.5161 397.4390 398.1414 398.8675 399.3584 400.2233 400.8174
   404.4659 405.2586 405.6236 406.8271 407.3319 407.5244 407.8143 407.9265
   409.0393 409.7306 410.4444 410.6958 411.2492 411.5925 412.5581 413.4175
   413.6577 414.4972 414.9687 415.8277 416.7639 416.9986 417.8005 418.3585
   418.7149 418.9854 419.9527 419.9724 420.2687 421.5819 421.7064 422.0378
   422.2896 422.7243 422.7287 423.2563 425.2970 425.4233 425.6353 426.4779
   427.3390 427.6109 428.0472 428.3347 429.2317 429.7138 430.5449 431.2877
   431.5363 431.5988 431.9552 432.1004 433.4187 434.7017 434.8522 435.0464
   436.5764 436.7424 436.9153 437.1925 437.7112 438.1120 439.2723 439.3635
   441.3216 442.5647 443.3104 443.3675 443.8426 444.6246 445.5775 446.7001
   447.1840 447.9708 448.0720 448.4831 448.9168 449.5904 450.0649 450.2218
   450.6611 450.8285 451.0641 451.4981 451.9139 452.0102 452.1980 452.4079
   453.1425 453.2032 454.1328 454.3954 454.8505 455.2864 456.3419 459.0525
   459.2405 460.6364 460.6404 461.4879 461.7704 461.9446 462.0508 462.8143
   463.3783 464.0135 465.5485 465.5661 465.9427 466.4424 467.0532 468.3828
   469.2184 469.7517 470.1266 470.6006 471.4028 471.9309 472.5726 472.8052
   473.5626 474.1138 474.3465 474.8066 475.0714 475.4348 475.4990 475.9820
   475.9952 476.7216 477.6442 478.0047 478.5300 478.6769 479.5094 479.9429
   480.2351 481.0200 481.6714 483.2126 483.4574 483.7322 483.7481 484.3183
   484.5823 485.0204 485.4888 485.5424 486.1569 486.6363 486.7535 487.1783
   487.2430 487.2516 488.7903 490.8245 490.9841 491.5521 493.5080 493.7320
   494.0913 494.3139 494.8125 495.3813 496.8111 496.8467 497.6260 498.2742
   498.7058 498.8236 499.2921 500.5406 500.6721 500.6772 501.0492 501.6432
   501.8178 503.3489 503.4911 503.7418 503.9668 504.9602 505.1696 505.4864
   506.1734 506.2119 506.7811 508.1896 509.0971 509.4156 509.4374 509.6901
   509.8519 510.2940 510.5951 511.2966 512.6539 512.7460 513.5526 514.4947
   515.2931 515.7982 515.9267 516.8687 517.3628 517.7757 518.0071 518.3424
   519.4640 519.4883 519.9205 520.6460 521.3027 522.4625 523.2089 523.6049
   523.7025 523.7675 523.8785 524.3436 525.4635 525.6400 526.1601 526.4650
   527.3706 527.4794 528.0552 528.1331 528.2912 528.4685 528.5697 529.6650
   529.9786 533.2955 533.4355 533.5264 533.8522 534.1760 534.4031 535.9621
   536.6504 536.7458 537.1150 537.9397 538.2232 538.9494 539.0250 539.4350
   540.0981 540.3752 541.2377 541.3893 541.7872 542.0754 543.0877 543.0884
   546.0829 547.1166 548.5459 549.5954 550.7879 551.4832 552.0719 552.2552
   552.4515 554.1121 554.1655 555.1828 555.8969 556.0375 556.4390 556.8319
   557.0682 557.3478 557.5058 557.7258 557.7691 557.9428 557.9906 558.2014
   558.3333 558.5578 559.1144 559.2692 559.2984 559.4347 559.9192 560.7850
   560.7911 561.0207 562.2401 562.6447 564.2080 564.8377 567.7190 567.8687
   568.9111 569.4302 569.4594 569.5901 569.6323 569.7935 569.9163 571.8365
   572.0692 572.2203 572.7945 573.0369 573.0492 573.8278 574.0548 574.1466
   575.2830 575.2940 575.3637 576.9033 577.7603 578.5134 578.5810 579.6706
   580.4510 580.5926 580.9064 581.7380 582.0368 582.2668 582.3000 582.5756
   582.6646 582.8825 583.0195 583.6150 586.4549 586.8751 587.4159 587.4436
   588.1004 589.2155 589.7989 589.8033 590.2064 590.4678 590.6623 591.3590
   591.4834 592.0954 594.4962 594.5605 594.6185 595.5900 595.9410 596.4633
   596.5630 597.1798 598.8636 598.9256 598.9882 598.9964 599.7681 600.3761
   600.4114 601.7923 601.9833 602.2186 602.2449 602.8285 603.3343 603.5754
   603.7377 604.3730 604.3858 604.5053 604.6091 605.0486 605.9553 606.3322
   607.5350 607.6339 608.9441 609.1601 609.8352 610.0650 610.1876 610.6185
   611.5575 611.6600 612.1043 613.6202 613.7697 614.3532 614.5096 615.4498
   615.9385 616.3299 616.4445 616.8405 618.2646 618.4286 619.4348 621.1353
   621.2140 621.9081 622.1444 622.5454 622.5529 622.7164 623.1603 623.4132
   623.5202 625.2845 625.3695 625.9252 625.9401 626.6351 626.7623 626.8388
   627.5428 628.0636 628.3973 630.8503 631.6981 631.8560 632.0515 632.7077
   632.8886 633.1947 633.6047 633.7884 633.8309 634.2878 634.4724 635.3071
   635.7979 635.8855 636.1699 636.1720 636.2688 636.3742 638.0489 638.4029
   638.6734 638.6880 639.3061 639.5058 640.2412 642.5499 642.9968 643.1739
   644.4068 645.2309 645.3580 645.4746 645.7542 645.7914 645.9969 646.0899
   646.1322 646.4289 646.6368 647.1035 647.3666 647.5365 647.8536 648.0282
   648.1660 648.1994 648.3037 649.3343 649.6364 651.1585 651.2784 653.3010
   653.3832 655.0146 657.0102 657.5641 657.5789 657.8991 657.9637 659.1386
   659.4054 659.4082 659.7002 659.7101 659.9947 659.9948 660.5032 660.8955
   661.8509 661.9376 662.8722 663.1619 663.5037 663.5740 663.5744 665.1401
   665.1911 665.3447 665.4138 666.2235 666.6790 666.8141 667.1481 667.4376
   668.1478 668.5332 668.7902 668.8357 669.0186 669.0929 669.1919 670.9141
   671.6208 671.9213 672.0501 672.7393 673.4513 673.7224 673.9415 674.1508
   674.2904 675.3981 675.4516 675.5101 676.1351 676.2248 676.7580 679.2324
   679.4922 679.5002 679.9443 680.0664 680.7692 680.9672 682.2366 682.3434
   682.6409 683.2704 683.3822 683.6212 683.8272 684.7222 684.7998 685.6366
   686.0975 686.4522 686.7464 686.8541 688.7602 688.7668 688.8671 689.4673
   689.6676 689.8965 689.9779 690.0156 690.4541 690.8127 690.9138 690.9576
   693.0959 695.1394 695.4380 695.8956 697.0693 697.4864 697.6863 697.9041
   697.9544 698.0017 698.5963 699.7911 700.0282 700.9036 700.9573 702.5952
   702.6437 702.9939 703.5319 703.6568 703.8934 704.3201 704.8921 704.9897
   705.0338 705.3496 706.0641 706.1404 706.5945 706.8806 707.6298 707.7023
   707.8203 707.8595 708.7821 709.9758 710.0942 710.6186 710.6231 712.8299
   712.8783 713.5625 713.6828 713.9283 714.4099 715.5290 715.6267 716.0739
   716.9473 718.1197 718.6392 718.6515 719.1723 719.2196 720.1891 720.3815
   721.1551 721.3744 721.4726 721.8088 721.8126 722.2575 722.2731 723.0966
   723.1116 723.7653 723.9368 724.7215 724.7552 724.8275 725.1624 726.0310
   727.7829 727.7878 728.7713 728.9581 729.0381 729.6226 730.0223 730.4649
   730.5465 731.1547 731.5008 732.0880 732.1532 735.3076 735.3474 735.6140
   735.7184 736.0448 736.1282 736.3069 736.5954 737.1415 737.8335 738.0809
   738.2186 739.1730 739.4732 740.9036 740.9407 742.6133 742.7648 743.0871
   744.1982 744.8419 745.0228 745.0534 745.3227 745.8111 746.5311 746.8909
   747.2642 747.2978 747.8470 748.1977 748.3641 750.1724 750.7179 750.7848
   751.3732 751.3903 751.8279 752.7760 752.7771 753.1161 753.4333 753.5607
   753.5641 754.1741 754.3993 754.6690 754.7009 755.0224 755.0286 755.3121
   755.3292 755.7835 756.4283 756.7591 756.8616 760.2101 760.9687 761.0703
   761.3656 761.5716 762.8571 762.8759 763.2316 763.2378 764.4561 764.6602
   765.1945 766.0356 766.2286 766.3022 767.0995 767.4054 767.4138 768.0194
   769.3461 769.3886 769.5636 769.8971 770.9823 771.1398 772.6276 772.6401
   772.6724 772.9374 774.3515 774.4662 775.4693 775.5041 775.5138 775.7914
   776.0295 776.0333 776.1975 776.2286 776.3065 777.0621 777.0681 777.1228
   779.0692 779.9341 780.1917 780.2995 780.3757 781.1434 781.2103 781.3867

          k = 0.5000 0.0000 0.5000 (  2395 PWs)   bands (ev):

   -45.3485 -18.0408 -17.3339 -17.2784 -16.5919   0.3828   1.0314   1.3548
    12.3403  15.8402  19.2350  22.7178  23.9886  24.6181  29.6640  31.1119
    32.3507  33.4552  35.5915  38.9501  39.8458  42.7339  43.7268  49.5805
    50.1754  52.3750  52.9861  53.1787  53.8092  54.4120  56.1234  58.6816
    59.2881  60.4047  62.1929  64.8544  66.6921  67.3777  71.0374  71.0825
    71.2533  72.3901  73.5504  77.5314  78.0422  78.5133  82.0964  83.2566
    84.5761  85.2722  85.3201  85.8829  87.5934  90.7380  91.7733  92.4862
    92.6848  95.4742  96.0291  96.5384  98.1199  98.8330  99.6916 102.3627
   103.6867 104.4874 106.4005 106.5018 107.7656 109.2424 111.2063 111.4905
   111.7193 111.7381 113.5848 114.1160 116.3332 118.8927 120.1409 120.6279
   120.6313 122.2100 122.7236 125.7257 126.8844 126.9818 127.7596 128.7587
   128.9234 130.0678 130.8292 131.0467 131.1613 132.5749 132.7974 136.9763
   138.6959 139.7539 140.4348 143.7330 144.2675 145.5130 146.3852 146.7759
   147.2319 147.8689 149.0044 149.8170 152.8541 153.4905 154.0149 154.5188
   156.2269 157.0327 157.1523 157.4128 157.4810 157.7056 157.8390 158.3888
   161.3109 161.4387 163.9874 166.2226 166.6655 167.0295 167.7351 167.9268
   168.3229 169.0586 169.4250 170.3529 171.4674 171.8858 172.0006 172.3905
   173.0073 177.5617 178.0126 178.7756 182.4570 182.5475 184.1071 185.2289
   185.3611 186.6917 187.3249 187.3817 189.3997 189.9505 190.8874 191.1968
   191.3352 192.4167 193.0841 194.0820 194.5394 194.8487 197.3149 197.3958
   197.4500 197.5076 199.2990 199.5514 199.9543 200.4774 201.1724 203.4649
   204.6075 206.0242 206.3116 207.5798 208.4320 210.1157 211.2836 211.9472
   212.8247 213.6006 214.4138 215.6849 216.6162 216.9150 216.9364 217.7386
   218.4529 219.7766 220.4950 221.3915 221.8626 222.9813 223.5460 224.1291
   224.6566 225.3694 225.9479 226.5610 227.4944 227.6098 228.2248 231.3189
   231.8926 232.5546 234.8713 235.5796 236.1352 236.2337 236.4394 236.8077
   238.8103 239.0377 239.8934 239.9488 240.0455 240.4817 241.8322 242.0735
   242.9815 243.1515 243.7894 244.8218 245.1047 250.1109 250.4569 251.0006
   251.1951 252.4012 253.4855 253.7722 254.0699 254.1649 255.2066 255.2542
   257.2657 257.8142 257.8578 257.8922 257.9281 258.6280 258.7997 258.8980
   259.7714 260.8119 261.1307 262.0096 264.4375 265.2099 267.0238 268.1569
   268.2640 268.4846 270.7139 271.4729 271.9151 272.3449 272.7280 273.4030
   273.4517 274.8177 274.9802 275.4075 277.2918 278.6367 278.7871 281.7130
   282.0301 282.2825 282.4509 283.3392 284.1243 284.4838 286.1419 286.3122
   286.3930 287.9880 288.0977 288.9610 289.0566 289.9964 290.0177 290.9508
   291.5947 293.4370 293.6295 293.7198 294.1414 294.3301 295.1322 296.4368
   297.2491 297.9752 298.3711 298.6615 300.1780 300.4386 300.7045 301.9170
   302.9942 303.0987 303.1876 305.9736 306.8317 307.0283 308.3408 310.1954
   310.7901 310.8056 310.9320 312.2178 312.8833 313.0439 314.0545 314.7803
   315.1541 315.1797 315.5769 315.8814 316.4543 318.1226 318.9087 319.2089
   319.5797 320.9955 321.1350 321.9767 322.0192 322.0786 322.2638 323.2246
   324.9899 326.3530 326.4155 326.6941 327.1542 327.3420 327.4583 327.8136
   329.5680 331.3765 331.7278 332.7273 335.7259 336.8435 336.9703 337.3494
   337.5962 337.6575 339.3233 340.2852 341.0889 341.3579 341.5433 342.1783
   342.4381 342.9232 342.9820 343.1285 344.1735 344.4508 344.4566 344.8618
   345.0156 345.1060 345.2541 345.4426 345.6343 345.6693 345.6959 347.4796
   348.2615 349.2073 350.8204 351.9295 354.2362 354.4192 355.1346 355.7974
   356.4635 356.9412 359.0996 359.4205 360.1207 361.1445 361.1641 361.9851
   362.2745 362.3841 362.9146 363.0283 364.4936 364.8100 365.6137 365.9510
   366.2043 366.9359 367.2916 367.9332 367.9650 369.0996 369.1741 369.2416
   369.3949 370.0894 371.3387 371.9822 372.1070 372.8258 373.0562 376.9730
   378.9127 379.0905 380.0826 380.4443 381.0437 381.0550 383.2818 383.6774
   385.6491 385.7373 386.4084 386.6073 386.6593 387.2320 387.2657 387.3072
   388.0262 388.3125 389.2768 389.4578 390.0292 390.2104 390.5853 392.4709
   392.8668 393.3423 394.4776 394.5722 395.0843 396.3370 397.3261 397.4421
   398.1696 398.2471 398.8564 400.5567 400.7383 404.2731 404.6534 405.5719
   405.8214 407.0777 407.4853 408.0168 408.2035 408.4563 408.7108 408.9678
   409.0714 409.6224 409.8455 409.8957 409.9164 409.9190 410.1776 410.9345
   411.7839 411.8385 412.0646 412.4452 413.9352 414.2519 415.2014 415.6522
   415.8904 416.2080 416.2239 416.6318 416.7329 416.7546 416.8168 417.5313
   417.8741 418.4701 419.3472 420.6942 421.9859 422.2731 422.6108 426.6780
   426.8331 426.9443 427.0729 427.5122 427.7375 428.1787 429.0239 429.4995
   430.2547 430.8269 430.9953 431.2084 431.4060 431.4170 433.6495 433.9759
   434.5407 436.2133 436.5170 437.2166 437.8022 437.8242 438.0052 438.2160
   439.3008 439.9486 441.0936 441.2044 442.4988 443.4129 444.3072 445.0272
   445.2268 445.2373 445.4755 445.5401 446.1681 446.3615 446.4704 446.8213
   449.6985 449.8491 449.9399 450.3209 451.0611 451.2180 451.7790 451.9006
   454.2356 454.5559 454.5898 455.1117 455.1846 456.7255 456.8555 457.7085
   458.4653 458.7339 458.7379 458.9090 462.3217 462.4226 462.4691 464.1323
   464.1802 464.8819 465.4609 465.7359 467.7149 468.8151 470.1997 470.3559
   470.8934 471.3869 471.5530 471.6850 471.9416 472.3254 473.2805 473.8584
   473.9601 474.0398 474.2323 474.3041 474.4142 474.5861 475.0189 475.3526
   475.5423 475.8800 475.9067 478.1610 479.0103 479.5887 479.7960 479.8662
   480.0361 480.3546 481.0349 481.6364 483.2558 483.3751 484.8923 485.5619
   485.8842 486.1913 486.7023 486.8037 486.9484 487.7286 488.1675 488.1895
   488.5858 489.2855 489.2939 490.2246 491.4343 492.2433 492.5560 492.7505
   494.4846 495.4757 495.6798 495.7308 495.8888 495.9175 496.0373 497.3839
   498.5932 499.1679 499.5699 501.4426 501.5795 501.7217 502.5087 502.5566
   503.4418 504.2940 505.3185 507.3955 508.3799 508.4290 508.7157 509.0456
   509.3466 509.8554 510.0755 510.1357 510.1369 510.9076 511.2021 511.2847
   511.7506 512.5089 512.8917 513.2239 513.2796 514.7568 515.2453 515.3829
   515.4420 515.8691 516.0844 516.4524 516.7642 516.7838 517.0248 517.0310
   517.7431 517.7586 517.8075 517.8930 522.0617 522.3926 522.7900 523.4224
   523.5407 523.5696 526.8720 526.9324 527.4444 527.4808 529.1913 529.5657
   531.2691 531.4544 531.6857 531.7311 533.9695 534.3316 534.5376 535.3260
   535.5578 535.8452 536.3597 537.1135 539.0640 539.0975 540.1152 540.4988
   540.5111 541.2232 541.2848 542.1610 542.1775 542.3930 542.6033 542.9177
   543.0118 543.1096 543.3004 543.4668 543.5085 544.3526 545.1068 545.1467
   545.9033 545.9143 546.3442 546.3716 546.6394 547.1705 550.6733 551.1505
   551.4888 551.9597 554.3484 554.7904 555.1446 555.5329 555.7267 556.2856
   556.4379 556.4543 556.7800 557.2885 558.1008 558.2987 558.5580 558.7806
   559.0024 559.1973 559.6934 559.7429 559.9462 560.0666 560.3801 560.4230
   560.4773 560.6792 560.8313 561.1145 561.1724 561.5611 561.6534 562.0207
   562.3387 563.0375 563.0464 563.2829 564.6829 564.8821 565.0978 565.8218
   570.1899 570.2531 570.8882 573.0672 573.5155 574.0852 574.1375 574.1982
   574.2042 574.5546 574.5928 574.6105 577.9314 577.9514 578.1339 578.4954
   578.8551 579.2202 579.2867 579.6754 580.3908 580.6457 580.7008 580.7054
   580.7190 581.0338 581.0447 581.1489 581.8200 581.9696 582.3576 582.3645
   587.0083 587.2041 587.2990 587.4918 587.8781 588.1055 588.5046 588.5358
   592.4342 592.8630 594.8177 595.0166 596.0300 596.0316 596.1352 596.2117
   596.4015 596.4087 596.5158 596.5842 598.0435 598.1994 599.4401 599.4758
   599.7186 600.1553 600.2123 601.2452 601.5617 602.0718 602.2975 603.0037
   603.1291 603.1623 603.4120 603.4440 604.8549 605.1654 607.4360 607.7457
   607.8800 608.3020 608.4035 608.7688 610.0245 610.0301 610.1333 610.1935
   610.2792 611.1501 611.1807 612.8362 613.3572 614.0532 614.1595 614.2270
   614.3808 614.8448 615.4029 617.2802 618.1133 618.1135 618.1189 618.1335
   618.3761 618.4979 619.2198 619.4582 622.4202 622.7130 623.0605 624.3716
   624.4058 624.6071 624.6617 624.7452 624.8276 624.8473 624.8491 626.5614
   627.0791 627.0861 627.1413 627.4473 627.5193 627.6414 629.5316 629.8234
   630.0830 630.2355 630.2572 630.4317 630.4343 630.9474 631.5237 632.7544
   632.7667 633.0743 633.0878 636.9717 637.6780 638.1079 638.5262 638.8600
   639.1142 639.1864 639.2193 639.7463 640.4140 642.4016 642.7086 643.2503
   643.6739 644.7616 644.8085 644.9440 645.1148 647.8256 647.8345 647.8531
   647.8597 648.0282 648.2179 648.2601 648.2766 648.4059 648.5572 649.0902
   649.2357 649.3908 650.1172 654.5380 654.5437 654.7847 654.7922 655.2210
   655.4118 656.3421 656.3635 657.9777 658.1681 658.7777 659.1009 659.6275
   659.8695 659.9412 659.9515 660.2651 662.0046 663.6035 663.7310 663.7339
   664.5612 665.3484 665.7481 665.8345 666.0143 666.2404 666.3012 666.3630
   666.4089 666.8533 667.0349 667.0618 667.3231 667.3649 668.0878 668.0894
   668.1639 668.2014 668.2472 671.4661 671.6739 671.7575 671.7852 671.8819
   671.9999 672.0312 672.1542 672.3695 672.4455 672.7761 672.7918 673.4966
   673.7969 673.8665 673.9722 675.5185 675.6183 675.6801 675.7600 679.1736
   679.6048 680.3287 680.4667 684.1630 684.3163 684.8471 684.8737 686.9313
   686.9429 687.1281 687.7638 687.8424 688.0446 688.2571 688.3287 688.6871
   688.9720 689.2251 689.3683 689.5570 689.6114 689.8477 689.9145 690.0153
   690.1158 690.1711 690.1766 690.1870 690.1916 692.2250 692.3519 692.6321
   692.9511 693.6591 693.9758 694.1291 694.2973 696.4783 696.5611 696.9610
   696.9786 698.5453 698.6067 699.6973 699.7108 699.7764 700.4297 702.5344
   702.5658 702.7654 702.8347 703.2170 703.6004 705.5187 705.5321 706.2428
   707.5029 707.7024 707.8936 708.4237 708.4746 708.6647 708.7277 709.0462
   709.9222 711.3027 711.3093 711.3570 711.3837 711.7624 711.7743 711.8301
   711.8995 714.6017 714.6102 716.4661 716.9272 716.9601 717.0391 717.4020
   717.5429 717.8707 717.9350 717.9561 717.9673 718.0028 718.0950 718.1516
   718.2201 722.0107 722.3352 722.8857 722.9233 722.9393 723.8038 724.0700
   724.4695 724.4813 724.5461 724.5561 724.6270 724.6950 724.8923 725.5457
   725.5737 727.3730 728.0667 728.1778 728.6779 729.3260 729.6232 729.7929
   730.9170 732.1890 732.2094 733.2613 733.2637 733.4113 733.4350 733.5472
   733.7907 733.8591 734.0988 734.4868 734.5417 737.8722 737.9671 738.0940
   738.1692 739.5035 739.5512 739.5668 739.5740 741.2439 741.2585 741.2590
   741.2641 743.4868 743.4974 743.7338 743.7571 744.8929 745.0409 745.4177
   745.6873 746.1837 746.2243 747.8260 747.8751 749.2108 749.6168 749.7545
   749.9602 752.7467 752.8589 753.1603 753.3254 753.6846 753.7155 754.6789
   755.5282 755.9081 756.1433 757.5145 757.6565 757.7797 757.8245 757.9207
   757.9889 758.3461 758.4930 760.6347 760.9238 761.0287 761.0836 761.3102
   761.3267 761.5875 761.5955 761.8257 761.8442 763.4339 763.4483 764.7302
   764.9494 767.0489 767.4210 767.6327 767.6755 768.2291 768.2368 768.4518
   768.4936 770.5522 770.5772 771.7208 771.8642 772.1695 772.1913 773.3849
   773.5352 773.5624 773.6956 774.7025 774.8103 775.0856 775.1769 775.6197
   775.7515 775.7765 775.7772 776.3827 776.4360 776.4411 776.4842 776.9225
   776.9278 776.9790 776.9990 779.8535 780.1545 780.2911 780.4112 780.8320

          k = 0.0000-1.0000 0.0000 (  2402 PWs)   bands (ev):

   -45.3436 -17.4239 -17.3248 -17.3248 -17.2577   0.2920   1.1972   1.1972
    15.1307  15.1822  15.7116  21.9467  21.9467  26.3639  31.2139  34.2168
    34.2168  36.5296  39.3047  39.3047  40.8498  42.9203  42.9203  43.9044
    44.2648  46.9985  46.9985  51.3885  54.8835  56.8010  57.6891  58.6230
    61.9988  63.1399  63.1399  63.8342  63.8403  67.6782  70.7843  70.7843
    72.0188  72.0188  72.3001  72.7259  80.2939  80.2939  82.5325  86.6108
    86.6108  89.2186  89.2186  89.4162  91.0801  91.4903  93.5147  93.7318
    93.7318  94.1483  96.5778  98.0042  99.7646  99.7646 100.1799 100.1799
   101.2528 101.2789 102.0897 106.0181 107.9865 108.0158 111.9940 113.1552
   113.1552 115.8732 115.8732 116.4972 117.2203 117.2203 117.5495 118.1473
   120.7831 121.3252 121.3252 121.5884 122.4180 123.7470 125.5038 125.5038
   125.5187 125.5187 129.7663 129.7663 130.5661 130.5684 136.1011 136.6394
   137.3217 137.3217 139.5863 142.6528 144.4763 144.6402 144.6402 145.4044
   148.4558 148.4558 148.9939 150.6783 150.8890 150.8890 151.1608 151.5023
   151.9013 152.2794 152.2794 153.0819 153.5601 160.5092 160.6202 160.6202
   164.3495 164.3495 168.9265 169.4577 171.9321 171.9321 173.0070 173.2727
   173.3635 173.6333 174.3753 174.5918 174.5918 176.6067 176.6067 178.6898
   179.2620 180.3007 183.8058 184.1561 184.9518 184.9518 185.2882 185.5245
   186.4236 186.4236 186.4444 186.4444 187.5826 187.5878 187.6861 187.8101
   187.8101 197.9718 197.9718 198.2694 198.8051 198.8051 199.1828 200.4020
   202.0094 202.2740 203.0884 203.3618 203.3618 203.8206 203.8206 204.6368
   204.9311 205.5808 205.5808 205.6966 205.6966 205.8623 205.9923 206.0836
   206.1795 206.2779 206.2779 207.5159 207.6531 208.9620 213.2029 213.5069
   213.5069 214.5676 214.6088 214.8379 214.8379 215.0500 218.5685 218.5685
   222.8363 225.3331 225.3331 225.7886 227.4915 227.8216 231.9602 231.9602
   232.4350 232.4350 232.5177 232.8440 232.9627 233.0750 236.1902 236.2484
   236.3224 236.3224 236.3298 237.8942 237.8942 238.4417 238.7240 238.7240
   239.4638 240.5901 240.7874 240.7874 240.8549 241.1296 241.4301 241.4301
   246.0454 249.0061 252.2904 256.2634 259.4868 259.4868 261.4516 264.2527
   264.2527 264.2735 264.3102 265.3640 265.8065 265.8065 266.1260 268.6284
   268.9758 268.9758 269.2516 269.2516 269.5746 269.6830 269.9621 269.9621
   270.1387 270.3680 270.4473 270.4473 270.6653 271.9719 271.9719 274.5007
   274.5105 282.0555 283.3586 284.1100 284.3893 284.3893 284.5712 284.5712
   285.3309 285.3813 285.3813 285.8038 287.0957 287.0957 287.3467 287.7498
   288.1926 289.1903 289.1903 289.7613 290.0064 290.1092 290.3759 290.3759
   290.5665 290.5665 290.5717 290.7277 290.7381 293.6060 293.7117 293.7117
   294.0522 294.1027 294.3888 294.3888 294.4740 295.6847 300.7070 300.7225
   300.8485 300.8485 300.9780 300.9780 301.1757 301.2269 306.9816 310.2886
   310.2886 311.0920 314.1949 314.1949 315.8516 315.9066 316.0765 316.0793
   317.3121 317.3121 317.7569 317.9299 317.9299 318.0169 318.0169 318.4370
   318.6047 319.6311 319.6825 319.6825 321.0796 321.0905 321.3196 321.3196
   321.3575 321.3575 321.4837 321.5366 324.1619 324.1832 327.8710 327.9087
   327.9419 327.9419 330.3548 330.3548 330.5162 330.5162 331.5233 331.5410
   336.1653 341.3754 342.1114 342.2569 342.2569 345.3821 345.7168 346.8433
   346.8433 346.9601 347.0866 347.0948 347.1048 347.1048 347.2447 347.2629
   347.5055 347.6833 347.6833 347.8557 347.9307 347.9450 347.9450 349.5825
   349.9743 349.9743 350.0822 353.2998 353.3885 353.3885 353.3972 355.2716
   356.2174 356.4015 356.4508 356.4508 356.5034 356.5124 356.5124 356.7878
   358.1894 358.1894 358.2068 358.2505 361.8920 361.8920 364.8016 365.1946
   366.9368 372.7380 373.8953 373.8953 374.5271 374.5271 374.6823 374.6823
   374.7389 374.8889 375.2181 375.2181 376.3474 378.0292 378.1834 378.1834
   378.3030 378.8041 378.8773 378.9483 378.9483 379.6200 379.6498 380.0155
   380.6616 381.3140 381.3270 381.3270 381.3493 381.8837 381.8837 382.1399
   382.8382 382.8382 382.9251 382.9251 382.9653 383.0333 383.2932 383.6732
   383.7201 383.7201 383.8198 385.8954 386.8641 387.0815 387.0815 387.2647
   387.6153 387.6388 387.6388 387.6746 396.1499 398.8860 398.8860 401.7998
   401.7998 402.2673 402.2729 404.9258 405.7084 405.8550 406.0874 406.0874
   406.1441 406.1441 406.5005 406.5105 408.3254 408.3254 410.4070 410.6044
   410.6230 410.6230 410.6756 411.7169 420.1237 421.2495 421.2495 428.5286
   428.8795 428.8795 429.5939 429.7641 430.0005 430.5322 430.8566 430.8566
   431.3765 431.3765 431.6811 431.6811 432.0562 432.2270 433.1006 433.1006
   433.5395 433.5426 433.8187 435.4637 435.5752 435.5752 435.6801 435.7705
   435.8346 435.8346 435.9672 436.6686 438.5916 438.5916 439.8556 440.3089
   440.3843 440.4556 440.4591 440.4591 440.4998 440.4998 440.6383 441.0542
   441.1156 441.1156 441.2508 442.2921 444.5691 444.5918 444.8313 444.8313
   444.8487 444.8487 445.0725 445.0993 447.8113 447.8113 448.3728 450.6118
   452.4120 454.6041 455.7024 457.5275 457.5275 458.3727 458.3727 459.3708
   459.5419 461.7720 462.0993 462.1011 462.3217 462.3217 462.5016 462.5016
   462.8305 462.8457 462.8596 462.8596 462.9924 463.3218 463.4830 463.4830
   463.6592 463.7085 463.7085 463.9283 463.9640 464.0828 464.0828 464.3042
   464.4504 466.0325 466.0556 466.0556 466.1051 466.4959 467.7883 467.7896
   467.7896 467.8495 468.2950 468.2950 468.5048 470.0527 470.7426 470.7426
   470.7511 470.7511 473.7550 473.7990 473.8232 473.8232 473.8506 473.8506
   473.9049 473.9256 475.9699 475.9803 483.4988 483.4988 485.8621 485.9058
   486.0127 486.0127 486.1101 486.1143 486.7055 488.2998 488.2998 488.5822
   488.5822 488.9095 488.9344 490.7568 492.8161 493.5583 493.5584 493.6469
   493.6469 493.7726 493.7726 493.9580 493.9886 494.1286 494.1286 494.6416
   494.6416 494.7800 494.7829 495.0346 495.0346 495.0630 495.0765 495.4924
   495.5186 495.5186 495.5238 496.7381 500.2092 500.2681 500.3872 500.3872
   500.4235 500.4235 500.5952 500.6385 509.6399 509.6399 512.6785 513.9985
   514.4921 516.0485 516.0485 517.7172 518.0099 518.1702 518.2027 518.2027
   518.2249 518.8254 518.8254 519.4038 519.4312 520.7982 520.7982 520.9230
   520.9230 522.8214 523.7864 523.8443 523.8669 523.8669 525.3533 525.3717
   525.6322 525.9059 525.9059 526.1316 526.2317 526.2317 526.3212 526.3701
   526.7168 526.8959 526.8959 526.9321 526.9321 527.0421 527.1843 528.1823
   529.0202 529.0202 529.0230 529.0256 529.5992 529.6041 531.8876 531.8876
   531.9057 531.9057 533.0272 533.0464 540.4935 540.4935 540.9859 542.9881
   542.9985 543.0330 543.0330 546.0506 546.9698 546.9698 547.0620 547.4656
   547.5775 547.7230 547.7230 548.1014 549.0263 549.0263 549.2261 549.2338
   549.3870 549.5747 549.5747 549.7949 551.5421 551.5463 551.5649 551.5649
   551.5956 551.6329 551.6329 551.7221 552.6989 552.6989 553.3915 553.8166
   553.9599 553.9698 553.9698 554.3483 558.0469 558.0469 558.0774 558.1393
   558.4842 558.5247 558.5247 558.5702 566.4430 567.5663 567.5663 570.0108
   570.2854 571.4774 571.5787 571.5787 572.2030 572.2592 573.1791 573.1791
   573.6746 575.0161 575.9821 576.5830 576.5830 576.5848 576.5848 576.6091
   576.9404 576.9810 576.9810 577.0215 577.1408 577.7434 578.4210 578.4210
   578.4363 578.4531 581.8000 581.8000 581.8019 581.8093 582.0563 582.2492
   582.2492 582.2667 582.3107 583.5980 583.5980 583.8498 583.8498 584.3256
   584.3292 584.5264 588.1509 588.1509 588.1559 588.2070 595.8178 599.7670
   599.9506 599.9506 602.0408 602.0408 602.1982 602.6827 602.7543 603.8999
   603.8999 604.1753 604.2353 604.7444 604.7444 604.8545 605.0753 605.5289
   605.5289 605.5720 605.5720 607.8576 608.8355 608.8355 608.9897 609.0078
   609.2124 609.3486 609.3486 609.3977 609.9933 610.0100 611.4030 611.4248
   611.7323 611.7323 612.0261 612.0261 612.4027 613.0527 616.8846 616.8846
   616.8937 616.9415 617.3500 617.4266 617.4266 617.5035 617.6607 617.7258
   617.7258 617.7985 617.9792 617.9792 617.9833 618.0143 627.9742 627.9742
   627.9851 630.2319 630.2319 630.4194 630.4259 631.9800 633.1296 633.2717
   633.2717 633.3455 633.4686 633.7427 633.7427 633.8784 634.0048 634.1634
   634.1634 634.2791 634.4339 634.4339 634.7048 634.8909 635.0943 635.0949
   635.1264 635.1264 635.2866 635.3571 635.4432 635.4432 635.7728 635.8371
   635.8371 635.8712 635.8870 635.8870 635.9789 636.4000 636.4000 636.4217
   636.4555 636.4583 636.4629 636.4875 636.4875 636.5559 636.6360 636.8310
   636.8310 636.9494 636.9494 637.0637 637.1393 637.1464 637.4119 637.4119
   637.9837 638.7083 638.7679 638.8234 638.8234 640.1931 640.1931 640.2827
   640.2859 640.4081 641.2627 641.2627 641.2901 641.4564 644.1063 644.1392
   644.1392 644.1818 644.3290 644.3773 644.3773 644.4520 646.1292 646.1323
   646.3908 646.3908 646.4035 646.4035 646.6035 646.6268 663.1533 663.1533
   663.3324 663.7604 663.7604 663.8084 663.8322 664.2031 664.2464 664.2808
   664.2864 664.2864 664.2989 664.3111 664.3111 664.3405 668.1905 668.1905
   668.6322 669.4465 669.4980 669.4980 669.6191 669.8002 669.9421 669.9421
   669.9445 670.1060 670.1616 670.1616 670.3531 670.6072 671.0387 671.0925
   671.0925 671.1986 671.4290 671.4627 671.5258 671.5258 671.5960 671.6005
   671.6005 671.7579 671.7790 671.9397 671.9397 672.0418 687.1434 689.3103
   689.3103 689.7169 690.2381 690.2381 690.7224 690.7224 690.7623 690.8853
   690.9044 691.0319 691.0319 691.2544 691.3723 691.3943 693.8244 693.8244
   694.1810 694.3122 694.3305 694.3445 694.3445 694.5785 695.9500 696.4524
   696.4524 696.6798 696.7597 696.7597 696.7714 696.8367 696.8367 696.9055
   696.9401 697.9360 702.0532 702.0866 702.1934 702.1934 702.2067 702.2067
   702.3388 702.3440 704.0450 704.0525 704.0525 704.0630 704.0849 704.0849
   704.1176 704.1324 706.7376 706.7376 709.3182 709.5345 709.8573 709.8662
   710.3106 710.3106 710.7407 711.5203 715.3578 715.5089 715.5089 715.8347
   715.8392 715.8560 715.8560 717.4368 719.8695 719.9023 719.9023 719.9435
   720.7881 720.8354 720.9318 720.9318 720.9510 720.9510 721.1718 721.1989
   722.5077 722.5254 722.6963 722.6963 722.7338 722.7338 722.8711 722.9217
   724.1621 724.1967 724.1967 724.2012 724.5655 724.5665 724.6667 724.6667
   724.6748 724.6748 724.7730 724.7864 724.8724 724.8724 724.8734 724.8895
   726.6655 726.6795 726.6795 726.6946 727.2332 727.2332 727.5755 727.9601
   728.5627 728.6036 728.6119 728.6119 729.7924 729.7924 729.8066 729.8066
   735.0540 735.0557 743.8676 743.8676 744.7451 744.8816 744.9264 744.9264
   744.9401 745.1091 748.5906 749.0394 749.0394 749.0943 749.0943 749.1420
   749.4347 749.4926 749.6171 749.6171 749.6371 749.7188 749.9045 749.9154
   749.9154 749.9599 753.5881 753.5881 753.8608 753.8936 753.8936 753.9330
   754.3017 754.3216 754.3216 754.3315 754.3438 754.5981 754.6043 754.6080
   754.6080 755.2664 756.0353 756.3672 756.3672 756.4211 756.6129 756.7037
   756.7037 756.8047 757.4759 757.4759 757.5823 757.6342 757.6912 757.8107
   757.8107 757.9099 774.4358 775.2077 775.2077 775.8158 775.9078 776.0916
   776.1715 776.1715 776.1867 776.4789 777.0336 777.0336 777.2242 777.2279
   777.2431 777.2431 777.2814 777.4472 779.3085 779.3085 779.4525 779.4525
   780.8364 780.9848 780.9848 781.1564 781.1617 781.1617 781.1732 781.2239
   781.2583 781.2583 781.2696 781.3074 781.3479 781.3479 781.3511 782.0480

          k =-0.5000-1.0000 0.0000 (  2400 PWs)   bands (ev):

   -45.3434 -17.7759 -17.3740 -17.3740 -16.7665   0.7094   0.7094   1.0200
    15.1628  15.1628  17.3447  19.0380  25.7130  25.7130  29.2730  30.5831
    35.4930  36.3458  39.9398  39.9398  41.7788  41.7788  41.8222  44.5113
    50.3932  50.3932  51.1209  51.2182  53.6058  53.6058  55.7129  56.6522
    57.0366  57.0366  58.0867  61.0100  70.0954  70.0954  70.9279  75.0333
    77.0428  77.0428  78.5810  78.5810  78.9105  79.1981  79.3006  79.5670
    84.3060  84.3060  87.7118  87.9444  88.6649  90.1960  93.3720  93.3720
    94.3396  94.6075  94.6075  97.4214 100.5519 100.5519 103.4389 103.4389
   103.8458 104.6825 105.3741 105.9020 106.7682 106.7682 108.8339 109.6682
   110.6152 111.2707 114.3832 114.3832 118.8029 118.8029 121.7535 122.2980
   122.6744 122.6744 123.1712 123.2566 123.2706 123.5829 126.1003 126.1003
   128.7332 128.7332 130.9832 131.3713 131.3713 132.0014 132.9989 133.4134
   136.5388 136.8442 136.8442 137.0867 137.3998 137.6144 140.1694 140.1694
   144.3532 144.9316 146.8164 146.8164 150.6608 150.6608 152.7466 152.7466
   153.9921 154.9160 165.1548 165.2889 165.2889 165.3854 165.5121 166.0123
   166.0183 166.0183 169.2512 171.4073 172.3385 172.4444 172.4444 173.1109
   174.0558 174.6586 174.6586 174.6634 175.3350 175.7712 175.7712 176.5341
   176.5341 176.5839 176.9517 178.0635 179.8024 179.8024 180.7436 180.7564
   187.4383 187.4383 187.6820 187.6820 188.3203 188.5104 190.2499 190.6005
   191.0483 191.4904 191.7829 191.7829 193.2644 193.7208 196.5214 196.5214
   197.8940 197.8940 201.3086 202.5454 202.5454 202.9439 203.7991 204.1699
   204.3418 204.3418 204.3448 204.8334 207.6530 208.0043 209.2973 209.2973
   209.4076 209.4518 212.8798 212.8798 215.7270 215.7270 216.7454 217.5107
   218.1964 218.6358 218.9220 218.9220 219.6021 219.7210 219.8884 219.8884
   220.4588 220.5858 220.5858 220.6245 220.7272 222.1316 222.9883 222.9883
   230.4815 230.8031 231.4908 231.4908 233.0419 233.0419 234.1679 234.2781
   235.9446 235.9446 239.7523 240.9197 243.8468 243.8468 244.7403 244.7403
   248.0701 248.6637 248.7674 248.9219 248.9771 248.9771 250.2960 250.2960
   250.7392 252.4232 252.4488 252.7661 253.2802 254.4546 255.3880 255.3880
   256.6507 256.6507 259.1595 260.6246 260.6246 261.0986 261.5731 262.0239
   262.5543 262.5634 262.5634 263.5902 265.7747 265.7747 265.9655 266.0167
   266.9059 266.9059 266.9218 266.9733 273.0013 273.0013 273.2343 274.1382
   274.3968 275.0903 275.1839 275.1839 279.3896 279.3896 281.1596 281.3976
   282.1759 282.1759 283.7378 283.7378 285.6666 286.9533 287.3457 287.7837
   289.2872 290.6950 291.1050 291.1050 291.4502 291.7266 291.7266 291.8076
   292.7045 295.0058 296.9580 296.9580 299.4005 300.4101 303.9379 303.9379
   304.7104 305.1330 305.2113 305.2113 306.0360 306.0528 306.0528 306.3588
   306.4846 306.4846 306.5660 306.8476 306.8804 307.0545 308.0320 308.0320
   309.1133 309.2576 309.3515 309.3515 312.3788 312.3788 313.2179 314.7458
   314.7458 315.9500 317.4696 318.3068 318.5472 318.5472 318.9625 318.9915
   318.9915 319.6725 319.7075 319.7158 319.9841 320.1742 320.4799 320.4799
   325.2643 325.2717 325.2717 327.3608 330.0095 330.0346 330.0346 330.0937
   330.4870 330.4870 333.6740 333.6740 333.9542 334.2378 334.3991 334.3991
   334.3994 334.4357 335.0183 335.0183 335.1058 335.2355 335.2493 336.6647
   338.0724 338.0724 338.5858 338.5858 338.6873 338.7413 338.9656 338.9656
   339.0844 339.0956 342.6261 344.4526 344.6639 344.6639 345.1522 345.7396
   347.8393 348.4683 348.4683 349.0080 349.5133 349.5133 349.5512 349.5868
   353.3238 353.3238 353.3703 353.3784 359.2397 359.3884 359.3884 361.5109
   361.8144 361.8144 362.2237 362.2805 362.2805 362.7753 363.1846 363.1846
   363.2836 363.3988 363.6075 364.1819 370.9882 370.9882 372.6000 373.8556
   373.8556 374.2379 375.1322 376.0065 376.1606 376.1606 376.3375 376.8087
   377.0665 377.0665 377.2464 377.7906 381.4738 386.7171 387.0390 387.0390
   389.7308 389.7308 390.8265 390.8265 390.9572 391.1051 391.2791 391.5599
   391.5599 391.6438 391.6900 391.7630 391.8247 391.8247 392.0902 392.1891
   392.1891 392.3614 392.4798 392.4830 392.8457 392.8457 393.3697 393.3697
   393.3828 393.4378 393.4540 394.3994 395.6200 395.7618 397.5123 397.5123
   399.9230 400.3907 404.9680 404.9680 406.3512 406.3512 406.4999 406.5790
   406.6248 407.1894 410.0432 410.0432 410.4914 410.4914 410.5664 410.5665
   415.1025 415.5540 415.5540 416.3982 416.9901 416.9901 419.1555 419.7322
   420.1083 420.1083 420.4692 420.4692 420.5688 420.8412 421.1611 421.1611
   421.2244 421.2411 421.2470 422.1231 425.0570 425.0570 425.1724 425.1816
   426.7261 426.7261 428.6757 429.7818 430.3652 430.3652 430.5354 430.5354
   430.7101 431.6916 432.8641 433.4606 433.5889 433.7082 433.7082 434.3557
   434.3614 434.3614 434.4069 434.8343 434.8343 434.8685 435.2154 435.6390
   439.0230 439.0230 439.7452 439.7496 445.3934 445.3934 449.6281 449.9531
   449.9531 450.3008 450.3240 450.3933 450.8005 450.8005 452.0222 453.4990
   457.5668 458.9109 458.9109 460.6295 461.3710 461.3710 461.6441 461.8503
   462.1449 462.1449 462.4648 462.6202 462.8138 462.8138 462.8870 462.9526
   463.0110 463.0110 463.6666 463.9003 464.2279 464.2279 464.3476 464.4676
   464.6326 464.6715 464.6715 464.7669 467.5202 467.5538 467.5538 467.5940
   468.3141 469.4049 469.4049 471.4581 473.5502 473.5502 474.9107 475.3521
   475.6462 475.6462 475.7037 475.7470 477.7573 477.7573 478.1785 478.1785
   478.2742 478.4163 478.4602 478.5564 478.6572 478.6572 478.7169 478.7562
   478.9124 478.9795 479.1099 479.1099 479.3661 479.3661 479.5946 479.5988
   479.5988 479.6511 480.1091 480.1638 482.3258 482.3277 482.3277 482.3550
   482.9807 482.9977 482.9977 483.0004 489.4216 490.2283 490.2283 491.1896
   491.9839 492.1240 492.1240 492.4128 492.4128 492.5637 492.9277 492.9533
   499.5963 499.5963 501.0851 501.7904 502.8072 504.0149 504.0149 505.2160
   505.2534 505.2564 505.2564 505.9683 506.1830 506.1830 506.3172 506.3172
   506.3315 506.3353 507.0923 507.1594 507.3334 507.5318 507.5318 507.9337
   507.9547 507.9702 507.9702 507.9848 509.8303 510.7049 510.8582 510.8582
   510.8884 510.8961 515.7490 515.7490 516.4679 516.4813 517.3570 517.3570
   518.9472 519.2270 519.2270 519.4002 519.9350 519.9687 521.1995 521.3157
   521.3157 521.3482 521.6355 521.6355 521.6834 521.7062 522.0903 522.0903
   522.3440 522.6251 522.6251 522.6263 522.6336 522.7788 525.2289 525.2289
   525.8369 525.8369 525.8578 525.8626 533.9042 533.9042 534.5484 535.1752
   535.7885 535.7885 535.8389 535.8893 536.9297 536.9334 536.9407 536.9407
   537.1914 537.2170 537.2170 537.2590 543.2894 544.6537 544.6537 545.2342
   545.7840 545.7840 546.1238 546.1807 548.3339 548.3339 549.7332 549.9169
   549.9169 549.9260 549.9970 550.1070 554.0511 554.0511 554.8306 554.8311
   554.9120 554.9120 554.9246 554.9253 556.2380 556.2380 556.3690 557.9971
   560.3834 560.3834 561.2014 561.5604 563.6155 563.6155 564.1541 564.2212
   564.2259 564.2259 564.4586 564.6798 568.8358 568.8358 568.8807 568.8906
   570.0201 570.0201 572.0809 572.3014 573.3177 575.6369 575.6369 576.5954
   576.5954 576.6765 577.2928 577.3667 577.5035 577.5035 577.7308 577.8290
   577.8290 577.8476 577.9133 578.6190 578.6190 578.8359 578.8486 578.9140
   579.6331 579.8396 579.8396 579.9608 590.7246 590.7246 591.2208 592.1281
   592.4241 592.4241 592.5881 592.5966 592.6494 592.6494 592.9460 592.9569
   593.6013 593.6013 593.6319 593.6392 593.8523 593.8703 593.8703 593.9894
   599.2624 599.2624 601.9320 602.1098 602.2245 602.2245 602.2736 603.3198
   603.5479 603.5479 603.5620 604.6500 605.6998 606.0086 606.0086 606.4071
   606.5491 606.7048 606.9003 606.9003 607.0977 607.3808 607.3808 607.3924
   607.5843 607.5909 607.5909 607.6106 607.7184 607.7551 607.7551 607.8360
   607.8505 607.8505 608.0364 608.1165 608.1165 608.1171 608.2471 608.2471
   608.3477 608.3853 608.4201 608.4569 608.4734 608.4834 608.4834 608.7634
   608.7644 608.7644 608.7904 609.4799 612.1007 612.1017 612.1126 612.1126
   620.8626 621.0476 621.0476 621.2426 621.2820 621.2820 621.4491 621.8573
   621.8998 621.8998 622.0117 622.2274 622.2910 622.2910 622.3311 622.4043
   622.6761 622.6761 622.7765 623.3127 623.4175 623.4657 623.4657 623.5825
   623.8796 623.8796 623.8946 623.9012 630.8184 631.6499 631.6499 631.7148
   633.2603 633.2603 633.9514 634.1543 634.9618 634.9618 634.9619 635.3622
   638.8337 639.4350 641.1337 641.1337 641.1589 641.1668 646.2656 646.2656
   646.3446 647.8504 648.8286 648.8286 649.0789 649.2111 649.2111 649.2663
   649.5342 649.7434 650.0945 650.0945 650.1996 650.2279 650.5272 650.5272
   650.6092 651.3553 651.7005 651.7262 651.7262 651.9298 651.9527 651.9986
   651.9986 652.0308 652.2955 652.2955 652.3358 652.3839 652.3867 652.3867
   652.3867 652.4158 654.7103 654.7103 657.1537 657.1537 657.4004 657.6618
   662.7173 662.7173 663.0921 663.4636 664.6938 664.6938 664.8393 664.8730
   664.8730 664.8831 664.9296 665.3441 669.5900 669.5900 669.5945 669.5967
   673.9715 674.5619 674.5744 674.5744 674.8996 675.0644 675.0644 675.2846
   677.4899 677.4899 677.7135 678.1852 678.1962 678.1962 678.2113 678.4249
   678.8873 678.8873 678.9168 679.5572 679.9962 679.9962 680.0034 680.0174
   680.1678 680.1678 680.2565 680.3123 680.3123 680.3166 680.3232 680.8126
   683.5540 683.5540 684.1794 684.1901 684.1972 684.1972 684.3617 684.3654
   689.7137 689.7137 690.7057 690.7331 690.7949 691.0032 691.0032 691.0949
   691.6069 691.6069 691.6944 691.7188 693.4133 693.4133 693.8193 693.8334
   693.8361 693.8361 693.9690 694.0363 694.0363 694.0542 694.0565 694.1212
   694.1729 694.1729 694.2088 694.3844 694.5064 694.5064 694.5071 694.5753
   694.6704 694.7146 694.7146 694.7268 694.7487 694.7942 694.9551 694.9551
   695.1989 695.2315 695.2315 695.2998 706.9439 707.1425 707.1425 707.1576
   708.5861 708.5861 709.7252 709.7430 709.9671 709.9671 709.9702 710.0036
   710.2742 710.2742 710.5735 711.3656 719.8341 719.9673 719.9673 720.6046
   721.3090 721.3090 721.3839 721.3969 721.7053 721.7053 721.7465 722.0595
   723.0108 723.0108 723.0484 723.2046 723.2054 723.2054 723.2274 723.2397
   723.2404 723.2404 723.2478 723.4488 723.6802 723.6901 723.7369 723.7369
   726.5282 726.5569 726.5569 726.5699 733.6665 733.6665 733.7754 734.0254
   734.6030 734.6030 734.9775 735.0874 735.0982 735.0982 735.1164 735.1857
   736.7419 736.8710 736.8710 736.9830 736.9868 737.0261 737.0261 737.0930
   737.1591 737.1670 737.3166 737.3166 737.4460 737.4460 737.9284 737.9437
   738.0041 738.0041 738.0232 738.0911 738.0911 738.1319 738.1354 738.2539
   741.8970 741.9101 741.9101 741.9123 748.7333 748.7461 748.7461 748.9439
   750.7285 750.7285 750.9927 751.0339 751.0339 751.0342 751.0750 751.2084
   752.4087 752.4132 752.4132 752.4580 752.8924 752.8924 752.9030 752.9321
   756.4620 756.4620 757.1004 757.1808 760.6636 760.7293 760.7293 760.7957
   761.0982 761.0982 761.1595 761.1726 766.3229 766.3229 766.3914 766.3920
   766.4014 766.4014 766.4097 766.4257 769.6025 769.6025 769.6060 769.6251
   770.4641 770.4814 770.4942 770.4942 770.6227 770.6227 770.6423 770.6531
   775.2098 775.5674 775.6672 775.6672 777.3796 777.3796 778.1495 778.2101
   778.3918 778.4451 778.4451 778.4697 778.8648 778.8648 778.9227 779.5042
   779.5834 779.5834 779.6133 779.6289 780.3308 780.3308 780.3396 780.3717

     the Fermi energy is     6.3942 ev
     (compare with:     4.3896 eV, computed in scf)

     Writing all to output data dir out/mp-682.save/
 
     init_run     :      0.04s CPU      0.05s WALL (       1 calls)
     electrons    :    535.52s CPU    575.53s WALL (       1 calls)

     Called by init_run:
     wfcinit      :      0.00s CPU      0.00s WALL (       1 calls)
     potinit      :      0.01s CPU      0.01s WALL (       1 calls)
     hinit0       :      0.01s CPU      0.02s WALL (       1 calls)

     Called by electrons:
     c_bands      :    535.52s CPU    575.52s WALL (       1 calls)
     v_of_rho     :      0.01s CPU      0.01s WALL (       1 calls)

     Called by c_bands:
     init_us_2    :      0.00s CPU      0.00s WALL (       8 calls)
     init_us_2:cp :      0.00s CPU      0.00s WALL (       8 calls)
     paro_k       :    517.26s CPU    556.09s WALL (       8 calls)

     Called by paro_*:
     h_psi        :      9.74s CPU     10.20s WALL (     778 calls)
     g_psi        :      0.20s CPU      0.23s WALL (   75749 calls)

     Called by h_psi:
     h_psi:calbec :      0.14s CPU      0.15s WALL (     778 calls)
     vloc_psi     :      9.44s CPU      9.89s WALL (     778 calls)
     add_vuspsi   :      0.09s CPU      0.10s WALL (     778 calls)

     General routines
     calbec       :      0.14s CPU      0.15s WALL (     778 calls)
     fft          :      0.00s CPU      0.01s WALL (      10 calls)
     fftw         :      8.43s CPU      8.83s WALL (  126214 calls)
 
     Parallel routines
 
     PWSCF        :   8m56.28s CPU   9m36.58s WALL

 
   This run was terminated on:  10:48:36  14Nov2023            

=------------------------------------------------------------------------------=
   JOB DONE.
=------------------------------------------------------------------------------=
