
     Program PWSCF v.7.1 starts on 14Nov2023 at 13:56:32 

     This program is part of the open-source Quantum ESPRESSO suite
     for quantum simulation of materials; please cite
         "P. Giannozzi et al., J. Phys.:Condens. Matter 21 395502 (2009);
         "P. Giannozzi et al., J. Phys.:Condens. Matter 29 465901 (2017);
         "P. Giannozzi et al., J. Chem. Phys. 152 154105 (2020);
          URL http://www.quantum-espresso.org", 
     in publications or presentations arising from this work. More details at
     http://www.quantum-espresso.org/quote

     Parallel version (MPI), running on    24 processors

     MPI processes distributed on     1 nodes
     123216 MiB available memory on the printing compute node when the environment starts
 
     Reading input from pw_mp-682_nscf_k690_E92.in
Warning: card &IONS ignored
Warning: card / ignored
Warning: card &CELL ignored
Warning: card / ignored

     Current dimensions of program PWSCF are:
     Max number of different atomic species (ntypx) = 10
     Max number of k-points (npk) =  40000
     Max angular momentum in pseudopotentials (lmaxx) =  4

     Atomic positions and unit cell read from directory:
     out/mp-682.save/
     Atomic positions from file used, from input discarded
 
 
     K-points division:     npool     =       2
     R & G space division:  proc/nbgrp/npool/nimage =      12
     Subspace diagonalization in iterative solution of the eigenvalue problem:
     one sub-group per band group will be used
     scalapack distributed-memory algorithm (size of sub-group:  3*  3 procs)

 
     Parallelization info
     --------------------
     sticks:   dense  smooth     PW     G-vecs:    dense   smooth      PW
     Min          79      79     23                 1599     1599     260
     Max          80      80     24                 1601     1601     263
     Sum         955     955    283                19195    19195    3143
 
     Using Slab Decomposition
 


     bravais-lattice index     =            2
     lattice parameter (alat)  =       8.6394  a.u.
     unit-cell volume          =     161.2111 (a.u.)^3
     number of atoms/cell      =            2
     number of atomic types    =            2
     number of electrons       =        16.00
     number of Kohn-Sham states=         1200
     kinetic-energy cutoff     =      92.0000  Ry
     charge density cutoff     =     368.0000  Ry
     Exchange-correlation= PBE
                           (   1   4   3   4   0   0   0)

     celldm(1)=   8.639428  celldm(2)=   0.000000  celldm(3)=   0.000000
     celldm(4)=   0.000000  celldm(5)=   0.000000  celldm(6)=   0.000000

     crystal axes: (cart. coord. in units of alat)
               a(1) = (  -0.500000   0.000000   0.500000 )  
               a(2) = (   0.000000   0.500000   0.500000 )  
               a(3) = (  -0.500000   0.500000   0.000000 )  

     reciprocal axes: (cart. coord. in units 2 pi/alat)
               b(1) = ( -1.000000 -1.000000  1.000000 )  
               b(2) = (  1.000000  1.000000  1.000000 )  
               b(3) = ( -1.000000  1.000000 -1.000000 )  


     PseudoPot. # 1 for F  read from file:
     /usr/scratch4/magr4985/MG/HTDF/pseudo/SG15/F.upf
     MD5 check sum: 1d8275f47d602dd53cad6bcdc0eda7dc
     Pseudo is Norm-conserving, Zval =  7.0
     Generated using ONCVPSP code by D. R. Hamann
     Using radial grid of  602 points,  4 beta functions with: 
                l(1) =   0
                l(2) =   0
                l(3) =   1
                l(4) =   1

     PseudoPot. # 2 for Na read from file:
     /usr/scratch4/magr4985/MG/HTDF/pseudo/SG15/Na.upf
     MD5 check sum: 425b17ce8ead78efa4860b7b3310c7e3
     Pseudo is Norm-conserving, Zval =  9.0
     Generated using ONCVPSP code by D. R. Hamann
     Using radial grid of  602 points,  4 beta functions with: 
                l(1) =   0
                l(2) =   0
                l(3) =   1
                l(4) =   1

     atomic species   valence    mass     pseudopotential
        F              7.00    18.99840     F ( 1.00)
        Na             9.00    22.98980     Na( 1.00)

     48 Sym. Ops., with inversion, found



   Cartesian axes

     site n.     atom                  positions (alat units)
         1           Na  tau(   1) = (   0.0000000   0.0000000   0.0000000  )
         2           F   tau(   2) = (  -0.5000000   0.5000000   0.5000000  )

     number of k points=    29  Gaussian smearing, width (Ry)=  0.0005
                       cart. coord. in units 2pi/alat
        k(    1) = (   0.0000000   0.0000000   0.0000000), wk =   0.0039062
        k(    2) = (  -0.1250000   0.1250000  -0.1250000), wk =   0.0312500
        k(    3) = (  -0.2500000   0.2500000  -0.2500000), wk =   0.0312500
        k(    4) = (  -0.3750000   0.3750000  -0.3750000), wk =   0.0312500
        k(    5) = (   0.5000000  -0.5000000   0.5000000), wk =   0.0156250
        k(    6) = (   0.0000000   0.2500000   0.0000000), wk =   0.0234375
        k(    7) = (  -0.1250000   0.3750000  -0.1250000), wk =   0.0937500
        k(    8) = (  -0.2500000   0.5000000  -0.2500000), wk =   0.0937500
        k(    9) = (   0.6250000  -0.3750000   0.6250000), wk =   0.0937500
        k(   10) = (   0.5000000  -0.2500000   0.5000000), wk =   0.0937500
        k(   11) = (   0.3750000  -0.1250000   0.3750000), wk =   0.0937500
        k(   12) = (   0.2500000   0.0000000   0.2500000), wk =   0.0468750
        k(   13) = (   0.0000000   0.5000000   0.0000000), wk =   0.0234375
        k(   14) = (  -0.1250000   0.6250000  -0.1250000), wk =   0.0937500
        k(   15) = (   0.7500000  -0.2500000   0.7500000), wk =   0.0937500
        k(   16) = (   0.6250000  -0.1250000   0.6250000), wk =   0.0937500
        k(   17) = (   0.5000000   0.0000000   0.5000000), wk =   0.0468750
        k(   18) = (   0.0000000   0.7500000   0.0000000), wk =   0.0234375
        k(   19) = (   0.8750000  -0.1250000   0.8750000), wk =   0.0937500
        k(   20) = (   0.7500000   0.0000000   0.7500000), wk =   0.0468750
        k(   21) = (   0.0000000  -1.0000000   0.0000000), wk =   0.0117188
        k(   22) = (  -0.2500000   0.5000000   0.0000000), wk =   0.0937500
        k(   23) = (   0.6250000  -0.3750000   0.8750000), wk =   0.1875000
        k(   24) = (   0.5000000  -0.2500000   0.7500000), wk =   0.0937500
        k(   25) = (   0.7500000  -0.2500000   1.0000000), wk =   0.0937500
        k(   26) = (   0.6250000  -0.1250000   0.8750000), wk =   0.1875000
        k(   27) = (   0.5000000  -0.0000000   0.7500000), wk =   0.0937500
        k(   28) = (  -0.2500000  -1.0000000   0.0000000), wk =   0.0468750
        k(   29) = (  -0.5000000  -1.0000000   0.0000000), wk =   0.0234375

     Dense  grid:    19195 G-vectors     FFT dimensions: (  40,  40,  40)

     Estimated max dynamical RAM per process >     100.50 MB

     Estimated total dynamical RAM >       2.36 GB

     The potential is recalculated from file :
     out/mp-682.save/charge-density

     Starting wfcs are random

     Band Structure Calculation
     ParO style diagonalization

     ethr =  5.00E-06,  avg # of iterations =  5.6

     total cpu time spent up to now is      760.6 secs

     End of band structure calculation

          k = 0.0000 0.0000 0.0000 (  2421 PWs)   bands (ev):

   -45.3642 -17.5271 -17.2648 -17.2648 -17.2648   1.6185   1.6185   1.6185
     8.1954  21.0545  21.0545  21.0545  23.8919  26.3236  26.3236  29.1736
    29.1736  29.1736  36.2919  36.2919  36.2919  41.8615  51.1760  51.1760
    51.1760  52.7277  55.4661  55.4661  55.9197  55.9197  55.9197  65.0008
    65.0008  68.4835  68.4835  68.4835  71.1555  71.1555  71.1555  75.6114
    75.6114  75.6114  76.7711  76.7711  76.7711  78.1893  78.1893  78.1893
    78.3555  80.4798  80.4798  80.4798  81.0085  81.0085  81.0954  81.3291
    81.3291  81.3291  82.1547  90.6034  90.6034  90.6034  98.9475  98.9475
    98.9475 104.9495 104.9495 106.6101 118.3627 118.3627 118.3627 121.9677
   123.4860 123.4860 123.4860 128.7316 128.7316 129.3757 129.3757 129.3757
   131.8905 132.6814 132.6814 132.6814 133.6900 133.6900 134.1301 135.0870
   135.0870 135.0870 136.2493 136.2493 136.2493 137.0046 137.0046 137.0046
   137.1968 137.1968 137.1968 137.2165 137.2165 139.2366 139.2366 139.2366
   140.6794 140.6794 140.6794 142.0133 142.0133 143.0041 143.0041 143.0041
   143.7402 152.7597 152.7597 152.7597 156.4195 156.4195 156.4195 162.7002
   162.7002 162.7002 163.4012 165.6072 169.2936 169.2936 169.4878 169.4878
   169.4878 169.8260 169.8260 169.8260 170.0405 170.0405 170.0405 170.1255
   170.1255 170.1255 170.2649 170.2649 172.7113 172.7113 180.8330 185.1805
   185.1805 185.1805 185.6405 185.6405 185.6405 188.0865 190.1575 190.2986
   190.2986 190.2986 190.6753 190.6753 190.6753 191.6276 191.6276 191.6276
   191.8294 191.8294 191.8294 195.4111 195.4111 195.4691 195.4691 195.4691
   195.5712 200.7173 200.7173 200.7173 215.3983 215.3983 215.3983 221.8155
   221.8155 221.8155 222.8828 222.8828 223.1922 223.1922 223.1922 225.2308
   234.3720 234.3720 234.3720 235.7754 235.7754 235.7754 236.5298 236.5298
   237.9344 237.9344 237.9344 241.6598 243.4696 243.4696 243.4696 244.8435
   244.8435 244.8435 245.3387 245.3387 246.4780 246.7856 246.7856 246.9701
   246.9701 246.9701 247.5857 247.5857 247.5857 247.9859 248.0209 248.3483
   248.3483 248.3483 249.5854 249.5854 249.5854 249.6000 249.6000 250.3573
   250.3573 250.3573 250.9804 250.9804 250.9804 251.5077 251.6482 251.6482
   251.6482 252.1567 252.1567 252.1567 252.2810 252.2810 252.7679 252.7679
   252.7679 253.0526 255.3449 255.5835 255.5835 255.5835 255.9439 255.9439
   255.9439 255.9842 255.9842 256.2844 256.2844 256.2844 256.3789 256.3789
   256.3789 256.4499 256.4499 271.5409 271.5409 271.5409 275.9314 275.9314
   280.8385 280.8385 280.8385 281.0432 281.0432 281.0432 281.2500 281.2500
   281.2500 281.5862 281.5862 281.5862 281.8354 286.0744 286.0744 286.1363
   286.1363 286.1363 286.2654 288.0278 288.0278 288.0278 297.5832 297.5832
   297.5832 297.9501 303.1252 305.1674 305.1674 305.1674 305.7115 305.7115
   305.8857 305.8857 305.8857 306.0286 306.0286 306.0286 306.2234 306.2234
   306.2234 306.2766 306.2766 306.2766 306.4376 306.4376 310.7119 310.7119
   310.7119 311.0287 311.0287 311.2934 311.4357 311.4357 311.4357 311.5978
   311.5978 311.5978 311.8016 311.8016 311.8016 312.1308 312.1308 312.1308
   312.3680 312.3680 314.6619 328.6014 328.6014 328.6014 336.5960 336.5960
   336.5960 338.7115 338.7115 338.7115 338.8843 341.0539 343.6882 343.6882
   351.9579 353.1305 353.1305 353.1305 353.8348 353.8348 353.8348 354.7387
   354.7387 354.7387 354.9543 354.9543 354.9543 355.6890 355.6890 360.8220
   362.0384 362.0384 362.0384 362.5956 362.5956 362.5956 362.7889 362.7889
   362.7889 362.8000 362.8000 363.0457 363.0457 363.0457 363.3407 363.3407
   363.3407 363.4571 363.4571 363.4571 365.0586 365.4502 365.4502 365.4502
   365.7378 365.7378 365.7378 365.8809 365.8809 365.9810 365.9810 365.9810
   368.0510 368.0715 368.0715 368.0715 368.0950 368.0950 369.8610 369.8610
   369.8610 369.9845 369.9845 370.1913 370.2756 370.2756 370.2756 370.5694
   370.5694 370.5694 370.8026 386.5551 386.5551 386.5551 391.2706 391.3267
   391.3267 391.3267 395.2099 395.2099 395.3212 395.3212 395.3212 395.4294
   395.4294 395.4294 395.7030 395.7030 395.7030 396.0023 396.0023 396.0023
   396.1499 396.1499 398.2162 398.6501 398.6501 398.6501 400.0521 400.0521
   400.1805 400.1805 400.1805 400.2488 400.2488 400.2488 400.3440 400.3440
   400.3440 400.3916 400.3916 400.3916 400.5067 400.5067 401.7909 401.8090
   401.8090 401.8090 401.8533 401.8533 401.8533 401.9206 408.7140 408.7140
   408.7140 408.9220 408.9220 411.0355 411.0355 411.0355 411.2065 412.1978
   412.1978 412.1978 413.0533 413.0533 413.0533 415.1334 415.1334 415.1334
   415.9330 416.4288 416.4288 416.4288 416.8330 416.8330 417.2820 417.2820
   417.2820 417.9021 419.1728 420.3422 420.3422 421.0536 421.0536 421.0536
   421.2758 421.2758 421.2758 421.2931 421.2931 421.2931 421.9565 421.9565
   422.0035 422.0035 422.0035 422.4047 422.6009 422.6009 422.6009 422.6508
   422.6508 424.0039 424.0039 424.0039 424.1108 424.1108 424.1108 424.2453
   424.2453 424.2453 424.3214 424.3214 424.3214 425.1322 425.1920 425.1920
   425.1920 425.2326 425.2326 443.9054 443.9054 443.9054 448.2142 448.2142
   452.0418 466.1215 466.1215 466.1215 474.9258 474.9258 474.9258 475.3845
   475.3845 475.3845 475.5613 475.6795 475.6795 476.1546 476.1546 476.1546
   476.4173 476.4173 476.4173 476.4946 476.4946 476.4946 476.7222 476.7222
   476.7222 476.8378 476.8378 476.9031 476.9031 476.9031 477.0480 477.0955
   477.0955 477.8096 477.8096 477.8096 478.7137 478.8630 481.9782 481.9782
   481.9782 482.1711 482.1711 482.1711 482.5102 482.5102 482.5102 482.6793
   482.6793 482.6793 482.9055 485.9929 485.9929 485.9968 485.9968 486.0557
   486.0557 486.0557 486.0747 486.0747 486.0747 486.2097 486.2097 486.2097
   486.2750 486.2750 486.2750 487.5288 487.5288 487.5315 487.5315 487.5315
   487.6267 505.1727 505.1727 505.1727 509.1989 509.1989 509.1989 509.4125
   509.4125 509.4195 509.4195 509.4195 512.4417 512.4696 512.4696 512.4696
   512.6738 512.6738 512.9124 512.9124 512.9124 513.2698 513.2698 513.2698
   513.2963 513.2963 513.2963 513.5185 513.5185 513.5185 513.5310 513.5443
   513.5443 513.5542 513.5542 513.5542 514.2690 517.9525 517.9525 517.9525
   522.3707 522.3707 522.3707 522.8439 522.8439 522.8811 522.8811 522.8811
   528.6297 531.8528 532.5628 532.5628 532.5628 532.5803 532.5803 532.5803
   532.7267 532.7267 532.8191 532.8191 532.8191 533.0148 533.0148 533.0148
   533.1014 533.1014 533.1014 533.3735 534.1034 537.3362 537.3362 537.3650
   537.3650 537.3650 537.4536 537.4536 537.4536 537.5404 537.5404 537.5404
   537.6018 539.0490 539.0490 539.0490 539.5205 539.5205 539.5205 539.5349
   539.5349 539.5956 539.5956 539.5956 539.6640 539.6640 539.6640 539.7172
   540.4741 540.4741 540.4741 540.8592 540.8592 540.8889 540.8889 540.8889
   541.0032 541.5085 541.5085 541.5085 541.7420 541.7420 541.7420 541.9919
   541.9919 541.9948 541.9948 541.9948 542.5784 563.5142 563.5142 563.5142
   567.1253 567.1253 568.1764 568.1764 568.1764 568.1873 568.1873 568.1873
   568.2777 568.2777 568.2777 568.4098 568.4098 568.4098 569.1346 569.1346
   569.2499 569.2499 569.2499 569.4126 569.6683 573.0470 573.0470 573.0470
   574.5596 574.5596 577.8577 582.9426 582.9426 582.9426 584.4447 584.4447
   584.4447 584.5533 588.0558 588.8992 588.8992 588.8992 589.1686 589.1686
   589.1686 589.2472 589.2472 589.2472 589.2938 589.2938 589.3069 589.3069
   589.3069 589.4836 589.4836 592.9853 592.9853 592.9853 593.0879 593.0879
   593.0879 593.1722 593.1722 593.1722 593.2215 593.2215 593.2215 594.1958
   594.1958 594.3352 594.3352 594.3352 594.3743 594.3743 594.3743 594.3977
   594.3977 594.4130 594.4130 594.4130 594.5535 594.5535 594.5535 594.5805
   594.5805 594.5805 595.7633 595.7633 595.7633 595.8633 595.9700 595.9700
   595.9700 595.9718 595.9718 595.9718 595.9941 596.0056 596.3094 596.3094
   596.3094 596.3425 596.3425 596.5252 596.5252 596.5252 596.5756 596.5756
   596.5756 596.7544 596.7544 596.7544 596.8438 596.8438 598.2944 598.3637
   598.3637 598.3637 598.3988 598.3988 598.9410 601.2805 601.2805 601.3713
   601.3713 601.3713 601.5645 601.5645 601.5645 601.5693 601.5693 601.5693
   601.6614 601.7150 601.7150 601.7150 601.8119 601.8119 601.8278 601.8278
   601.8278 601.9861 601.9861 601.9861 602.0818 620.3473 620.3473 620.3473
   621.2834 621.3384 621.3384 621.3384 622.6487 629.9372 629.9372 629.9645
   629.9645 629.9645 629.9762 629.9762 629.9762 629.9801 629.9801 629.9801
   630.0294 630.0294 630.0766 630.0766 630.0766 637.5356 637.5356 637.5356
   639.3653 639.3653 642.1290 642.7854 642.7854 642.7854 642.9456 642.9456
   642.9456 642.9566 642.9566 642.9566 643.0246 643.0246 643.0246 647.5839
   647.5839 647.6445 647.6445 647.6445 647.6505 651.8428 651.8542 651.8542
   651.8542 651.8897 651.8897 654.1798 654.1798 654.1798 654.2035 654.2035
   654.2035 654.2054 654.2054 654.2054 654.2606 654.2606 654.2606 655.3357
   655.3357 655.3613 655.3613 655.3613 655.4410 681.3712 681.3712 681.3712
   683.9257 683.9257 683.9257 684.1020 684.6584 684.6584 684.7292 684.7565
   684.7565 684.7565 684.8313 684.8313 684.8313 684.9255 684.9255 684.9255
   684.9317 684.9317 684.9317 685.0106 685.0106 693.3086 693.3086 693.3086
   697.1555 697.1555 697.1555 698.4250 698.6337 699.2704 699.2704 699.2968
   699.2968 699.2968 700.9810 700.9810 700.9810 701.8425 701.8425 701.8425
   702.6159 703.8902 703.8902 703.8902 704.8842 704.8842 705.5068 705.5068
   705.5068 705.7114 705.7114 705.7114 705.8136 705.8136 705.8302 705.8302
   705.8302 706.1526 706.1526 706.1526 706.5633 707.1715 707.1715 707.1715
   707.3552 707.3552 707.4854 707.4854 707.4854 707.5291 707.6225 707.6225
   707.6225 707.7756 707.7756 707.7756 707.8513 707.8513 708.2046 708.2046
   708.2046 708.6751 709.7445 709.7445 709.7445 709.7720 709.7720 709.7720
   709.7898 709.7898 709.8677 709.8677 709.8973 709.8973 709.8973 709.9343
   709.9343 709.9343 710.8006 711.2618 711.2618 711.2673 711.2673 711.2673
   711.2681 711.2681 711.2681 711.3006 711.3006 711.3006 711.3392 715.5547
   715.5565 715.5565 715.5565 715.5596 715.5596 715.5596 715.5896 715.5896
   715.5896 715.6099 715.6099 734.8805 734.8805 734.8805 735.9387 735.9387
   736.7888 739.1708 739.1708 739.1708 739.5262 739.5262 739.5262 740.0287
   740.0287 740.0287 740.1747 740.5015 740.5015 740.6244 740.6244 740.6244
   740.7692 740.7692 740.7692 740.8301 740.8705 740.8705 740.8705 740.9645
   740.9645 741.4656 741.4656 741.4656 741.7678 741.7678 741.7678 741.8042
   741.8042 741.8042 742.0880 742.0880 742.0880 745.1561 745.1561 745.2417
   745.2930 745.2930 745.2930 745.3192 745.3192 745.3192 745.4339 745.4339
   745.4339 745.4365 745.4365 745.4365 745.4492 745.4492 745.5767 745.5767
   745.5767 745.7041 745.7041 745.7041 745.8121 746.6824 746.6824 746.7352
   746.7352 746.7352 746.8600 755.3311 755.3311 755.3311 756.9140 756.9140
   756.9140 757.1083 757.1083 757.1154 757.1154 757.1154 758.6025 758.7525
   758.7525 758.7525 758.8863 758.8863 758.9382 758.9382 758.9382 759.2040
   759.2040 759.2040 759.4073 762.7547 763.0951 763.0951 763.0951 763.3903
   763.3903 763.3903 763.8057 763.8057 763.8295 763.8295 763.8295 764.9940
   765.1732 765.1732 765.1732 765.3612 765.3612 765.3612 765.5321 765.5321
   765.5321 765.5429 765.5429 768.6968 768.6968 768.6968 768.6970 768.6970
   768.8382 768.8382 768.8382 768.9643 768.9643 768.9643 769.1027 769.1116

          k =-0.1250 0.1250-0.1250 (  2400 PWs)   bands (ev):

   -45.3619 -17.7429 -17.2667 -17.2667 -17.0281   1.3122   1.5782   1.5782
     8.7525  19.2563  21.3029  21.3029  25.7197  25.7197  25.8774  29.3408
    29.9905  29.9905  35.1178  36.7538  36.7538  43.1280  48.2720  48.2720
    51.5423  53.2427  53.9015  53.9015  56.2558  61.2576  61.2576  63.7060
    63.7060  66.6439  67.9781  68.6273  68.6273  68.7793  68.7793  71.7405
    71.7405  72.3874  75.7988  76.0660  76.0660  76.2585  77.8646  79.7997
    79.7997  80.9802  81.3131  81.3131  82.6265  82.6265  83.2444  85.2824
    86.6600  88.0383  88.0383  90.8959  90.8959  93.7189  97.6199  98.1105
    98.1105 105.0219 105.0219 106.3907 117.1496 118.5516 118.5516 118.9547
   118.9547 121.5772 123.3062 124.6285 124.6285 127.3722 127.3722 127.4408
   127.8566 127.8566 129.1400 129.1400 129.2372 131.1869 131.4120 133.9203
   133.9203 134.6562 134.6562 134.8305 135.0851 136.7194 137.5857 137.5857
   137.9519 138.7469 138.7469 139.1870 139.1870 141.7119 142.6991 142.6991
   144.2808 145.0639 147.0162 147.0162 148.4753 148.4753 148.5120 151.4873
   151.4873 151.9181 151.9181 152.8503 153.6162 154.0894 154.0894 156.2638
   156.2638 157.9315 162.3865 162.3865 163.1709 164.1691 164.1691 166.8652
   168.7536 168.7536 169.0187 171.8823 172.0405 172.0405 172.7180 173.9579
   173.9579 175.8346 177.2178 177.2178 177.4794 180.4367 180.4367 180.5080
   181.3210 181.3210 181.3983 181.8552 184.0453 184.3919 184.3919 184.9333
   184.9333 187.5787 187.5787 187.7779 192.3021 192.3021 194.4724 196.2676
   197.9265 199.0502 199.0502 199.0968 199.0968 199.7854 200.1038 200.1038
   203.1318 205.8479 205.8479 207.0105 211.5228 211.5228 212.1064 213.3255
   213.3255 220.2697 222.5957 222.5957 223.5076 223.9500 226.4174 226.4174
   229.6646 229.6646 231.6515 231.6515 232.0630 232.2868 233.5529 234.7534
   234.7534 236.3603 236.3885 236.3885 236.9010 236.9010 237.1987 238.6251
   238.6251 238.8283 238.8283 239.4030 239.4132 240.3585 240.3585 241.7985
   243.7350 243.7350 245.0884 245.3120 245.7582 245.7582 246.7122 247.1309
   247.1309 247.4822 247.4822 247.5008 249.1101 249.1101 249.6454 250.0417
   250.4701 250.4701 251.0728 251.0728 252.7350 252.9869 252.9869 254.1278
   254.6492 254.6492 254.8833 255.3243 255.7033 256.0526 256.0526 256.9472
   256.9472 259.6710 259.6710 259.8601 260.4971 260.4971 260.9058 262.8630
   263.1024 263.1024 264.4335 264.8825 264.8825 265.7826 265.7826 266.1653
   267.2538 267.2538 267.8097 268.2142 268.7882 268.7882 269.2208 271.9112
   271.9112 273.3130 274.2301 274.2301 276.6265 277.4454 277.4454 277.5416
   282.6272 282.6272 284.7872 284.7872 285.4452 287.2042 287.2042 290.2598
   290.2598 290.5414 290.5683 291.2584 293.7708 293.7708 294.1524 294.1524
   294.7850 296.9340 296.9340 297.5112 298.5120 298.5120 299.2664 299.3025
   299.3025 299.8756 299.8756 301.2167 301.2167 301.3043 301.3426 303.2823
   303.2979 303.2979 304.5092 307.1144 307.1144 308.5735 309.0475 311.8018
   311.8018 314.0768 314.0768 314.2450 315.3477 315.3477 315.4643 315.5752
   316.8464 320.5286 320.5286 322.0131 322.6737 322.6737 322.8105 323.9800
   323.9800 326.3452 326.3452 326.8944 329.0348 329.7214 329.7214 330.7076
   330.7076 333.0876 337.3735 337.3735 337.8306 340.9451 341.9580 341.9580
   344.9083 344.9083 346.0603 346.0603 347.8713 348.1625 348.5548 348.5548
   349.8745 350.0109 350.0109 350.2461 351.0179 351.0179 352.3290 352.3290
   352.8980 355.0084 355.0084 355.3671 355.6098 356.5993 356.5993 356.9284
   356.9539 356.9539 358.3742 358.3742 359.0493 360.0067 361.4459 361.4459
   361.7005 364.5041 366.0239 366.0339 366.0339 366.4555 366.4555 366.5520
   368.0609 370.5941 370.7419 370.7419 371.6087 371.6087 372.2685 372.2685
   372.2862 372.6740 374.4622 374.4622 375.1897 375.1897 375.8118 376.0504
   376.4582 376.4582 377.3143 378.5554 378.5554 379.0944 379.0944 380.3629
   380.3629 380.6153 381.8646 382.0462 382.0462 383.2336 384.0020 384.5085
   384.5085 384.9363 384.9363 385.0707 386.6057 388.1868 388.1868 388.5703
   388.5703 388.8132 390.4513 390.4513 391.0289 391.4171 391.4171 391.4804
   393.2586 393.2586 394.8222 395.6513 395.6671 395.6671 396.5612 396.5612
   397.4346 397.7057 398.1049 398.1049 399.6001 399.6001 399.6744 400.4500
   400.4500 400.9199 400.9199 400.9370 402.2639 403.6286 403.6286 404.0409
   404.0409 404.8248 405.3256 405.4496 405.4496 405.6039 405.6408 406.4037
   406.4037 406.8765 406.8765 407.4588 408.8218 408.8218 408.9842 411.1376
   411.1855 411.1855 411.9149 411.9149 412.1442 412.7371 414.4353 414.4353
   415.1172 415.1172 415.1674 415.8287 416.0769 416.0769 416.4378 417.0761
   417.0761 417.6123 417.6123 418.3118 418.3118 418.3583 419.5012 419.5012
   420.2803 421.3167 422.1596 422.1596 422.1625 423.6117 423.6117 423.7312
   426.2125 426.8208 426.8208 427.4223 428.3936 428.3936 430.3711 430.3711
   431.0399 431.1964 432.0324 432.0324 432.3413 432.3413 432.8879 432.8879
   432.9816 434.5588 435.0227 435.0227 435.4056 436.9830 440.8479 440.8479
   441.9857 443.2778 443.2778 443.6211 445.6735 445.6735 449.1004 453.1507
   453.2015 453.2015 456.3068 456.3068 459.1659 460.7528 460.7528 462.3239
   462.3239 463.0777 463.0777 464.1926 464.1926 464.2254 464.3108 465.0581
   465.5228 465.5228 466.5273 467.7790 467.7790 469.1215 469.6108 469.6108
   470.6756 474.1372 474.1372 474.7755 475.1007 475.1007 475.1087 475.7350
   475.7350 476.0510 477.8045 477.8045 478.7417 480.5571 480.5571 481.1259
   482.2549 482.2549 483.4474 486.3328 487.7057 487.7057 488.4507 488.4507
   489.1041 489.1041 489.3039 489.3498 489.9036 489.9036 491.8198 491.9615
   491.9615 492.3774 493.1716 493.1716 493.7769 494.7320 495.5038 495.5545
   495.5545 497.0806 497.0806 497.4958 498.1395 498.1395 498.6795 498.6795
   498.8430 498.8430 498.8595 499.1388 499.8144 500.1724 500.1724 500.9988
   500.9988 501.4396 502.7962 504.0362 504.0362 504.1306 505.2515 505.2515
   506.2720 507.0884 509.1574 509.1574 510.1632 510.2563 510.2563 511.0365
   511.0365 511.4406 511.4406 511.4630 511.4881 515.4568 515.4568 515.6062
   516.2797 516.8252 516.8252 517.5139 517.5139 518.8000 518.8000 518.8111
   520.7352 520.7978 520.7978 521.4467 521.4467 521.7678 522.6653 523.3957
   523.3957 524.0795 525.2305 525.2486 525.2486 527.1006 527.1006 527.4966
   527.6411 527.6411 527.6941 530.9286 531.6137 531.6137 533.2852 533.2852
   533.8295 533.8782 533.8782 533.9851 534.8815 534.8815 535.0411 535.0842
   535.0842 535.2059 535.5712 535.5712 535.6493 537.2332 537.2332 538.1576
   538.1576 538.2115 538.3499 540.7726 540.7726 540.9432 542.8658 542.8658
   542.9303 542.9626 543.1626 543.1626 543.7731 544.3778 544.3778 544.9871
   544.9871 545.2292 545.2464 545.2464 545.2934 546.2490 546.2490 546.9741
   547.4858 547.4858 547.7123 554.1798 554.1798 554.4888 556.1568 556.1568
   556.7053 558.3165 559.1095 559.1578 559.1578 559.7363 559.7363 559.7445
   561.2883 561.2883 561.5756 561.8607 561.8607 561.9170 561.9170 561.9319
   562.1054 562.3877 562.9175 562.9175 565.8545 566.7956 566.7956 567.6886
   567.6886 569.3520 570.5095 570.5095 570.5773 571.8605 571.8605 572.2988
   574.3537 574.3537 575.7113 576.1187 576.1414 576.1414 576.3383 576.4423
   576.4423 576.5188 576.7369 576.7369 576.8717 576.8717 577.0483 577.7008
   577.7008 578.1260 579.6497 579.6497 580.3449 580.7033 580.7033 580.7458
   581.7779 581.7779 582.4755 583.4452 583.4452 583.5030 583.5030 583.5030
   583.5123 586.7466 586.7466 587.8751 588.6576 588.8292 588.8292 589.2938
   589.2938 589.4811 589.4825 589.4825 589.6342 589.7143 589.7143 590.2993
   590.5360 590.5360 590.7261 591.3738 591.3738 592.5470 592.8195 592.8195
   592.9281 593.1247 593.1247 593.1525 593.7698 595.3017 595.3017 595.3064
   598.3171 598.3171 598.3596 599.4960 599.4960 600.0087 600.0229 600.0229
   600.7760 601.2368 601.3738 601.3738 601.5805 601.5805 605.5866 605.5866
   605.6404 606.6311 606.7167 606.7167 608.5039 608.7107 608.7107 608.8172
   608.8172 609.0943 609.2212 609.2212 609.3053 609.6663 609.7281 609.7281
   610.3810 610.3810 611.0603 611.1242 611.1242 611.2403 611.4867 615.6577
   615.6577 615.9873 616.8600 616.8600 617.8975 617.8975 618.0350 618.4474
   618.4474 618.4833 618.8019 618.8019 619.5019 619.8615 619.8615 620.0092
   621.2280 621.5362 621.5362 622.0395 622.0395 623.1283 623.1283 623.1457
   623.3024 623.8416 623.8416 623.9805 627.0419 627.0419 627.3317 628.9234
   628.9234 629.9850 630.3514 630.3514 630.7939 632.1048 632.1048 632.1440
   633.6177 633.6177 633.7458 635.6915 635.6915 635.7266 637.5306 637.5306
   637.5755 642.4200 642.4227 642.4227 643.2567 643.2856 643.2856 645.0298
   645.0298 645.0751 649.8203 650.7102 650.7102 652.1000 655.0515 656.1717
   656.1717 656.2573 656.4134 656.4134 659.0855 659.0855 661.7069 661.9938
   661.9938 664.4558 664.4558 664.5239 665.7444 665.9938 665.9938 667.4186
   668.0497 668.0497 668.1188 669.2834 669.2834 670.3938 670.7706 670.7706
   670.8549 673.8367 673.8367 674.7466 674.8082 674.8082 675.2808 677.4127
   677.4127 677.4499 677.9022 677.9022 680.2595 680.9075 680.9075 681.8417
   681.8417 682.2469 683.6448 683.6448 684.7976 684.8086 684.8086 684.9208
   685.7564 685.7564 686.1830 687.6713 687.6713 688.3198 688.6359 688.6359
   689.9383 690.1580 690.4249 690.4249 690.7809 691.0424 691.0424 692.1556
   692.1556 692.2592 696.6343 696.6343 697.0508 697.2334 697.2334 698.2796
   699.0901 699.0901 699.3211 699.3737 699.3737 699.9239 699.9239 700.1801
   700.1885 701.3301 701.6221 701.6221 702.6827 702.6827 702.7881 705.6223
   705.6223 706.2449 706.2796 706.2796 706.9265 708.8340 708.8340 709.1746
   710.8986 711.6177 711.6177 711.6450 712.1528 712.1917 712.1917 712.3277
   712.3277 712.5372 712.5372 712.5664 712.8882 713.8739 713.8739 716.0082
   716.0082 716.3887 716.8432 716.8432 717.1208 717.1208 717.1328 717.1703
   717.3638 717.4376 717.4376 717.8161 717.8161 717.9722 719.0061 719.0061
   719.2724 720.7481 720.7481 720.8336 721.9052 722.1857 722.1857 722.4495
   723.1946 723.1946 724.0490 724.0490 724.1842 724.1842 724.2136 724.3313
   724.4401 725.2213 725.2213 725.4689 725.4707 725.4707 725.6385 725.6385
   726.4332 729.3701 730.5857 730.6259 730.6259 730.7277 731.0183 731.0183
   732.4262 732.4262 733.3415 733.5245 733.5245 733.7136 733.7136 734.1001
   735.1808 735.1808 735.2052 735.3200 735.6055 735.6055 735.6485 735.8554
   735.8701 735.8701 736.9248 736.9248 737.2683 738.5037 740.4338 740.4338
   741.0412 741.0451 741.0451 741.8527 741.8527 742.2807 742.7136 742.7136
   742.7477 742.8874 742.9327 742.9327 743.6565 743.6565 743.7869 744.2517
   744.2517 744.3061 744.3061 744.3062 744.3990 746.1870 746.2036 746.2036
   747.2855 747.2920 747.2920 750.1292 750.1292 750.7623 750.8186 750.8186
   750.8748 751.1198 751.1198 751.3009 751.3009 751.3482 751.5298 752.9780
   752.9780 753.0737 754.3582 754.3582 754.4006 754.4006 754.4098 754.5799
   758.0781 758.0781 758.1262 758.3030 758.3030 758.4604 759.1050 759.1050
   759.1769 760.0853 760.0853 760.2378 761.0781 761.2392 761.2392 761.4231
   761.4231 761.5012 761.8801 761.8801 762.0035 762.2557 762.2557 762.2977
   762.5383 762.5383 762.7572 765.5639 765.5639 765.9192 765.9546 765.9546
   766.0719 766.5829 766.7293 766.7293 767.4691 767.4691 767.6773 768.9520
   769.7107 769.7107 770.0477 770.0477 770.0480 770.4500 770.4500 770.5197

          k =-0.2500 0.2500-0.2500 (  2418 PWs)   bands (ev):

   -45.3563 -17.9902 -17.2714 -17.2714 -16.7297   0.6864   1.4822   1.4822
    10.0947  17.1276  21.8515  21.8515  25.0299  25.0299  26.6772  30.9860
    31.3039  31.3039  34.0954  37.7950  37.7950  44.4445  44.4445  45.6328
    51.9127  54.1791  54.6650  54.6650  57.2635  59.2872  59.2872  61.8996
    63.4143  64.8761  64.8761  65.8168  65.8168  68.0374  69.3038  69.3038
    70.8274  70.8274  73.7346  74.5289  74.8031  74.8031  79.8781  80.7549
    80.7549  81.3136  84.3868  84.3868  88.5145  88.5145  89.0851  89.6088
    92.0038  92.0038  92.1451  94.5889  96.3955  96.3955  97.2124  97.2124
    99.8751 104.0364 104.0364 106.5637 110.5044 110.5044 114.5379 116.5352
   116.5352 118.2092 118.2252 118.2252 119.7923 119.7923 121.7042 124.5311
   125.8047 125.8047 126.1377 126.6324 126.6324 129.1487 129.3106 132.5614
   132.5614 133.6797 134.0221 134.9557 134.9557 137.2845 139.7222 139.7222
   139.9821 140.3344 140.3344 142.7592 142.7592 142.8483 145.7784 145.7784
   146.1984 147.2816 147.2816 148.7096 149.8184 149.8184 151.0171 151.0171
   151.6214 155.0158 156.2513 156.2513 156.6626 156.9862 156.9862 157.0903
   159.7363 161.3489 161.3489 163.2413 163.2413 165.2189 165.6755 165.6755
   167.6210 167.6210 168.3988 169.4599 169.4599 169.9262 171.7942 172.2123
   172.2123 173.8923 176.7334 176.7334 177.9409 178.5619 180.2522 180.2522
   181.4410 181.4410 181.9745 182.6906 184.9310 184.9310 185.3574 185.3574
   185.6808 185.9205 192.0766 192.0766 194.2847 198.4225 198.4225 199.6292
   199.6292 200.0449 203.0115 205.0829 205.0829 205.8631 205.8631 207.7855
   207.7855 207.9477 209.7376 209.7621 209.7621 210.4253 215.8117 215.8117
   216.1880 218.1769 218.2191 218.2191 219.2609 219.2609 221.5609 221.5609
   221.9655 222.4910 223.1799 223.1799 223.5310 224.4555 224.7192 224.7192
   225.4697 225.6182 226.8941 226.8941 227.6768 227.6768 231.7507 231.7507
   232.6035 233.5378 233.5378 234.3677 234.4518 242.4817 242.4817 242.7698
   243.2466 243.2466 244.0109 245.3602 245.3602 246.2087 246.8517 247.3286
   247.7635 247.7635 248.3704 248.3704 250.1654 250.3273 250.3273 250.7979
   251.3384 251.3384 251.6943 251.6943 251.7842 254.3576 255.8476 255.8476
   256.3099 256.5032 256.5032 258.2741 258.2741 259.1430 260.3479 260.3479
   260.6307 261.1380 263.5608 263.5608 263.8425 264.3693 265.4102 265.6177
   265.6177 265.9072 265.9072 267.8610 267.8610 268.5371 268.5371 269.8935
   270.9393 270.9393 271.0116 273.6323 273.6323 274.6216 276.4950 276.9815
   276.9815 277.3344 277.3344 277.5503 278.2289 279.1866 279.1866 280.8466
   280.8466 282.8891 283.8464 283.8464 284.9427 285.0083 288.5269 288.5269
   289.2691 289.2691 289.5326 291.1170 291.4617 291.4617 291.6322 292.7351
   292.7351 293.5045 293.5045 294.7733 297.6793 298.7576 298.7576 299.0997
   299.7494 299.7494 301.9464 303.4538 303.4538 304.7334 304.7334 304.9263
   305.7488 307.4329 308.4662 308.4662 311.7136 313.2591 313.2591 313.8039
   313.8039 314.2099 318.0443 318.0443 320.2977 320.3793 320.3793 320.8949
   320.8949 321.6151 323.7688 323.9056 323.9056 324.4775 325.3108 325.3108
   325.4399 327.1364 328.6996 328.6996 331.8789 331.8789 332.1002 332.5351
   332.5351 334.5210 334.5210 334.6292 335.3421 335.3779 335.3779 335.9449
   336.2929 336.2929 336.4565 338.4564 338.8673 338.8673 338.8830 345.4360
   345.4360 346.0547 347.0119 347.0119 347.5939 348.0022 348.0022 349.1294
   349.1294 349.7765 351.4501 351.4501 354.2631 354.2631 355.1470 355.1470
   355.3022 355.3378 356.9975 357.2353 357.2353 358.5939 358.5939 359.4492
   359.4794 359.4794 359.6447 360.0886 362.0504 366.0472 366.0472 366.7957
   366.7957 367.0747 368.1070 368.1070 368.1764 368.3809 368.9497 368.9497
   371.5131 372.0809 372.0809 372.1752 373.0478 373.0478 374.0377 374.0377
   376.0100 376.0100 376.1060 376.3977 376.9159 376.9159 377.8382 379.7357
   379.7357 380.5776 381.8517 384.1909 384.1909 385.0391 385.1768 385.1768
   385.2708 385.6663 386.1718 386.1718 387.3751 387.3751 388.5628 388.5628
   389.2441 389.3495 389.3899 389.3899 389.7658 391.6504 391.6504 391.8492
   393.1699 393.1699 394.1461 394.1461 394.8825 396.0214 396.6185 396.8971
   396.8971 397.4829 397.4829 397.9682 397.9682 398.0807 398.3497 398.9925
   398.9925 400.5687 400.5687 400.5729 400.8427 401.0121 401.0121 401.0618
   401.8400 401.8400 401.9044 403.7249 404.3363 404.3363 406.8130 406.8130
   407.2501 407.2501 407.5756 407.6896 409.3042 409.3042 410.3070 411.9246
   411.9246 412.0852 412.4624 412.5166 412.5166 413.2524 413.2524 413.3009
   413.5259 413.5259 413.5997 418.5789 418.5789 420.2357 422.5447 422.5447
   424.9521 425.9812 425.9812 426.5704 426.5993 426.5993 427.5204 428.0622
   429.9593 430.3957 430.3957 430.4843 430.7843 430.9764 430.9764 431.0940
   431.0940 433.4634 433.4634 433.8214 434.7787 436.7093 436.7093 439.1656
   439.1656 439.5633 439.9711 439.9711 440.1669 440.1669 440.3061 443.8790
   443.9987 443.9987 444.6866 444.6866 445.0947 445.0947 445.9785 446.3057
   448.1639 448.7021 448.7021 449.3543 449.3543 450.0339 451.2300 451.2300
   451.4482 451.6147 451.6147 452.6229 452.6229 452.6997 453.5500 456.0464
   456.0464 457.3898 459.4106 459.4106 459.4216 460.1202 460.1570 460.1570
   463.4621 463.5806 463.5806 463.8360 464.4753 464.9110 464.9110 465.8985
   465.8985 466.2244 466.3503 467.8178 467.8178 469.7640 469.7640 471.5354
   471.5354 471.8133 472.7790 472.7790 474.1154 475.1612 475.1612 476.8144
   478.2854 478.5895 478.5895 479.6085 479.6085 479.6115 481.0298 481.0298
   481.6631 482.7840 485.1820 485.1820 485.5963 485.6065 485.6065 485.9645
   488.1541 488.1541 489.3667 489.3667 489.7975 490.3413 492.0968 492.6153
   492.6153 496.1225 496.1225 496.2209 498.9288 498.9288 499.3690 499.3781
   499.3781 499.7246 500.2766 500.2766 502.0968 502.3187 502.3187 502.8817
   502.9876 502.9876 503.6985 503.8876 503.8876 504.5556 506.1114 506.1114
   506.5151 506.7388 507.3878 507.3878 508.7353 508.7353 509.2786 510.4685
   510.4685 511.4491 511.4491 511.5008 511.9241 514.2261 514.2261 515.6146
   516.6890 516.8144 516.8144 518.3107 518.3107 519.3745 519.8709 519.8709
   521.1038 522.5136 522.5136 522.6120 522.8240 524.4770 524.4770 525.3594
   525.5905 525.5905 526.9466 526.9466 527.1668 528.5372 528.7621 528.7621
   529.4665 531.7641 532.3606 532.3606 533.3491 533.3491 533.4227 533.4232
   534.8844 534.8844 535.7236 535.7236 535.7853 535.8423 536.3372 536.3372
   536.6036 536.6036 536.7998 537.1581 537.1581 537.2453 537.5416 537.5416
   540.7278 540.7278 541.7007 541.8998 541.8998 542.8097 542.8097 543.0478
   543.0478 543.0788 543.3957 543.5104 546.9081 547.6478 547.6478 547.9254
   547.9254 548.2367 548.2775 548.2775 548.3364 548.4669 548.4669 549.5599
   549.5599 549.6101 549.6238 552.2430 552.2430 552.3745 552.6722 552.6722
   552.9546 553.5954 554.0182 554.0182 554.9599 554.9599 555.6730 555.6730
   555.8674 556.0856 556.7535 556.7535 557.3224 557.3718 557.3718 557.8258
   560.0323 560.0323 560.1809 561.3681 561.8583 561.8583 562.7517 562.7517
   563.0963 563.3900 563.3900 563.9187 564.2476 564.2476 564.3004 565.1856
   566.0094 566.0094 566.5471 570.6481 570.6481 570.6751 573.7736 573.7736
   573.9186 573.9186 574.8590 575.1192 575.1192 575.1692 575.6776 575.6776
   575.8922 578.3794 578.3794 578.5129 579.1114 579.1114 579.4305 579.4305
   579.4511 579.6697 581.6281 582.4748 582.4748 582.7422 582.7422 583.7507
   584.4240 584.4240 584.4714 585.6084 585.6084 585.8667 586.9468 586.9468
   587.3986 588.6345 589.7729 589.7729 590.5245 591.7969 592.1330 592.1330
   592.1969 592.4179 592.4179 592.8738 592.8738 593.4409 595.6928 595.6928
   595.7342 596.9461 597.0543 597.0543 598.0784 598.0784 598.6126 598.6126
   598.6620 598.8828 603.1097 603.1097 603.2154 603.8359 603.8359 604.7134
   606.0364 606.0364 606.7027 609.8884 609.8884 610.2186 610.2921 610.2921
   610.4560 610.9412 611.1522 611.1522 611.9706 611.9706 612.3604 612.4114
   612.4114 612.6777 612.6777 612.6849 612.7862 612.9148 612.9148 613.0437
   613.0437 613.1083 613.4716 617.0075 617.0075 617.0529 620.5066 620.5066
   621.2626 621.3579 621.3579 621.4347 621.4815 621.4815 621.7221 623.2046
   623.2046 623.5969 623.7192 623.7192 623.7509 624.8197 624.8197 624.8991
   626.5812 626.8083 626.8083 627.3310 628.1579 628.1579 628.3109 628.6731
   628.6731 632.9054 632.9054 632.9687 635.0321 635.3738 635.3738 635.9643
   635.9643 636.3251 636.4336 636.4336 636.4770 637.2031 637.2031 637.2179
   637.9208 639.2223 639.2223 639.5510 640.2139 644.5841 644.5841 645.7529
   645.7529 645.8016 647.0901 647.5665 647.5665 647.9647 647.9647 649.5564
   649.6576 649.6576 650.1743 650.1743 651.2603 653.1937 653.1937 653.5105
   654.3439 654.3439 654.4450 655.1743 655.1743 656.3669 657.3519 657.3519
   657.4662 658.1844 658.1844 658.2252 659.1273 659.1368 659.1368 661.7544
   661.7544 662.6833 662.9481 662.9481 663.2807 666.3350 666.3350 666.5469
   667.8098 667.8098 667.8772 671.1899 671.1899 671.7934 673.8820 673.8820
   675.0465 675.0525 675.2151 675.2151 676.8092 676.8092 676.9640 677.4708
   677.4708 677.5233 679.1306 679.1306 679.3874 679.8120 683.9242 684.8438
   684.8438 685.2481 685.2481 685.4571 685.4909 685.4909 685.9688 685.9808
   685.9808 685.9994 686.0917 686.0917 686.4151 688.3829 688.3829 688.4882
   688.9295 688.9295 689.0996 689.0996 689.4515 695.0540 695.0540 696.2578
   696.8115 696.8450 696.8450 696.9587 696.9587 697.1122 697.6591 697.7080
   697.7080 698.3694 698.3694 698.6985 699.9658 700.1194 700.1194 700.3448
   700.3448 700.9396 701.1954 701.1954 701.2319 701.6277 701.8959 701.8959
   702.3899 703.2278 703.2278 703.5093 703.5093 703.6942 703.6942 703.7631
   704.2634 704.2768 704.2768 705.1314 707.1806 708.6068 708.6068 709.0936
   709.2476 709.3838 709.3838 711.5748 711.5748 711.6453 712.6384 712.6384
   712.8378 713.4036 713.4036 713.4254 714.2527 714.2527 714.6481 714.8849
   714.8849 714.9440 716.9110 716.9110 716.9555 717.2712 717.2712 717.5369
   718.6280 718.6280 718.7894 720.1573 720.1735 720.1735 720.7782 720.7782
   720.9266 720.9268 720.9268 721.0054 721.0054 721.0825 721.2718 723.3603
   723.3665 723.3665 726.5658 726.5658 726.5698 729.7197 729.7197 729.9501
   729.9805 729.9805 730.0011 730.2625 730.2625 730.3966 734.9795 734.9795
   735.0460 737.3574 737.3574 737.4019 737.4583 737.4583 737.4731 739.9300
   740.1586 740.1586 740.6018 740.6018 740.6943 742.2046 742.4376 742.4376
   743.1941 743.1941 743.2141 743.7651 743.7651 743.8713 743.9038 744.0054
   744.0054 744.2191 744.2191 744.3462 744.4045 744.4045 744.8086 745.0305
   745.0305 745.1792 745.1792 745.1910 745.2103 750.1271 750.2078 750.2078
   750.3768 750.4901 750.4901 751.6217 751.6217 751.6784 754.3353 754.3353
   754.5034 754.8974 754.8974 754.9555 756.4949 756.5722 756.5722 756.6660
   757.0276 757.0276 757.0647 758.0124 758.4963 758.4963 758.9601 758.9601
   758.9775 759.0064 759.0064 759.0143 759.2402 759.2402 759.4774 760.6734
   761.3418 761.3418 763.0687 763.0687 763.9750 763.9750 763.9890 764.5834
   764.5834 764.8480 765.1891 767.1437 767.1437 767.1757 768.3071 768.3071
   768.8387 768.8387 769.0005 770.0430 771.8654 771.8654 772.5570 772.5570
   773.0473 773.0473 773.1004 773.1937 773.9820 773.9820 774.0194 776.2748
   776.3023 776.3023 776.7468 776.7468 776.8292 777.4212 777.5083 777.5083

          k =-0.3750 0.3750-0.3750 (  2421 PWs)   bands (ev):

   -45.3507 -18.1527 -17.2761 -17.2761 -16.5150   0.1602   1.3880   1.3880
    11.6773  15.4485  22.1969  22.1969  25.0027  25.0027  26.2801  30.1047
    32.6138  32.6138  36.9472  36.9472  38.1144  44.5902  44.5902  47.8938
    50.3228  53.7468  53.7468  54.6018  56.2534  56.2534  57.3278  58.9392
    60.8285  61.4485  61.4485  64.3490  66.0740  66.0740  68.5538  68.5538
    73.6262  74.0702  75.2268  75.2268  76.4258  76.4258  79.1673  80.6231
    80.6231  83.5804  88.9377  88.9377  89.4174  92.9410  93.4849  93.4849
    94.2110  94.2110  95.3108  95.3108  96.6558  98.7238 100.9981 100.9981
   101.9102 103.6059 103.6059 107.3753 107.3753 107.5621 110.9889 110.9889
   111.6308 111.6308 112.5176 112.7332 114.3832 114.3832 120.7696 123.4038
   124.7569 127.0201 127.0201 127.3852 127.8106 127.8106 129.1265 129.5371
   130.1531 130.1531 132.0863 132.1280 132.1280 135.8337 135.8337 139.6967
   141.8712 141.8712 142.5732 142.5732 143.0326 143.4360 143.4360 144.2654
   145.4745 148.4430 149.6903 149.6903 151.0952 151.0952 151.4508 153.0687
   153.0687 154.1938 154.9223 156.9048 157.0405 157.0405 161.4608 161.4608
   163.7655 163.7655 163.9570 165.0425 165.0425 166.6051 168.4595 170.3062
   170.7764 170.7764 171.2051 171.2051 171.5915 172.4175 172.4175 175.1655
   175.2835 175.2835 175.6561 175.6561 177.2348 177.2348 177.3303 177.5566
   178.5362 180.4568 180.6133 180.6133 187.0570 187.0570 188.5919 188.5919
   190.3969 194.1839 194.1839 194.5782 195.8402 195.8402 196.0746 201.3381
   201.3381 201.8405 201.9504 201.9504 204.1366 204.7959 205.6117 205.6117
   206.0308 206.0308 207.9003 210.2319 210.2319 210.9602 214.1892 214.1892
   214.5151 215.5217 215.8592 215.8592 217.0490 217.0490 217.5806 219.8403
   219.8403 220.3272 220.4486 220.4486 223.4271 223.4271 223.8691 224.9943
   224.9943 225.9993 226.2415 226.2415 226.4373 228.4878 230.3735 230.3735
   231.1445 231.7367 231.7367 232.3118 235.9131 237.6884 238.0466 238.0466
   240.9999 241.7180 241.7180 241.9808 241.9808 243.5634 243.8285 244.0363
   244.0363 244.6511 246.3721 246.3721 246.9911 248.3386 248.3386 248.5776
   248.5776 248.6056 249.9468 249.9468 251.6168 253.1326 253.1326 254.5283
   255.4526 255.4526 255.5791 259.4821 261.3277 261.3277 262.6223 263.0385
   263.0385 264.6318 264.7340 264.7340 264.8359 264.8359 264.9540 266.8865
   266.8865 267.0436 267.1671 268.8066 268.8066 269.7139 269.7139 269.9349
   270.9708 272.3229 272.3229 276.1737 277.7734 277.7734 279.6804 279.7874
   279.7874 280.1622 281.8745 281.8745 282.1088 282.1088 282.1173 282.6119
   282.6119 282.8226 285.3199 288.1902 288.1902 288.9924 289.4117 289.4117
   289.7724 293.5156 295.9009 295.9009 297.9066 297.9066 298.3338 299.7496
   300.4924 300.4924 301.3916 301.3916 301.5712 301.5712 302.4995 302.6749
   303.5067 303.5067 303.6944 304.0556 304.6335 304.6335 307.9783 307.9783
   308.1120 308.9056 309.8338 309.8338 310.7413 310.7468 310.7468 312.6483
   312.6483 313.3594 316.8240 316.8240 317.2510 318.8427 318.8427 319.1175
   319.1175 319.6430 320.2517 323.7784 323.7784 324.2825 324.2825 324.4596
   325.4638 326.2547 326.2547 326.6420 327.8844 327.8844 327.9855 329.2690
   329.2690 329.9745 330.2254 330.2254 330.5046 332.0594 334.5539 334.5539
   335.8515 335.8515 336.0752 338.8024 338.8024 339.0679 339.0679 339.5291
   340.2435 341.3785 342.4864 342.4864 346.5974 346.9137 346.9137 347.1383
   348.3807 348.3807 351.6181 351.6181 353.5540 353.5540 353.9243 355.1307
   355.1307 355.6550 355.7514 355.8967 355.8967 356.8181 357.2897 358.0350
   358.0350 358.1585 358.1585 359.3482 359.9816 359.9816 360.2077 362.4089
   362.8335 362.8335 363.3683 363.8180 363.8180 364.2536 366.8890 368.0558
   368.0558 368.1836 368.1836 369.6964 369.6964 371.0026 371.0984 371.0984
   371.2193 372.8937 372.8937 373.3874 374.5617 374.5617 374.7472 375.4984
   375.4984 378.7900 378.7900 378.9119 379.5142 379.7272 379.7272 380.8168
   381.7213 381.7213 381.9570 381.9570 381.9811 382.0365 383.2689 383.2689
   385.1216 390.1612 390.1612 393.4154 393.4384 393.4384 393.5272 395.7168
   395.7168 396.2420 397.8722 398.5794 398.5794 399.4301 400.1138 400.1138
   401.4291 402.3824 402.3824 402.8244 402.8289 402.8289 403.2808 403.2808
   403.5507 403.5507 403.5689 403.5870 403.6156 404.5729 404.5729 405.4979
   406.0812 406.0812 406.3488 407.4040 408.3329 408.3329 408.3782 408.9734
   409.2246 409.2246 409.3328 409.3371 409.3371 409.5781 409.5781 411.3475
   413.4919 413.4919 415.0727 415.0727 415.1740 416.6286 416.6286 418.5448
   421.8672 421.8672 422.0307 422.4889 422.4889 422.5698 424.2901 425.1658
   425.1658 427.0721 427.0721 427.5209 428.4090 428.4090 429.8265 430.0866
   430.0866 433.4242 433.5624 433.5624 433.7495 433.7495 433.9470 434.6368
   437.9418 438.6522 438.6522 439.9704 439.9704 440.6146 440.6146 440.9013
   441.5056 441.7410 441.7410 441.8232 442.1912 442.1912 442.5329 445.3058
   445.3058 446.1732 446.4985 446.4985 446.5122 448.8333 448.8333 449.5081
   449.8999 449.8999 450.2416 450.2416 450.3282 450.6807 450.7612 450.7612
   451.1056 451.9965 451.9965 452.1776 453.7173 455.0292 455.5288 455.5288
   456.7823 456.7823 457.1051 457.7137 458.6838 458.6838 459.4580 459.4580
   459.5416 461.0930 463.0070 463.0070 467.0958 467.0958 467.6786 467.9466
   467.9466 468.0029 468.0029 468.4580 468.6437 469.2814 469.2891 469.2891
   469.3756 469.3756 469.6864 472.0877 472.0877 473.0336 473.0336 473.0659
   473.1606 473.6570 473.6570 474.3802 475.3095 475.3095 476.2719 477.2988
   477.2988 477.3793 478.8933 480.6362 480.6362 480.9141 480.9141 480.9364
   483.5858 483.5858 484.7167 484.7167 484.9680 485.0567 487.1772 488.9010
   488.9010 489.4223 490.5385 490.5385 492.6983 493.1260 493.1260 494.7398
   494.7398 495.1763 496.8527 496.8527 497.0248 503.9032 504.2459 504.2459
   506.6156 506.6156 507.2581 507.3610 507.3610 507.5417 509.2597 510.1551
   510.1551 511.4933 511.4933 511.8368 511.8368 511.9117 513.9616 514.3426
   514.3426 515.6073 515.9482 515.9482 516.0528 516.3710 516.3710 516.4573
   516.4573 516.7231 516.7231 516.7426 517.1492 517.2357 517.2357 517.7687
   517.8369 517.8369 518.1129 519.0237 520.1118 520.4521 520.4521 521.5703
   521.5703 521.8275 522.8857 524.1028 524.1028 525.6204 525.6204 526.7733
   529.2986 529.2986 529.5677 531.6982 531.6982 532.5329 532.6128 532.6128
   532.7972 533.2022 533.2022 533.5079 534.0274 534.0274 534.0624 535.8797
   535.9541 535.9541 538.2799 538.2799 538.2911 538.8214 539.5388 539.5388
   540.6419 540.6419 540.7121 540.7185 541.8736 541.8736 541.9809 542.2094
   542.2094 542.7795 544.2731 544.2731 544.6368 546.2312 546.2312 546.7945
   546.7945 546.8750 547.0613 547.0613 547.2604 547.4439 547.4439 547.4702
   548.3688 548.3688 548.5004 548.7340 549.2884 549.2884 549.5262 549.5262
   549.8516 550.1476 550.1476 550.2791 554.4261 554.4261 554.6062 554.7552
   554.7552 554.7924 554.9455 554.9455 555.0809 555.4860 555.4860 555.5117
   555.5322 558.9530 558.9530 559.0240 559.2589 559.2589 559.4610 559.4675
   559.4675 559.5314 562.7902 562.7902 563.1867 564.3400 564.3400 566.7822
   566.7822 567.6148 567.7711 567.7711 567.8140 570.0497 570.0497 570.3813
   570.3813 570.4058 570.4307 575.0688 576.3110 576.3110 577.0372 577.0372
   577.3437 580.5385 580.5385 580.9185 582.2472 582.2472 582.4179 584.6908
   584.6908 585.9055 586.7370 586.7370 587.0540 587.6817 587.6817 588.1540
   588.4698 588.4698 588.7613 591.4521 591.4521 591.9918 591.9918 592.0281
   592.6610 593.1912 593.1912 593.2537 593.7066 593.7066 593.7898 593.7898
   593.8337 594.0420 594.0564 594.0564 594.1139 596.0563 596.0563 596.9920
   597.5161 597.5161 597.6658 598.4519 598.5422 598.5422 600.4310 601.6157
   601.6157 602.2057 602.2057 602.2599 604.9889 604.9889 605.7884 605.8099
   606.9752 606.9752 609.9401 610.2791 610.2791 610.6044 610.7263 610.7263
   611.2224 611.3131 611.3131 611.4798 611.8959 611.8959 611.9787 612.9400
   612.9400 613.0013 615.9152 615.9152 615.9512 616.8147 618.4538 619.1512
   619.1512 619.7133 619.7133 620.1441 620.1441 621.0073 621.1991 621.1991
   621.5412 622.8830 622.9717 622.9717 624.6787 624.6873 624.6873 624.9698
   624.9698 625.6440 628.7662 628.7662 628.8096 629.0365 629.0365 629.2659
   632.1399 632.2790 632.2790 633.1585 633.1585 633.1900 633.8205 633.8205
   635.0788 636.2882 636.2882 636.4234 636.8155 636.8155 636.9806 640.4182
   640.4277 640.4277 640.7046 640.7046 641.0678 641.6479 641.6479 641.8826
   642.4347 642.4347 642.6619 644.2670 644.2670 644.3676 644.6307 644.6307
   644.6950 645.0606 645.0606 645.1171 645.9703 645.9703 646.1396 647.5250
   647.5250 648.2457 654.4390 654.4390 654.5851 654.6328 654.6328 654.8834
   656.0101 656.0503 656.0503 656.4971 656.4971 656.7502 657.0280 657.0281
   657.0281 657.3709 658.1540 658.1540 659.7883 659.7883 660.6179 660.6988
   660.6988 660.8473 662.1685 662.1685 662.4472 667.5234 667.5790 667.5790
   668.4196 672.8839 673.0218 673.0218 673.2612 673.2612 674.0893 674.0924
   674.0924 674.1375 674.4453 674.4453 674.4908 674.5959 674.7547 674.7547
   674.8195 674.8195 676.6006 677.4808 677.4808 677.8261 678.2759 678.2759
   678.5671 678.5671 678.9525 679.3709 679.3709 679.4211 679.7407 680.0532
   680.0532 680.5329 681.9497 682.2354 682.2354 683.6964 683.6964 683.8307
   683.8307 683.8743 684.1660 684.4082 684.4082 684.4388 686.7700 686.7700
   687.6098 687.6098 687.6356 687.8084 690.8030 690.8030 691.0354 691.1020
   691.1020 691.1525 692.2992 692.2992 692.9958 693.2137 693.2137 693.4063
   697.3545 697.3545 697.8127 698.1398 698.1398 698.4440 698.7748 698.7748
   698.8007 700.1440 700.1440 700.1724 700.4315 700.4407 700.4407 700.5687
   700.5687 701.4544 701.8618 701.8618 701.9170 702.9548 702.9548 703.7117
   704.5217 704.5217 704.5550 707.6565 708.0449 708.0449 708.2892 708.2892
   708.4026 709.9693 709.9693 710.0478 710.6240 715.7995 715.7995 716.0881
   716.2087 716.2087 716.2307 719.3339 719.3339 720.8377 720.8377 721.0916
   721.0916 721.1087 721.1219 721.7612 721.8253 721.8253 722.8339 722.8339
   723.5053 723.5053 723.5476 723.5646 724.3286 724.3286 724.4775 725.8467
   725.8467 725.8992 725.8994 725.8994 725.9339 726.6408 726.7432 726.7432
   726.7583 726.7694 726.7694 727.1425 730.2682 730.3797 730.3797 730.7451
   730.7451 730.9787 731.3301 731.3301 731.3648 732.4532 732.4532 735.6944
   735.6944 735.9613 737.0283 737.0283 737.6054 737.6054 737.6405 737.6612
   737.6612 737.6836 739.3755 740.6236 740.6236 740.8538 741.8312 741.8312
   742.1384 744.0415 744.0415 744.2488 745.7129 745.7129 745.8178 745.8178
   745.8380 745.8729 746.5090 746.5090 746.6242 746.8574 746.8574 746.8796
   749.4385 749.4385 749.4930 750.5903 750.5903 750.8020 751.2183 751.2183
   751.2683 752.2868 752.2868 752.4094 752.7959 752.7959 752.8257 753.7002
   753.8107 753.8107 755.0599 755.0599 755.1327 758.0056 758.0387 758.0387
   758.2770 758.2770 758.3233 762.9328 762.9328 763.4235 764.5943 764.5943
   764.7392 765.2336 765.2336 765.2750 767.6191 767.6191 767.6965 767.7347
   767.7347 767.7856 772.0045 772.8340 772.9623 772.9623 773.7440 774.0911
   774.0911 774.3496 774.3496 774.6848 776.2110 776.2110 776.2953 777.6672
   777.6672 777.7042 779.9165 779.9165 780.0749 780.0749 780.0921 780.5207
   780.7666 780.7666 780.8550 782.2895 782.2895 783.2706 783.3291 783.3291

          k = 0.5000-0.5000 0.5000 (  2392 PWs)   bands (ev):

   -45.3484 -18.2089 -17.2781 -17.2781 -16.4368  -0.0382   1.3495   1.3495
    12.7042  14.4741  22.2455  22.2455  25.1878  25.1878  26.1116  29.4088
    33.9530  33.9530  35.0453  35.0453  43.4453  44.0235  47.7220  47.7220
    49.3177  49.3177  51.5444  53.9992  55.3526  58.0504  58.0504  59.0176
    59.0176  60.3423  61.0330  61.5838  65.9359  65.9359  68.3007  68.3007
    73.9949  74.0315  76.1837  76.1837  77.0339  77.0339  79.0738  83.3724
    86.0481  86.0481  86.3632  86.3632  90.8383  91.7805  93.5736  93.5736
    95.4987  95.4987  99.4978  99.4978  99.7834  99.7834 100.5729 101.9758
   102.7129 102.7129 102.8815 102.8815 104.3209 104.4169 109.2794 109.2794
   110.2524 111.7003 113.2457 113.2457 118.4145 118.4145 118.4767 118.4767
   119.8717 121.6552 124.0415 127.7222 127.7222 127.7458 127.7458 128.4137
   129.8868 131.1559 133.6483 134.4327 134.4327 134.7561 135.2018 135.2018
   141.1739 141.1739 141.5676 141.6519 141.6519 143.2654 146.6000 146.6000
   146.7012 146.7012 146.8420 147.0037 152.5271 153.3588 153.3588 153.6275
   153.6275 153.9393 158.0954 158.0954 158.8937 158.8937 159.7754 159.9739
   160.1536 160.2153 165.9413 165.9413 167.0570 167.0570 170.9829 170.9829
   171.3472 171.3472 172.2520 172.8635 173.6938 173.7859 173.8698 173.8698
   173.9521 173.9521 174.9029 176.9463 180.6136 180.6136 180.8217 180.8217
   183.0505 183.7047 188.4987 188.4987 188.5117 188.5117 189.4561 189.4561
   189.5095 189.5095 190.5445 190.5546 193.3302 193.3302 194.2228 194.2228
   198.9999 199.0013 201.6973 201.6973 202.1605 202.1605 204.0380 204.0380
   204.1160 204.2520 204.3618 204.3618 204.9830 209.3084 212.7926 212.7926
   213.6720 213.6720 215.2127 215.7490 221.1365 221.9730 221.9730 222.0963
   222.5434 222.5434 225.5016 226.3563 227.2441 227.2441 227.5462 227.5462
   227.6468 228.0953 228.0953 228.1192 228.1192 228.4130 228.8218 231.6489
   231.6489 231.6778 231.6778 231.9006 231.9339 232.5011 232.5011 232.5276
   232.5276 232.6074 241.3464 241.3464 241.7084 241.7084 243.0492 243.1636
   243.6024 244.5267 246.0954 246.0954 246.1465 246.1465 246.9738 246.9738
   247.2173 247.2522 247.2522 247.5820 250.8935 250.8935 251.8115 251.8115
   254.3121 255.2952 256.7105 257.1436 259.5428 259.5428 259.6823 260.0096
   260.0096 260.3251 264.8244 265.9948 265.9948 266.5808 266.5808 268.0903
   272.5255 272.5255 272.7834 272.7834 272.9558 274.2041 274.2255 274.2255
   274.3214 274.3214 274.3254 274.4187 275.3675 275.3675 275.5127 275.6461
   275.6461 276.0572 277.5888 280.2299 283.1548 283.1548 283.3711 283.3711
   289.1049 289.1049 289.7856 291.0318 291.0318 291.3508 294.6582 294.6582
   296.0162 296.0162 297.9732 299.9265 301.2371 301.2371 301.3446 301.3446
   302.7300 302.9263 302.9263 302.9454 302.9888 302.9888 303.0985 303.3745
   303.3745 303.3862 303.3862 303.9933 303.9956 304.6748 310.3722 310.3722
   311.2555 311.4509 311.4509 311.4637 314.4970 315.4150 315.6137 315.6553
   315.6553 315.7471 315.7471 315.7979 315.7979 316.0804 316.0804 316.3537
   317.6573 317.6573 317.6810 317.7830 317.8127 317.8127 319.7235 319.7235
   319.7287 319.7287 321.1007 321.1009 322.0347 323.7250 331.1189 331.1189
   332.1862 332.1862 332.5220 332.5813 332.5813 332.6725 332.6942 332.6942
   336.9918 336.9918 337.8079 339.9421 339.9421 340.0168 341.3461 341.3461
   341.6948 341.6948 343.9126 344.9505 345.6198 345.6198 345.7561 345.7561
   346.3384 346.3729 346.9849 346.9849 347.0336 347.0336 347.2501 347.3648
   350.1909 350.1909 352.7670 352.7670 356.1921 356.1921 356.5240 356.5240
   356.5466 356.5925 357.9765 358.7759 359.2831 359.8452 359.8452 360.1725
   360.1725 360.6675 360.6675 360.7303 360.8009 360.8009 360.8864 360.8922
   370.9499 370.9499 371.6291 372.7680 372.7680 373.2060 373.7439 373.7439
   373.8181 373.8181 374.6239 374.6578 374.6578 375.1283 375.1283 375.1620
   375.2164 375.2496 376.8868 381.2132 382.5911 382.5911 385.3960 385.3960
   385.9818 386.5282 386.7270 386.8363 386.8363 387.0217 387.4413 387.4413
   387.5926 387.9888 388.3302 388.3302 388.5049 388.5049 389.9687 389.9687
   390.0263 390.0263 392.6488 392.6488 393.0698 393.0698 395.1648 397.9112
   399.9121 399.9121 400.1106 400.1106 400.1776 400.3621 401.2046 401.2046
   401.2676 401.2676 402.3832 402.9450 405.0428 405.0830 405.0830 405.2622
   405.2622 405.3579 406.0706 406.0706 406.0818 406.1267 406.1267 406.2409
   411.3050 413.7293 413.7293 414.2955 414.2955 415.0591 417.8411 417.8411
   418.1086 418.1086 418.4427 418.4469 422.3762 425.5066 425.5066 427.7135
   427.9316 427.9316 429.8150 429.8150 430.0052 430.1142 430.1142 430.5092
   431.5024 431.5024 431.5093 431.5093 431.5787 431.6410 432.0433 432.3093
   433.1452 433.1452 433.1678 433.1678 433.2853 433.3465 436.5089 436.5089
   437.1192 439.0162 439.0981 439.0981 439.7995 439.7995 440.3135 440.3135
   441.3795 441.3795 442.0290 442.2799 442.2799 442.9053 443.6140 444.0954
   446.0497 446.3393 446.4967 446.6879 446.6879 446.8077 446.8077 446.8625
   446.8625 446.8767 446.8767 447.0079 447.2833 447.2833 447.2944 447.2944
   447.6819 447.7012 448.3013 448.3013 448.4289 448.4289 448.5806 448.7512
   458.8946 458.8946 459.0189 459.3890 459.3890 459.6357 460.7649 460.7649
   461.0819 461.0819 461.2085 461.2085 461.2229 461.2741 461.2741 461.3422
   461.4318 461.7830 463.3102 463.3102 463.3261 463.3261 463.3391 463.3414
   472.5499 472.5499 472.7887 474.0760 474.0760 474.4848 474.5830 474.5830
   474.5953 474.5953 474.8969 475.0694 478.9643 482.7598 484.2138 484.2138
   486.1306 486.1306 486.6677 486.8187 487.1355 487.1355 487.1973 487.1973
   487.4889 487.4889 487.8963 487.8963 488.0002 488.0147 488.0501 488.0501
   488.5549 488.5549 489.1802 489.5445 491.8611 491.8611 491.8617 491.8617
   493.5062 493.5066 498.8071 498.8071 499.2841 500.7924 502.0024 502.0024
   502.1781 502.1781 502.2124 502.2124 502.7446 502.8978 505.9140 505.9140
   506.6412 506.6412 506.6501 506.6501 506.8957 506.8968 508.7952 508.7952
   509.3738 511.2481 512.7039 512.7506 513.4368 513.4368 513.8471 514.0694
   514.0694 514.3923 514.4969 514.4969 514.5087 514.5087 516.0344 516.4903
   520.4030 520.4030 520.4117 520.4117 526.8171 526.8171 527.4875 528.7097
   528.7097 529.5925 529.5925 529.6094 529.6094 529.6362 529.8824 530.1477
   530.7998 530.7998 531.0899 531.0899 531.4487 531.5998 531.5998 531.7232
   531.7232 531.7792 532.0335 532.8529 532.9282 532.9509 533.0172 533.0172
   533.0883 533.1312 533.1312 533.2239 533.2239 533.4430 533.4430 533.6280
   533.6472 533.6585 533.6736 533.6736 533.9036 533.9036 534.6920 534.6920
   534.7321 534.7321 534.9569 535.0126 542.8875 542.8875 544.2276 544.2276
   544.4580 544.5589 545.0780 545.0780 545.3964 545.4567 545.4567 545.6067
   548.2006 548.2006 548.2649 548.2710 548.2710 548.4054 554.3152 555.4707
   555.4707 556.1538 556.1538 556.8220 559.7611 559.7611 560.6010 560.6010
   560.7251 560.8822 560.9260 561.1877 561.1877 561.1965 561.2244 561.2244
   561.6709 561.6709 561.7748 561.7748 561.8569 561.9487 562.0081 562.0081
   562.1424 562.1424 562.2693 562.2693 562.3306 562.3306 562.3632 562.3790
   562.4337 562.6849 572.1140 573.2820 573.2820 574.0952 574.0952 574.2281
   574.2618 574.7384 575.1119 575.1119 575.1946 575.1946 576.2049 576.2049
   576.3082 576.3082 576.3083 576.3083 576.3199 576.3199 576.3432 576.3466
   576.4445 576.7709 581.6282 582.6937 586.3148 586.3148 587.1642 587.1642
   587.4698 587.6076 591.7041 591.7041 591.7778 591.7778 592.5171 592.5171
   592.5333 592.5423 592.5423 592.6150 596.9067 596.9067 598.4939 599.5339
   599.5339 599.7351 600.6329 600.6717 600.6717 600.8320 600.8320 601.2232
   602.3581 602.5171 602.5187 602.5187 602.6919 602.6919 602.7021 602.7021
   602.8722 602.8722 602.8805 602.9740 604.4289 604.4289 604.4659 604.4659
   604.7141 604.8642 606.5103 606.5103 606.5268 606.5823 606.5823 606.6592
   610.4224 610.4224 611.0901 611.0901 611.2436 611.6846 617.4063 617.4063
   617.6542 617.6542 617.6985 617.7134 619.0384 619.0384 619.1921 619.1921
   619.2163 619.2774 619.7967 619.7967 619.8423 619.8423 619.9641 619.9705
   621.9033 621.9033 621.9278 621.9282 621.9282 621.9861 630.7243 631.2541
   631.2886 631.2886 631.9757 631.9757 632.0529 632.0529 632.4000 632.4510
   632.4510 632.6102 632.7455 632.7455 632.8068 632.8068 632.8178 632.9572
   635.6635 635.6635 635.7542 635.7542 636.1545 636.1557 637.9448 637.9448
   638.1286 639.0514 639.0514 639.4640 645.1631 645.5772 645.5772 645.8122
   646.3097 646.3097 646.6754 646.7676 646.7758 646.8146 646.8146 646.8564
   646.8564 646.9219 646.9918 647.0732 647.0732 647.0870 647.0870 647.8410
   656.3546 656.3546 656.6712 657.4017 657.4017 657.6986 658.5453 658.6336
   658.6336 658.7860 658.8173 658.8173 659.4377 659.4377 659.4733 659.4733
   659.8578 659.9133 659.9133 659.9339 659.9339 659.9559 659.9920 660.2338
   660.2404 660.2635 660.2635 660.2745 660.2745 661.3119 662.8280 662.8320
   663.1085 663.1085 663.1240 663.1240 664.1643 664.1643 664.1701 664.2251
   664.2251 664.3065 664.4953 664.4953 664.5056 664.5056 664.6717 664.6828
   676.6199 676.6973 676.6973 676.8763 676.8779 676.8779 677.3324 677.3324
   677.3716 677.3716 677.4728 677.4738 677.7082 677.7918 677.8011 677.8011
   677.8056 677.8056 683.4549 683.4549 685.1837 685.1837 685.2895 685.7155
   689.4882 689.4882 689.9510 689.9510 689.9604 690.1979 690.2886 690.2886
   690.3524 690.3524 690.4072 690.6054 690.8284 690.8624 690.8624 690.9252
   690.9252 690.9656 691.1547 691.2202 691.2202 691.2567 691.2567 691.3124
   696.2746 697.6614 700.2841 700.2841 701.0548 701.1539 701.1539 701.5120
   701.5877 701.5942 701.5942 701.6081 701.6228 701.6228 701.8381 702.1530
   702.1530 702.2126 702.2126 702.5456 702.5456 702.5472 702.5472 703.1595
   705.7622 705.7622 705.7681 705.7681 705.8231 705.8231 705.8389 705.8394
   705.8999 705.8999 705.9125 705.9329 707.3331 707.3331 707.3369 707.3369
   707.7220 707.7230 707.8383 707.8383 707.8386 707.8386 709.4095 709.4098
   718.9637 718.9637 719.4639 719.4639 719.4639 719.4895 719.9952 719.9952
   720.1742 720.1742 720.2425 720.2613 729.1757 729.1757 729.8070 730.6251
   730.7066 730.7066 730.8982 730.8982 730.9316 730.9488 730.9488 730.9824
   731.9067 731.9067 731.9277 731.9277 731.9546 732.1636 732.1636 732.2614
   732.2614 732.2808 732.2971 732.3882 732.5099 732.5116 732.5116 732.6700
   732.6700 732.7159 733.7612 733.7612 733.7738 733.7738 733.8009 734.2974
   741.2923 741.5141 746.1463 746.1463 746.4883 746.7636 746.7636 746.7830
   746.9321 746.9321 746.9575 746.9575 747.0068 747.2469 747.3277 747.3277
   747.4560 747.4560 747.5202 747.5505 748.2111 748.2669 748.2669 748.3416
   748.3416 748.3487 748.6194 748.6728 748.6728 748.7484 748.7484 748.8139
   748.8734 748.8734 748.9745 748.9769 748.9769 749.2855 749.4316 749.4316
   749.4436 749.4674 749.4674 749.5249 750.4725 750.4725 750.4761 750.4761
   751.4244 751.4244 751.4259 751.4259 751.4518 751.4557 758.7695 758.7695
   759.0512 759.0512 759.0787 759.2182 764.4400 764.4400 764.4668 764.4668
   764.4958 764.5091 775.8145 775.8145 775.9744 776.4651 776.4651 776.5183
   776.5449 776.5449 776.5698 776.5813 776.5819 776.5819 777.1946 777.1953
   777.1953 777.2005 777.2005 777.2360 777.2360 777.2559 777.2896 777.2896
   777.3293 777.6154 782.2821 782.2821 782.8506 782.8506 782.8568 782.8927

          k = 0.0000 0.2500 0.0000 (  2397 PWs)   bands (ev):

   -45.3611 -17.7582 -17.2734 -17.2734 -16.9973   1.2616   1.5506   1.5506
     8.9278  19.0548  21.2042  21.2042  24.4307  26.7418  26.7877  29.6977
    29.8943  29.8943  36.1227  36.1699  36.1699  43.6772  48.6558  48.6558
    49.0352  51.5439  53.3826  55.6504  59.3892  59.3892  63.1842  63.2212
    64.4443  65.5076  65.5076  67.8483  67.9508  67.9508  68.6049  71.6852
    74.0770  74.0770  75.0231  75.0231  75.1603  76.1799  78.2589  78.6166
    80.4201  80.6885  80.6885  81.0051  82.8343  82.8343  83.9163  87.1198
    87.1198  89.1899  90.1052  91.5843  93.1943  93.1943  96.6987  98.2053
    98.2053 104.3750 105.2306 106.7944 117.1624 117.1624 118.8372 118.8901
   120.2059 120.2059 120.4174 123.7671 125.4842 125.4842 125.6936 125.6936
   126.8733 126.8826 126.9273 127.5465 130.2847 131.5917 131.8004 131.8004
   132.9645 133.5336 133.5336 134.7960 136.3611 138.5406 139.2553 139.2553
   139.3354 139.5644 139.9988 139.9988 140.2721 141.0762 144.3519 144.3519
   145.7320 146.3508 147.4122 147.4122 148.2968 148.4568 149.7828 150.2210
   150.2210 152.4254 152.6084 153.0908 153.0908 153.2516 153.2516 157.3025
   159.0833 159.0833 160.4338 160.4866 162.9221 163.1203 163.1203 163.5346
   168.1784 168.1784 169.9142 171.5515 171.7118 172.3188 172.5563 172.5563
   176.6476 177.2112 177.3823 177.3823 177.7885 178.5606 178.6112 178.8317
   178.8317 181.2458 183.3224 183.3224 183.7913 184.1540 188.1962 188.1962
   188.5310 189.1771 190.3162 190.3162 191.5030 191.5689 196.3654 196.3654
   196.3991 197.8052 198.1014 198.1014 198.1031 199.1688 199.1688 200.4695
   200.5664 208.7113 208.7113 209.2331 212.0360 212.1537 212.1537 213.8352
   213.9293 213.9293 219.1482 222.0228 224.0666 224.1825 226.2469 226.2469
   230.0748 230.0748 230.5843 230.5852 232.0220 232.6514 232.9558 232.9558
   233.8562 234.6739 234.7141 234.7141 235.7891 235.7891 235.9705 237.5531
   238.1608 239.8850 239.9350 240.1138 240.1138 241.2157 241.2700 241.5890
   241.5890 242.5175 243.7897 243.7897 243.9925 244.1872 244.1872 244.8462
   244.9275 246.1892 246.1892 247.6938 247.9764 248.2217 248.6371 248.6371
   249.7811 250.4236 250.9282 251.5043 251.8326 251.8326 252.5423 253.6180
   254.1939 254.1939 255.1165 256.9745 256.9745 258.1476 258.3011 260.1875
   260.1875 260.6683 260.6683 260.8392 261.6610 262.2370 262.3047 262.3047
   264.0904 264.2669 265.0155 267.0710 267.0710 267.4360 268.1570 269.6582
   269.6582 270.2248 270.2248 270.2618 270.7114 270.8083 271.2705 271.3310
   271.3310 273.1195 275.4849 279.3747 279.3747 280.2901 280.2901 280.7178
   281.3676 281.5733 281.7520 281.7520 281.9713 283.3773 283.8285 287.8334
   289.6881 289.6881 290.2109 290.2109 290.2786 290.7602 290.8357 291.4064
   291.4064 292.7785 292.7958 295.5550 295.6357 295.6357 296.0457 296.5457
   301.2675 301.2675 303.3515 303.3515 304.6432 304.7239 304.8075 305.2200
   305.2200 305.4924 305.4924 305.5017 306.1501 308.1520 310.2325 315.9716
   315.9716 316.7994 317.0865 317.1749 317.1749 317.5245 318.7557 318.8522
   319.0610 319.3571 319.3571 319.6857 322.9371 323.0329 323.0329 323.2584
   323.2584 323.4492 324.8946 324.9987 328.3995 328.3995 331.2410 332.9724
   332.9724 333.9665 336.5244 337.0503 337.9210 337.9210 340.2144 340.2144
   340.9872 342.1382 342.1382 343.2864 343.6435 345.1225 347.8297 348.1082
   348.1082 348.3800 348.8377 350.4908 350.4908 352.7521 352.9551 353.4504
   353.4504 353.9259 353.9259 353.9533 354.1102 355.3240 355.8015 359.8324
   359.8324 361.4501 361.7024 361.7024 361.7358 361.8422 362.6264 363.3653
   363.3653 363.7434 364.4651 365.8024 367.1254 367.1390 367.1390 367.4241
   370.3508 370.3750 370.3750 370.4112 370.4112 370.4479 370.5591 370.6596
   371.1151 371.8121 371.8121 372.4422 372.4422 373.1443 373.7697 375.0224
   377.6171 377.6171 378.0119 378.3746 378.3746 378.5879 379.4357 379.8540
   382.1734 382.1734 383.2037 383.8168 383.8948 384.0305 384.0305 384.0734
   384.1163 384.1163 384.3468 384.3761 385.4071 386.0695 386.0695 388.6002
   388.6002 389.0347 389.7021 389.7021 389.9950 389.9950 390.0869 390.6857
   390.8127 392.5944 393.3379 393.3379 393.6824 393.7264 393.7647 393.7647
   393.7673 394.2477 396.9256 398.4322 398.8778 398.8778 399.8808 399.8808
   400.2441 400.5986 401.3155 401.5084 401.5084 402.9533 403.8329 404.4058
   404.5116 404.5116 405.2482 406.5427 406.5427 406.5692 406.7662 407.8417
   407.8417 408.0876 409.3037 410.9406 410.9505 410.9505 411.0366 411.6141
   411.6141 411.8614 412.1031 412.4719 412.4719 412.6613 413.1079 413.1079
   413.3395 413.6569 414.8968 415.0048 415.0048 415.1826 415.2419 416.8747
   418.1448 418.1448 418.5811 420.3312 420.3312 420.3549 422.0104 422.5557
   422.5557 422.5595 422.7127 422.9881 423.1118 424.1318 424.1318 424.8041
   427.3388 427.3388 427.4057 427.6137 428.2551 428.2551 428.3320 428.3569
   432.3486 434.5768 434.5768 434.7090 434.7634 435.2700 435.2700 436.6454
   438.4848 439.4149 439.4149 439.4453 440.1197 440.6311 440.6311 443.5087
   443.6122 443.6122 446.5521 447.5243 448.4577 449.6519 449.6519 450.7546
   451.0808 451.0808 451.5599 451.7160 451.8336 453.5891 453.5891 457.8468
   457.8468 458.8734 458.9274 459.2097 464.2914 464.2914 465.7440 465.9144
   466.1943 466.1943 466.3543 466.3553 467.8792 467.8792 468.5422 468.5991
   471.1787 471.2689 471.2689 471.9954 473.7319 473.7319 474.3697 474.8383
   477.1856 480.5480 480.5480 481.3913 482.4917 482.5917 482.7557 482.7557
   482.8756 484.1818 484.1818 484.4426 485.2564 485.9195 485.9195 486.9200
   487.1518 487.5292 487.7361 487.7361 487.8881 488.7045 488.7394 488.7394
   488.8844 490.8565 490.8565 491.4956 491.7700 492.5799 492.5799 492.9516
   494.4560 497.9921 498.8326 498.8326 500.7212 500.7373 500.7373 500.7588
   500.8108 501.6889 501.6889 502.1675 502.9102 504.2660 505.0941 505.0941
   506.0791 506.0791 506.1516 506.2015 506.5106 506.5106 506.5875 506.6632
   506.9541 507.8447 509.7660 509.7660 510.4730 511.0953 511.8517 511.8517
   512.3072 512.3072 512.4317 512.9395 513.0340 513.1063 513.1063 513.6980
   515.3162 515.3162 515.5800 515.8586 516.7496 518.6041 518.6041 518.8479
   519.6344 519.6344 519.7701 520.1131 520.1579 520.5038 520.5038 520.6757
   520.6780 520.6780 520.7370 520.7780 521.2043 521.2043 521.2465 521.2561
   521.2791 521.8379 521.8379 522.6476 524.3152 530.9138 531.3351 531.3351
   531.7087 531.7444 531.7866 531.7866 531.8969 534.3067 534.3067 534.6251
   534.9804 536.8320 538.2423 538.2423 538.4523 538.6413 539.9562 539.9562
   540.9923 541.2531 541.2762 541.2762 541.5893 541.6126 541.7582 541.7582
   542.3590 542.7419 542.7562 542.7562 543.5743 545.5004 548.1294 548.1294
   548.4660 548.9791 551.0417 551.4606 551.4606 552.0256 553.6181 553.6181
   554.3111 554.5258 555.6877 556.0761 556.0761 556.4315 556.6760 556.7752
   556.7752 556.8819 560.1283 560.1283 561.7469 561.7469 562.0506 562.7111
   562.7991 562.8915 562.8915 563.2530 563.3034 563.5893 563.5893 563.8144
   564.0947 564.3687 564.3687 564.5749 566.4237 566.4372 566.4372 567.7451
   567.9916 567.9916 568.0668 568.2083 568.4135 568.4135 568.5300 568.5621
   568.6668 568.7575 568.7575 568.8192 569.5153 571.5928 571.5928 572.9858
   573.0925 573.2849 573.2849 573.2991 573.5129 573.5186 573.9155 573.9155
   574.5860 575.0369 575.0369 575.4623 576.4952 579.9961 579.9961 580.0711
   580.1182 582.8867 583.0488 583.0488 583.2687 583.5652 583.5652 584.1073
   584.1098 584.2020 584.2020 584.2377 584.3135 584.4643 584.4643 584.5938
   584.9986 591.6158 591.6158 591.6395 591.7401 592.7204 592.7204 592.9400
   593.0711 593.4957 593.4957 593.5060 593.5255 593.9479 593.9786 593.9786
   594.1366 595.2852 597.1093 597.1093 598.1575 598.1575 598.3900 598.3982
   599.3884 600.5273 600.6394 600.6394 600.7675 601.4723 601.4723 601.5555
   601.7638 604.2577 604.2577 604.2888 604.3210 604.8311 604.8311 605.2275
   605.2551 605.8867 605.8867 605.9357 605.9410 606.2817 608.5539 608.8561
   608.8579 608.8579 608.9339 608.9339 608.9501 609.1827 609.6577 610.3906
   610.5290 610.5290 610.6850 611.0505 611.0505 614.2768 614.2768 614.3945
   614.4875 614.6309 614.6309 614.6531 614.7955 614.7970 614.8844 614.8844
   614.9715 615.7120 615.8287 615.8287 616.0036 616.1266 619.9461 620.1170
   620.2066 620.2066 620.3254 622.2828 622.2828 623.4337 625.0818 625.0818
   625.1997 625.6039 626.0890 626.0890 630.6088 630.8668 630.8668 631.1245
   631.1715 631.2427 631.2427 632.1985 632.9709 638.8406 638.8406 639.3898
   639.4199 640.7601 640.7601 640.8115 640.8356 642.9285 642.9285 643.4064
   644.0615 645.2019 645.2059 645.2059 645.2842 648.5835 648.7322 648.7322
   648.7468 651.8829 651.8829 651.8892 652.0693 652.4090 652.4090 652.6217
   652.7125 654.9592 654.9592 654.9641 655.0075 655.5632 656.0713 656.0713
   656.4185 657.8426 657.8462 657.8462 657.8479 665.1807 665.2000 665.2000
   665.2510 667.4782 668.7753 668.7753 670.3481 670.6282 670.6831 670.8910
   670.8910 671.0356 671.9680 672.2132 672.2132 673.9098 674.1321 674.9105
   675.6359 675.6359 675.8241 675.8241 676.2572 678.9333 678.9867 678.9867
   679.5644 680.4423 681.2583 681.2650 681.2650 682.0917 684.6844 686.2191
   686.3647 686.3647 686.5039 687.0408 687.0408 687.3438 687.3438 687.7001
   687.7913 688.1980 690.9271 690.9271 690.9600 691.0533 692.0667 692.0667
   692.1530 692.2376 695.2807 695.2807 696.3500 696.4176 696.4998 696.7145
   696.7145 696.8521 697.7705 697.7705 698.4534 698.6936 699.5446 699.6170
   699.6170 699.7395 699.7395 699.7845 699.7957 699.9207 700.6954 705.5684
   705.5684 705.9889 705.9889 707.4683 707.6579 707.7936 708.1868 708.1868
   708.4902 711.0375 711.8458 711.9618 711.9618 712.1650 712.7053 713.3800
   713.3800 713.6789 713.6789 713.7300 713.8783 713.9073 714.0234 714.2563
   714.2563 714.4605 715.9167 715.9167 715.9274 715.9673 716.1007 716.1007
   716.7588 716.7730 717.0284 717.3410 717.3410 717.5523 720.6185 720.9028
   720.9028 721.1539 722.1451 722.1451 722.1800 722.2867 722.7072 722.7319
   722.7319 722.7635 725.1858 725.2152 725.3911 725.3911 726.2624 726.2624
   726.5439 726.8294 727.6816 727.9073 727.9073 728.1205 731.0947 731.0947
   731.3939 731.4988 732.5631 732.8137 732.8137 732.9416 732.9416 733.2266
   733.4085 733.6352 734.0164 734.1848 734.1848 734.3874 735.8744 735.8936
   736.2316 736.2316 736.4665 736.4665 736.5904 736.7686 736.8240 736.8240
   736.8876 737.0598 737.8932 737.8932 738.1948 738.2065 738.5615 738.6532
   738.6532 738.7431 739.0610 739.6695 739.7692 739.7692 739.8468 739.8468
   739.9986 740.1286 741.4419 741.4419 741.5871 741.6879 741.9140 741.9830
   741.9830 742.0113 742.3023 742.5268 742.5268 742.5354 742.7142 742.7142
   742.7591 742.8102 744.3661 747.7430 747.7430 747.9280 748.0121 749.1861
   749.1861 749.3001 749.3547 750.5990 750.5990 750.6403 750.6630 751.2862
   751.3120 751.3120 751.3782 752.2872 752.2872 752.5651 752.9444 752.9774
   752.9864 752.9864 753.0001 758.1770 758.1770 758.2008 758.2513 758.5746
   758.5746 758.7384 759.0484 763.8260 763.8260 763.8288 764.1314 764.3095
   764.4419 764.4419 764.5103 765.0437 765.0437 765.2038 765.3347 765.7312
   765.7467 765.7531 765.7531 769.5880 769.5880 769.6605 769.7185 770.4789
   770.4789 770.4837 770.4896 771.0743 772.3113 772.3113 772.8075 772.8545
   773.1899 773.1899 773.4008 773.6054 775.9278 775.9278 776.0189 776.0420

          k =-0.1250 0.3750-0.1250 (  2417 PWs)   bands (ev):

   -45.3567 -17.9149 -17.2815 -17.2780 -16.8030   0.8186   1.4577   1.4650
     9.9911  17.4781  21.4843  21.5075  23.2442  26.6481  28.2935  29.9852
    31.3615  31.4266  34.5779  36.2910  38.2479  44.3038  45.0839  46.5333
    49.6893  52.1994  54.1477  55.3659  59.2223  60.8217  61.1344  62.2045
    62.8881  63.0042  65.3641  65.5535  66.4788  67.8566  68.7878  69.6872
    70.0114  72.8830  73.0054  73.5567  76.7754  78.5458  79.0135  80.1155
    80.3520  80.6100  81.6630  83.4004  83.4224  88.4733  89.1743  91.7051
    92.0114  92.2889  92.6427  94.4197  95.3726  96.6649  97.0869  98.9039
    99.6613 103.3158 105.1310 106.6885 111.2359 114.2033 114.3908 114.5278
   116.0288 117.2379 118.5001 119.8887 120.6777 120.8031 122.5629 122.8943
   124.0490 124.6983 125.7299 126.6524 127.0649 127.7255 130.9063 131.4608
   132.1103 132.5475 133.4236 135.5261 136.2260 138.4810 139.9149 140.0730
   140.8087 141.7137 141.8881 142.4457 143.0194 145.1615 145.7315 146.4107
   146.6884 147.2179 147.9820 149.5782 149.7401 150.0678 150.8624 151.1363
   152.9936 153.0626 153.8992 154.2418 155.0430 155.5143 155.8067 158.0844
   159.1286 160.1476 162.1040 162.1545 162.7232 163.8469 164.1688 164.3810
   164.6067 166.9987 167.4462 170.0645 170.4973 170.5051 170.6285 171.2442
   172.2501 173.5105 176.0317 177.4922 179.2553 179.3485 179.6029 181.8238
   182.5412 182.9130 183.6939 184.0385 184.2870 187.2701 189.4019 190.5339
   191.0475 191.0488 191.9718 192.6910 192.9773 194.6925 196.5688 196.9499
   197.3520 198.5835 198.7614 201.3146 203.6528 203.9070 204.5639 206.2573
   206.7453 207.0703 208.9137 209.5805 209.8673 212.8843 213.0326 214.8771
   216.4996 217.7372 217.9259 218.1841 218.4872 218.5571 219.9999 221.3932
   221.4981 223.4990 223.9408 224.6490 224.7600 225.0619 226.8285 227.0183
   227.6012 228.3494 229.1559 230.1126 231.0196 231.8998 232.5190 232.7059
   234.8538 235.7779 236.0867 236.7953 237.3200 237.6517 239.3527 239.4891
   240.0668 240.8226 242.2620 242.5458 243.7395 244.4050 244.4612 244.9286
   245.1641 245.6399 246.0733 246.6505 248.1234 248.2040 248.2629 249.2429
   250.7112 250.8973 251.2979 252.6645 254.0824 255.9806 256.0042 256.5661
   257.0334 258.1338 258.5898 259.3968 259.6755 259.7752 259.9331 260.7277
   261.9481 262.5180 263.5329 263.5726 263.6381 266.0201 266.7214 267.2983
   267.5060 267.9333 269.1257 270.3726 270.5719 272.2514 272.4092 272.8680
   272.9043 273.1868 273.9419 274.1626 274.4494 274.9715 275.9821 276.8737
   276.9811 277.4251 277.7442 278.0567 278.3207 279.2792 280.5588 280.8161
   281.1821 281.3934 282.2653 283.4900 283.6851 283.7356 284.4736 284.4893
   285.9349 286.1139 286.2473 286.8973 287.8910 287.9991 288.8372 289.7094
   290.3212 292.5832 292.8791 294.2263 294.2621 295.8037 296.1646 297.6945
   300.3666 302.8953 304.1060 304.3784 305.1396 305.1944 305.5325 306.8014
   307.9528 308.3073 309.1597 310.0336 310.3826 312.7950 314.1921 314.9001
   314.9378 315.6397 316.1810 316.6388 316.8215 317.3291 318.7126 319.4066
   321.1547 321.4984 323.6054 324.1648 324.8154 325.0408 325.8615 326.1436
   326.3689 328.3005 329.6912 329.8526 330.6776 331.1293 331.4720 332.0713
   332.3469 332.6629 332.8421 335.5622 336.4505 336.4715 336.5682 336.5958
   337.4168 337.5915 338.1043 338.7753 339.8937 340.8449 343.0093 343.6798
   344.3519 345.5829 346.2693 347.8592 348.1438 348.8098 349.3903 349.5441
   350.2412 350.9166 352.3359 352.5590 352.5785 353.0270 354.2510 354.6317
   355.5877 356.8370 356.8712 357.6485 358.1704 359.4880 360.4993 360.5558
   361.2568 361.8469 362.6607 362.9748 363.0264 363.3242 363.4166 368.1223
   368.7759 369.2625 369.5200 370.0800 370.2579 370.4189 370.5833 372.0956
   372.2009 372.3616 372.7605 373.0187 373.2467 373.3757 373.5076 373.7038
   374.1444 374.3867 376.5474 376.8262 377.4582 377.6241 379.0709 379.4060
   380.0643 380.3468 380.9672 381.7692 382.2245 382.8995 383.8697 383.8795
   384.7277 385.1618 385.1879 385.2377 385.4243 385.4968 385.6596 386.0627
   386.7669 387.5599 387.8638 388.1672 388.5208 388.9645 390.8693 391.0494
   391.4129 391.9217 391.9870 392.7650 393.0081 393.3567 393.3901 393.9307
   394.0464 394.3900 394.5417 395.9648 395.9725 396.3198 396.6418 397.0099
   397.6335 401.1621 401.4714 401.7558 402.0440 402.9599 403.3557 403.7213
   403.7500 404.1783 404.7804 405.2473 406.3429 406.5551 406.6352 406.9108
   407.4825 408.1705 408.1841 408.5650 408.8296 408.8503 408.9779 411.0685
   411.0941 413.0218 413.0808 413.4233 413.9061 416.1642 416.2423 417.6617
   418.3523 419.1658 419.1792 420.5956 420.7001 421.0630 421.4733 422.3160
   422.7356 423.2208 425.2517 425.7247 428.0462 428.2378 428.2769 428.5248
   428.6195 428.9138 429.6619 430.2803 430.8758 431.3142 431.5494 432.6206
   432.8000 433.0103 434.8920 435.2352 435.3401 435.4937 435.5612 435.9456
[...]
   416.9534 417.8850 418.5655 418.6599 419.2001 419.7592 419.8944 419.9528
   420.8267 421.9786 422.6574 425.8208 426.3421 427.2026 427.4051 429.6857
   429.7672 429.9699 430.3871 431.0623 431.5278 432.2168 432.3583 433.1365
   434.0314 435.7350 435.9665 437.1001 438.7081 438.7238 439.9931 440.2036
   441.1864 441.3856 442.9386 443.7736 446.0402 446.0807 446.2231 446.5455
   446.6661 447.0182 447.1196 447.7369 448.0856 448.1798 448.6860 448.7173
   449.0977 450.5072 450.7546 450.8554 450.9740 451.2590 451.3214 451.4031
   451.8518 451.9140 452.7250 452.9816 453.2819 454.7364 454.9666 455.0319
   455.0582 455.6392 455.8455 455.9455 456.1575 456.5135 457.6730 458.0910
   460.3515 460.5941 460.8892 462.0499 462.8677 463.1033 463.1756 463.4301
   463.6545 464.0628 465.6628 465.8614 465.9941 466.2249 466.2257 466.4161
   466.6079 467.1684 469.2323 469.3082 469.8831 469.9067 470.1360 470.2062
   471.7986 471.8168 473.9638 474.1821 475.2147 475.3671 475.4028 475.4179
   475.6536 476.4377 476.5689 476.7156 477.8811 478.2171 478.2716 478.3913
   478.4022 479.3572 479.4293 479.7430 480.8622 484.0626 484.1979 484.3733
   484.6849 485.2585 485.3110 485.4553 485.5981 485.8752 485.9175 486.2725
   486.4788 488.0357 488.0629 488.2622 488.5220 488.5364 488.5783 489.4477
   489.8317 489.9802 490.1663 490.7367 491.6050 492.5377 494.0517 495.1336
   496.2746 497.1762 497.3644 497.8341 497.9455 498.6021 499.3533 499.3821
   501.4851 502.0541 502.3314 502.5934 502.6310 502.7095 502.7716 502.7833
   505.7418 506.6527 506.9363 507.0673 507.1111 507.3060 507.9935 508.0378
   508.2089 508.9119 509.5496 510.8264 513.8815 514.6681 515.5696 515.7657
   516.0854 516.4510 516.5592 517.1956 517.2281 517.2826 517.6849 518.3321
   518.3454 518.5867 518.6756 518.7266 519.1723 519.3979 519.8329 519.9433
   520.7941 521.7593 522.9613 522.9872 523.9490 524.7211 525.1815 525.1876
   525.5773 525.6034 529.7541 529.9552 530.1000 530.7916 530.8810 530.8811
   532.5064 532.7271 532.8694 533.7648 534.2624 534.4017 534.4547 535.0876
   535.5470 535.6008 536.4625 537.5253 537.6323 537.7952 538.7813 538.9094
   539.4202 539.4234 539.7199 541.2850 541.6688 542.0771 542.2123 542.4512
   542.4823 542.8971 542.9104 543.2855 544.0857 545.7226 545.8606 547.1522
   547.3079 550.5509 550.6289 551.7041 552.2563 552.8930 552.9399 553.2868
   553.4371 553.7317 554.7806 555.0379 555.0675 555.4756 556.0118 556.2649
   556.5323 556.6273 559.3953 559.4960 559.9500 561.1595 561.3354 561.4397
   561.9516 562.8920 563.0138 563.4219 567.8081 567.9343 568.0480 569.6397
   569.7666 570.3096 570.3684 570.4603 571.4548 572.2455 573.0821 573.5788
   573.6783 573.7438 573.8346 573.9301 573.9673 574.3403 575.4854 575.6966
   577.4406 577.9523 578.0349 578.5765 581.1527 581.2282 582.0067 582.0231
   582.0689 582.4765 582.5062 582.5432 585.0428 585.8626 585.8699 586.5709
   589.3330 589.4507 590.1662 591.2728 591.7244 591.7736 592.1324 592.2641
   593.2377 593.9641 593.9788 594.4592 594.5985 595.1840 595.2578 595.3854
   596.0370 596.0382 596.4656 596.9834 597.6409 597.8360 599.6349 599.6895
   601.1752 601.8736 601.9063 602.5335 602.5358 602.6965 603.1240 603.9499
   604.0747 604.3205 604.5290 605.1589 605.3389 605.3842 605.6275 605.8880
   605.9324 606.1021 606.3049 606.8841 607.1692 608.0121 608.1385 608.4538
   608.5290 608.5757 608.8639 611.0600 611.0857 613.5273 613.6054 613.7140
   613.8436 613.8811 614.0720 615.7446 615.8487 615.9358 615.9412 618.1712
   618.3489 618.4498 618.6735 618.7808 619.0684 619.2880 619.3201 619.6828
   619.7139 619.7331 620.3457 620.4078 620.4961 620.9877 624.3490 624.4451
   624.5667 624.8495 624.8962 624.9824 627.0101 627.2513 627.5573 627.8575
   628.6360 628.7908 628.7975 628.8525 628.8550 629.2989 629.3385 629.3974
   629.8180 630.1831 630.5634 630.7887 632.1417 632.1654 633.2144 633.3192
   633.5334 633.7595 635.3531 635.3680 635.7183 635.8613 635.9305 636.0321
   636.0682 636.4170 638.2655 638.7226 638.8099 639.4220 641.0572 641.4024
   641.5079 641.7985 641.9343 642.0430 643.1140 643.1221 643.2242 643.2378
   643.6088 643.6319 645.5910 645.6522 646.0072 646.0807 647.9498 647.9532
   648.0224 648.0707 648.4911 648.9957 649.3550 649.3825 649.8511 650.6418
   651.2254 651.6574 654.3050 654.3532 655.7191 655.9374 656.7747 656.9870
   657.1457 657.3233 657.4041 657.5818 658.4491 658.7090 658.7287 658.8397
   659.1555 659.4196 659.5681 659.8820 660.9712 660.9854 661.4445 661.4714
   661.8784 662.1870 662.4223 662.4475 663.4076 663.7920 664.6088 664.8013
   664.8127 664.8160 667.6154 667.7490 667.9516 667.9725 669.2423 669.5561
   669.6403 669.8750 671.4875 671.5834 671.6460 671.8002 672.0201 672.0537
   672.1811 672.2031 673.5643 673.5989 673.9452 675.9446 676.4866 680.1117
   680.3743 680.6664 680.9185 680.9826 681.0826 681.1242 681.4669 682.5030
   682.5253 682.9175 682.9436 683.3706 683.8586 689.3006 689.4701 689.8875
   690.0013 690.0502 690.4378 690.6364 690.7464 691.0713 692.7925 692.8391
   693.1302 693.4501 693.4853 693.5531 693.6343 693.7184 695.5252 695.7041
   696.0231 696.0967 696.1849 696.2942 696.8702 696.8905 697.7971 697.9513
   698.0831 698.0977 702.5337 702.5605 703.2466 703.5278 703.7499 703.7801
   703.7839 704.2733 704.4450 704.5725 704.6133 705.0864 705.6576 705.7657
   705.7775 705.8037 706.2966 706.5924 706.8178 706.9266 707.7486 707.7768
   708.0278 708.0950 708.6658 708.7303 709.0468 709.6084 709.6144 709.7144
   709.7717 710.2737 711.3502 711.9028 712.6342 712.7626 712.8876 713.1394
   715.8595 715.8813 715.8817 715.9478 718.0009 718.7341 718.7829 718.8829
   719.0187 719.0210 720.8539 721.1966 721.2615 721.3995 722.1462 722.2278
   722.5441 722.9312 724.4175 724.8254 725.2677 725.2711 725.6427 725.8933
   726.8928 726.9443 727.1824 727.2132 727.3163 727.7177 728.4597 728.4783
   730.9749 731.0213 733.4139 733.8167 734.7335 735.0433 735.1117 735.2217
   735.2358 735.3311 735.3718 735.4834 736.7831 736.8058 736.9004 736.9117
   737.2577 737.2727 737.3470 737.3713 737.3751 737.6336 739.1417 739.3221
   741.5892 741.7166 743.8849 743.8879 743.9153 743.9412 744.8644 745.9499
   746.0661 746.1595 746.4756 746.5903 747.2612 747.2713 747.3078 747.5429
   747.5512 749.2360 749.3571 749.6989 749.7123 751.7468 752.1168 753.1688
   753.2565 753.8845 754.0638 754.0985 754.1301 754.3829 754.3914 754.9317
   754.9364 758.2161 758.2730 758.4443 758.5350 758.7860 758.8942 759.0461
   759.0645 761.2921 761.4747 761.4849 764.2421 764.4187 764.4819 764.4911
   767.1768 767.5280 767.6212 767.8344 767.8762 768.0159 768.0777 768.1698
   768.2912 768.8543 769.2066 769.2377 769.5919 769.6010 771.2132 771.6467
   772.0172 772.5682 774.2633 774.3104 776.3827 776.4255 777.2601 777.3825
   777.4814 777.6564 777.6707 777.7383 778.2675 778.3463 778.4200 778.6395
   779.6361 780.1158 781.4740 781.7952 781.8940 781.8973 782.4656 782.6631

          k =-0.5000-1.0000 0.0000 (  2400 PWs)   bands (ev):

   -45.3434 -17.7759 -17.3740 -17.3740 -16.7665   0.7094   0.7094   1.0200
    15.1628  15.1628  17.3447  19.0380  25.7130  25.7130  29.2730  30.5831
    35.4930  36.3458  39.9398  39.9398  41.7788  41.7788  41.8222  44.5113
    50.3932  50.3932  51.1209  51.2182  53.6058  53.6058  55.7129  56.6522
    57.0366  57.0366  58.0867  61.0100  70.0954  70.0954  70.9279  75.0333
    77.0428  77.0428  78.5810  78.5810  78.9105  79.1981  79.3006  79.5670
    84.3060  84.3060  87.7118  87.9444  88.6649  90.1960  93.3720  93.3720
    94.3396  94.6075  94.6075  97.4214 100.5519 100.5519 103.4389 103.4389
   103.8458 104.6825 105.3741 105.9020 106.7682 106.7682 108.8339 109.6682
   110.6152 111.2707 114.3832 114.3832 118.8029 118.8029 121.7535 122.2980
   122.6744 122.6744 123.1712 123.2566 123.2706 123.5829 126.1003 126.1003
   128.7332 128.7332 130.9833 131.3713 131.3713 132.0014 132.9989 133.4134
   136.5388 136.8442 136.8442 137.0867 137.3998 137.6144 140.1694 140.1694
   144.3532 144.9316 146.8164 146.8164 150.6608 150.6608 152.7466 152.7466
   153.9921 154.9160 165.1548 165.2889 165.2889 165.3854 165.5121 166.0123
   166.0183 166.0183 169.2512 171.4073 172.3385 172.4444 172.4444 173.1109
   174.0558 174.6586 174.6586 174.6634 175.3350 175.7712 175.7712 176.5341
   176.5341 176.5839 176.9517 178.0635 179.8024 179.8024 180.7436 180.7564
   187.4383 187.4383 187.6820 187.6820 188.3203 188.5104 190.2499 190.6005
   191.0483 191.4904 191.7829 191.7829 193.2644 193.7208 196.5214 196.5214
   197.8940 197.8940 201.3086 202.5454 202.5454 202.9439 203.7991 204.1699
   204.3418 204.3418 204.3448 204.8334 207.6530 208.0043 209.2973 209.2973
   209.4076 209.4518 212.8798 212.8798 215.7270 215.7270 216.7454 217.5107
   218.1964 218.6358 218.9220 218.9220 219.6021 219.7210 219.8884 219.8884
   220.4588 220.5858 220.5858 220.6245 220.7272 222.1316 222.9883 222.9883
   230.4815 230.8031 231.4908 231.4908 233.0419 233.0419 234.1679 234.2781
   235.9446 235.9446 239.7523 240.9197 243.8468 243.8468 244.7403 244.7403
   248.0701 248.6637 248.7674 248.9219 248.9771 248.9771 250.2960 250.2960
   250.7392 252.4232 252.4488 252.7661 253.2802 254.4546 255.3880 255.3880
   256.6507 256.6507 259.1595 260.6246 260.6246 261.0986 261.5731 262.0239
   262.5543 262.5634 262.5634 263.5902 265.7747 265.7747 265.9655 266.0167
   266.9059 266.9059 266.9218 266.9733 273.0013 273.0013 273.2343 274.1382
   274.3968 275.0903 275.1839 275.1839 279.3896 279.3896 281.1596 281.3976
   282.1759 282.1759 283.7378 283.7378 285.6666 286.9533 287.3457 287.7837
   289.2872 290.6950 291.1050 291.1050 291.4502 291.7266 291.7266 291.8076
   292.7045 295.0058 296.9580 296.9580 299.4005 300.4101 303.9379 303.9379
   304.7104 305.1330 305.2113 305.2113 306.0360 306.0528 306.0528 306.3588
   306.4846 306.4846 306.5660 306.8476 306.8804 307.0545 308.0320 308.0320
   309.1133 309.2576 309.3515 309.3515 312.3788 312.3788 313.2179 314.7458
   314.7458 315.9500 317.4696 318.3068 318.5472 318.5472 318.9625 318.9915
   318.9915 319.6725 319.7075 319.7158 319.9841 320.1742 320.4799 320.4799
   325.2643 325.2717 325.2717 327.3608 330.0095 330.0346 330.0346 330.0937
   330.4870 330.4870 333.6740 333.6740 333.9542 334.2378 334.3991 334.3991
   334.3994 334.4357 335.0183 335.0183 335.1058 335.2355 335.2493 336.6647
   338.0724 338.0724 338.5858 338.5858 338.6873 338.7413 338.9656 338.9656
   339.0844 339.0956 342.6261 344.4526 344.6639 344.6639 345.1522 345.7396
   347.8393 348.4683 348.4683 349.0080 349.5133 349.5133 349.5512 349.5868
   353.3238 353.3238 353.3703 353.3784 359.2397 359.3884 359.3884 361.5109
   361.8144 361.8144 362.2237 362.2805 362.2805 362.7753 363.1846 363.1846
   363.2836 363.3988 363.6075 364.1819 370.9882 370.9882 372.6000 373.8556
   373.8556 374.2379 375.1322 376.0065 376.1606 376.1606 376.3375 376.8087
   377.0665 377.0665 377.2464 377.7906 381.4738 386.7171 387.0390 387.0390
   389.7308 389.7308 390.8265 390.8265 390.9572 391.1051 391.2791 391.5599
   391.5599 391.6438 391.6900 391.7630 391.8247 391.8247 392.0902 392.1891
   392.1891 392.3614 392.4798 392.4830 392.8457 392.8457 393.3697 393.3697
   393.3828 393.4378 393.4540 394.3994 395.6200 395.7618 397.5123 397.5123
   399.9230 400.3907 404.9680 404.9680 406.3512 406.3512 406.4999 406.5790
   406.6248 407.1894 410.0432 410.0432 410.4914 410.4914 410.5664 410.5665
   415.1025 415.5540 415.5540 416.3982 416.9901 416.9901 419.1555 419.7322
   420.1083 420.1083 420.4692 420.4692 420.5688 420.8412 421.1611 421.1611
   421.2244 421.2411 421.2470 422.1231 425.0570 425.0570 425.1724 425.1816
   426.7261 426.7261 428.6757 429.7818 430.3652 430.3652 430.5354 430.5354
   430.7101 431.6916 432.8641 433.4606 433.5889 433.7082 433.7082 434.3557
   434.3614 434.3614 434.4069 434.8343 434.8343 434.8685 435.2154 435.6390
   439.0230 439.0230 439.7452 439.7496 445.3934 445.3934 449.6281 449.9531
   449.9531 450.3008 450.3240 450.3933 450.8005 450.8005 452.0222 453.4990
   457.5668 458.9109 458.9109 460.6295 461.3710 461.3710 461.6441 461.8503
   462.1449 462.1449 462.4648 462.6202 462.8138 462.8138 462.8870 462.9526
   463.0110 463.0110 463.6666 463.9003 464.2279 464.2279 464.3476 464.4676
   464.6326 464.6715 464.6715 464.7669 467.5202 467.5538 467.5538 467.5940
   468.3141 469.4049 469.4049 471.4581 473.5502 473.5502 474.9107 475.3521
   475.6462 475.6462 475.7037 475.7470 477.7573 477.7573 478.1785 478.1785
   478.2742 478.4163 478.4602 478.5564 478.6572 478.6572 478.7169 478.7562
   478.9124 478.9795 479.1099 479.1099 479.3661 479.3661 479.5946 479.5988
   479.5988 479.6511 480.1091 480.1638 482.3258 482.3277 482.3277 482.3550
   482.9807 482.9977 482.9977 483.0004 489.4216 490.2283 490.2283 491.1896
   491.9839 492.1240 492.1240 492.4128 492.4128 492.5637 492.9277 492.9533
   499.5963 499.5963 501.0851 501.7904 502.8072 504.0149 504.0149 505.2160
   505.2534 505.2564 505.2564 505.9683 506.1830 506.1830 506.3172 506.3172
   506.3315 506.3353 507.0923 507.1594 507.3334 507.5318 507.5318 507.9337
   507.9547 507.9702 507.9702 507.9848 509.8303 510.7049 510.8582 510.8582
   510.8884 510.8961 515.7490 515.7490 516.4679 516.4813 517.3570 517.3570
   518.9472 519.2270 519.2270 519.4002 519.9350 519.9687 521.1995 521.3157
   521.3157 521.3482 521.6355 521.6355 521.6834 521.7062 522.0903 522.0903
   522.3440 522.6251 522.6251 522.6263 522.6336 522.7788 525.2289 525.2289
   525.8369 525.8369 525.8578 525.8626 533.9042 533.9042 534.5484 535.1752
   535.7885 535.7885 535.8389 535.8893 536.9297 536.9334 536.9407 536.9407
   537.1914 537.2170 537.2170 537.2590 543.2894 544.6537 544.6537 545.2342
   545.7840 545.7840 546.1238 546.1807 548.3339 548.3339 549.7332 549.9169
   549.9169 549.9260 549.9970 550.1070 554.0511 554.0511 554.8306 554.8311
   554.9120 554.9120 554.9246 554.9253 556.2380 556.2380 556.3690 557.9971
   560.3834 560.3834 561.2014 561.5604 563.6155 563.6155 564.1541 564.2212
   564.2259 564.2259 564.4586 564.6798 568.8358 568.8358 568.8807 568.8906
   570.0201 570.0201 572.0809 572.3014 573.3177 575.6369 575.6369 576.5954
   576.5954 576.6765 577.2928 577.3667 577.5035 577.5035 577.7308 577.8290
   577.8290 577.8476 577.9133 578.6190 578.6190 578.8359 578.8486 578.9140
   579.6331 579.8396 579.8396 579.9608 590.7246 590.7246 591.2208 592.1281
   592.4241 592.4241 592.5881 592.5966 592.6494 592.6494 592.9460 592.9569
   593.6013 593.6013 593.6319 593.6392 593.8523 593.8703 593.8703 593.9894
   599.2624 599.2624 601.9320 602.1098 602.2245 602.2245 602.2736 603.3198
   603.5479 603.5479 603.5620 604.6500 605.6998 606.0086 606.0086 606.4071
   606.5491 606.7048 606.9003 606.9003 607.0977 607.3808 607.3808 607.3924
   607.5843 607.5909 607.5909 607.6106 607.7184 607.7551 607.7551 607.8360
   607.8505 607.8505 608.0364 608.1165 608.1165 608.1171 608.2471 608.2471
   608.3477 608.3853 608.4201 608.4569 608.4734 608.4834 608.4834 608.7634
   608.7644 608.7644 608.7904 609.4799 612.1007 612.1017 612.1126 612.1126
   620.8626 621.0476 621.0476 621.2426 621.2820 621.2820 621.4491 621.8573
   621.8998 621.8998 622.0117 622.2274 622.2910 622.2910 622.3311 622.4043
   622.6761 622.6761 622.7765 623.3127 623.4175 623.4657 623.4657 623.5825
   623.8796 623.8796 623.8946 623.9012 630.8184 631.6499 631.6499 631.7148
   633.2603 633.2603 633.9514 634.1543 634.9618 634.9618 634.9619 635.3622
   638.8337 639.4350 641.1337 641.1337 641.1589 641.1668 646.2656 646.2656
   646.3446 647.8504 648.8286 648.8286 649.0789 649.2111 649.2111 649.2663
   649.5342 649.7434 650.0945 650.0945 650.1996 650.2279 650.5272 650.5272
   650.6092 651.3553 651.7005 651.7262 651.7262 651.9298 651.9527 651.9986
   651.9986 652.0308 652.2955 652.2955 652.3358 652.3839 652.3867 652.3867
   652.3867 652.4158 654.7103 654.7103 657.1537 657.1537 657.4004 657.6618
   662.7173 662.7173 663.0921 663.4636 664.6938 664.6938 664.8393 664.8730
   664.8730 664.8831 664.9296 665.3441 669.5900 669.5900 669.5945 669.5967
   673.9715 674.5619 674.5744 674.5744 674.8996 675.0644 675.0644 675.2846
   677.4899 677.4899 677.7135 678.1852 678.1962 678.1962 678.2113 678.4249
   678.8873 678.8873 678.9168 679.5572 679.9962 679.9962 680.0034 680.0174
   680.1678 680.1678 680.2565 680.3123 680.3123 680.3166 680.3232 680.8126
   683.5540 683.5540 684.1794 684.1901 684.1972 684.1972 684.3617 684.3654
   689.7137 689.7137 690.7057 690.7331 690.7949 691.0032 691.0032 691.0949
   691.6069 691.6069 691.6944 691.7188 693.4133 693.4133 693.8193 693.8334
   693.8361 693.8361 693.9690 694.0363 694.0363 694.0542 694.0565 694.1212
   694.1729 694.1729 694.2088 694.3844 694.5064 694.5064 694.5071 694.5753
   694.6704 694.7146 694.7146 694.7268 694.7487 694.7942 694.9551 694.9551
   695.1989 695.2315 695.2315 695.2998 706.9439 707.1425 707.1425 707.1576
   708.5861 708.5861 709.7252 709.7430 709.9671 709.9671 709.9702 710.0036
   710.2742 710.2742 710.5735 711.3656 719.8341 719.9673 719.9673 720.6046
   721.3090 721.3090 721.3839 721.3969 721.7053 721.7053 721.7465 722.0595
   723.0108 723.0108 723.0484 723.2046 723.2054 723.2054 723.2274 723.2397
   723.2404 723.2404 723.2478 723.4488 723.6802 723.6901 723.7369 723.7369
   726.5282 726.5569 726.5569 726.5699 733.6665 733.6665 733.7754 734.0254
   734.6030 734.6030 734.9775 735.0874 735.0982 735.0982 735.1164 735.1857
   736.7419 736.8710 736.8710 736.9830 736.9868 737.0261 737.0261 737.0930
   737.1591 737.1670 737.3166 737.3166 737.4460 737.4460 737.9284 737.9437
   738.0041 738.0041 738.0232 738.0911 738.0911 738.1319 738.1354 738.2539
   741.8970 741.9101 741.9101 741.9123 748.7333 748.7461 748.7461 748.9439
   750.7285 750.7285 750.9927 751.0339 751.0339 751.0342 751.0750 751.2084
   752.4087 752.4132 752.4132 752.4580 752.8924 752.8924 752.9030 752.9321
   756.4620 756.4620 757.1004 757.1808 760.6636 760.7293 760.7293 760.7957
   761.0982 761.0982 761.1595 761.1726 766.3229 766.3229 766.3914 766.3920
   766.4014 766.4014 766.4097 766.4257 769.6025 769.6025 769.6060 769.6251
   770.4641 770.4814 770.4942 770.4942 770.6227 770.6227 770.6423 770.6531
   775.2098 775.5674 775.6672 775.6672 777.3796 777.3796 778.1495 778.2101
   778.3918 778.4451 778.4451 778.4697 778.8648 778.8648 778.9227 779.5042
   779.5834 779.5834 779.6133 779.6289 780.3308 780.3308 780.3396 780.3717

     the Fermi energy is     6.5076 ev
     (compare with:     4.3896 eV, computed in scf)

     Writing all to output data dir out/mp-682.save/
 
     init_run     :      0.02s CPU      0.03s WALL (       1 calls)
     electrons    :    714.49s CPU    760.37s WALL (       1 calls)

     Called by init_run:
     wfcinit      :      0.00s CPU      0.00s WALL (       1 calls)
     potinit      :      0.00s CPU      0.01s WALL (       1 calls)
     hinit0       :      0.00s CPU      0.01s WALL (       1 calls)

     Called by electrons:
     c_bands      :    714.47s CPU    760.31s WALL (       1 calls)
     v_of_rho     :      0.00s CPU      0.00s WALL (       1 calls)

     Called by c_bands:
     init_us_2    :      0.00s CPU      0.00s WALL (      15 calls)
     init_us_2:cp :      0.00s CPU      0.00s WALL (      15 calls)
     paro_k       :    688.97s CPU    733.02s WALL (      15 calls)

     Called by paro_*:
     h_psi        :     14.86s CPU     15.77s WALL (    1452 calls)
     g_psi        :      0.30s CPU      0.35s WALL (  142231 calls)

     Called by h_psi:
     h_psi:calbec :      0.26s CPU      0.27s WALL (    1452 calls)
     vloc_psi     :     14.32s CPU     15.21s WALL (    1452 calls)
     add_vuspsi   :      0.14s CPU      0.14s WALL (    1452 calls)

     General routines
     calbec       :      0.25s CPU      0.27s WALL (    1452 calls)
     fft          :      0.00s CPU      0.00s WALL (      10 calls)
     fftw         :     12.80s CPU     13.61s WALL (  233942 calls)
 
     Parallel routines
 
     PWSCF        :  11m55.54s CPU  12m41.94s WALL

 
   This run was terminated on:  14: 9:14  14Nov2023            

=------------------------------------------------------------------------------=
   JOB DONE.
=------------------------------------------------------------------------------=
