
     Program PWSCF v.7.1 starts on 14Nov2023 at 13:56:20 

     This program is part of the open-source Quantum ESPRESSO suite
     for quantum simulation of materials; please cite
         "P. Giannozzi et al., J. Phys.:Condens. Matter 21 395502 (2009);
         "P. Giannozzi et al., J. Phys.:Condens. Matter 29 465901 (2017);
         "P. Giannozzi et al., J. Chem. Phys. 152 154105 (2020);
          URL http://www.quantum-espresso.org", 
     in publications or presentations arising from this work. More details at
     http://www.quantum-espresso.org/quote

     Parallel version (MPI), running on    24 processors

     MPI processes distributed on     1 nodes
     123240 MiB available memory on the printing compute node when the environment starts
 
     Reading input from pw_mp-682_scf_k3000_E92.in
Warning: card &CELL ignored
Warning: card / ignored

     Current dimensions of program PWSCF are:
     Max number of different atomic species (ntypx) = 10
     Max number of k-points (npk) =  40000
     Max angular momentum in pseudopotentials (lmaxx) =  4
 
     K-points division:     npool     =       2
     R & G space division:  proc/nbgrp/npool/nimage =      12
     Subspace diagonalization in iterative solution of the eigenvalue problem:
     a serial algorithm will be used

 
     Parallelization info
     --------------------
     sticks:   dense  smooth     PW     G-vecs:    dense   smooth      PW
     Min          79      79     23                 1599     1599     260
     Max          80      80     24                 1601     1601     263
     Sum         955     955    283                19195    19195    3143
 
     Using Slab Decomposition
 


     bravais-lattice index     =            2
     lattice parameter (alat)  =       8.6394  a.u.
     unit-cell volume          =     161.2111 (a.u.)^3
     number of atoms/cell      =            2
     number of atomic types    =            2
     number of electrons       =        16.00
     number of Kohn-Sham states=           16
     kinetic-energy cutoff     =      92.0000  Ry
     charge density cutoff     =     368.0000  Ry
     scf convergence threshold =      1.0E-10
     mixing beta               =       0.7000
     number of iterations used =            8  plain     mixing
     Exchange-correlation= PBE
                           (   1   4   3   4   0   0   0)

     celldm(1)=   8.639428  celldm(2)=   0.000000  celldm(3)=   0.000000
     celldm(4)=   0.000000  celldm(5)=   0.000000  celldm(6)=   0.000000

     crystal axes: (cart. coord. in units of alat)
               a(1) = (  -0.500000   0.000000   0.500000 )  
               a(2) = (   0.000000   0.500000   0.500000 )  
               a(3) = (  -0.500000   0.500000   0.000000 )  

     reciprocal axes: (cart. coord. in units 2 pi/alat)
               b(1) = ( -1.000000 -1.000000  1.000000 )  
               b(2) = (  1.000000  1.000000  1.000000 )  
               b(3) = ( -1.000000  1.000000 -1.000000 )  


     PseudoPot. # 1 for F  read from file:
     /usr/scratch4/magr4985/MG/HTDF/pseudo/SG15/F.upf
     MD5 check sum: 1d8275f47d602dd53cad6bcdc0eda7dc
     Pseudo is Norm-conserving, Zval =  7.0
     Generated using ONCVPSP code by D. R. Hamann
     Using radial grid of  602 points,  4 beta functions with: 
                l(1) =   0
                l(2) =   0
                l(3) =   1
                l(4) =   1

     PseudoPot. # 2 for Na read from file:
     /usr/scratch4/magr4985/MG/HTDF/pseudo/SG15/Na.upf
     MD5 check sum: 425b17ce8ead78efa4860b7b3310c7e3
     Pseudo is Norm-conserving, Zval =  9.0
     Generated using ONCVPSP code by D. R. Hamann
     Using radial grid of  602 points,  4 beta functions with: 
                l(1) =   0
                l(2) =   0
                l(3) =   1
                l(4) =   1

     atomic species   valence    mass     pseudopotential
        F              7.00    18.99840     F ( 1.00)
        Na             9.00    22.98980     Na( 1.00)

     48 Sym. Ops., with inversion, found



   Cartesian axes

     site n.     atom                  positions (alat units)
         1           Na  tau(   1) = (   0.0000000   0.0000000   0.0000000  )
         2           F   tau(   2) = (  -0.5000000   0.5000000   0.5000000  )

     number of k points=    72  Gaussian smearing, width (Ry)=  0.0005
                       cart. coord. in units 2pi/alat
        k(    1) = (   0.0000000   0.0000000   0.0000000), wk =   0.0011574
        k(    2) = (  -0.0833333   0.0833333  -0.0833333), wk =   0.0092593
        k(    3) = (  -0.1666667   0.1666667  -0.1666667), wk =   0.0092593
        k(    4) = (  -0.2500000   0.2500000  -0.2500000), wk =   0.0092593
        k(    5) = (  -0.3333333   0.3333333  -0.3333333), wk =   0.0092593
        k(    6) = (  -0.4166667   0.4166667  -0.4166667), wk =   0.0092593
        k(    7) = (   0.5000000  -0.5000000   0.5000000), wk =   0.0046296
        k(    8) = (   0.0000000   0.1666667   0.0000000), wk =   0.0069444
        k(    9) = (  -0.0833333   0.2500000  -0.0833333), wk =   0.0277778
        k(   10) = (  -0.1666667   0.3333333  -0.1666667), wk =   0.0277778
        k(   11) = (  -0.2500000   0.4166667  -0.2500000), wk =   0.0277778
        k(   12) = (  -0.3333333   0.5000000  -0.3333333), wk =   0.0277778
        k(   13) = (   0.5833333  -0.4166667   0.5833333), wk =   0.0277778
        k(   14) = (   0.5000000  -0.3333333   0.5000000), wk =   0.0277778
        k(   15) = (   0.4166667  -0.2500000   0.4166667), wk =   0.0277778
        k(   16) = (   0.3333333  -0.1666667   0.3333333), wk =   0.0277778
        k(   17) = (   0.2500000  -0.0833333   0.2500000), wk =   0.0277778
        k(   18) = (   0.1666667  -0.0000000   0.1666667), wk =   0.0138889
        k(   19) = (   0.0000000   0.3333333   0.0000000), wk =   0.0069444
        k(   20) = (  -0.0833333   0.4166667  -0.0833333), wk =   0.0277778
        k(   21) = (  -0.1666667   0.5000000  -0.1666667), wk =   0.0277778
        k(   22) = (  -0.2500000   0.5833333  -0.2500000), wk =   0.0277778
        k(   23) = (   0.6666667  -0.3333333   0.6666667), wk =   0.0277778
        k(   24) = (   0.5833333  -0.2500000   0.5833333), wk =   0.0277778
        k(   25) = (   0.5000000  -0.1666667   0.5000000), wk =   0.0277778
        k(   26) = (   0.4166667  -0.0833333   0.4166667), wk =   0.0277778
        k(   27) = (   0.3333333   0.0000000   0.3333333), wk =   0.0138889
        k(   28) = (   0.0000000   0.5000000   0.0000000), wk =   0.0069444
        k(   29) = (  -0.0833333   0.5833333  -0.0833333), wk =   0.0277778
        k(   30) = (  -0.1666667   0.6666667  -0.1666667), wk =   0.0277778
        k(   31) = (   0.7500000  -0.2500000   0.7500000), wk =   0.0277778
        k(   32) = (   0.6666667  -0.1666667   0.6666667), wk =   0.0277778
        k(   33) = (   0.5833333  -0.0833333   0.5833333), wk =   0.0277778
        k(   34) = (   0.5000000   0.0000000   0.5000000), wk =   0.0138889
        k(   35) = (   0.0000000   0.6666667   0.0000000), wk =   0.0069444
        k(   36) = (  -0.0833333   0.7500000  -0.0833333), wk =   0.0277778
        k(   37) = (   0.8333333  -0.1666667   0.8333333), wk =   0.0277778
        k(   38) = (   0.7500000  -0.0833333   0.7500000), wk =   0.0277778
        k(   39) = (   0.6666667  -0.0000000   0.6666667), wk =   0.0138889
        k(   40) = (   0.0000000   0.8333333   0.0000000), wk =   0.0069444
        k(   41) = (   0.9166667  -0.0833333   0.9166667), wk =   0.0277778
        k(   42) = (   0.8333333   0.0000000   0.8333333), wk =   0.0138889
        k(   43) = (   0.0000000  -1.0000000   0.0000000), wk =   0.0034722
        k(   44) = (  -0.1666667   0.3333333   0.0000000), wk =   0.0277778
        k(   45) = (  -0.2500000   0.4166667  -0.0833333), wk =   0.0555556
        k(   46) = (  -0.3333333   0.5000000  -0.1666667), wk =   0.0555556
        k(   47) = (   0.5833333  -0.4166667   0.7500000), wk =   0.0555556
        k(   48) = (   0.5000000  -0.3333333   0.6666667), wk =   0.0277778
        k(   49) = (  -0.1666667   0.5000000   0.0000000), wk =   0.0277778
        k(   50) = (  -0.2500000   0.5833333  -0.0833333), wk =   0.0555556
        k(   51) = (   0.6666667  -0.3333333   0.8333333), wk =   0.0555556
        k(   52) = (   0.5833333  -0.2500000   0.7500000), wk =   0.0555556
        k(   53) = (   0.5000000  -0.1666667   0.6666667), wk =   0.0555556
        k(   54) = (   0.4166667  -0.0833333   0.5833333), wk =   0.0555556
        k(   55) = (   0.3333333   0.0000000   0.5000000), wk =   0.0277778
        k(   56) = (  -0.1666667   0.6666667  -0.0000000), wk =   0.0277778
        k(   57) = (   0.7500000  -0.2500000   0.9166667), wk =   0.0555556
        k(   58) = (   0.6666667  -0.1666667   0.8333333), wk =   0.0555556
        k(   59) = (   0.5833333  -0.0833333   0.7500000), wk =   0.0555556
        k(   60) = (   0.5000000   0.0000000   0.6666667), wk =   0.0277778
        k(   61) = (   0.8333333  -0.1666667   1.0000000), wk =   0.0277778
        k(   62) = (   0.7500000  -0.0833333   0.9166667), wk =   0.0555556
        k(   63) = (   0.6666667   0.0000000   0.8333333), wk =   0.0277778
        k(   64) = (  -0.1666667  -1.0000000  -0.0000000), wk =   0.0138889
        k(   65) = (   0.6666667  -0.3333333   1.0000000), wk =   0.0277778
        k(   66) = (   0.5833333  -0.2500000   0.9166667), wk =   0.0555556
        k(   67) = (   0.5000000  -0.1666667   0.8333333), wk =   0.0277778
        k(   68) = (   0.6666667  -0.1666667   1.0000000), wk =   0.0277778
        k(   69) = (   0.5833333  -0.0833333   0.9166667), wk =   0.0555556
        k(   70) = (   0.5000000   0.0000000   0.8333333), wk =   0.0277778
        k(   71) = (  -0.3333333  -1.0000000   0.0000000), wk =   0.0138889
        k(   72) = (  -0.5000000  -1.0000000   0.0000000), wk =   0.0069444

     Dense  grid:    19195 G-vectors     FFT dimensions: (  40,  40,  40)

     Estimated max dynamical RAM per process >       2.38 MB

     Estimated total dynamical RAM >      52.37 MB

     Initial potential from superposition of free atoms

     starting charge      15.8629, renormalised to      16.0000
     Starting wfcs are random

     total cpu time spent up to now is        3.5 secs

     Self-consistent Calculation

     iteration #  1     ecut=    92.00 Ry     beta= 0.70
     Davidson diagonalization with overlap
     ethr =  1.00E-02,  avg # of iterations =  7.4

     Threshold (ethr) on eigenvalues was too large:
     Diagonalizing with lowered threshold

     Davidson diagonalization with overlap
     ethr =  9.29E-04,  avg # of iterations =  1.3

     total cpu time spent up to now is        4.6 secs

     total energy              =    -133.14269656 Ry
     estimated scf accuracy    <       0.15221128 Ry

     iteration #  2     ecut=    92.00 Ry     beta= 0.70
     Davidson diagonalization with overlap
     ethr =  9.51E-04,  avg # of iterations =  2.1

     total cpu time spent up to now is        4.9 secs

     total energy              =    -133.17985561 Ry
     estimated scf accuracy    <       0.10537006 Ry

     iteration #  3     ecut=    92.00 Ry     beta= 0.70
     Davidson diagonalization with overlap
     ethr =  6.59E-04,  avg # of iterations =  1.8

     total cpu time spent up to now is        5.2 secs

     total energy              =    -133.20232219 Ry
     estimated scf accuracy    <       0.00125499 Ry

     iteration #  4     ecut=    92.00 Ry     beta= 0.70
     Davidson diagonalization with overlap
     ethr =  7.84E-06,  avg # of iterations =  4.3

     total cpu time spent up to now is        5.6 secs

     total energy              =    -133.20260236 Ry
     estimated scf accuracy    <       0.00001038 Ry

     iteration #  5     ecut=    92.00 Ry     beta= 0.70
     Davidson diagonalization with overlap
     ethr =  6.49E-08,  avg # of iterations =  2.3

     total cpu time spent up to now is        5.9 secs

     total energy              =    -133.20260614 Ry
     estimated scf accuracy    <       0.00000112 Ry

     iteration #  6     ecut=    92.00 Ry     beta= 0.70
     Davidson diagonalization with overlap
     ethr =  6.97E-09,  avg # of iterations =  2.0

     total cpu time spent up to now is        6.2 secs

     total energy              =    -133.20260639 Ry
     estimated scf accuracy    <       0.00000006 Ry

     iteration #  7     ecut=    92.00 Ry     beta= 0.70
     Davidson diagonalization with overlap
     ethr =  3.79E-10,  avg # of iterations =  1.0

     total cpu time spent up to now is        6.5 secs

     total energy              =    -133.20260639 Ry
     estimated scf accuracy    <          4.0E-10 Ry

     iteration #  8     ecut=    92.00 Ry     beta= 0.70
     Davidson diagonalization with overlap
     ethr =  2.50E-12,  avg # of iterations =  2.0

     total cpu time spent up to now is        6.8 secs

     total energy              =    -133.20260639 Ry
     estimated scf accuracy    <          1.2E-10 Ry

     iteration #  9     ecut=    92.00 Ry     beta= 0.70
     Davidson diagonalization with overlap
     ethr =  7.52E-13,  avg # of iterations =  2.0

     total cpu time spent up to now is        7.1 secs

     End of self-consistent calculation

          k = 0.0000 0.0000 0.0000 (  2421 PWs)   bands (ev):

   -45.3642 -17.5271 -17.2648 -17.2648 -17.2648   1.6185   1.6185   1.6185
     8.1954  21.0545  21.0545  21.0545  23.8919  26.3236  26.3236  29.1736

          k =-0.0833 0.0833-0.0833 (  2409 PWs)   bands (ev):

   -45.3631 -17.6514 -17.2657 -17.2657 -17.1310   1.4739   1.6000   1.6000
     8.4522  20.0309  21.1687  21.1687  25.0523  26.0051  26.0051  29.1954

          k =-0.1667 0.1667-0.1667 (  2397 PWs)   bands (ev):

   -45.3602 -17.8323 -17.2681 -17.2681 -16.9239   1.1150   1.5499   1.5499
     9.1408  18.4985  21.4740  21.4740  25.4381  25.4381  26.4643  29.7631

          k =-0.2500 0.2500-0.2500 (  2418 PWs)   bands (ev):

   -45.3563 -17.9902 -17.2714 -17.2714 -16.7297   0.6864   1.4822   1.4822
    10.0947  17.1276  21.8515  21.8515  25.0299  25.0299  26.6772  30.9860

          k =-0.3333 0.3333-0.3333 (  2424 PWs)   bands (ev):

   -45.3524 -18.1097 -17.2748 -17.2748 -16.5734   0.3067   1.4154   1.4154
    11.1550  15.9617  22.1275  22.1275  24.9421  24.9421  26.4094  30.5435

          k =-0.4167 0.4167-0.4167 (  2413 PWs)   bands (ev):

   -45.3494 -18.1838 -17.2772 -17.2772 -16.4720   0.0514   1.3671   1.3671
    12.1593  14.9899  22.2303  22.2303  25.0888  25.0888  26.1852  29.7356

          k = 0.5000-0.5000 0.5000 (  2392 PWs)   bands (ev):

   -45.3484 -18.2089 -17.2781 -17.2781 -16.4368  -0.0382   1.3495   1.3495
    12.7042  14.4741  22.2455  22.2455  25.1878  25.1878  26.1116  29.4088

          k = 0.0000 0.1667 0.0000 (  2389 PWs)   bands (ev):

   -45.3628 -17.6714 -17.2687 -17.2687 -17.1030   1.4443   1.5872   1.5872
     8.5353  19.8863  21.1242  21.1242  25.3438  25.4585  26.5099  29.4944

          k =-0.0833 0.2500-0.0833 (  2403 PWs)   bands (ev):

   -45.3605 -17.7986 -17.2731 -17.2707 -16.9548   1.1783   1.5422   1.5451
     9.0738  18.7251  21.2808  21.3543  24.5162  26.4087  26.8751  29.6685

          k =-0.1667 0.3333-0.1667 (  2412 PWs)   bands (ev):

   -45.3569 -17.9396 -17.2775 -17.2727 -16.7831   0.7994   1.4775   1.4779
     9.9333  17.4463  21.5494  21.6823  23.9108  26.0921  27.4779  30.4263

          k =-0.2500 0.4167-0.2500 (  2408 PWs)   bands (ev):

   -45.3530 -18.0577 -17.2808 -17.2766 -16.6308   0.4302   1.3994   1.4118
    10.9587  16.3026  21.7948  21.8184  23.7896  25.8740  27.3592  30.9807

          k =-0.3333 0.5000-0.3333 (  2412 PWs)   bands (ev):

   -45.3497 -18.1391 -17.2822 -17.2813 -16.5203   0.1536   1.3316   1.3612
    12.0003  15.3100  21.6437  22.0211  24.0824  25.7515  27.1923  30.5386

          k = 0.5833-0.4167 0.5833 (  2406 PWs)   bands (ev):

   -45.3481 -18.1778 -17.2857 -17.2812 -16.4660   0.0186   1.2920   1.3390
    12.7962  14.5784  21.4588  22.1783  24.4632  25.5366  27.0862  30.2137

          k = 0.5000-0.3333 0.5000 (  2408 PWs)   bands (ev):

   -45.3484 -18.1715 -17.2883 -17.2782 -16.4747   0.0464   1.2907   1.3508
    12.5905  14.7736  21.3399  22.3428  24.8096  25.0702  27.0560  30.3524

          k = 0.4167-0.2500 0.4167 (  2407 PWs)   bands (ev):

   -45.3507 -18.1207 -17.2884 -17.2738 -16.5454   0.2323   1.3282   1.3940
    11.6590  15.6363  21.2848  22.4971  24.4546  25.0955  27.1544  30.9058

          k = 0.3333-0.1667 0.3333 (  2414 PWs)   bands (ev):

   -45.3543 -18.0287 -17.2855 -17.2694 -16.6694   0.5456   1.3958   1.4574
    10.6058  16.6762  21.2440  22.4027  24.1525  25.3540  27.3402  31.3744

          k = 0.2500-0.0833 0.2500 (  2413 PWs)   bands (ev):

   -45.3582 -17.9031 -17.2802 -17.2661 -16.8307   0.9259   1.4773   1.5245
     9.6195  17.8555  21.1757  21.9307  24.4933  25.6811  27.2755  30.1908

          k = 0.1667-0.0000 0.1667 (  2401 PWs)   bands (ev):

   -45.3615 -17.7611 -17.2729 -17.2647 -17.0035   1.2760   1.5530   1.5770
     8.8497  19.1061  21.1263  21.4510  25.2009  26.0325  26.2351  29.4913

          k = 0.0000 0.3333 0.0000 (  2405 PWs)   bands (ev):

   -45.3589 -17.8241 -17.2796 -17.2796 -16.9096   1.0560   1.5040   1.5040
     9.4315  18.2687  21.3048  21.3048  23.4132  27.0643  28.2708  29.6155

          k =-0.0833 0.4167-0.0833 (  2411 PWs)   bands (ev):

   -45.3560 -17.8937 -17.2859 -17.2842 -16.8169   0.8018   1.4378   1.4461
    10.1382  17.3929  21.4084  21.4663  22.5731  27.1778  29.2150  29.6320

          k =-0.1667 0.5000-0.1667 (  2398 PWs)   bands (ev):

   -45.3524 -17.9744 -17.2904 -17.2891 -16.7104   0.5239   1.3409   1.3844
    11.0736  16.4730  21.0375  21.6756  22.4993  27.0450  29.2065  29.8889

          k =-0.2500 0.5833-0.2500 (  2401 PWs)   bands (ev):

   -45.3492 -18.0426 -17.2970 -17.2918 -16.6159   0.2977   1.2352   1.3349
    12.1050  15.6130  20.4869  21.8726  22.7870  26.8468  29.2497  30.1504

          k = 0.6667-0.3333 0.6667 (  2390 PWs)   bands (ev):

   -45.3472 -18.0869 -17.3064 -17.2898 -16.5517   0.1670   1.1515   1.3104
    13.0510  14.8461  20.0893  22.0565  23.1292  26.4844  29.0373  31.0988

          k = 0.5833-0.2500 0.5833 (  2400 PWs)   bands (ev):

   -45.3469 -18.1025 -17.3137 -17.2848 -16.5290   0.1510   1.1151   1.3170
    13.2412  14.7105  19.8929  22.2724  23.6019  25.7900  28.8085  31.7792

          k = 0.5000-0.1667 0.5000 (  2407 PWs)   bands (ev):

   -45.3485 -18.0883 -17.3154 -17.2783 -16.5523   0.2482   1.1403   1.3535
    12.4136  15.4274  19.9299  22.5737  24.2236  24.7906  28.7042  31.4751

          k = 0.4167-0.0833 0.4167 (  2402 PWs)   bands (ev):

   -45.3514 -18.0461 -17.3097 -17.2720 -16.6188   0.4372   1.2257   1.4106
    11.3932  16.2428  20.2105  22.9702  23.7479  24.8696  28.6568  31.1523

          k = 0.3333 0.0000 0.3333 (  2411 PWs)   bands (ev):

   -45.3550 -17.9809 -17.2968 -17.2675 -16.7181   0.6802   1.3515   1.4733
    10.4142  17.0612  20.6706  22.6398  23.7236  25.3946  28.3083  30.6606

          k = 0.0000 0.5000 0.0000 (  2413 PWs)   bands (ev):

   -45.3538 -17.8709 -17.2945 -17.2945 -16.8245   0.6779   1.3959   1.3959
    10.6749  16.9335  21.2782  21.5328  21.5328  27.9689  28.8098  31.5967

          k =-0.0833 0.5833-0.0833 (  2407 PWs)   bands (ev):

   -45.3508 -17.8778 -17.3023 -17.3009 -16.8019   0.5134   1.3143   1.3411
    11.4740  16.3242  20.2085  21.6711  21.7738  28.2562  28.4814  31.8490

          k =-0.1667 0.6667-0.1667 (  2395 PWs)   bands (ev):

   -45.3480 -17.9059 -17.3156 -17.3035 -16.7516   0.3859   1.1791   1.2959
    12.4393  15.7247  19.3539  21.8230  21.9386  28.2067  28.7053  31.6088

          k = 0.7500-0.2500 0.7500 (  2405 PWs)   bands (ev):

   -45.3460 -17.9435 -17.3342 -17.3015 -16.6882   0.3292   1.0220   1.2719
    13.4348  15.1322  18.7621  21.9729  22.0561  27.8763  29.4628  31.1833

          k = 0.6667-0.1667 0.6667 (  2397 PWs)   bands (ev):

   -45.3453 -17.9825 -17.3481 -17.2954 -16.6312   0.3366   0.9034   1.2753
    13.9867  14.8008  18.4754  22.1454  22.3873  27.0944  30.3008  30.9660

          k = 0.5833-0.0833 0.5833 (  2393 PWs)   bands (ev):

   -45.3463 -18.0173 -17.3486 -17.2870 -16.5962   0.3621   0.8993   1.3054
    13.2995  15.3529  18.6070  22.3837  23.0704  25.8907  30.1648  31.2257

          k = 0.5000 0.0000 0.5000 (  2395 PWs)   bands (ev):

   -45.3485 -18.0408 -17.3339 -17.2784 -16.5919   0.3828   1.0314   1.3548
    12.3403  15.8402  19.2350  22.7178  23.9886  24.6181  29.6640  31.1119

          k = 0.0000 0.6667 0.0000 (  2397 PWs)   bands (ev):

   -45.3486 -17.7939 -17.3096 -17.3096 -16.8839   0.4312   1.2938   1.2938
    12.1248  15.9637  19.1924  21.7449  21.7449  27.6537  29.1706  33.6188

          k =-0.0833 0.7500-0.0833 (  2405 PWs)   bands (ev):

   -45.3464 -17.7492 -17.3252 -17.3141 -16.9147   0.3668   1.2068   1.2549
    12.9771  15.5927  18.2581  21.7720  21.8439  27.4584  29.5680  33.5283

          k = 0.8333-0.1667 0.8333 (  2398 PWs)   bands (ev):

   -45.3448 -17.7589 -17.3612 -17.3131 -16.8663   0.3749   1.0335   1.2342
    13.9372  15.2594  17.5447  21.6245  21.9428  28.0177  29.5365  32.6019

          k = 0.7500-0.0833 0.7500 (  2389 PWs)   bands (ev):

   -45.3441 -17.8238 -17.3842 -17.3071 -16.7718   0.4721   0.8044   1.2370
    14.6657  14.9899  17.1992  21.6252  22.0491  28.8366  29.1017  31.3948

          k = 0.6667-0.0000 0.6667 (  2381 PWs)   bands (ev):

   -45.3447 -17.9211 -17.3763 -17.2975 -16.6735   0.5472   0.6733   1.2629
    14.1412  15.3003  17.5675  22.1110  22.1900  27.3779  30.4164  31.1116

          k = 0.0000 0.8333 0.0000 (  2394 PWs)   bands (ev):

   -45.3449 -17.6106 -17.3207 -17.3207 -17.0679   0.3196   1.2226   1.2226
    13.7023  15.3780  17.2536  21.8934  21.8934  26.7185  30.4860  34.2020

          k = 0.9167-0.0833 0.9167 (  2407 PWs)   bands (ev):

   -45.3439 -17.5511 -17.3771 -17.3217 -17.0729   0.3222   1.1430   1.2070
    14.5642  15.2228  16.4461  21.7667  21.9430  26.8529  30.8881  33.0913

          k = 0.8333 0.0000 0.8333 (  2402 PWs)   bands (ev):

   -45.3436 -17.6504 -17.4107 -17.3167 -16.9330   0.3957   0.9678   1.2122
    15.0824  15.1487  16.2473  21.5000  21.9890  27.7757  30.8820  31.1633

          k = 0.0000-1.0000 0.0000 (  2402 PWs)   bands (ev):

   -45.3436 -17.4239 -17.3248 -17.3248 -17.2577   0.2920   1.1972   1.1972
    15.1307  15.1822  15.7116  21.9467  21.9467  26.3639  31.2139  34.2168

          k =-0.1667 0.3333 0.0000 (  2403 PWs)   bands (ev):

   -45.3579 -17.8849 -17.2842 -17.2713 -16.8426   0.9322   1.4622   1.5062
     9.6928  17.8549  21.1085  21.7820  23.6440  26.4285  28.0749  29.8415

          k =-0.2500 0.4167-0.0833 (  2409 PWs)   bands (ev):

   -45.3543 -17.9797 -17.2941 -17.2735 -16.7163   0.6294   1.3618   1.4454
    10.5837  16.8780  20.8871  22.2872  23.1222  26.1561  28.5533  30.2873

          k =-0.3333 0.5000-0.1667 (  2408 PWs)   bands (ev):

   -45.3507 -18.0584 -17.3001 -17.2782 -16.6072   0.3544   1.2678   1.3807
    11.6075  15.9469  20.6480  22.2304  23.4665  25.8266  28.5430  30.7435

          k = 0.5833-0.4167 0.7500 (  2403 PWs)   bands (ev):

   -45.3481 -18.1091 -17.3022 -17.2836 -16.5345   0.1665   1.2017   1.3324
    12.6103  15.0907  20.4705  22.0122  24.0377  25.5219  28.5353  31.2802

          k = 0.5000-0.3333 0.6667 (  2398 PWs)   bands (ev):

   -45.3471 -18.1266 -17.3022 -17.2862 -16.5090   0.1002   1.1780   1.3146
    13.1918  14.5763  20.4094  21.9273  24.2877  25.3783  28.5436  31.3594

          k =-0.1667 0.5000 0.0000 (  2402 PWs)   bands (ev):

   -45.3530 -17.9242 -17.2998 -17.2862 -16.7642   0.6109   1.3443   1.3965
    10.8848  16.7299  20.8057  21.8983  22.0263  27.3451  29.2341  30.4005

          k =-0.2500 0.5833-0.0833 (  2403 PWs)   bands (ev):

   -45.3498 -17.9627 -17.3111 -17.2914 -16.7001   0.4344   1.2238   1.3346
    11.8281  16.0533  20.0587  21.5608  22.6576  27.1118  29.3744  30.7233

          k = 0.6667-0.3333 0.8333 (  2412 PWs)   bands (ev):

   -45.3472 -17.9975 -17.3195 -17.2982 -16.6409   0.3143   1.1005   1.2861
    12.8393  15.3824  19.4868  21.3309  23.2301  26.7153  29.9596  30.6697

          k = 0.5833-0.2500 0.7500 (  2400 PWs)   bands (ev):

   -45.3459 -18.0221 -17.3277 -17.2991 -16.6002   0.2651   1.0128   1.2677
    13.6785  14.7714  19.1681  21.2713  23.7265  26.1779  30.4128  30.9939

          k = 0.5000-0.1667 0.6667 (  2403 PWs)   bands (ev):

   -45.3463 -18.0334 -17.3324 -17.2932 -16.5871   0.2820   0.9975   1.2838
    13.4051  15.0256  19.1288  21.4637  24.2270  25.4294  30.2563  31.1641

          k = 0.4167-0.0833 0.5833 (  2404 PWs)   bands (ev):

   -45.3482 -18.0301 -17.3282 -17.2846 -16.6051   0.3533   1.0696   1.3288
    12.4665  15.6887  19.4315  21.8663  24.1860  25.1218  30.0082  30.6693

          k = 0.3333 0.0000 0.5000 (  2403 PWs)   bands (ev):

   -45.3511 -18.0117 -17.3141 -17.2771 -16.6514   0.4719   1.2077   1.3891
    11.4707  16.2920  20.0686  22.3912  23.2476  25.7118  29.5919  30.3306

          k =-0.1667 0.6667-0.0000 (  2409 PWs)   bands (ev):

   -45.3483 -17.8513 -17.3155 -17.3079 -16.8122   0.4192   1.2326   1.2805
    12.2934  15.8800  19.2413  21.3927  22.2149  28.1039  28.6306  32.9370

          k = 0.7500-0.2500 0.9167 (  2396 PWs)   bands (ev):

   -45.3460 -17.8494 -17.3340 -17.3171 -16.7850   0.3825   1.0884   1.2302
    13.2515  15.4712  18.4531  21.0054  22.7237  28.0576  28.7844  32.3461

          k = 0.6667-0.1667 0.8333 (  2395 PWs)   bands (ev):

   -45.3447 -17.8739 -17.3578 -17.3158 -16.7313   0.4182   0.9042   1.2133
    14.1814  15.0376  17.9565  20.7495  23.1616  27.6686  29.3984  31.5484

          k = 0.5833-0.0833 0.7500 (  2390 PWs)   bands (ev):

   -45.3447 -17.9218 -17.3662 -17.3073 -16.6731   0.4773   0.7762   1.2294
    14.2252  15.1037  17.8901  20.8470  23.6360  26.6943  30.3937  31.0508

          k = 0.5000 0.0000 0.6667 (  2386 PWs)   bands (ev):

   -45.3459 -17.9798 -17.3539 -17.2955 -16.6278   0.4230   0.8656   1.2724
    13.4010  15.4757  18.4242  21.2876  24.2712  25.4324  30.6936  31.1211

          k = 0.8333-0.1667 1.0000 (  2399 PWs)   bands (ev):

   -45.3448 -17.6867 -17.3478 -17.3271 -16.9482   0.3530   1.1547   1.1887
    13.8330  15.3572  17.3930  21.2781  22.3396  27.3775  29.9310  32.6626

          k = 0.7500-0.0833 0.9167 (  2396 PWs)   bands (ev):

   -45.3438 -17.6991 -17.3899 -17.3293 -16.8868   0.4122   0.9885   1.1678
    14.7162  15.1722  16.8139  20.7496  22.7672  27.9899  29.6019  31.4214

          k = 0.6667 0.0000 0.8333 (  2393 PWs)   bands (ev):

   -45.3438 -17.7955 -17.3928 -17.3210 -16.7806   0.5403   0.7598   1.1864
    14.8409  15.1867  16.9421  20.5434  23.1503  28.2810  29.0972  31.0089

          k =-0.1667-1.0000-0.0000 (  2406 PWs)   bands (ev):

   -45.3435 -17.5398 -17.4172 -17.3314 -17.0328   0.3445   1.1269   1.1524
    15.1353  15.1811  15.9861  21.2331  22.3838  27.0959  31.1698  31.6069

          k = 0.6667-0.3333 1.0000 (  2409 PWs)   bands (ev):

   -45.3473 -17.9456 -17.3317 -17.3020 -16.6875   0.3985   1.0718   1.2668
    12.7523  15.6869  19.1286  20.9495  23.5255  26.5791  29.5473  31.8534

          k = 0.5833-0.2500 0.9167 (  2408 PWs)   bands (ev):

   -45.3454 -17.9293 -17.3456 -17.3162 -16.6768   0.4154   0.9266   1.2086
    13.7064  15.2904  18.5003  20.4028  24.3882  25.9694  29.9611  31.5867

          k = 0.5000-0.1667 0.8333 (  2396 PWs)   bands (ev):

   -45.3447 -17.9224 -17.3502 -17.3231 -16.6727   0.4376   0.8588   1.1862
    14.3504  14.8835  18.2844  20.1748  24.8730  25.5975  30.4026  30.9825

          k = 0.6667-0.1667 1.0000 (  2399 PWs)   bands (ev):

   -45.3445 -17.8080 -17.3516 -17.3446 -16.7853   0.4443   0.9769   1.1335
    14.1517  15.3053  17.7498  20.1447  23.6354  27.5767  28.9428  31.5349

          k = 0.5833-0.0833 0.9167 (  2400 PWs)   bands (ev):

   -45.3438 -17.8066 -17.3744 -17.3483 -16.7581   0.5640   0.8037   1.0980
    14.8799  15.0928  17.4427  19.6018  24.4506  26.8100  29.3359  30.8571

          k = 0.5000 0.0000 0.8333 (  2402 PWs)   bands (ev):

   -45.3441 -17.8555 -17.3686 -17.3371 -16.7182   0.5796   0.7504   1.1334
    14.5174  15.2427  17.7365  19.7081  25.1864  25.6726  29.8645  30.8273

          k =-0.3333-1.0000 0.0000 (  2402 PWs)   bands (ev):

   -45.3435 -17.7133 -17.3989 -17.3493 -16.8391   0.4932   0.9431   1.0638
    15.1474  15.1752  16.7154  19.8986  23.6656  28.4156  28.4440  30.9288

          k =-0.5000-1.0000 0.0000 (  2400 PWs)   bands (ev):

   -45.3434 -17.7759 -17.3740 -17.3740 -16.7665   0.7094   0.7094   1.0200
    15.1627  15.1627  17.3447  19.0380  25.7130  25.7130  29.2730  30.5831

     the Fermi energy is     4.3896 ev

!    total energy              =    -133.20260639 Ry
     estimated scf accuracy    <          5.0E-13 Ry
     smearing contrib. (-TS)   =      -0.00000000 Ry
     internal energy E=F+TS    =    -133.20260639 Ry

     The total energy is F=E-TS. E is the sum of the following terms:
     one-electron contribution =     -64.76801693 Ry
     hartree contribution      =      38.45967357 Ry
     xc contribution           =     -22.01151087 Ry
     ewald contribution        =     -84.88275216 Ry

     convergence has been achieved in   9 iterations

     Writing all to output data dir out/mp-682.save/
 
     init_run     :      1.14s CPU      3.42s WALL (       1 calls)
     electrons    :      3.21s CPU      3.66s WALL (       1 calls)

     Called by init_run:
     wfcinit      :      1.12s CPU      3.37s WALL (       1 calls)
     potinit      :      0.00s CPU      0.01s WALL (       1 calls)
     hinit0       :      0.00s CPU      0.04s WALL (       1 calls)

     Called by electrons:
     c_bands      :      2.69s CPU      3.03s WALL (      10 calls)
     sum_band     :      0.47s CPU      0.52s WALL (      10 calls)
     v_of_rho     :      0.03s CPU      0.03s WALL (      10 calls)
     mix_rho      :      0.02s CPU      0.03s WALL (      10 calls)

     Called by c_bands:
     init_us_2    :      0.03s CPU      0.03s WALL (     756 calls)
     init_us_2:cp :      0.03s CPU      0.03s WALL (     756 calls)
     cegterg      :      2.48s CPU      2.65s WALL (     360 calls)

     Called by *egterg:
     cdiaghg      :      0.35s CPU      0.37s WALL (    1294 calls)
     h_psi        :      3.02s CPU      3.34s WALL (    1366 calls)
     g_psi        :      0.01s CPU      0.01s WALL (     970 calls)

     Called by h_psi:
     h_psi:calbec :      0.04s CPU      0.05s WALL (    1366 calls)
     vloc_psi     :      2.94s CPU      3.25s WALL (    1366 calls)
     add_vuspsi   :      0.02s CPU      0.03s WALL (    1366 calls)

     General routines
     calbec       :      0.04s CPU      0.04s WALL (    1366 calls)
     fft          :      0.01s CPU      0.05s WALL (     100 calls)
     ffts         :      0.00s CPU      0.00s WALL (      10 calls)
     fftw         :      3.11s CPU      3.43s WALL (   37432 calls)
     davcio       :      0.05s CPU      2.28s WALL (    1238 calls)
 
     Parallel routines
 
     PWSCF        :      4.46s CPU      7.54s WALL

 
   This run was terminated on:  13:56:28  14Nov2023            

=------------------------------------------------------------------------------=
   JOB DONE.
=------------------------------------------------------------------------------=
