
     Program PWSCF v.7.1 starts on 14Nov2023 at 11:38:43 

     This program is part of the open-source Quantum ESPRESSO suite
     for quantum simulation of materials; please cite
         "P. Giannozzi et al., J. Phys.:Condens. Matter 21 395502 (2009);
         "P. Giannozzi et al., J. Phys.:Condens. Matter 29 465901 (2017);
         "P. Giannozzi et al., J. Chem. Phys. 152 154105 (2020);
          URL http://www.quantum-espresso.org", 
     in publications or presentations arising from this work. More details at
     http://www.quantum-espresso.org/quote

     Parallel version (MPI), running on    24 processors

     MPI processes distributed on     1 nodes
     123278 MiB available memory on the printing compute node when the environment starts
 
     Reading input from pw_mp-682_nscf_k260_E92.in
Warning: card &IONS ignored
Warning: card / ignored
Warning: card &CELL ignored
Warning: card / ignored

     Current dimensions of program PWSCF are:
     Max number of different atomic species (ntypx) = 10
     Max number of k-points (npk) =  40000
     Max angular momentum in pseudopotentials (lmaxx) =  4

     Atomic positions and unit cell read from directory:
     out/mp-682.save/
     Atomic positions from file used, from input discarded
 
 
     K-points division:     npool     =       2
     R & G space division:  proc/nbgrp/npool/nimage =      12
     Subspace diagonalization in iterative solution of the eigenvalue problem:
     one sub-group per band group will be used
     scalapack distributed-memory algorithm (size of sub-group:  3*  3 procs)

 
     Parallelization info
     --------------------
     sticks:   dense  smooth     PW     G-vecs:    dense   smooth      PW
     Min          79      79     23                 1599     1599     260
     Max          80      80     24                 1601     1601     263
     Sum         955     955    283                19195    19195    3143
 
     Using Slab Decomposition
 


     bravais-lattice index     =            2
     lattice parameter (alat)  =       8.6394  a.u.
     unit-cell volume          =     161.2111 (a.u.)^3
     number of atoms/cell      =            2
     number of atomic types    =            2
     number of electrons       =        16.00
     number of Kohn-Sham states=         1200
     kinetic-energy cutoff     =      92.0000  Ry
     charge density cutoff     =     368.0000  Ry
     Exchange-correlation= PBE
                           (   1   4   3   4   0   0   0)

     celldm(1)=   8.639428  celldm(2)=   0.000000  celldm(3)=   0.000000
     celldm(4)=   0.000000  celldm(5)=   0.000000  celldm(6)=   0.000000

     crystal axes: (cart. coord. in units of alat)
               a(1) = (  -0.500000   0.000000   0.500000 )  
               a(2) = (   0.000000   0.500000   0.500000 )  
               a(3) = (  -0.500000   0.500000   0.000000 )  

     reciprocal axes: (cart. coord. in units 2 pi/alat)
               b(1) = ( -1.000000 -1.000000  1.000000 )  
               b(2) = (  1.000000  1.000000  1.000000 )  
               b(3) = ( -1.000000  1.000000 -1.000000 )  


     PseudoPot. # 1 for F  read from file:
     /usr/scratch4/magr4985/MG/HTDF/pseudo/SG15/F.upf
     MD5 check sum: 1d8275f47d602dd53cad6bcdc0eda7dc
     Pseudo is Norm-conserving, Zval =  7.0
     Generated using ONCVPSP code by D. R. Hamann
     Using radial grid of  602 points,  4 beta functions with: 
                l(1) =   0
                l(2) =   0
                l(3) =   1
                l(4) =   1

     PseudoPot. # 2 for Na read from file:
     /usr/scratch4/magr4985/MG/HTDF/pseudo/SG15/Na.upf
     MD5 check sum: 425b17ce8ead78efa4860b7b3310c7e3
     Pseudo is Norm-conserving, Zval =  9.0
     Generated using ONCVPSP code by D. R. Hamann
     Using radial grid of  602 points,  4 beta functions with: 
                l(1) =   0
                l(2) =   0
                l(3) =   1
                l(4) =   1

     atomic species   valence    mass     pseudopotential
        F              7.00    18.99840     F ( 1.00)
        Na             9.00    22.98980     Na( 1.00)

     48 Sym. Ops., with inversion, found



   Cartesian axes

     site n.     atom                  positions (alat units)
         1           Na  tau(   1) = (   0.0000000   0.0000000   0.0000000  )
         2           F   tau(   2) = (  -0.5000000   0.5000000   0.5000000  )

     number of k points=    16  Gaussian smearing, width (Ry)=  0.0005
                       cart. coord. in units 2pi/alat
        k(    1) = (   0.0000000   0.0000000   0.0000000), wk =   0.0092593
        k(    2) = (  -0.1666667   0.1666667  -0.1666667), wk =   0.0740741
        k(    3) = (  -0.3333333   0.3333333  -0.3333333), wk =   0.0740741
        k(    4) = (   0.5000000  -0.5000000   0.5000000), wk =   0.0370370
        k(    5) = (   0.0000000   0.3333333   0.0000000), wk =   0.0555556
        k(    6) = (  -0.1666667   0.5000000  -0.1666667), wk =   0.2222222
        k(    7) = (   0.6666667  -0.3333333   0.6666667), wk =   0.2222222
        k(    8) = (   0.5000000  -0.1666667   0.5000000), wk =   0.2222222
        k(    9) = (   0.3333333   0.0000000   0.3333333), wk =   0.1111111
        k(   10) = (   0.0000000   0.6666667   0.0000000), wk =   0.0555556
        k(   11) = (   0.8333333  -0.1666667   0.8333333), wk =   0.2222222
        k(   12) = (   0.6666667  -0.0000000   0.6666667), wk =   0.1111111
        k(   13) = (   0.0000000  -1.0000000   0.0000000), wk =   0.0277778
        k(   14) = (   0.6666667  -0.3333333   1.0000000), wk =   0.2222222
        k(   15) = (   0.5000000  -0.1666667   0.8333333), wk =   0.2222222
        k(   16) = (  -0.3333333  -1.0000000   0.0000000), wk =   0.1111111

     Dense  grid:    19195 G-vectors     FFT dimensions: (  40,  40,  40)

     Estimated max dynamical RAM per process >      74.87 MB

     Estimated total dynamical RAM >       1.75 GB

     The potential is recalculated from file :
     out/mp-682.save/charge-density

     Starting wfcs are random

     Band Structure Calculation
     ParO style diagonalization

     ethr =  5.00E-06,  avg # of iterations =  5.5

     total cpu time spent up to now is      408.4 secs

     End of band structure calculation

          k = 0.0000 0.0000 0.0000 (  2421 PWs)   bands (ev):

   -45.3642 -17.5271 -17.2648 -17.2648 -17.2648   1.6185   1.6185   1.6185
     8.1954  21.0545  21.0545  21.0545  23.8919  26.3236  26.3236  29.1736
    29.1736  29.1736  36.2919  36.2919  36.2919  41.8615  51.1760  51.1760
    51.1760  52.7277  55.4661  55.4661  55.9197  55.9197  55.9197  65.0008
    65.0008  68.4835  68.4835  68.4835  71.1555  71.1555  71.1555  75.6114
    75.6114  75.6114  76.7711  76.7711  76.7711  78.1893  78.1893  78.1893
    78.3555  80.4798  80.4798  80.4798  81.0085  81.0085  81.0954  81.3291
    81.3291  81.3291  82.1547  90.6034  90.6034  90.6034  98.9475  98.9475
    98.9475 104.9495 104.9495 106.6101 118.3627 118.3627 118.3627 121.9677
   123.4860 123.4860 123.4860 128.7316 128.7316 129.3757 129.3757 129.3757
   131.8905 132.6814 132.6814 132.6814 133.6900 133.6900 134.1301 135.0870
   135.0870 135.0870 136.2493 136.2493 136.2493 137.0046 137.0046 137.0046
   137.1968 137.1968 137.1968 137.2165 137.2165 139.2366 139.2366 139.2366
   140.6794 140.6794 140.6794 142.0133 142.0133 143.0041 143.0041 143.0041
   143.7402 152.7597 152.7597 152.7597 156.4195 156.4195 156.4195 162.7002
   162.7002 162.7002 163.4012 165.6072 169.2936 169.2936 169.4878 169.4878
   169.4878 169.8260 169.8260 169.8260 170.0405 170.0405 170.0405 170.1255
   170.1255 170.1255 170.2649 170.2649 172.7113 172.7113 180.8330 185.1805
   185.1805 185.1805 185.6405 185.6405 185.6405 188.0865 190.1575 190.2986
   190.2986 190.2986 190.6753 190.6753 190.6753 191.6276 191.6276 191.6276
   191.8294 191.8294 191.8294 195.4111 195.4111 195.4691 195.4691 195.4691
   195.5712 200.7173 200.7173 200.7173 215.3983 215.3983 215.3983 221.8155
   221.8155 221.8155 222.8828 222.8828 223.1922 223.1922 223.1922 225.2308
   234.3720 234.3720 234.3720 235.7754 235.7754 235.7754 236.5298 236.5298
   237.9344 237.9344 237.9344 241.6598 243.4696 243.4696 243.4696 244.8435
   244.8435 244.8435 245.3387 245.3387 246.4780 246.7856 246.7856 246.9701
   246.9701 246.9701 247.5857 247.5857 247.5857 247.9859 248.0209 248.3483
   248.3483 248.3483 249.5854 249.5854 249.5854 249.6000 249.6000 250.3573
   250.3573 250.3573 250.9804 250.9804 250.9804 251.5077 251.6482 251.6482
   251.6482 252.1567 252.1567 252.1567 252.2810 252.2810 252.7679 252.7679
   252.7679 253.0526 255.3449 255.5835 255.5835 255.5835 255.9439 255.9439
   255.9439 255.9842 255.9842 256.2844 256.2844 256.2844 256.3789 256.3789
   256.3789 256.4499 256.4499 271.5409 271.5409 271.5409 275.9314 275.9314
   280.8385 280.8385 280.8385 281.0432 281.0432 281.0432 281.2500 281.2500
   281.2500 281.5862 281.5862 281.5862 281.8354 286.0744 286.0744 286.1363
   286.1363 286.1363 286.2654 288.0278 288.0278 288.0278 297.5832 297.5832
   297.5832 297.9501 303.1252 305.1674 305.1674 305.1674 305.7115 305.7115
   305.8857 305.8857 305.8857 306.0286 306.0286 306.0286 306.2234 306.2234
   306.2234 306.2766 306.2766 306.2766 306.4376 306.4376 310.7119 310.7119
   310.7119 311.0287 311.0287 311.2934 311.4357 311.4357 311.4357 311.5978
   311.5978 311.5978 311.8016 311.8016 311.8016 312.1308 312.1308 312.1308
   312.3680 312.3680 314.6619 328.6014 328.6014 328.6014 336.5960 336.5960
   336.5960 338.7115 338.7115 338.7115 338.8843 341.0539 343.6882 343.6882
   351.9579 353.1305 353.1305 353.1305 353.8348 353.8348 353.8348 354.7387
   354.7387 354.7387 354.9543 354.9543 354.9543 355.6890 355.6890 360.8220
   362.0384 362.0384 362.0384 362.5956 362.5956 362.5956 362.7889 362.7889
   362.7889 362.8000 362.8000 363.0457 363.0457 363.0457 363.3407 363.3407
   363.3407 363.4571 363.4571 363.4571 365.0586 365.4502 365.4502 365.4502
   365.7378 365.7378 365.7378 365.8809 365.8809 365.9810 365.9810 365.9810
   368.0510 368.0715 368.0715 368.0715 368.0950 368.0950 369.8610 369.8610
   369.8610 369.9845 369.9845 370.1913 370.2756 370.2756 370.2756 370.5694
   370.5694 370.5694 370.8026 386.5551 386.5551 386.5551 391.2706 391.3267
   391.3267 391.3267 395.2099 395.2099 395.3212 395.3212 395.3212 395.4294
   395.4294 395.4294 395.7030 395.7030 395.7030 396.0023 396.0023 396.0023
   396.1499 396.1499 398.2162 398.6501 398.6501 398.6501 400.0521 400.0521
   400.1805 400.1805 400.1805 400.2488 400.2488 400.2488 400.3440 400.3440
   400.3440 400.3916 400.3916 400.3916 400.5067 400.5067 401.7909 401.8090
   401.8090 401.8090 401.8533 401.8533 401.8533 401.9206 408.7140 408.7140
   408.7140 408.9220 408.9220 411.0355 411.0355 411.0355 411.2065 412.1978
   412.1978 412.1978 413.0533 413.0533 413.0533 415.1334 415.1334 415.1334
   415.9330 416.4288 416.4288 416.4288 416.8330 416.8330 417.2820 417.2820
   417.2820 417.9021 419.1728 420.3422 420.3422 421.0536 421.0536 421.0536
   421.2758 421.2758 421.2758 421.2931 421.2931 421.2931 421.9565 421.9565
   422.0035 422.0035 422.0035 422.4047 422.6009 422.6009 422.6009 422.6508
   422.6508 424.0039 424.0039 424.0039 424.1108 424.1108 424.1108 424.2453
   424.2453 424.2453 424.3214 424.3214 424.3214 425.1322 425.1920 425.1920
   425.1920 425.2326 425.2326 443.9054 443.9054 443.9054 448.2142 448.2142
   452.0418 466.1215 466.1215 466.1215 474.9258 474.9258 474.9258 475.3845
   475.3845 475.3845 475.5613 475.6795 475.6795 476.1546 476.1546 476.1546
   476.4173 476.4173 476.4173 476.4946 476.4946 476.4946 476.7222 476.7222
   476.7222 476.8378 476.8378 476.9031 476.9031 476.9031 477.0480 477.0955
   477.0955 477.8096 477.8096 477.8096 478.7137 478.8630 481.9782 481.9782
   481.9782 482.1711 482.1711 482.1711 482.5102 482.5102 482.5102 482.6793
   482.6793 482.6793 482.9055 485.9929 485.9929 485.9968 485.9968 486.0557
   486.0557 486.0557 486.0747 486.0747 486.0747 486.2097 486.2097 486.2097
   486.2750 486.2750 486.2750 487.5288 487.5288 487.5315 487.5315 487.5315
   487.6267 505.1727 505.1727 505.1727 509.1989 509.1989 509.1989 509.4125
   509.4125 509.4195 509.4195 509.4195 512.4417 512.4696 512.4696 512.4696
   512.6738 512.6738 512.9124 512.9124 512.9124 513.2698 513.2698 513.2698
   513.2963 513.2963 513.2963 513.5185 513.5185 513.5185 513.5310 513.5443
   513.5443 513.5542 513.5542 513.5542 514.2690 517.9525 517.9525 517.9525
   522.3707 522.3707 522.3707 522.8439 522.8439 522.8811 522.8811 522.8811
   528.6297 531.8528 532.5628 532.5628 532.5628 532.5803 532.5803 532.5803
   532.7267 532.7267 532.8191 532.8191 532.8191 533.0148 533.0148 533.0148
   533.1014 533.1014 533.1014 533.3735 534.1034 537.3362 537.3362 537.3650
   537.3650 537.3650 537.4536 537.4536 537.4536 537.5404 537.5404 537.5404
   537.6018 539.0490 539.0490 539.0490 539.5205 539.5205 539.5205 539.5349
   539.5349 539.5956 539.5956 539.5956 539.6640 539.6640 539.6640 539.7172
   540.4741 540.4741 540.4741 540.8592 540.8592 540.8889 540.8889 540.8889
   541.0032 541.5085 541.5085 541.5085 541.7420 541.7420 541.7420 541.9919
   541.9919 541.9948 541.9948 541.9948 542.5784 563.5142 563.5142 563.5142
   567.1253 567.1253 568.1764 568.1764 568.1764 568.1873 568.1873 568.1873
   568.2777 568.2777 568.2777 568.4098 568.4098 568.4098 569.1346 569.1346
   569.2499 569.2499 569.2499 569.4126 569.6683 573.0470 573.0470 573.0470
   574.5596 574.5596 577.8577 582.9426 582.9426 582.9426 584.4447 584.4447
   584.4447 584.5533 588.0558 588.8992 588.8992 588.8992 589.1686 589.1686
   589.1686 589.2472 589.2472 589.2472 589.2938 589.2938 589.3069 589.3069
   589.3069 589.4836 589.4836 592.9853 592.9853 592.9853 593.0879 593.0879
   593.0879 593.1722 593.1722 593.1722 593.2215 593.2215 593.2215 594.1958
   594.1958 594.3352 594.3352 594.3352 594.3743 594.3743 594.3743 594.3977
   594.3977 594.4130 594.4130 594.4130 594.5535 594.5535 594.5535 594.5805
   594.5805 594.5805 595.7633 595.7633 595.7633 595.8633 595.9700 595.9700
   595.9700 595.9718 595.9718 595.9718 595.9941 596.0056 596.3094 596.3094
   596.3094 596.3425 596.3425 596.5252 596.5252 596.5252 596.5756 596.5756
   596.5756 596.7544 596.7544 596.7544 596.8438 596.8438 598.2944 598.3637
   598.3637 598.3637 598.3988 598.3988 598.9410 601.2805 601.2805 601.3713
   601.3713 601.3713 601.5645 601.5645 601.5645 601.5693 601.5693 601.5693
   601.6614 601.7150 601.7150 601.7150 601.8119 601.8119 601.8278 601.8278
   601.8278 601.9861 601.9861 601.9861 602.0818 620.3473 620.3473 620.3473
   621.2834 621.3384 621.3384 621.3384 622.6487 629.9372 629.9372 629.9645
   629.9645 629.9645 629.9762 629.9762 629.9762 629.9801 629.9801 629.9801
   630.0294 630.0294 630.0766 630.0766 630.0766 637.5356 637.5356 637.5356
   639.3653 639.3653 642.1290 642.7854 642.7854 642.7854 642.9456 642.9456
   642.9456 642.9566 642.9566 642.9566 643.0246 643.0246 643.0246 647.5839
   647.5839 647.6445 647.6445 647.6445 647.6505 651.8428 651.8542 651.8542
   651.8542 651.8897 651.8897 654.1798 654.1798 654.1798 654.2035 654.2035
   654.2035 654.2054 654.2054 654.2054 654.2606 654.2606 654.2606 655.3357
   655.3357 655.3613 655.3613 655.3613 655.4410 681.3712 681.3712 681.3712
   683.9257 683.9257 683.9257 684.1020 684.6584 684.6584 684.7292 684.7565
   684.7565 684.7565 684.8313 684.8313 684.8313 684.9255 684.9255 684.9255
   684.9317 684.9317 684.9317 685.0106 685.0106 693.3086 693.3086 693.3086
   697.1555 697.1555 697.1555 698.4250 698.6337 699.2704 699.2704 699.2968
   699.2968 699.2968 700.9810 700.9810 700.9810 701.8425 701.8425 701.8425
   702.6159 703.8902 703.8902 703.8902 704.8842 704.8842 705.5068 705.5068
   705.5068 705.7114 705.7114 705.7114 705.8136 705.8136 705.8302 705.8302
   705.8302 706.1526 706.1526 706.1526 706.5633 707.1715 707.1715 707.1715
   707.3552 707.3552 707.4854 707.4854 707.4854 707.5291 707.6225 707.6225
   707.6225 707.7756 707.7756 707.7756 707.8513 707.8513 708.2046 708.2046
   708.2046 708.6751 709.7445 709.7445 709.7445 709.7720 709.7720 709.7720
   709.7898 709.7898 709.8677 709.8677 709.8973 709.8973 709.8973 709.9343
   709.9343 709.9343 710.8006 711.2618 711.2618 711.2673 711.2673 711.2673
   711.2681 711.2681 711.2681 711.3006 711.3006 711.3006 711.3392 715.5547
   715.5565 715.5565 715.5565 715.5596 715.5596 715.5596 715.5896 715.5896
   715.5896 715.6099 715.6099 734.8805 734.8805 734.8805 735.9387 735.9387
   736.7888 739.1708 739.1708 739.1708 739.5262 739.5262 739.5262 740.0287
   740.0287 740.0287 740.1747 740.5015 740.5015 740.6244 740.6244 740.6244
   740.7692 740.7692 740.7692 740.8301 740.8705 740.8705 740.8705 740.9645
   740.9645 741.4656 741.4656 741.4656 741.7678 741.7678 741.7678 741.8042
   741.8042 741.8042 742.0880 742.0880 742.0880 745.1561 745.1561 745.2417
   745.2930 745.2930 745.2930 745.3192 745.3192 745.3192 745.4339 745.4339
   745.4339 745.4365 745.4365 745.4365 745.4492 745.4492 745.5767 745.5767
   745.5767 745.7041 745.7041 745.7041 745.8121 746.6824 746.6824 746.7352
   746.7352 746.7352 746.8600 755.3311 755.3311 755.3311 756.9140 756.9140
   756.9140 757.1083 757.1083 757.1154 757.1154 757.1154 758.6025 758.7525
   758.7525 758.7525 758.8863 758.8863 758.9382 758.9382 758.9382 759.2040
   759.2040 759.2040 759.4073 762.7547 763.0951 763.0951 763.0951 763.3903
   763.3903 763.3903 763.8057 763.8057 763.8295 763.8295 763.8295 764.9940
   765.1732 765.1732 765.1732 765.3612 765.3612 765.3612 765.5321 765.5321
   765.5321 765.5429 765.5429 768.6968 768.6968 768.6968 768.6970 768.6970
   768.8382 768.8382 768.8382 768.9643 768.9643 768.9643 769.1027 769.1116

          k =-0.1667 0.1667-0.1667 (  2397 PWs)   bands (ev):

   -45.3602 -17.8323 -17.2681 -17.2681 -16.9239   1.1150   1.5499   1.5499
     9.1408  18.4985  21.4740  21.4740  25.4381  25.4381  26.4643  29.7631
    30.4301  30.4301  34.5080  37.0937  37.0937  43.8958  46.8146  46.8146
    51.7381  53.5786  54.0393  54.0393  56.5171  62.2714  62.2714  63.4873
    63.4873  65.2627  66.3812  67.4498  67.4498  68.9114  68.9114  70.6206
    70.6206  70.8664  74.9285  75.3827  75.4420  75.4420  78.8180  80.8495
    80.8649  80.8649  81.5272  81.5272  84.4914  84.4914  85.2877  87.0557
    88.1819  90.9361  90.9361  91.1760  91.1760  95.0670  97.4432  97.5932
    97.5932 104.9036 104.9036 106.1483 116.0594 116.0594 116.9222 118.5522
   118.5522 119.6852 122.6369 122.6369 123.8398 125.3958 125.3958 126.6855
   126.6855 126.6902 126.9214 126.9214 127.8614 129.4123 130.6539 133.7615
   133.7615 134.4250 134.4250 135.4448 135.6115 135.7199 138.1856 138.1856
   138.4973 139.3555 139.3555 141.4800 141.4800 143.0242 144.1714 144.1714
   145.6569 145.7491 148.5664 149.6827 149.6827 150.8214 150.8214 151.2075
   151.2075 152.5919 152.7145 152.7145 153.5295 153.5295 155.6362 155.6362
   156.7548 157.3918 160.6582 160.6582 161.0617 164.3043 164.3043 167.3795
   168.1491 168.8436 168.8436 169.2373 171.0701 171.0701 174.1907 175.8862
   175.8862 177.6721 177.6721 177.7309 179.1178 179.5029 179.7566 179.7566
   179.8785 179.8785 180.1444 180.4366 183.2935 183.7418 183.7418 185.7841
   185.8268 185.8268 189.3345 189.3345 194.2375 194.2375 195.9215 196.3901
   197.5139 197.5139 199.1683 201.8978 201.8978 203.0304 203.1843 203.1843
   206.4279 208.7262 208.7262 209.8136 209.8136 210.4538 211.4472 211.4472
   212.5362 217.6047 222.7379 222.7379 223.7505 223.8747 223.8747 224.1689
   225.1795 225.1795 227.5721 229.3632 229.9196 230.1483 230.1483 231.7071
   231.7071 233.1434 233.1434 233.2294 233.5907 233.5907 235.7927 235.8073
   235.8073 237.0705 237.4521 237.4521 238.5158 240.3808 240.3808 241.4693
   243.8181 243.8181 245.2418 245.3495 245.3495 245.7845 246.5602 246.5602
   247.4930 247.7036 248.0194 248.0194 249.1336 249.1336 249.1671 249.8858
   251.0309 251.0309 251.8280 252.5586 252.5586 253.4454 253.4454 253.6616
   256.4859 256.4859 256.9375 256.9649 257.4924 258.5821 258.5821 258.8089
   258.8089 260.0302 260.0302 261.2848 262.5863 262.5863 264.2384 264.2384
   264.5206 264.5206 264.8994 265.3872 265.3895 267.6716 269.2514 269.2514
   269.3517 269.6893 269.6893 270.1721 270.1721 270.6538 271.1448 272.6601
   272.6601 272.9997 273.7011 275.1379 275.1379 275.2283 279.8983 279.8983
   280.3875 280.3875 283.0575 283.0575 285.1664 286.1038 286.1038 288.4753
   288.4923 288.4923 290.6605 293.0241 293.0241 293.3559 294.4487 294.4487
   294.7817 295.8501 296.0813 296.0813 297.7949 297.7949 298.0036 298.6695
   298.6695 299.9450 299.9623 299.9623 302.7723 303.0388 303.0388 303.8158
   303.8158 304.1322 304.8942 306.2298 306.2298 307.4576 309.8818 311.2469
   313.9706 313.9706 315.5132 315.5132 317.3621 318.3846 318.4117 318.4117
   318.7158 320.8884 320.8884 324.4978 324.4978 324.7154 326.5530 326.5530
   326.6718 328.7110 328.7110 328.8017 330.6615 331.7647 331.7647 332.5663
   332.9807 332.9807 333.0883 335.9325 335.9325 338.4334 338.4334 338.4701
   341.9378 341.9378 342.7305 343.7036 343.7036 345.6456 346.2386 346.2386
   346.4174 346.4174 346.4437 346.9220 346.9220 347.1825 349.2379 349.2379
   350.0018 353.5732 353.5770 353.5770 355.1652 355.1652 355.2736 356.4318
   356.4318 356.7165 358.9246 360.4688 360.4688 361.0339 361.2517 361.2517
   362.0067 364.0447 366.5099 366.5099 366.5876 366.9861 366.9861 367.0385
   367.6329 367.6329 368.1761 371.4502 371.4502 372.1751 372.1751 372.9082
   373.3201 373.3201 373.4151 373.6963 373.8245 375.1847 375.1847 376.1766
   376.8797 376.8797 379.3561 379.3561 380.1856 380.2455 380.6765 380.6765
   380.7809 381.2417 381.2417 382.0369 384.1568 384.1568 385.3326 385.7784
   385.7784 387.1697 387.1979 387.1979 387.9673 387.9673 389.0814 389.1349
   389.1349 389.2386 390.0646 390.2971 390.2971 390.5972 390.9951 390.9951
   391.4202 391.4202 392.0771 393.3960 393.3960 394.5891 394.5891 395.0342
   395.6123 395.9651 395.9651 396.7499 396.7499 397.4911 398.6564 399.4215
   399.4215 400.0804 400.1008 400.1008 400.3202 401.1028 401.1028 401.1712
   402.0538 402.0538 402.2542 402.7186 402.7186 404.5601 405.8087 405.8087
   405.8519 406.6897 406.6897 407.3501 407.9710 407.9710 408.0483 410.1664
   410.1664 410.7490 412.9030 412.9030 413.8171 414.8876 414.8876 414.9356
   415.5966 415.8523 415.8523 416.5393 416.5393 416.5991 418.2686 418.2686
   418.4409 420.1168 420.1168 420.1509 421.6578 421.6578 422.1609 423.2628
   424.7613 424.7613 424.7879 426.0267 426.0267 427.8539 427.8539 429.0637
   429.0637 429.4758 429.6016 429.6016 429.8141 431.1829 432.5028 432.5028
   432.6356 433.7833 433.7833 434.1409 434.9661 436.0511 436.0511 437.6005
   437.6105 437.6105 439.9476 440.3036 440.3036 442.4615 443.8595 445.8260
   445.8260 445.8296 447.1350 447.1350 448.8246 449.9591 449.9591 450.2447
   451.9034 451.9034 453.5749 453.5749 454.3249 454.3249 455.2866 458.1405
   458.1405 460.2238 460.2238 460.2738 460.4613 460.5513 460.5513 461.0548
   462.6985 462.6985 464.3969 466.0519 466.0519 466.4748 467.0895 467.0895
   470.2760 471.2195 471.5940 471.5940 472.3701 472.3701 472.6913 473.8035
   473.8035 474.7573 478.5882 478.5882 479.1207 479.6406 479.7070 479.7070
   480.5314 481.1442 481.1442 484.1731 484.1731 485.1318 485.1318 485.2966
   487.3715 489.6449 491.3725 491.3725 493.3774 493.3774 493.6866 493.6866
   493.7862 494.0949 494.0949 494.1730 494.3549 494.3549 494.3666 494.8235
   494.8235 495.1283 496.0604 496.5347 496.5347 497.3005 498.7265 498.7505
   499.4899 499.4899 500.9960 500.9960 501.3611 502.7838 503.2750 503.2750
   503.8167 503.8167 504.2188 504.3142 504.5732 504.5732 507.2397 507.8532
   508.0352 508.0352 508.3063 508.3063 509.1196 509.1196 509.4065 509.7711
   509.7711 510.1080 510.1080 510.1688 510.4450 510.4984 510.4984 510.8212
   512.1808 512.1808 512.2052 512.3265 516.1240 516.1240 517.7984 518.0778
   518.0778 520.0640 520.0640 520.5481 520.5481 521.0482 521.5305 522.9703
   522.9703 523.3928 523.4043 523.4043 523.8990 531.7814 531.7814 531.7871
   532.6234 532.6234 532.6931 533.5374 533.5374 533.9899 533.9899 534.0432
   534.1325 535.0514 535.1603 535.1603 535.4869 535.4869 535.6539 536.3938
   536.3938 536.5529 537.2604 537.2604 537.3230 537.3730 538.8162 538.8162
   539.3965 539.3965 540.5811 540.5811 540.6157 540.8070 542.2930 542.2930
   542.6678 543.5636 543.5636 543.8569 544.5369 544.5369 544.6145 545.0645
   545.0645 545.6595 546.3986 546.3986 546.6442 546.6442 546.6945 546.9122
   547.7812 550.7813 550.7813 551.2686 551.9533 551.9533 554.4231 554.4231
   555.3597 558.8371 558.8371 559.0783 559.0783 559.7288 559.7288 559.7968
   559.8026 560.6266 561.3465 561.3465 561.5988 562.6259 563.7331 563.7331
   565.4408 565.4934 565.4934 566.1385 566.1385 566.3120 567.1670 567.1670
   567.3895 568.6794 568.6794 568.9319 569.6821 569.6821 569.8998 570.4042
   570.8462 570.8462 571.0171 571.2504 571.8149 571.8149 572.6721 572.6721
   573.0809 573.9745 574.0767 574.0767 575.1678 575.1678 575.2224 575.2337
   575.4019 575.4019 576.7453 576.7453 578.3139 578.8470 578.8470 578.9145
   579.0459 579.0828 579.0828 579.5017 579.5017 580.0354 580.5458 580.5458
   580.5916 583.6000 585.5899 585.5899 585.9767 585.9767 586.0072 586.0550
   587.6628 587.6628 588.1272 589.6673 589.6673 591.1175 591.9415 591.9415
   592.2561 592.2561 592.4610 592.7045 592.7045 592.7342 594.3138 594.3138
   594.4259 596.4078 596.4358 596.4358 597.4122 597.4122 597.4499 597.7870
   597.7870 597.9077 597.9077 598.1356 598.6387 601.1980 601.1980 602.1774
   603.1270 603.1270 603.6109 604.3074 604.4540 604.4540 606.5872 606.5872
   606.7838 607.0780 607.0780 607.1280 611.2508 611.4384 611.4384 611.9941
   611.9941 612.6319 613.0211 613.0211 613.2344 613.2650 613.2650 613.6679
   614.0949 614.0949 614.2476 615.1400 615.3134 615.3134 616.7021 616.7021
   616.8362 616.9448 616.9448 617.0839 617.2695 617.2695 617.4383 620.3790
   620.9962 620.9962 621.0500 622.1784 622.1784 622.5229 623.7634 623.7634
   624.1255 624.2131 624.2131 624.5852 624.5852 624.6013 624.7491 625.7009
   625.7009 625.7491 625.9773 625.9773 628.6519 628.6519 629.2216 629.7204
   630.4177 630.4177 631.0118 631.0118 631.4092 631.4092 631.4480 632.5489
   632.9586 632.9586 633.5517 635.6841 635.6841 635.9787 639.1172 639.1172
   639.1268 640.1910 640.1910 640.2370 642.0499 642.0499 642.0947 645.6603
   647.0741 647.0741 648.1143 648.1143 648.1298 654.3350 654.3350 655.1329
   657.7189 659.9527 660.0991 660.0991 660.1791 664.0199 664.0199 665.0436
   666.0583 666.0583 666.2308 666.2308 666.3244 666.8989 667.4213 667.4213
   667.9380 668.5363 668.5363 668.8328 668.8328 668.9123 668.9749 668.9749
   671.5476 671.9085 671.9085 672.0736 672.0736 672.1515 674.1480 674.1480
   674.3786 674.5665 674.5665 674.6235 678.1198 678.1198 678.3696 680.9852
   680.9852 682.2139 682.2880 682.2880 682.5365 682.5365 682.5650 682.7589
   683.6710 683.6710 684.3979 684.9999 685.1032 685.1032 685.1929 685.1929
   685.2261 685.2261 685.2619 685.3871 685.5129 685.5129 685.9549 687.6436
   687.6436 687.7198 693.1011 693.1011 693.1457 696.8218 696.8218 698.6631
   699.0842 699.0842 699.8729 699.9263 700.6595 700.6595 701.4690 701.4690
   701.6968 701.9087 702.9959 702.9959 703.2820 703.2820 704.1516 704.1516
   704.2080 704.2569 705.6166 705.6166 705.9733 705.9733 705.9845 706.4738
   707.3592 707.3592 707.8361 709.9955 710.2284 710.2284 710.6720 710.6720
   711.0068 712.0517 712.0517 712.1197 712.1197 712.1291 712.3461 713.2843
   713.2843 713.3231 714.4470 714.4470 714.5497 715.1517 715.4391 715.4391
   717.2509 717.2509 717.4038 718.0406 718.0406 718.2540 718.2540 718.2778
   718.3586 720.1888 720.6150 720.6150 720.9612 721.6294 721.6294 721.9199
   721.9475 721.9475 722.8134 723.7163 723.7163 725.2998 725.2998 725.5303
   725.5303 725.5637 725.5974 725.9730 725.9730 726.2007 726.5011 726.7932
   726.7932 727.9608 728.7119 728.8576 728.8576 729.3968 729.3968 729.5272
   731.5108 731.5108 731.5877 733.3077 733.3331 733.3331 733.6625 733.6625
   733.6861 733.6861 733.7013 733.7864 735.3792 735.3792 735.3879 736.3902
   736.3902 736.4969 738.8554 739.2361 739.2361 739.2751 739.4312 739.4312
   739.4464 741.0919 741.0919 742.1001 742.2567 742.2567 742.6978 742.6978
   742.7728 743.1209 743.1209 743.1508 743.7711 743.7711 743.9309 744.4349
   744.4349 744.4575 744.7511 745.8179 745.8179 746.2763 747.8874 747.8874
   748.3176 748.3785 748.3785 748.3837 748.9279 748.9279 749.0698 749.0698
   749.1061 749.5405 749.6664 749.6664 749.6834 750.8332 750.8332 753.4549
   753.4549 753.5899 753.5899 753.5967 753.6138 756.2406 756.2406 756.4108
   757.3220 757.3220 757.4171 757.6573 757.6573 757.7342 758.0350 758.0350
   758.1092 758.2970 758.2970 758.5422 760.0527 760.0527 760.1490 760.4366
   760.4366 760.4735 763.3457 763.3457 763.3739 767.6789 767.6789 767.9354
   768.2492 768.2492 768.3236 768.4892 768.4892 768.6439 770.0307 770.0307
   770.2339 772.0525 772.0525 772.0533 772.4534 772.4534 772.5285 773.7276
   773.9501 773.9501 774.9280 774.9280 775.1212 777.0079 778.7839 778.8331

          k =-0.3333 0.3333-0.3333 (  2424 PWs)   bands (ev):

   -45.3524 -18.1097 -17.2748 -17.2748 -16.5734   0.3067   1.4154   1.4154
    11.1550  15.9617  22.1275  22.1275  24.9421  24.9421  26.4094  30.5435
    32.1581  32.1581  36.4265  37.5745  37.5745  43.9494  43.9494  47.4012
    51.0475  54.4876  55.4183  55.4183  55.8301  55.8301  58.3071  58.7026
    61.3720  62.5260  62.5260  65.5032  66.1329  66.1329  68.7440  68.7440
    73.5101  74.1459  74.6874  74.6874  74.9605  74.9605  79.3769  80.3629
    80.3629  83.0457  87.5784  87.5784  89.6595  92.4961  92.8021  92.8021
    93.3179  93.3179  94.2323  94.8767  94.8767  98.7753  99.6261 102.1095
   102.1095 103.8772 103.8772 105.6444 105.6444 109.2973 110.8872 113.1734
   113.1734 113.8485 113.8485 115.2989 115.2989 115.6606 120.1314 124.3882
   125.4212 126.8294 126.8294 127.2377 127.2377 127.5340 129.4222 129.7870
   131.9171 131.9171 132.6489 134.1957 134.1957 135.6084 135.6084 138.9706
   141.5973 141.5973 141.6755 141.6755 141.9161 144.1703 144.4515 144.4515
   147.3069 149.3284 149.6458 149.6458 150.5189 150.5189 151.8707 153.4433
   153.4433 153.6673 154.1186 154.6823 154.6823 156.3084 161.7606 161.7606
   163.1560 163.1560 164.2837 166.5695 167.2832 167.2832 168.4083 168.4083
   168.9581 169.6155 170.3028 170.3028 170.5744 170.5744 170.9672 171.6153
   171.6153 173.3691 173.8837 173.8837 176.2154 178.5433 178.5433 178.5516
   179.6140 181.2911 183.0576 183.0576 186.5800 186.5800 187.2194 187.2194
   188.6228 191.2386 191.2386 191.5344 197.9683 198.6260 198.6260 201.3909
   202.4210 202.4210 203.4386 203.4386 203.8087 205.8545 206.5367 206.5367
   208.7782 210.4519 210.4519 211.0888 211.0888 211.7281 213.1432 213.1432
   214.1238 214.1238 215.2775 216.4893 216.4893 216.7079 217.8034 217.8034
   218.1577 218.8390 222.1895 222.1895 223.7999 223.7999 224.5692 225.4217
   225.4507 225.4507 225.9940 226.8532 227.0880 227.0880 227.3479 227.3479
   231.3516 231.3516 232.1491 232.5318 234.2048 238.6229 240.5810 240.5810
   242.1406 242.1406 242.3986 243.8610 243.8610 244.5764 245.1522 246.1183
   246.1183 246.9860 247.4480 247.5872 247.5872 248.1058 248.1058 249.0015
   249.0015 249.3857 250.7489 252.7055 252.7055 254.2129 254.2129 254.2433
   255.7617 255.7617 255.8470 260.5217 261.7533 262.2195 262.2195 262.6642
   262.6642 264.6050 264.6050 264.7712 264.7943 265.2417 265.2417 266.0173
   266.0173 266.4021 266.6265 266.6433 266.6433 268.1997 268.2590 268.2590
   268.4916 272.6470 272.6470 275.2685 275.2685 276.4628 276.6369 276.6369
   280.8287 283.2973 283.2973 283.7208 283.7208 284.1319 284.1327 284.3579
   284.3579 284.5551 285.1859 285.2874 285.2874 285.4708 285.4708 285.6346
   286.9262 288.5576 292.0465 292.0465 295.0741 295.4269 295.4269 296.6984
   297.1238 297.1238 299.1102 299.1102 299.5418 301.3914 302.5620 302.5620
   303.3393 303.6603 303.6603 304.8120 305.0084 305.0084 305.0430 306.1270
   306.1270 308.2374 308.2374 310.8642 311.5562 311.5562 312.6160 313.3378
   314.1034 314.1034 318.8121 318.8121 320.1268 320.5856 320.5856 321.7911
   321.7911 322.0353 323.3902 324.1169 324.1169 324.4326 324.4326 324.6418
   325.0044 325.0784 325.0784 325.1170 326.1560 326.1560 327.9508 328.6558
   328.6558 330.1924 331.4840 331.4840 331.5311 332.3666 332.3666 332.4770
   336.0000 339.2624 339.2624 341.1546 341.1546 341.8661 341.8661 342.1288
   342.7633 342.7633 342.8997 342.9066 345.3219 345.3219 345.4222 346.7803
   347.6167 347.6167 352.1350 352.1350 352.4553 355.3113 355.3113 355.5760
   356.9618 357.2626 357.2626 358.1136 358.2560 359.4329 359.6560 359.6560
   360.2233 360.2233 361.0536 361.0536 361.3297 361.3297 361.5668 361.7036
   361.7036 362.4317 363.8541 363.8541 363.8656 363.9021 363.9367 363.9367
   368.1729 368.1729 369.0148 369.0148 369.0717 370.0351 370.0351 370.1743
   370.2664 373.7541 373.7541 375.7690 377.0691 377.0691 378.3208 378.3208
   378.6838 378.6838 378.7909 379.4248 379.4752 379.4752 379.6614 381.3680
   381.8212 381.8212 382.0332 382.0332 382.0581 382.0963 386.3671 386.3671
   387.3545 391.7270 391.7270 392.3924 395.3851 395.3851 395.7200 395.7200
   395.8003 395.8126 395.8126 396.5136 397.2364 397.3412 397.9351 397.9351
   398.2142 398.2142 398.7495 398.8033 402.0980 402.0980 402.1881 402.4404
   402.8926 402.8926 402.9498 403.1273 403.1273 404.1842 404.1842 404.7013
   405.6828 406.1362 406.1362 407.4449 409.0558 409.0558 409.3589 409.3589
   409.4197 409.5407 409.7006 409.7006 410.5483 410.5483 410.5868 411.6832
   411.6832 412.8666 415.5027 416.5673 416.6024 416.6024 417.6037 418.0973
   418.0973 418.5358 418.5358 418.8041 418.8586 418.8586 419.8820 420.8075
   420.8075 421.1416 421.1559 421.1559 427.0882 427.0882 430.7447 431.1998
   431.1998 432.1741 433.9456 433.9456 434.4775 435.2671 436.0310 436.0310
   436.8186 436.8186 437.4820 438.1281 438.1281 438.4644 438.7827 438.7827
   439.2544 441.0306 441.0306 441.0714 443.4505 443.4505 443.7331 445.2770
   445.2770 445.3690 446.3316 446.3316 446.7721 446.7721 446.8790 447.1566
   448.0996 449.2266 449.2266 452.8449 452.8449 453.0165 454.1979 454.2249
   454.2249 454.4486 455.3716 455.3716 455.4038 455.4038 455.6523 458.0998
   458.3662 458.4343 458.4343 458.5825 458.5825 459.4165 459.7544 459.7544
   460.0687 460.1288 460.1288 460.9833 460.9833 461.7196 463.2982 463.2982
   463.3595 463.5084 465.8122 465.8122 467.6933 471.8350 472.8598 472.8598
   473.7275 473.7275 474.5107 475.0242 475.0242 475.5048 475.5917 475.5917
   475.7928 476.8004 476.8004 476.8196 477.1179 477.1179 477.1739 477.3276
   477.3276 477.4203 477.5800 477.5800 477.8318 479.2146 482.1144 482.1144
   483.4648 483.6362 483.6362 484.0785 486.2524 486.2524 486.6543 486.6543
   486.9820 487.0053 487.0053 488.9219 491.2072 491.2072 493.2678 495.1858
   495.1858 496.0436 496.8543 496.9463 496.9463 504.9052 504.9052 507.9865
   510.2868 510.2868 510.8007 510.8007 510.9958 511.0899 511.7896 511.7896
   512.2724 512.2724 512.3262 512.3262 512.3526 512.4624 512.6459 512.8868
   512.8868 513.2273 513.2273 513.2444 513.6608 513.6608 513.8220 513.8607
   515.8006 516.0081 516.2772 516.2772 516.5230 516.5230 517.3193 517.3193
   517.4960 517.8415 517.9500 517.9500 519.7950 519.7950 519.8737 524.7719
   524.7719 526.4648 527.4748 528.9663 528.9663 530.0048 530.0048 531.0769
   532.1682 532.1682 532.2851 532.6627 532.6627 532.7332 532.7720 532.7720
   532.9134 533.3357 533.3357 534.5387 534.5387 534.5413 534.5548 535.3053
   535.3053 535.4056 535.6343 535.6500 535.6500 537.0126 537.0126 537.2849
   538.4255 538.4255 539.1890 539.4568 539.4568 539.5178 540.3984 541.0823
   541.0823 545.4353 546.2969 546.2969 547.3947 547.6992 548.3709 548.3709
   549.6246 549.8372 549.8372 550.2936 550.2936 550.3294 551.3134 551.7088
   552.0553 552.1372 552.1372 552.2165 552.2165 552.4965 552.4965 552.5348
   552.6232 552.6232 552.6715 552.7471 552.7471 552.8957 553.1335 553.1335
   553.4255 553.5152 553.5152 553.8805 553.8805 554.0122 554.3659 554.7553
   554.8159 554.8159 554.9950 554.9950 555.0848 555.3458 555.3458 555.7277
   555.7277 559.2183 559.2183 559.6602 562.7596 562.7596 562.7880 568.5548
   568.8258 568.8258 569.4258 569.4258 569.8982 570.1379 570.1379 570.1800
   572.7171 572.7171 572.9979 572.9979 573.0695 573.3062 573.3062 573.3275
   573.5600 579.5010 580.4456 580.4456 583.2932 583.2932 584.2957 585.6712
   585.6712 586.9487 588.0744 588.0744 588.9638 588.9638 588.9836 589.1954
   589.1954 589.3259 589.6402 590.1188 590.1188 590.2111 590.2468 590.2468
   590.3014 590.3014 590.4206 590.6044 591.7877 591.7877 591.9167 591.9792
   591.9792 592.0040 594.3406 594.3406 594.3845 594.7785 594.7785 595.7842
   597.7550 598.7929 598.7929 599.7891 599.7891 600.0148 600.1351 600.1351
   600.1995 600.9664 600.9664 601.0170 601.9654 601.9654 602.2641 605.7385
   605.7385 606.5882 607.1227 608.6208 610.2910 610.4824 610.4824 610.5963
   610.5963 610.9600 610.9960 610.9960 612.4835 612.4835 612.5854 613.9538
   613.9538 614.3606 614.4653 614.4653 614.4860 615.6400 615.6400 616.4757
   616.4757 616.4924 616.6003 617.4014 617.4014 617.9211 618.2175 618.6100
   618.6100 620.4242 626.6883 626.6883 627.1671 627.3536 627.3536 627.4364
   627.4606 627.4606 627.6576 629.1174 629.1174 630.0881 630.0881 630.1521
   630.3781 630.3781 630.4975 631.2287 631.2287 631.2722 632.7325 633.1630
   633.1630 634.7045 634.7045 635.1575 635.9253 635.9253 636.1324 637.4041
   637.4041 637.6119 638.3612 638.6131 638.6131 639.9516 639.9516 640.1176
   641.2592 641.2592 641.7519 644.2838 644.2838 645.2583 647.7342 647.7342
   647.8169 648.4865 648.4865 648.7071 648.8181 648.8181 648.9496 649.0593
   649.0593 649.1046 649.9628 649.9628 650.0431 650.1410 650.1470 650.1470
   650.9192 650.9192 651.0027 651.7222 651.7222 651.7708 658.1134 659.9933
   659.9933 660.7781 663.5571 663.5571 664.3695 664.3695 665.0418 665.3624
   665.4411 665.4565 665.4565 665.7468 665.7468 666.4242 666.9667 666.9667
   668.5787 668.5787 668.6831 668.6831 668.7054 669.2518 669.2518 670.2268
   670.4183 671.0210 671.0210 671.0639 671.0639 671.3703 671.3921 671.6626
   671.6626 671.8116 675.4994 675.4994 675.5524 678.0323 678.0323 678.0747
   682.1961 683.3260 683.3260 684.4364 684.4364 684.4733 685.1987 685.1987
   685.4490 685.7952 685.7952 686.1405 686.4160 686.4160 686.5089 686.7043
   686.7043 686.7199 687.0271 687.0306 687.0306 687.4407 688.4561 688.7476
   688.7476 690.2590 690.2590 690.4335 692.0178 692.0178 692.3071 692.6068
   692.6193 692.6193 693.3201 693.3201 694.1714 694.3715 694.3715 694.5791
   699.4400 699.5863 699.5863 700.2618 700.4009 700.4009 700.7421 700.7421
   700.7945 701.2227 701.3451 701.3451 702.6859 702.7128 702.7128 702.7426
   702.8120 702.8120 702.8996 704.3598 704.3598 704.6162 705.3740 705.3740
   705.4464 706.0659 706.0659 706.1222 707.8234 707.8234 707.8334 708.3300
   708.3300 708.3688 709.1166 709.1166 713.5996 713.6617 713.6617 714.2436
   714.2436 714.2628 714.7483 714.7483 715.0415 715.1821 715.1821 715.2020
   717.5700 717.5700 717.6070 721.2448 721.2448 721.7692 722.3256 722.3256
   722.9310 722.9389 722.9614 722.9614 723.7112 723.7112 724.2667 725.0854
   725.3232 725.3232 725.5952 725.5952 725.6499 726.2318 726.2318 726.3940
   726.3940 726.4228 726.4635 727.4805 727.5310 727.5310 727.5907 727.5907
   727.6327 736.6651 738.8401 738.8401 739.3223 739.5684 739.5684 739.6599
   739.7475 739.7475 739.7792 739.9484 739.9484 740.3344 742.5779 742.5779
   743.2148 743.2148 743.3811 743.7282 743.7282 744.3939 744.5259 744.5259
   744.5782 745.2116 745.2116 745.2349 745.2512 745.2512 745.5162 746.0764
   746.0883 746.0883 746.2061 746.2061 746.2154 746.2203 746.2203 746.2231
   747.8007 747.8007 749.5225 751.6075 751.6075 751.9392 751.9998 752.1666
   752.1666 752.2545 752.2545 752.2747 752.4462 752.4462 752.5118 753.6274
   753.6274 753.7299 754.1021 754.1021 754.1348 756.5830 756.5830 756.8876
   761.4602 761.6328 761.6328 762.7507 762.8109 762.8109 762.8902 763.9516
   763.9516 764.5955 764.5955 764.6965 764.7085 764.7085 764.7692 767.4666
   767.5902 767.5902 770.4812 770.4812 770.6889 771.1407 771.1407 771.1830
   775.8141 776.2711 776.2711 777.2825 777.2825 777.7778 778.1669 778.1669
   778.2369 779.0802 779.6601 779.6601 779.8100 780.1506 780.1506 780.3721
   780.3721 780.6651 780.8973 780.9225 780.9225 781.3675 781.3675 781.4475

          k = 0.5000-0.5000 0.5000 (  2392 PWs)   bands (ev):

   -45.3484 -18.2089 -17.2781 -17.2781 -16.4368  -0.0382   1.3495   1.3495
    12.7042  14.4741  22.2455  22.2455  25.1878  25.1878  26.1116  29.4088
    33.9530  33.9530  35.0453  35.0453  43.4453  44.0235  47.7220  47.7220
    49.3177  49.3177  51.5444  53.9992  55.3526  58.0504  58.0504  59.0176
    59.0176  60.3423  61.0330  61.5838  65.9359  65.9359  68.3007  68.3007
    73.9949  74.0315  76.1837  76.1837  77.0339  77.0339  79.0738  83.3724
    86.0481  86.0481  86.3632  86.3632  90.8383  91.7805  93.5736  93.5736
    95.4987  95.4987  99.4978  99.4978  99.7834  99.7834 100.5729 101.9758
   102.7129 102.7129 102.8815 102.8815 104.3209 104.4169 109.2794 109.2794
   110.2524 111.7003 113.2457 113.2457 118.4145 118.4145 118.4767 118.4767
   119.8717 121.6552 124.0415 127.7222 127.7222 127.7458 127.7458 128.4137
   129.8868 131.1559 133.6483 134.4327 134.4327 134.7561 135.2018 135.2018
   141.1739 141.1739 141.5676 141.6519 141.6519 143.2654 146.6000 146.6000
   146.7012 146.7012 146.8420 147.0037 152.5271 153.3588 153.3588 153.6275
   153.6275 153.9393 158.0954 158.0954 158.8937 158.8937 159.7754 159.9739
   160.1536 160.2153 165.9413 165.9413 167.0570 167.0570 170.9829 170.9829
   171.3472 171.3472 172.2520 172.8635 173.6938 173.7859 173.8698 173.8698
   173.9521 173.9521 174.9029 176.9463 180.6136 180.6136 180.8217 180.8217
   183.0505 183.7047 188.4987 188.4987 188.5117 188.5117 189.4561 189.4561
   189.5095 189.5095 190.5445 190.5546 193.3302 193.3302 194.2228 194.2228
   198.9999 199.0013 201.6973 201.6973 202.1605 202.1605 204.0380 204.0380
   204.1160 204.2520 204.3618 204.3618 204.9830 209.3084 212.7926 212.7926
   213.6720 213.6720 215.2127 215.7490 221.1365 221.9730 221.9730 222.0963
   222.5434 222.5434 225.5016 226.3563 227.2441 227.2441 227.5462 227.5462
   227.6468 228.0953 228.0953 228.1192 228.1192 228.4130 228.8218 231.6489
   231.6489 231.6778 231.6778 231.9006 231.9339 232.5011 232.5011 232.5276
   232.5276 232.6074 241.3464 241.3464 241.7084 241.7084 243.0492 243.1636
   243.6024 244.5267 246.0954 246.0954 246.1465 246.1465 246.9738 246.9738
   247.2173 247.2522 247.2522 247.5820 250.8935 250.8935 251.8115 251.8115
   254.3121 255.2952 256.7105 257.1436 259.5428 259.5428 259.6823 260.0096
   260.0096 260.3251 264.8244 265.9948 265.9948 266.5808 266.5808 268.0903
   272.5255 272.5255 272.7834 272.7834 272.9558 274.2041 274.2255 274.2255
   274.3214 274.3214 274.3254 274.4187 275.3675 275.3675 275.5127 275.6461
   275.6461 276.0572 277.5888 280.2299 283.1548 283.1548 283.3711 283.3711
   289.1049 289.1049 289.7856 291.0318 291.0318 291.3508 294.6582 294.6582
   296.0162 296.0162 297.9732 299.9265 301.2371 301.2371 301.3446 301.3446
   302.7300 302.9263 302.9263 302.9454 302.9888 302.9888 303.0985 303.3745
   303.3745 303.3862 303.3862 303.9933 303.9956 304.6748 310.3722 310.3722
   311.2555 311.4509 311.4509 311.4637 314.4970 315.4150 315.6137 315.6553
   315.6553 315.7471 315.7471 315.7979 315.7979 316.0804 316.0804 316.3537
   317.6573 317.6573 317.6810 317.7830 317.8127 317.8127 319.7235 319.7235
   319.7287 319.7287 321.1007 321.1009 322.0347 323.7250 331.1189 331.1189
   332.1862 332.1862 332.5220 332.5813 332.5813 332.6725 332.6942 332.6942
   336.9918 336.9918 337.8079 339.9421 339.9421 340.0168 341.3461 341.3461
   341.6948 341.6948 343.9126 344.9505 345.6198 345.6198 345.7561 345.7561
   346.3384 346.3729 346.9849 346.9849 347.0336 347.0336 347.2501 347.3648
   350.1909 350.1909 352.7670 352.7670 356.1921 356.1921 356.5240 356.5240
   356.5466 356.5925 357.9765 358.7759 359.2831 359.8452 359.8452 360.1725
   360.1725 360.6675 360.6675 360.7303 360.8009 360.8009 360.8864 360.8922
   370.9499 370.9499 371.6291 372.7680 372.7680 373.2060 373.7439 373.7439
   373.8181 373.8181 374.6239 374.6578 374.6578 375.1283 375.1283 375.1620
   375.2164 375.2496 376.8868 381.2132 382.5911 382.5911 385.3960 385.3960
   385.9818 386.5282 386.7270 386.8363 386.8363 387.0217 387.4413 387.4413
   387.5926 387.9888 388.3302 388.3302 388.5049 388.5049 389.9687 389.9687
   390.0263 390.0263 392.6488 392.6488 393.0698 393.0698 395.1648 397.9112
   399.9121 399.9121 400.1106 400.1106 400.1776 400.3621 401.2046 401.2046
   401.2676 401.2676 402.3832 402.9450 405.0428 405.0830 405.0830 405.2622
   405.2622 405.3579 406.0706 406.0706 406.0818 406.1267 406.1267 406.2409
   411.3050 413.7293 413.7293 414.2955 414.2955 415.0591 417.8411 417.8411
   418.1086 418.1086 418.4427 418.4469 422.3762 425.5066 425.5066 427.7135
   427.9316 427.9316 429.8150 429.8150 430.0052 430.1142 430.1142 430.5092
   431.5024 431.5024 431.5093 431.5093 431.5787 431.6410 432.0433 432.3093
   433.1452 433.1452 433.1678 433.1678 433.2853 433.3465 436.5089 436.5089
   437.1192 439.0162 439.0981 439.0981 439.7995 439.7995 440.3135 440.3135
   441.3795 441.3795 442.0290 442.2799 442.2799 442.9053 443.6140 444.0954
   446.0497 446.3393 446.4967 446.6879 446.6879 446.8077 446.8077 446.8625
   446.8625 446.8767 446.8767 447.0079 447.2833 447.2833 447.2944 447.2944
   447.6819 447.7012 448.3013 448.3013 448.4289 448.4289 448.5806 448.7512
   458.8946 458.8946 459.0189 459.3890 459.3890 459.6357 460.7649 460.7649
   461.0819 461.0819 461.2085 461.2085 461.2229 461.2741 461.2741 461.3422
   461.4318 461.7830 463.3102 463.3102 463.3261 463.3261 463.3391 463.3414
   472.5499 472.5499 472.7887 474.0760 474.0760 474.4848 474.5830 474.5830
   474.5953 474.5953 474.8969 475.0694 478.9643 482.7598 484.2138 484.2138
   486.1306 486.1306 486.6677 486.8187 487.1355 487.1355 487.1973 487.1973
   487.4889 487.4889 487.8963 487.8963 488.0002 488.0147 488.0501 488.0501
   488.5549 488.5549 489.1802 489.5445 491.8611 491.8611 491.8617 491.8617
   493.5062 493.5066 498.8071 498.8071 499.2841 500.7924 502.0024 502.0024
   502.1781 502.1781 502.2124 502.2124 502.7446 502.8978 505.9140 505.9140
   506.6412 506.6412 506.6501 506.6501 506.8957 506.8968 508.7952 508.7952
   509.3738 511.2481 512.7039 512.7506 513.4368 513.4368 513.8471 514.0694
   514.0694 514.3923 514.4969 514.4969 514.5087 514.5087 516.0344 516.4903
   520.4030 520.4030 520.4117 520.4117 526.8171 526.8171 527.4875 528.7097
   528.7097 529.5925 529.5925 529.6094 529.6094 529.6362 529.8824 530.1477
   530.7998 530.7998 531.0899 531.0899 531.4487 531.5998 531.5998 531.7232
   531.7232 531.7792 532.0335 532.8529 532.9282 532.9509 533.0172 533.0172
   533.0883 533.1312 533.1312 533.2239 533.2239 533.4430 533.4430 533.6280
   533.6472 533.6585 533.6736 533.6736 533.9036 533.9036 534.6920 534.6920
   534.7321 534.7321 534.9569 535.0126 542.8875 542.8875 544.2276 544.2276
   544.4580 544.5589 545.0780 545.0780 545.3964 545.4567 545.4567 545.6067
   548.2006 548.2006 548.2649 548.2710 548.2710 548.4054 554.3152 555.4707
   555.4707 556.1538 556.1538 556.8220 559.7611 559.7611 560.6010 560.6010
   560.7251 560.8822 560.9260 561.1877 561.1877 561.1965 561.2244 561.2244
   561.6709 561.6709 561.7748 561.7748 561.8569 561.9487 562.0081 562.0081
   562.1424 562.1424 562.2693 562.2693 562.3306 562.3306 562.3632 562.3790
   562.4337 562.6849 572.1140 573.2820 573.2820 574.0952 574.0952 574.2281
   574.2618 574.7384 575.1119 575.1119 575.1946 575.1946 576.2049 576.2049
   576.3082 576.3082 576.3083 576.3083 576.3199 576.3199 576.3432 576.3466
   576.4445 576.7709 581.6282 582.6937 586.3148 586.3148 587.1642 587.1642
   587.4698 587.6076 591.7041 591.7041 591.7778 591.7778 592.5171 592.5171
   592.5333 592.5423 592.5423 592.6150 596.9067 596.9067 598.4939 599.5339
   599.5339 599.7351 600.6329 600.6717 600.6717 600.8320 600.8320 601.2232
   602.3581 602.5171 602.5187 602.5187 602.6919 602.6919 602.7021 602.7021
   602.8722 602.8722 602.8805 602.9740 604.4289 604.4289 604.4659 604.4659
   604.7141 604.8642 606.5103 606.5103 606.5268 606.5823 606.5823 606.6592
   610.4224 610.4224 611.0901 611.0901 611.2436 611.6846 617.4063 617.4063
   617.6542 617.6542 617.6985 617.7134 619.0384 619.0384 619.1921 619.1921
   619.2163 619.2774 619.7967 619.7967 619.8423 619.8423 619.9641 619.9705
   621.9033 621.9033 621.9278 621.9282 621.9282 621.9861 630.7243 631.2541
   631.2886 631.2886 631.9757 631.9757 632.0529 632.0529 632.4000 632.4510
   632.4510 632.6102 632.7455 632.7455 632.8068 632.8068 632.8178 632.9572
   635.6635 635.6635 635.7542 635.7542 636.1545 636.1557 637.9448 637.9448
   638.1286 639.0514 639.0514 639.4640 645.1631 645.5772 645.5772 645.8122
   646.3097 646.3097 646.6754 646.7676 646.7758 646.8146 646.8146 646.8564
   646.8564 646.9219 646.9918 647.0732 647.0732 647.0870 647.0870 647.8410
   656.3546 656.3546 656.6712 657.4017 657.4017 657.6986 658.5453 658.6336
   658.6336 658.7860 658.8173 658.8173 659.4377 659.4377 659.4733 659.4733
   659.8578 659.9133 659.9133 659.9339 659.9339 659.9559 659.9920 660.2338
   660.2404 660.2635 660.2635 660.2745 660.2745 661.3119 662.8280 662.8320
   663.1085 663.1085 663.1240 663.1240 664.1643 664.1643 664.1701 664.2251
   664.2251 664.3065 664.4953 664.4953 664.5056 664.5056 664.6717 664.6828
   676.6199 676.6973 676.6973 676.8763 676.8779 676.8779 677.3324 677.3324
   677.3716 677.3716 677.4728 677.4738 677.7082 677.7918 677.8011 677.8011
   677.8056 677.8056 683.4549 683.4549 685.1837 685.1837 685.2895 685.7155
   689.4882 689.4882 689.9510 689.9510 689.9604 690.1979 690.2886 690.2886
   690.3524 690.3524 690.4072 690.6054 690.8284 690.8624 690.8624 690.9252
   690.9252 690.9656 691.1547 691.2202 691.2202 691.2567 691.2567 691.3124
   696.2746 697.6614 700.2841 700.2841 701.0548 701.1539 701.1539 701.5120
   701.5877 701.5942 701.5942 701.6081 701.6228 701.6228 701.8381 702.1530
   702.1530 702.2126 702.2126 702.5456 702.5456 702.5472 702.5472 703.1595
   705.7622 705.7622 705.7681 705.7681 705.8231 705.8231 705.8389 705.8394
   705.8999 705.8999 705.9125 705.9329 707.3331 707.3331 707.3369 707.3369
   707.7220 707.7230 707.8383 707.8383 707.8386 707.8386 709.4095 709.4098
   718.9637 718.9637 719.4639 719.4639 719.4639 719.4895 719.9952 719.9952
   720.1742 720.1742 720.2425 720.2613 729.1757 729.1757 729.8070 730.6251
   730.7066 730.7066 730.8982 730.8982 730.9316 730.9488 730.9488 730.9824
   731.9067 731.9067 731.9277 731.9277 731.9546 732.1636 732.1636 732.2614
   732.2614 732.2808 732.2971 732.3882 732.5099 732.5116 732.5116 732.6700
   732.6700 732.7159 733.7612 733.7612 733.7738 733.7738 733.8009 734.2974
   741.2923 741.5141 746.1463 746.1463 746.4883 746.7636 746.7636 746.7830
   746.9321 746.9321 746.9575 746.9575 747.0068 747.2469 747.3277 747.3277
   747.4560 747.4560 747.5202 747.5505 748.2111 748.2669 748.2669 748.3416
   748.3416 748.3487 748.6194 748.6728 748.6728 748.7484 748.7484 748.8139
   748.8734 748.8734 748.9745 748.9769 748.9769 749.2855 749.4316 749.4316
   749.4436 749.4674 749.4674 749.5249 750.4725 750.4725 750.4761 750.4761
   751.4244 751.4244 751.4259 751.4259 751.4518 751.4557 758.7695 758.7695
   759.0512 759.0512 759.0787 759.2182 764.4400 764.4400 764.4668 764.4668
   764.4958 764.5091 775.8145 775.8145 775.9744 776.4651 776.4651 776.5183
   776.5449 776.5449 776.5698 776.5813 776.5819 776.5819 777.1946 777.1953
   777.1953 777.2005 777.2005 777.2360 777.2360 777.2559 777.2896 777.2896
   777.3293 777.6154 782.2821 782.2821 782.8506 782.8506 782.8568 782.8927

          k = 0.0000 0.3333 0.0000 (  2405 PWs)   bands (ev):

   -45.3590 -17.8241 -17.2796 -17.2796 -16.9096   1.0560   1.5040   1.5040
     9.4315  18.2687  21.3048  21.3048  23.4132  27.0643  28.2708  29.6155
    30.4494  30.4494  36.0785  36.0785  36.2983  44.8768  47.0284  47.6316
    47.6316  51.8237  53.7971  55.6625  61.0039  61.0039  62.3528  62.7457
    62.7457  63.9720  65.9745  66.0446  67.5385  67.6772  67.6772  70.5461
    73.2316  73.6168  73.6168  75.0425  75.0425  75.3918  79.1682  79.3182
    80.5242  80.5242  80.6521  82.2357  84.2544  84.2544  85.4030  90.2069
    90.6270  90.6270  91.8896  94.7372  94.7372  95.4937  95.5924  97.8803
    97.8803 103.5294 105.4342 107.1281 115.6304 115.7467 115.7467 118.0934
   118.5896 118.5896 119.2580 122.5938 122.5938 123.0089 123.2187 123.2187
   123.6274 123.9650 125.7199 126.9670 129.3830 129.4059 132.2101 132.2101
   132.4564 132.4564 133.1330 135.2387 137.5212 139.5218 140.2264 140.3407
   140.3407 140.4065 141.3957 141.7547 141.7547 144.0546 146.1554 146.1554
   146.6701 147.2499 147.2499 148.6539 148.6602 149.5040 150.0292 151.3255
   151.3255 152.4015 153.3613 153.3613 153.4667 156.4047 156.4047 157.9445
   157.9445 158.1553 158.5297 160.9233 161.1455 161.1455 161.5287 162.3725
   167.3450 167.3450 170.3845 170.5339 170.5339 171.7820 172.1172 172.2043
   174.1754 174.9006 176.0240 176.0240 177.5715 179.9408 180.1034 180.1034
   180.5228 184.0395 185.1437 187.7123 187.7123 187.8626 188.1285 188.1285
   188.4802 188.7758 190.7673 190.7673 192.4001 193.4353 196.1128 196.1128
   196.8975 198.0776 198.1040 198.1040 199.1991 201.8514 201.8514 203.9629
   204.6523 204.8243 209.4962 209.4962 210.5760 211.9590 211.9590 214.7824
   215.1448 215.1448 219.2610 220.1711 222.0903 223.2583 223.2583 224.3890
   225.3073 227.3960 227.7110 227.7110 228.3852 228.8714 229.0734 229.1428
   229.1428 231.6021 232.2087 232.2087 232.9897 235.8714 235.8714 236.7369
   236.9518 237.2406 237.2406 238.0982 238.1564 238.2553 238.2553 238.6985
   240.5314 242.3335 243.6113 243.6113 243.6574 244.1102 244.4607 244.4607
   245.3468 245.7806 245.8342 247.4271 247.4271 247.6850 247.6850 248.1187
   248.1415 251.3962 252.4113 252.4167 253.3889 253.3889 253.5634 253.5634
   253.8669 254.9725 256.1832 256.1832 257.5045 258.1830 259.7414 259.7414
   261.2405 261.7397 263.1032 265.5238 265.5238 265.6203 266.1378 267.0416
   267.0416 267.4944 269.3451 269.3451 270.3980 271.5820 271.8779 271.8779
   272.5544 273.8535 273.9291 275.3033 275.3885 275.3885 275.6745 275.6745
   276.2717 276.2717 276.2931 277.1590 277.2314 278.3163 278.6073 280.0249
   280.0249 281.2580 281.7918 281.9437 282.0598 282.0598 282.2782 283.2651
   283.2651 284.0227 285.1847 287.3145 287.3145 288.9652 289.4223 292.2904
   292.2904 292.2951 292.4728 292.4728 292.4942 292.6655 292.8072 299.9594
   299.9594 300.3906 302.6774 302.7654 303.2690 303.2690 303.3368 303.5423
   305.8547 307.8751 307.8751 310.7283 310.7283 314.3303 315.6897 317.0373
   317.2183 317.2183 318.4477 320.5697 320.7500 320.7500 320.9553 320.9553
   321.0102 321.3525 321.5108 321.5727 322.1095 322.1095 322.5189 323.5454
   325.5609 325.5609 327.1798 329.2293 329.2293 329.5774 330.8417 330.8417
   331.6767 332.3735 333.0812 335.0765 335.0765 335.2494 337.7575 338.0133
   338.0133 340.5309 340.5309 340.9578 341.4755 342.2122 342.5215 342.5215
   342.7384 344.1095 348.1109 348.1109 349.1130 349.3543 349.4399 352.7233
   352.7233 352.8008 354.8926 354.8926 355.2014 357.7125 358.2953 360.7783
   360.9019 360.9019 361.1198 361.3786 361.3786 362.4449 362.9264 364.1891
   364.1891 364.6475 364.6685 366.2336 366.2336 366.3036 366.6400 368.1936
   368.1936 368.2000 368.5854 368.8749 370.6447 370.6447 370.7582 370.8723
   371.5410 371.7120 371.7452 371.7452 371.7911 371.7911 371.8424 372.0130
   376.6126 376.6126 378.2650 378.2960 378.2960 379.0048 379.3108 379.4562
   379.4562 379.6191 379.6191 379.8551 379.9900 380.5375 382.3135 383.2305
   383.2305 384.6181 384.8093 385.4807 387.3127 387.3492 387.3492 387.9651
   388.7644 388.7644 388.8934 390.1507 390.4378 390.4378 390.6926 391.2507
   391.2507 391.6375 391.6411 391.6411 391.6835 391.9793 392.2424 392.9618
   395.9430 396.3450 396.6453 396.6453 397.0271 397.0271 397.3429 397.3429
   397.9291 398.2203 399.6195 399.6195 400.8324 401.2591 402.4227 402.8042
   402.8042 403.9864 404.9069 405.1814 405.1814 405.2586 406.1463 408.6834
   409.0186 409.0186 409.2892 409.5056 409.5056 409.5657 409.7084 410.2488
   411.3863 411.3863 413.0734 413.5886 413.6801 413.6801 413.8060 414.6806
   416.5543 416.5543 417.2377 417.4222 417.7779 418.0701 418.0701 418.3413
   422.0331 422.0331 423.8294 424.2022 424.6876 424.9237 425.3882 425.3882
   425.5487 425.5487 425.8027 425.9832 429.8028 429.8448 429.8448 430.1343
   430.1526 430.1526 430.1929 430.5406 432.1998 432.2930 432.2930 432.4918
   437.0824 438.6923 438.6923 438.6932 438.7463 439.8653 440.8049 440.8049
   442.1509 442.1509 442.2973 443.8131 443.9880 443.9880 444.1685 445.3455
   445.3455 445.8895 445.9278 446.0984 446.0984 446.4031 448.4355 448.4355
   448.6363 449.9692 450.7243 452.0868 452.2720 452.2720 452.6832 454.1351
   456.2148 458.3811 458.3811 459.4934 460.8656 460.8656 462.4602 462.6786
   462.9531 462.9531 463.1187 463.1479 463.1479 463.2617 463.5753 463.9331
   467.0378 467.1751 467.1751 467.5727 471.8604 471.8604 473.0377 473.0772
   473.7346 475.1654 475.1654 476.0300 480.6098 480.6098 480.8858 481.9027
   482.1105 482.1105 482.8384 482.9039 483.0394 483.0394 483.1424 483.7877
   487.1264 488.9631 488.9631 489.2766 491.0681 491.4379 491.6655 491.6655
   491.8255 492.0561 492.0561 493.2080 493.5059 493.5059 493.8342 493.8554
   494.3273 497.1860 497.1860 498.1696 499.0690 503.0658 503.0658 504.0990
   504.3561 504.5613 504.5613 504.6985 504.7278 504.8796 505.2359 505.2359
   505.7009 505.8347 505.8407 505.8407 505.9368 506.4026 506.4026 506.6663
   506.9734 508.9465 509.2513 509.2513 509.5617 510.3912 510.3912 510.5769
   510.5769 510.7672 510.7858 510.8949 511.0219 511.6650 512.3578 512.3578
   512.9606 513.3659 513.4830 513.4830 513.7333 513.7333 513.8698 513.9756
   514.4845 515.4448 515.4869 515.4869 515.5534 516.9832 519.8786 519.8786
   521.7194 521.7194 521.9354 522.8622 522.8735 522.8735 522.9763 523.5009
   523.6381 523.6381 523.7491 524.1377 526.6871 528.0003 530.8123 530.8123
   531.1042 531.1042 531.1123 531.1941 531.7917 532.4283 532.4283 532.6544
   532.7228 533.3799 538.6167 538.6167 539.0119 539.3480 539.4422 539.5221
   539.5221 539.8856 542.8796 542.8796 542.9054 542.9218 547.2032 547.2032
   547.9748 549.8291 549.8291 549.8745 550.2642 550.4467 550.4467 550.4977
   551.1457 551.1457 551.1803 551.4184 552.2116 552.2116 552.4384 552.6689
   554.7135 554.7135 554.7876 555.6148 556.1369 557.3240 557.7483 557.7483
   558.4671 558.6005 558.6005 558.8074 559.0215 560.4744 560.6658 560.6658
   560.8504 563.0613 563.1567 563.1567 563.2638 563.8309 563.8337 564.0652
   564.0652 564.3427 564.3427 564.3511 564.7448 564.8791 564.8791 567.4533
   567.8408 567.9549 568.2335 568.2335 568.6199 568.6199 568.6212 568.9227
   569.0251 569.0251 569.0442 569.0573 569.4266 569.9837 569.9837 570.3549
   570.5317 570.8674 571.2017 571.2017 571.4607 572.7548 572.9956 572.9956
   573.1917 573.2731 573.2731 574.2886 576.1897 576.4122 576.4582 576.4582
   576.5844 579.4581 579.4581 579.9007 580.0362 580.2481 580.2481 580.3108
   580.3480 580.8093 580.8945 580.8945 580.9933 588.1347 588.1347 588.4347
   588.4742 590.3284 590.3284 590.5545 591.0386 591.0386 591.0506 591.0511
   591.0629 591.3782 591.3782 591.3905 591.4124 594.0386 594.8405 594.8405
   595.0287 595.1151 595.1151 595.3056 595.3255 597.3192 600.5879 600.5879
   601.4784 601.4784 601.5474 601.9287 602.0228 602.0691 602.0691 602.1223
   602.5945 602.5945 603.1372 603.3840 605.2784 605.7861 607.1927 607.1927
   607.8271 607.8271 608.1694 608.2693 608.3465 608.4135 608.4135 608.5074
   608.7983 608.8795 608.8795 608.9342 608.9543 609.5079 609.9902 609.9902
   610.0367 610.1038 611.8398 611.8398 612.9896 615.3588 615.3588 615.3678
   615.7024 616.5107 616.6624 616.6624 616.8225 617.7782 619.2299 619.2299
   619.4414 619.6349 619.8276 619.9017 619.9017 619.9533 624.0359 624.0359
   624.2294 624.5455 628.3628 628.3628 628.7631 628.8689 628.8689 628.9897
   629.2015 629.9935 634.8899 634.9861 634.9861 635.4514 637.1527 637.1527
   638.5308 638.5308 638.6005 638.6666 640.5443 640.8101 640.8101 641.0608
   642.1006 642.1006 642.3117 642.9657 643.3454 643.6662 643.6751 643.6751
   643.8204 644.8571 644.9897 644.9897 645.1988 646.8049 646.8838 646.8838
   647.1894 654.0987 654.0987 654.4175 654.4638 655.7630 655.7683 655.7731
   655.7731 656.1262 656.1262 656.1369 656.1579 658.3120 659.5109 659.5404
   659.5404 659.6147 660.6824 660.6824 660.7666 660.7871 661.9018 661.9018
   662.6548 663.7383 665.0616 665.0616 665.8481 665.8820 665.9473 666.3942
   666.3942 666.5857 667.1564 667.2542 667.2542 667.9472 669.0606 669.0793
   669.0793 669.1292 671.2217 671.2999 671.2999 671.6084 672.4513 672.6311
   672.6311 673.5814 678.2212 678.3464 678.3464 678.4724 681.1994 681.1994
   681.4767 681.5460 683.0853 684.6886 684.6886 684.7442 685.0291 685.5108
   685.6506 685.6506 685.7633 686.8227 686.8227 688.7270 691.5797 692.4215
   692.4215 693.0871 693.1433 693.2426 693.3614 693.3614 693.4716 694.3118
   694.3118 695.8233 698.1435 698.1435 698.1954 698.1954 698.9078 699.0674
   699.3421 699.4297 702.2211 702.2211 703.4724 703.8207 704.4252 704.4252
   704.5011 704.6367 704.7240 704.7240 704.9236 704.9240 704.9389 705.1769
   705.1769 705.3767 706.8923 706.8923 707.8157 708.2036 708.2644 708.5153
   708.5153 708.7363 713.2860 713.2860 713.4120 713.4246 714.6246 715.0276
   715.0276 715.2146 715.7126 715.7257 715.7257 715.7356 716.0043 716.0776
   716.0776 716.2972 716.2995 716.2995 716.3085 716.5843 720.1582 720.1582
   720.5647 720.9828 721.0673 721.3572 721.3572 721.5280 723.2086 723.5928
   723.5928 723.8548 724.4186 724.8401 724.8401 725.4048 725.7296 726.0348
   726.0348 726.3376 726.9644 726.9644 727.0035 727.2431 729.9286 729.9286
   730.1515 730.5767 731.2794 731.5356 731.5356 731.6414 731.6414 731.7895
   732.0664 732.2274 732.2482 732.4341 732.4341 732.5488 733.1126 733.3575
   733.3575 733.9795 734.1613 734.7925 734.7925 735.1640 736.4411 736.4411
   736.5457 736.5956 736.6413 736.7050 736.7050 736.7668 738.9370 738.9370
   739.2577 739.4968 741.1293 741.4332 741.4332 741.7633 741.9538 741.9538
   742.1294 742.1431 742.1875 742.2228 742.2304 742.2304 742.4555 742.4555
   742.5269 742.6827 745.5029 745.5656 745.5656 745.6356 745.6502 745.6698
   745.6698 745.7183 749.1198 749.1198 749.4792 749.5848 749.8064 750.7135
   750.7135 750.7343 750.7343 750.7873 751.0378 751.1473 752.0097 752.1188
   752.1188 752.2008 752.9690 752.9690 753.0387 753.0411 755.7093 755.7161
   755.7161 755.7273 756.3095 757.7056 757.7056 757.7481 757.8009 757.8173
   757.8173 757.9955 758.3887 763.0782 763.0782 763.2410 763.3222 763.7796
   763.7926 763.7995 763.7995 770.7324 770.7324 770.8003 770.8869 771.5177
   771.5177 771.5576 771.6138 771.7286 771.7286 771.7657 771.9130 772.0433
   772.1536 772.1536 772.2039 775.4052 776.2995 776.2995 776.6071 779.1864
   779.7040 779.7040 779.7756 779.8116 779.8358 779.8358 780.8682 781.4809

          k =-0.1667 0.5000-0.1667 (  2398 PWs)   bands (ev):

   -45.3524 -17.9744 -17.2904 -17.2891 -16.7104   0.5239   1.3409   1.3844
    11.0736  16.4730  21.0375  21.6756  22.4993  27.0450  29.2065  29.8889
    32.5812  32.8526  35.6102  35.7856  39.8120  42.5351  43.5945  48.3415
    48.7995  52.4983  53.8818  55.6237  55.8029  57.1146  60.2723  61.0691
    61.1397  62.8312  63.3092  65.3214  66.0846  66.6654  68.1171  70.3615
    72.7426  73.0889  73.4911  74.0261  77.1566  77.6419  79.8009  81.0048
    81.4727  81.7805  81.9894  86.1412  86.8198  88.6468  90.7597  93.2740
    93.7108  93.8829  96.8339  96.8763  98.5368  98.7688  99.5306 100.7175
   104.2269 104.2354 105.9219 106.0839 106.9588 109.1806 109.5997 110.7144
   112.5176 113.7395 116.4534 116.4937 118.4115 119.1562 119.5677 120.8130
   121.9013 123.6302 124.9155 125.4550 125.8813 125.8909 128.4525 130.5526
   132.2229 132.5197 133.5224 134.7216 135.3913 139.4092 140.3022 140.3052
   141.0898 141.3365 141.9746 143.1751 143.6545 144.2266 144.3552 144.8303
   144.9409 146.6454 149.2464 149.3758 150.9210 151.3802 151.7895 153.1775
   153.2007 155.4605 155.7182 156.2054 156.8777 157.6415 157.7891 159.1992
   160.1280 160.2374 161.5706 161.5930 163.3517 165.8515 166.0182 166.0328
   166.9975 167.3981 168.6283 168.7422 170.7667 171.6494 172.2294 174.1549
   174.2408 175.2017 175.9407 176.9378 176.9784 178.3809 180.2375 180.9386
   182.7375 183.5661 184.4282 187.2712 187.8023 188.3891 189.2361 190.9685
   191.1587 192.1246 193.7438 196.1751 196.9193 198.2248 198.9371 199.3474
   199.8068 200.2194 201.6522 201.7513 203.0905 203.9151 204.9005 206.9682
   207.3199 208.3350 208.7640 209.9484 210.1517 210.1915 210.4827 211.2055
   212.8233 213.8848 214.2891 214.5101 215.4324 215.4623 216.1094 219.0118
   219.3932 220.2033 221.0521 223.0437 223.1349 223.6911 224.1358 224.7660
   225.3687 225.8090 226.3130 228.0334 228.5964 230.1903 230.8354 230.9776
   232.0339 232.8104 233.8541 234.3424 235.2589 235.4982 236.4238 237.6867
   238.9331 241.0675 242.0018 242.0031 242.1719 243.0978 243.1129 243.5583
   243.8239 244.4006 244.7380 245.4268 245.8914 248.1907 248.3449 248.3555
   249.0723 252.0710 252.3337 252.5415 253.2660 255.4481 255.9344 258.1253
   259.5741 260.0098 260.1603 261.8249 262.1399 262.5006 262.9444 263.0491
   263.5143 264.1913 264.2023 264.4479 265.2197 265.8414 266.7112 267.0952
   267.8067 268.0820 269.3530 270.2721 270.3066 271.8636 272.1551 272.4998
   273.4151 273.8546 274.7095 275.2034 277.5504 278.1035 278.5489 278.6644
   279.1774 279.6628 280.3381 280.7951 280.9405 282.1923 282.2476 282.6061
   283.3651 283.7836 284.3992 284.9302 285.3344 287.0784 287.6659 288.3617
   288.3816 288.6993 289.2340 289.5634 289.9688 290.5894 291.4936 292.6588
   292.7131 292.8977 294.4541 295.3769 297.3172 298.1557 298.3407 300.1579
   300.9733 302.4136 303.9449 304.1646 306.0667 306.3861 306.9503 307.0928
   308.9551 309.4678 310.3700 310.5029 311.4812 312.7267 313.1819 313.2425
   314.1991 314.4804 315.1540 315.6706 315.8449 317.6297 318.1994 319.0242
   319.3792 320.0814 320.5424 320.5579 321.1541 321.9151 323.5784 324.9426
   326.1667 326.6661 327.0837 327.9410 329.9781 330.5878 330.6699 331.0622
   332.3335 333.5181 333.8457 334.1339 334.3330 335.8845 336.5069 338.7355
   339.3996 340.9375 341.8294 342.0649 342.7050 343.4988 344.0779 344.3654
   344.6014 345.5428 346.1584 346.4720 347.0502 347.4628 348.1154 349.0583
   349.6464 349.6843 350.3939 350.8349 350.9928 351.2700 351.9937 352.3924
   353.7235 353.8433 354.2663 355.7929 356.6515 357.0136 357.5646 358.6100
   359.0351 359.2311 359.3410 359.7705 360.7751 361.1886 361.9102 362.0419
   362.5683 362.7801 363.3938 364.4230 364.9402 366.2023 367.4252 367.7411
   368.1081 369.3390 370.2341 370.5705 371.1452 371.7188 373.2285 373.2682
   373.3278 373.8645 373.9987 374.9326 375.1497 376.2536 377.0108 378.2739
   378.9091 378.9625 379.2818 379.9121 380.0682 380.5573 380.9639 381.4698
   381.6538 381.7380 381.7546 383.4377 383.9915 384.5967 384.7599 386.9992
   387.1158 387.5028 388.2766 388.7162 388.9425 389.4346 389.7880 390.1054
   391.2082 391.5560 391.5944 391.7919 392.1976 392.2976 392.4214 392.6562
   392.7371 395.1203 395.6509 396.2742 397.9156 398.8406 400.2353 401.7568
   401.9059 402.9864 403.0814 403.6717 403.8622 405.0113 405.0441 405.9385
   406.2777 407.5521 407.8566 408.5675 409.5324 409.6055 409.9311 410.0048
   410.3451 412.2424 413.6113 414.3027 415.4571 416.0249 416.5074 416.7011
   416.7044 417.6268 418.5178 418.8189 418.9012 419.0770 419.8346 420.1626
   420.4353 420.5776 421.5814 421.6482 422.1242 422.1678 422.4382 422.7588
   422.9712 423.7294 423.9403 426.1533 427.3819 427.7506 428.1861 428.4449
   429.7987 431.0481 431.0568 431.3514 431.8638 432.4844 433.1682 434.3391
   434.6842 434.8894 435.4208 435.5502 436.4170 436.4680 436.4720 437.3173
   437.9595 438.7959 438.8277 439.1960 439.7674 440.3927 440.8799 441.5836
   441.6144 442.5894 445.8498 446.5717 447.4049 447.9804 448.0841 448.8226
   448.8246 449.6087 449.9517 450.9382 451.0783 451.2451 451.8191 452.3433
   452.3682 454.4664 454.7910 454.9668 455.0649 455.3042 455.7688 457.6037
   457.7858 458.2157 460.1065 460.3244 460.4719 460.6606 461.3782 461.7695
   462.3801 462.5144 462.5446 464.3720 464.8104 464.9403 465.7306 465.7604
   466.4149 467.2869 467.7184 467.9350 468.2350 469.0470 469.2045 470.3676
   471.4362 474.0864 474.7874 475.1652 475.6474 476.1401 477.0010 477.1903
   477.6104 477.9296 478.0749 478.8370 479.3914 479.5232 480.0673 480.1257
   480.6436 480.8037 480.9992 481.5128 481.7070 482.0172 482.6821 483.4033
   484.1950 485.4240 486.2080 486.3951 486.8663 488.2972 488.4505 488.5924
   488.8238 489.8781 490.0392 490.1567 490.5989 490.6845 490.8938 492.8419
   493.2492 497.2807 498.9651 499.1745 499.2484 500.7898 501.4364 501.6356
   502.4147 502.7882 503.8347 504.3546 505.1257 505.6040 505.8438 506.8438
   507.3920 507.4556 509.0993 509.4862 509.5705 509.9140 510.2686 510.8440
   511.3178 511.5679 511.7366 512.2219 513.7502 514.4229 515.0813 515.1337
   515.9237 515.9446 517.3813 517.6774 517.6938 518.0136 518.8108 519.0810
   519.6957 519.8126 519.8979 520.1984 521.4717 522.0919 522.3723 522.7177
   523.0804 523.4162 523.5699 523.7064 524.1080 525.3902 525.3928 526.1324
   526.4989 528.2078 528.2939 528.3170 529.0234 529.1541 529.4600 529.4743
   529.8784 530.3256 531.9441 531.9584 532.1733 532.6652 533.2059 533.9235
   533.9774 536.5786 536.7448 537.4586 538.0692 538.3042 538.6523 539.2369
   539.2945 539.6517 540.7028 540.7630 540.9520 540.9676 541.3380 542.1381
   542.7813 543.5391 543.8921 544.3776 545.1884 545.8221 546.4230 547.2699
   547.8005 548.1449 548.2908 548.4069 548.4739 548.7176 548.9660 549.1903
   549.2866 549.5097 549.6446 550.0391 550.2375 551.6907 552.8385 553.2215
   553.4275 555.0992 555.7609 556.8006 557.4221 557.5516 557.6143 558.2490
   559.1243 559.1312 559.4784 559.7345 560.0294 560.1032 560.4709 560.7737
   560.9633 561.7221 561.8059 563.0694 564.8308 565.1406 565.3770 565.9293
   566.9821 567.4268 567.8580 567.9024 567.9321 568.5143 569.0431 569.0741
   569.2370 569.4420 570.3887 570.9281 571.0656 571.6145 572.7716 572.7768
   573.1183 575.0686 575.1913 575.2615 575.5151 576.2867 576.3949 576.8404
   577.7440 578.2502 578.3397 578.8475 579.0650 579.5410 579.7033 579.7435
   580.0052 580.2791 580.3059 580.6556 580.7930 581.0614 581.7124 582.2816
   582.6754 583.4243 584.1624 584.5885 584.6859 585.6400 586.0703 586.1220
   586.4598 586.6592 587.3992 588.7366 589.8616 591.7642 591.8224 592.2135
   593.1204 593.1276 593.5633 594.3670 594.5509 595.6825 595.7947 595.8036
   596.2417 596.6425 597.4222 597.5337 597.5806 598.7788 599.6334 599.7564
   600.4909 601.0860 601.5415 601.9430 601.9986 603.6099 603.6942 603.8669
   604.7131 604.7934 605.0102 605.3466 605.7119 605.8456 606.1535 606.4787
   606.6899 608.2839 608.9391 609.9270 612.0104 612.0983 612.1718 612.2216
   613.0353 614.3606 614.4201 616.1090 616.1541 616.3347 616.8258 617.1382
   617.6998 617.7397 618.7583 618.9007 619.0748 620.1800 620.1819 620.4796
   620.6287 622.3875 624.5298 624.7032 625.8990 627.5139 627.5925 627.7328
   627.7927 627.8081 628.0173 628.8620 628.9203 629.4203 629.4828 630.2285
   630.4370 630.5132 632.3161 633.8588 634.2171 635.7647 637.0564 637.1863
   638.0717 638.2298 639.3684 639.7721 639.7862 639.9279 640.3171 640.6423
   641.8360 642.2280 642.9081 643.0007 643.3570 643.4803 643.6586 643.8832
   644.2909 644.6725 644.7568 645.0793 645.8242 646.1471 646.6137 646.7362
   646.8882 646.9586 647.0997 647.5140 648.1581 648.3478 648.5137 649.9580
   650.0215 651.5033 652.5377 652.5967 652.8642 652.9035 653.0427 653.9782
   654.4966 654.5495 655.1545 655.2797 655.9433 656.4048 656.5231 656.5956
   656.7799 656.8431 657.5761 657.5979 657.6942 658.4337 658.6076 658.8088
   660.0589 661.5766 663.4385 664.1715 664.2726 664.7322 666.2526 666.3374
   666.6881 667.1070 667.2140 667.3392 667.8145 668.0727 668.1613 668.2335
   668.2368 668.3748 668.8824 669.4494 669.9271 670.0442 670.9873 670.9893
   673.1494 673.2188 673.4954 673.6011 674.4626 674.6920 675.7198 677.2343
   677.2499 677.9273 677.9838 678.3194 678.3202 678.5478 678.5784 679.2020
   679.7064 680.1882 681.7212 682.7031 682.7538 682.8563 683.5064 684.0592
   684.6056 684.8592 686.1976 686.4263 686.8109 686.8546 687.0497 687.3820
   688.1434 688.1483 690.1323 690.1812 690.3643 690.3838 691.5510 692.1140
   692.8769 694.6565 694.7139 695.4255 695.6605 697.1386 697.2218 697.5819
   698.3477 698.4663 699.3064 699.6359 699.8398 699.8751 699.8860 700.7641
   700.9057 701.1119 701.7680 701.8278 702.2445 702.2744 702.4694 702.6568
   703.7756 704.2549 704.9133 705.2752 705.6019 705.6584 705.8160 706.6980
   706.7179 706.7460 707.3810 707.3954 707.6112 707.6287 710.4957 711.6137
   711.8776 712.2517 713.6264 714.1483 714.1633 714.7216 714.8034 715.0748
   715.3223 715.9248 716.0200 716.6679 716.7449 716.7930 717.0530 717.0606
   718.4145 718.5355 718.8151 719.0548 719.3155 719.3316 722.8450 723.2704
   723.4681 723.7160 724.0151 724.9215 725.1540 725.1630 725.3022 725.3773
   726.1593 726.1991 726.3034 726.4792 727.0323 728.3139 729.5589 729.6466
   730.0089 731.2133 731.6387 731.6762 731.9998 732.6636 733.0237 733.6852
   734.5288 734.8840 736.1816 736.7170 736.7271 736.9590 737.0606 737.1443
   737.9190 738.2571 739.2696 739.8361 740.7243 740.9612 741.0354 741.2817
   741.3703 742.7352 743.2890 743.6936 743.8948 743.9728 744.2737 744.3737
   744.5837 744.8051 744.9817 746.3443 746.3665 747.3711 747.3726 747.8735
   748.1014 748.3137 748.3849 749.9175 749.9323 750.1419 751.0961 751.5187
   753.4331 753.4447 753.5646 753.5821 753.8125 753.9605 754.6170 756.8340
   757.1351 757.1955 757.2369 757.5870 757.8732 758.3279 758.3959 758.6104
   758.6576 759.3075 759.3455 759.4325 759.4627 759.5674 759.5749 762.5671
   762.7034 763.1652 763.3412 764.4190 764.5534 764.6049 764.6434 764.7726
   764.8099 765.2023 765.2489 765.9201 766.2353 766.6952 766.8408 766.9885
   767.0876 767.2539 767.6147 767.7135 768.6285 768.9168 768.9605 769.3126
   769.7176 769.8233 771.3900 771.4082 771.7105 771.7250 772.9679 773.0770
   773.4070 773.5154 773.7196 773.7751 774.3413 774.4925 774.6621 774.6999
   775.5654 776.1764 776.3675 776.4998 776.6677 777.7026 778.3028 778.3111

          k = 0.6667-0.3333 0.6667 (  2390 PWs)   bands (ev):

   -45.3472 -18.0869 -17.3064 -17.2898 -16.5517   0.1670   1.1515   1.3104
    13.0510  14.8461  20.0893  22.0565  23.1292  26.4844  29.0373  31.0988
    31.8431  33.2215  36.0909  38.0508  42.1848  44.7742  45.4870  46.7943
    48.1369  51.0720  51.6714  53.0379  54.6109  55.7287  56.0896  57.4818
    59.0886  60.0926  63.2230  64.5439  66.3702  67.0901  67.3877  70.3492
    70.6804  72.9971  76.6687  77.5504  79.8047  79.9462  80.5009  84.3248
    85.2918  85.8395  86.0425  87.1642  88.0464  90.2986  90.7998  93.1499
    93.7156  95.9932  96.2968  97.6834  98.5689 100.5115 100.8375 101.4305
   104.4449 104.5377 105.3107 106.6759 107.2051 108.3995 109.6718 109.9665
   110.8850 111.4335 113.9453 116.0003 116.2894 117.6588 117.8042 118.7499
   120.0865 120.4339 122.5610 123.0839 124.6618 125.9911 127.4120 129.0011
   129.7154 130.0135 130.2432 131.7763 133.6801 133.9931 135.8426 137.2639
   141.0982 141.4481 142.5921 142.8125 143.7388 144.3868 144.6629 145.1680
   145.8884 146.0328 146.8306 148.1888 150.7236 150.7416 151.4593 153.1085
   154.9122 155.8617 156.3760 157.4431 158.1608 159.4773 160.5965 162.7156
   163.7057 164.5781 164.8460 165.3680 165.7405 166.0687 167.2642 170.1377
   170.3982 170.4013 170.9932 173.0101 173.5863 174.5527 175.2392 175.8891
   177.0865 178.7457 179.9281 181.3974 181.5119 181.7514 183.9741 184.3460
   184.5073 184.5234 185.5245 185.9844 186.9128 188.7467 189.0412 190.1946
   191.5912 192.0557 192.5375 192.7048 193.3636 193.7110 194.2136 195.1392
   195.8691 196.8657 199.3300 200.9213 202.2275 202.5665 203.4665 204.1286
   204.3808 204.8494 205.1684 207.5577 209.3204 209.9972 211.1363 211.2331
   211.8185 212.6100 212.9226 214.5463 215.2440 215.2963 216.0868 219.0878
   220.6417 221.3497 221.3743 222.1387 222.3581 222.8698 223.5330 224.6257
   225.3485 225.5614 226.3789 226.5020 228.2329 228.6128 229.8554 230.0668
   230.5446 232.4197 233.1675 233.7902 236.5283 236.9908 237.2113 237.3868
   238.5314 238.9691 239.9202 240.6296 240.7528 240.7862 241.0374 242.1916
   242.8124 243.7646 244.5521 244.8637 245.4898 246.2075 247.4535 248.1707
   248.4893 249.1429 249.5786 250.9553 251.6862 252.4205 252.5973 252.8728
   253.9302 255.6941 257.0146 257.7840 257.8064 258.4906 259.9482 260.4710
   261.0354 262.1734 262.4390 265.0750 265.8115 266.6433 267.7427 268.5898
   269.2066 270.1457 270.5223 270.9653 271.0181 271.6416 272.7552 275.0338
   276.4638 277.4398 277.9136 277.9919 278.2800 278.9285 279.1807 279.8303
   280.8026 281.3792 281.4256 283.1884 284.3917 284.7451 287.3632 287.4784
   287.6228 288.5414 289.2117 289.5389 290.1685 291.2132 291.6472 292.0029
   293.7874 294.6778 295.4964 295.9793 297.3200 297.3721 297.7973 298.2716
   299.1329 300.6105 300.8369 301.2055 301.6937 301.8313 302.3537 303.5161
   304.5039 305.0576 305.8997 305.9495 306.1937 306.4107 307.0496 307.1003
   307.9450 308.5438 309.1872 310.2522 310.5772 310.7402 311.3762 313.9875
   315.1304 315.4528 316.1647 316.2349 317.5006 318.0971 318.1310 318.4911
   320.1338 321.8567 321.9673 322.8421 323.0407 323.1907 323.8351 325.3667
   326.1002 326.8204 327.5087 327.5274 327.7260 328.0681 328.2185 328.2330
   328.9586 330.1105 332.2474 332.4669 333.0836 333.8074 334.0082 334.5453
   334.8410 335.2507 335.4139 336.0232 336.2054 336.2605 336.7225 336.8893
   337.1368 338.5075 340.0283 342.5434 342.5535 344.1269 344.4126 344.8773
   345.6501 346.8494 347.8845 347.9096 347.9650 348.4832 348.5735 348.9494
   349.5310 350.4235 352.2599 353.0671 353.6099 354.0453 354.0863 354.4216
   354.7741 355.5615 355.6581 356.7939 356.7975 357.8734 360.1384 361.0037
   362.0753 362.1084 363.1952 363.7163 364.4673 365.1327 365.5993 367.6238
   368.2492 368.4228 369.2381 370.8846 371.1306 372.0953 372.6206 373.1314
   373.6865 374.2348 374.3437 374.5249 375.2033 375.4893 375.9402 376.0495
   376.5319 376.7017 378.2950 378.6403 379.4186 379.8116 380.4158 381.0408
   381.1319 381.2739 382.6853 382.8111 383.9306 383.9944 384.5148 384.7625
   385.0254 385.3323 386.1623 386.4320 388.3070 391.3901 392.1971 392.5502
   394.3354 394.4242 394.5880 394.8818 395.8807 396.0564 396.3923 396.4885
   397.7862 398.5240 400.2822 401.3955 401.6273 402.4078 402.4347 402.6992
   402.8503 403.1231 403.4522 404.0588 404.4971 404.5141 407.0748 407.2698
   408.6398 410.1200 410.6555 410.9045 411.1108 411.6154 412.0944 412.8252
   413.6344 414.6388 414.8565 414.9923 415.4557 415.8270 415.9706 416.1037
   417.4892 419.8752 420.0492 421.0223 421.6771 421.8599 422.2714 422.4351
   422.5218 423.8704 424.8915 425.2149 425.6690 425.8311 427.9684 428.0796
   428.9362 429.6789 429.6922 430.1756 430.2395 430.7308 431.0756 431.2536
   431.7672 431.8330 432.2026 432.6736 432.7114 433.4233 434.0038 434.2427
   434.5281 434.7929 434.8953 435.8074 436.0286 436.3376 437.7868 438.0236
   438.8054 439.2848 440.1260 440.4683 441.3817 441.5588 442.1889 442.6050
   442.9658 443.6813 444.4505 445.5449 447.3927 447.4751 448.8634 449.5569
   450.0751 450.2168 450.5032 450.7806 450.8284 451.2187 451.7779 452.1731
   453.5282 453.9037 454.0416 454.1266 454.7939 455.6756 456.5591 458.8190
   459.0565 459.1177 459.6290 460.0229 460.4738 460.5273 461.2265 461.6201
   461.6782 462.1145 463.9025 464.0167 464.8150 465.6211 465.7760 467.6031
   467.9571 468.0122 468.1120 469.2334 470.3455 470.4467 470.6109 470.7242
   471.0383 471.0553 471.0924 471.6485 471.9561 473.2644 474.0847 475.1232
   476.6055 477.4455 477.9653 478.6566 479.3684 480.3740 480.9392 481.1662
   481.7183 482.4482 483.0334 483.1675 483.3107 483.5426 485.9783 486.1553
   486.3897 486.8387 488.4560 488.4639 489.2123 489.6122 489.8504 489.9107
   490.1128 490.4770 490.7427 491.2658 491.4581 492.7396 492.7689 492.8226
   493.7336 494.7990 495.7712 496.0369 496.3697 496.8653 498.5855 499.0201
[...]
   415.0550 415.1514 416.5974 416.7197 417.8052 417.9930 423.0055 423.0598
   424.1964 424.3891 425.1108 425.5080 425.6030 426.5024 426.7294 427.0658
   428.1199 428.3539 428.4821 429.2816 430.6589 431.2648 431.7273 432.2922
   432.3396 433.3437 433.9446 434.5759 434.9382 434.9750 435.3792 435.6227
   435.8204 435.9016 435.9548 436.6337 437.3786 437.4822 437.8189 438.0811
   441.1636 441.2948 442.1245 442.1411 442.9403 443.1703 445.1201 445.1383
   446.9357 447.9764 449.0880 449.1049 449.9785 450.1323 450.7035 451.1267
   452.0566 452.3552 452.9674 452.9721 453.3402 453.3922 453.8543 453.9973
   455.1048 455.2046 455.8400 455.9455 455.9528 456.3875 456.8135 456.8174
   457.5403 457.9109 458.6085 458.6167 460.8425 460.9963 463.0180 463.5620
   464.6567 464.6850 465.6931 468.6099 468.7338 469.0772 469.1947 469.3375
   470.0861 470.6679 470.7583 471.1006 472.6723 472.8322 474.6478 474.8221
   474.8582 475.9412 476.1749 476.1941 476.2980 476.7502 476.9848 477.0878
   479.2179 479.5587 480.7513 480.8927 481.0568 481.1625 481.1894 481.5011
   481.5137 481.8173 482.8919 484.1522 484.6808 484.7707 484.9215 485.1525
   485.6114 485.7230 487.1602 487.2443 487.4686 487.5259 487.6188 487.7376
   488.7465 489.6230 490.3418 490.5458 490.7905 490.9151 492.0622 492.3125
   493.7269 493.7513 494.2086 494.3473 494.4779 495.2997 495.7389 495.7744
   495.9450 496.0540 497.7091 497.7244 498.5131 499.0882 500.8286 500.9717
   501.2955 501.3196 502.5986 502.9838 503.0905 503.9106 503.9156 504.5486
   504.9111 505.1995 505.5116 506.0073 506.3125 506.4860 507.0077 507.3522
   507.5381 507.8831 508.4102 508.4227 509.8157 510.0095 510.4424 510.7196
   511.1753 511.3047 513.9727 514.2978 514.8891 514.9170 515.4653 515.4766
   517.2634 517.3694 518.2384 518.7530 519.7657 520.1397 522.6224 523.0068
   523.4272 523.6384 523.7909 523.9383 524.2683 524.4213 525.4338 525.5411
   526.0998 526.1539 527.1064 527.1643 527.5677 527.7104 529.8012 529.8528
   530.7000 530.7351 532.5979 532.6218 533.1987 533.5003 534.6694 534.6962
   536.4014 536.4164 536.6067 536.8984 536.9000 537.3165 539.0398 539.9554
   542.1280 542.1340 543.2477 543.3313 543.7920 544.1038 544.3019 544.3538
   544.7768 545.3913 545.6844 546.0993 547.5835 548.1451 548.6959 548.8786
   548.9690 549.2901 549.6714 550.2025 550.7037 550.7487 551.4784 551.6840
   552.7546 552.9610 555.5450 555.5730 557.0017 557.4317 557.7844 557.8049
   560.1433 560.1452 561.3635 561.5978 562.3294 562.3690 565.3059 565.5770
   565.6071 565.7441 568.1548 568.7877 570.3292 570.3794 570.9030 571.5611
   571.9137 571.9772 572.6394 572.9151 572.9234 573.6055 574.6567 575.1372
   575.1554 575.1999 575.3655 575.8742 576.1431 576.4845 576.5041 576.8693
   578.7567 578.7640 580.0898 580.3277 580.4232 580.4500 580.5964 580.9911
   581.3129 581.5374 582.2552 582.2836 582.3733 582.4238 582.9312 583.1695
   584.1478 584.1520 584.7932 585.0222 588.0028 588.6938 589.7988 590.1473
   590.2653 590.6662 590.9876 591.0794 591.5349 591.9462 592.1140 592.2561
   593.3057 593.6262 593.8804 593.9258 594.9922 595.3784 595.4670 595.7170
   595.8710 595.9274 596.3591 596.4045 597.4222 597.4228 599.8393 599.9411
   600.7271 600.9053 600.9352 601.0988 601.6934 601.7252 602.7091 602.8117
   603.0313 603.7657 603.7927 604.4357 605.3177 605.7078 605.9943 606.0568
   606.2047 606.6052 606.9192 607.1133 610.2585 610.5964 613.7393 613.8037
   614.4262 614.5653 614.9407 615.2222 615.3894 615.3923 615.4762 615.5199
   616.1963 616.3311 619.0640 619.1300 619.5361 619.9368 620.3975 620.5529
   620.6933 620.7115 621.1097 621.1781 621.1875 621.2320 621.7343 621.9915
   623.7114 623.7462 623.9098 623.9908 624.8121 624.9911 625.3492 625.4368
   625.7941 625.8237 628.3975 628.5170 629.4136 629.4291 629.7225 631.1381
   631.4685 631.7375 632.3664 632.3880 632.5633 632.5964 633.9006 634.1678
   634.6316 634.6406 634.7817 634.8741 636.5241 636.7737 637.3326 638.3724
   638.6028 638.9758 640.2203 640.4765 640.6242 641.0321 641.2549 641.6356
   642.0994 642.1684 642.2800 642.6320 643.4858 643.6496 644.4487 644.4823
   645.1287 645.1555 647.9194 648.0456 649.1999 649.2156 649.5045 649.7378
   649.8824 649.9475 650.8806 651.8072 651.8266 651.8275 652.0398 652.2294
   652.8357 653.2543 653.9245 654.1810 654.1913 654.6964 655.3094 655.3963
   655.4633 655.4957 656.7500 656.7775 658.3880 658.4938 659.6570 659.6953
   660.1921 660.9355 663.6842 663.9470 664.5428 664.7951 665.3205 666.0578
   666.0686 666.6251 667.4288 667.7294 668.4590 668.4696 668.6254 668.6661
   669.9409 670.0270 670.7175 671.2851 671.4337 671.4458 672.8359 672.8795
   673.4753 673.5127 676.1717 676.2088 676.5982 676.8143 676.9005 676.9720
   677.4153 677.5392 677.7946 677.9776 679.2644 679.2966 679.3610 679.3819
   680.2034 680.2626 680.6881 680.8757 681.2247 681.2925 682.1849 682.7081
   683.6044 683.7039 684.2658 684.3048 684.8690 684.8792 685.8294 686.2640
   686.4474 686.4514 688.0634 688.1069 689.6575 689.6627 690.1785 690.8035
   691.3870 691.5255 691.6569 691.6842 691.8531 691.9936 692.0459 692.1179
   692.7149 692.7516 693.6721 693.7472 696.1884 696.4261 696.5922 696.6317
   697.0106 697.0855 698.5041 698.5082 699.3743 699.4610 700.1654 700.3989
   700.6506 700.8667 701.2651 701.3397 703.1908 703.2076 704.1197 704.2101
   704.2629 704.2898 704.7588 704.8739 705.6356 705.6468 705.6741 705.9941
   706.8429 706.8534 709.6428 709.6646 709.7732 709.8504 710.9530 711.0079
   711.5325 711.5504 711.6364 711.7954 712.2506 712.2722 713.9708 714.1968
   714.3551 714.4184 716.4475 716.4766 716.4781 716.5209 716.7189 716.7433
   719.0329 719.0365 719.8034 720.1784 720.8615 721.0140 722.4286 722.4745
   723.5607 724.0231 724.7080 724.7730 725.6805 725.7481 725.8081 726.0400
   726.3080 726.3158 726.8161 726.8536 728.2371 728.9487 730.6040 730.7019
   730.7145 730.7319 731.8798 731.9832 733.5729 733.6595 733.9582 734.4423
   735.0739 735.4338 735.6095 735.6422 735.9096 735.9316 737.8785 738.0517
   739.7486 739.8818 740.0914 740.1043 740.2925 740.3709 740.4205 740.4774
   741.4545 741.5130 742.6176 742.6577 744.2402 744.3647 746.2096 746.3227
   748.1535 748.4113 748.6851 748.7932 749.1782 749.2936 749.5543 749.6031
   749.6977 749.7235 749.7412 749.7508 750.1607 750.2173 751.0788 751.0877
   751.1543 751.2015 752.0883 752.0909 753.6642 753.7975 754.4199 754.4554
   757.9816 757.9891 759.0470 759.1005 759.7606 759.7996 760.7762 760.7940
   761.8717 761.9332 762.0520 762.0658 762.1707 762.3022 764.4667 764.6582
   764.8023 764.8314 765.9819 766.0553 766.9394 766.9623 766.9984 767.0020
   767.9000 768.0538 769.0889 769.1212 769.2008 769.2159 769.8941 770.0095
   770.1440 770.5538 771.4570 771.4617 772.9140 772.9165 773.5476 773.5527
   774.2161 774.2185 775.9894 776.0760 777.6563 777.7276 779.0204 779.0665
   781.1441 781.1720 781.3093 781.3267 782.5976 782.6605 782.8200 782.9370

          k =-0.3333-1.0000 0.0000 (  2402 PWs)   bands (ev):

   -45.3435 -17.7133 -17.3989 -17.3493 -16.8391   0.4932   0.9431   1.0638
    15.1474  15.1752  16.7154  19.8986  23.6656  28.4156  28.4440  30.9288
    34.9215  37.2236  39.2043  40.5861  40.9066  42.0046  43.0405  45.1328
    46.1340  47.9710  49.5185  54.0019  54.8498  55.6914  55.9381  57.4179
    57.5049  58.0930  58.7446  60.5817  69.7655  69.8581  71.1178  73.6843
    74.5872  74.6108  74.8428  77.0038  79.5903  81.5630  82.0722  84.4243
    84.7294  85.4570  87.3764  87.8553  87.9611  89.8670  90.6941  93.2867
    94.1158  94.9402  96.6644  97.2180  99.8104 100.7227 102.1378 104.1648
   104.4338 105.3710 105.6638 106.7398 108.0580 108.0584 108.5037 109.5580
   109.6904 111.2202 112.9517 114.1043 115.0327 118.1690 120.8599 121.0842
   121.2664 123.1472 123.3395 123.4021 124.6190 125.6022 127.0406 127.2754
   127.6224 129.4474 130.2483 130.4341 131.6338 132.7597 134.2665 134.4113
   134.6218 135.5149 137.8499 138.7120 139.1715 139.2923 140.8133 141.2242
   143.0712 143.1525 145.0983 145.6339 149.8744 150.1778 153.7889 156.8989
   159.0933 159.7471 160.1801 160.9006 162.2157 162.2915 164.8195 165.0265
   165.8105 167.0554 168.9172 169.3303 169.5447 170.1271 170.9824 171.7960
   172.0011 172.4313 172.5991 174.2620 174.3126 175.7364 176.0806 176.5357
   176.9911 178.1422 181.5716 181.7550 182.6271 184.2730 184.6671 186.1089
   186.9600 187.6150 188.3499 188.4944 188.8089 189.6823 190.4056 190.5530
   191.3331 191.6647 192.0504 192.6672 193.5580 194.9190 195.3951 195.4808
   196.0205 198.3346 200.5984 201.0214 201.0253 201.3212 201.3425 202.5835
   203.1212 204.5244 204.7222 204.8843 205.8814 209.7195 209.8086 210.1720
   210.8970 212.0853 212.6218 212.6227 213.9943 214.1835 215.8972 216.0684
   217.4245 217.6656 217.7667 218.0217 218.4891 218.5731 221.7210 222.5252
   222.5291 223.0710 223.3443 223.5817 223.9495 223.9601 224.1457 224.6777
   224.8351 225.7646 226.1217 229.3411 229.5801 233.1534 236.1250 236.4429
   237.3065 239.5171 240.3520 240.8139 241.7949 242.2810 243.0204 243.0438
   243.3151 244.8129 244.9067 246.3088 248.0876 249.1867 251.0447 252.7027
   253.2340 253.8158 254.0455 254.5815 254.6104 254.8665 255.1255 255.1680
   255.7411 256.1672 256.2516 257.3640 258.2667 262.0118 263.2689 264.8441
   264.9762 265.2707 265.6860 266.4086 266.5578 266.6734 266.7676 267.1855
   267.4874 270.2846 270.5851 270.8466 271.3400 271.9594 275.6090 276.3085
   276.7284 277.8133 277.9251 278.1125 278.5469 278.8085 279.6345 281.3197
   281.9845 282.3337 283.5421 284.8631 285.4039 286.9045 286.9155 287.1839
   287.3271 288.8378 289.1887 289.2582 289.9286 292.2291 292.4341 292.7383
   293.2077 293.5237 293.6409 294.6150 297.6179 298.8034 299.3367 299.6130
   301.0452 301.7074 301.9477 302.9397 303.3077 303.6737 304.0566 304.1355
   304.4569 305.9231 306.3627 306.6204 308.5479 309.2662 309.3443 309.4823
   309.7643 310.0598 310.9392 312.4357 312.9496 313.9441 314.7370 315.0903
   315.4067 316.0311 317.2546 317.6895 317.9500 318.6307 318.6368 318.9811
   318.9865 319.6153 319.7365 320.2704 320.7691 321.5385 322.9320 323.6686
   325.5419 325.5930 325.7057 325.9011 325.9425 327.7368 327.9075 328.2182
   328.5832 329.4044 330.2386 330.6773 331.0959 332.0395 332.0707 332.3592
   333.8851 335.2124 335.4147 336.2007 337.2193 337.4150 338.5521 338.7638
   339.1218 339.1597 339.1711 339.7319 340.4532 340.7051 340.7084 340.9804
   341.1674 342.1887 342.5217 343.9418 345.2289 345.2380 345.2419 345.5679
   347.1120 347.6686 351.9793 352.0359 353.0193 353.8602 353.9162 354.7889
   355.6456 357.1179 357.1797 357.5792 358.1259 358.1853 359.4064 360.1821
   360.4483 360.5597 361.5427 361.9846 362.4109 364.4390 364.9318 365.1628
   366.7016 367.1174 368.5197 369.3419 369.5180 370.2111 371.6199 373.1658
   374.0026 375.0201 375.0454 375.1171 375.4091 375.9666 376.3711 376.3883
   376.9495 377.0112 377.0350 377.1287 377.8539 378.2086 378.3442 379.1790
   379.5843 379.8014 380.1722 382.6727 383.0634 383.5016 384.4950 385.7359
   386.2041 386.4611 388.7227 389.6411 389.9807 390.3706 390.4584 392.3406
   394.6666 396.2186 396.6046 396.8125 396.8543 396.9473 396.9721 397.9321
   398.1666 398.3204 399.3537 399.8616 399.9419 401.0105 401.4129 402.6862
   403.2782 404.3983 404.7094 405.3062 405.4410 405.5643 406.3620 407.5078
   408.0308 408.1895 408.2193 408.4386 409.5329 409.8764 409.9983 410.6646
   412.1705 412.6100 412.6823 412.9324 412.9333 414.5275 414.9073 415.0412
   415.2319 415.3278 416.4836 420.5091 421.3404 421.5678 421.8086 421.9558
   421.9792 423.4799 424.0150 424.0714 425.4645 425.6267 425.9763 426.8345
   427.2388 428.1021 428.8909 429.3041 430.8777 431.0170 431.1834 431.5742
   431.7890 432.1163 432.5100 433.1180 433.7876 434.5367 434.5558 434.5752
   440.7169 440.8451 441.8176 442.4721 443.2042 443.2405 444.4983 444.8622
   445.2094 445.4708 445.7092 445.7428 447.2406 447.3311 447.5239 447.9391
   448.5947 448.8823 451.5525 451.8226 451.9365 452.3069 452.5325 453.0749
   453.2875 453.6160 453.6369 454.2637 454.6543 455.4993 455.6520 456.1894
   457.1582 457.5499 457.5910 457.9274 458.8313 459.4577 460.5702 460.6679
   461.0195 462.2285 462.7422 462.8971 463.0999 463.2331 463.3332 463.6719
   463.9071 464.1625 466.5658 466.5822 468.5065 468.5881 469.4843 469.5021
   471.0805 471.1957 472.3562 472.4187 472.4291 472.4632 472.4731 472.7029
   472.8657 472.9883 473.2473 473.2982 473.5869 473.9249 474.4957 474.6974
   475.1944 475.2715 476.2957 476.5317 476.6237 476.7831 477.0174 477.8895
   479.5214 479.5222 479.6167 479.6211 480.6957 481.0650 483.1301 483.1568
   483.3185 483.4788 484.0894 484.2021 484.5910 484.8979 484.9820 485.1397
   486.4791 486.4825 488.3039 488.5415 490.0305 491.1349 491.4412 491.7742
   492.4218 492.4308 492.4543 492.8277 493.5416 493.6385 494.0781 494.6127
   494.7511 495.0561 495.9039 495.9123 496.3068 498.3819 498.6754 500.1883
   500.7003 500.8653 501.2629 501.9701 502.6431 505.0323 505.1819 505.3160
   505.6873 507.5555 508.0212 508.0809 509.3948 509.9825 509.9868 510.8843
   510.9925 511.2396 511.7709 511.9082 511.9466 512.1652 512.2507 512.4373
   512.7286 512.7741 512.8510 513.7719 516.2890 516.4590 517.2658 517.7628
   518.4735 518.6386 519.1927 519.2466 519.2734 519.4343 520.2483 521.0710
   521.5430 521.5977 522.1608 522.3712 522.8471 523.0197 523.0293 523.3600
   523.3915 523.4201 524.7770 524.9115 529.2788 529.5732 529.6145 529.8002
   530.0869 532.0949 532.6057 532.7456 533.1383 533.6664 533.6668 533.8858
   533.8921 533.9142 534.2370 534.6625 534.8746 538.1550 538.4468 538.6059
   539.7349 540.1661 540.3262 540.3930 541.0291 541.6274 541.7771 542.3643
   543.0596 543.8664 543.8992 545.7927 546.7823 546.7907 547.4494 547.7959
   548.6211 548.9409 549.5696 549.6642 553.1868 553.3525 554.4188 554.6459
   556.0039 556.1186 557.0909 557.4307 557.9522 558.4135 558.4297 558.5149
   558.5650 559.0033 559.0323 559.3682 560.5677 560.9854 561.9003 562.1351
   563.4798 563.4825 564.3653 565.1161 565.9748 566.2192 566.6856 567.0220
   567.6177 569.5455 569.8425 570.4852 570.8268 571.0574 572.0255 573.1664
   573.8064 573.9836 574.6396 574.8531 575.1610 575.4262 577.4243 577.5081
   577.6010 577.6406 579.8467 580.1444 580.4045 580.4522 584.4018 584.4924
   586.8233 587.6239 587.6700 587.9497 588.0128 588.4255 588.5714 588.5838
   589.9206 590.2114 590.4314 590.5186 591.0999 591.1147 591.5999 591.9034
   593.1815 593.6567 594.3408 595.5378 595.9654 596.3154 596.5621 596.7500
   596.8970 597.0154 597.5869 597.9571 598.1079 598.1642 598.2978 598.8020
   599.1127 599.3293 601.3353 601.3630 601.5285 602.3155 602.8801 603.7426
   603.8349 604.0820 604.1910 605.3663 605.6605 605.7044 605.7745 605.9029
   606.1396 606.1627 606.7019 607.0059 607.0061 607.0296 607.0411 607.0694
   607.4907 607.6215 608.0146 608.0469 608.1867 608.1904 608.2370 608.2940
   611.5904 611.9261 612.9720 613.3117 615.2975 615.9103 615.9218 616.0208
   616.0777 616.2302 616.9229 618.6664 618.6764 618.9893 618.9965 619.3183
   619.6271 619.8067 619.9838 620.4663 620.4727 620.9149 620.9375 620.9852
   621.0083 623.1183 623.1200 625.1435 625.4731 625.7409 625.8592 626.0203
   626.2295 626.8143 626.8434 626.9277 626.9400 627.2474 627.4104 627.4284
   627.5151 627.9301 628.3341 628.4436 629.0246 631.7126 632.1200 632.3678
   632.9341 633.3137 633.5947 633.7985 635.0039 635.3367 635.4145 635.7535
   636.1437 636.4686 636.5786 636.6707 637.5531 637.8380 638.0003 638.0532
   640.0990 640.3597 644.1332 644.4405 644.5972 644.7256 645.9317 645.9450
   646.3127 646.3340 649.1279 649.1675 649.1942 649.2487 651.3339 651.8228
   651.8457 652.0622 652.3697 652.5395 652.9704 653.9226 654.4130 654.4582
   654.8771 655.2624 655.4003 655.4687 655.5144 655.6148 655.9100 656.1939
   656.3568 656.5076 657.7160 657.7285 658.2164 658.2460 660.8802 660.9512
   661.1700 661.6539 661.7201 661.7719 661.8572 662.4607 662.8077 662.8504
   663.1202 663.1780 663.5668 664.1971 664.4523 664.5132 664.5821 665.2185
   665.2213 665.3428 665.7778 671.1640 671.1681 671.4399 671.4554 671.8451
   672.1664 673.2474 673.7027 674.1315 674.3394 674.4018 674.4096 674.4999
   674.7045 674.7055 675.1042 675.1812 675.6272 675.6742 675.7947 676.2218
   676.4875 676.5154 676.5437 677.6916 683.9110 684.5226 684.5363 684.6650
   684.8312 684.9026 686.3994 686.4308 686.4560 686.5893 686.6121 686.7226
   686.8529 686.8659 687.7114 687.7192 688.7597 688.9595 689.5482 690.1516
   690.3931 690.9116 691.8171 692.0115 692.0190 692.0488 692.9826 693.2400
   693.2981 693.4392 694.5854 694.7036 695.7724 695.7856 697.5960 697.6484
   697.6523 698.0125 701.7960 702.1272 702.3020 702.4096 702.7220 702.7380
   703.2692 703.2949 703.3667 703.3818 703.6321 703.6655 704.1912 704.4236
   704.7268 704.7831 706.4578 706.7572 706.9310 706.9504 706.9843 707.3080
   708.4240 708.8658 709.6415 710.2305 711.0335 711.2632 711.7017 711.7268
   711.9726 712.1357 712.4147 712.7814 713.5645 713.6337 713.7687 713.8859
   714.0017 714.0082 714.0456 714.1228 714.2175 714.4005 714.4026 714.6220
   714.8749 715.2681 715.3917 715.4669 719.9999 720.1618 720.3276 720.3949
   724.8416 724.9523 725.2003 725.2015 725.5760 725.5777 727.7225 727.7226
   729.8906 729.9905 730.0367 730.2421 730.4446 730.4800 730.4928 730.7702
   730.8335 730.8792 731.0394 731.1066 731.9330 731.9739 731.9927 732.3628
   737.1425 737.2986 737.9580 738.1433 738.6932 738.6955 740.0197 740.0400
   740.1508 740.3394 740.3595 740.5203 740.6098 740.6237 741.4884 741.8455
   741.8581 742.0841 742.3717 742.3863 742.6430 742.7658 742.8367 743.2710
   743.5827 743.5999 744.0867 744.1189 745.5336 745.5403 748.0336 748.0473
   750.8029 750.8918 750.8927 751.1368 751.2250 751.2327 751.2448 751.2675
   751.4507 751.6116 751.6336 751.6489 754.4447 754.5836 754.8466 754.8558
   755.7505 756.2393 758.4333 759.7293 760.0829 760.3803 760.9348 761.5917
   761.8027 762.0775 762.2103 762.3048 762.3482 762.8282 762.8625 763.4673
   763.4868 763.8723 763.9154 764.2403 764.2487 764.7602 764.7956 764.8990
   765.5739 767.2413 767.3978 769.3673 769.4965 769.5596 769.6492 771.3459
   771.6897 771.7291 771.8039 773.6292 774.5036 774.5751 775.2330 775.2481
   777.6845 777.9915 778.0089 778.0839 779.1635 779.7428 780.3590 780.3804
   780.5958 780.6549 781.9198 781.9327 782.0345 782.0591 783.7645 783.7746

     the Fermi energy is     6.5766 ev
     (compare with:     4.3896 eV, computed in scf)

     Writing all to output data dir out/mp-682.save/
 
     init_run     :      0.02s CPU      0.03s WALL (       1 calls)
     electrons    :    384.11s CPU    408.15s WALL (       1 calls)

     Called by init_run:
     wfcinit      :      0.00s CPU      0.00s WALL (       1 calls)
     potinit      :      0.01s CPU      0.01s WALL (       1 calls)
     hinit0       :      0.01s CPU      0.01s WALL (       1 calls)

     Called by electrons:
     c_bands      :    384.10s CPU    408.13s WALL (       1 calls)
     v_of_rho     :      0.00s CPU      0.00s WALL (       1 calls)

     Called by c_bands:
     init_us_2    :      0.00s CPU      0.00s WALL (       8 calls)
     init_us_2:cp :      0.00s CPU      0.00s WALL (       8 calls)
     paro_k       :    360.92s CPU    383.27s WALL (       8 calls)

     Called by paro_*:
     h_psi        :      7.97s CPU      8.43s WALL (     778 calls)
     g_psi        :      0.16s CPU      0.19s WALL (   75807 calls)

     Called by h_psi:
     h_psi:calbec :      0.14s CPU      0.15s WALL (     778 calls)
     vloc_psi     :      7.68s CPU      8.13s WALL (     778 calls)
     add_vuspsi   :      0.07s CPU      0.08s WALL (     778 calls)

     General routines
     calbec       :      0.14s CPU      0.14s WALL (     778 calls)
     fft          :      0.00s CPU      0.00s WALL (      10 calls)
     fftw         :      6.86s CPU      7.27s WALL (  125676 calls)
 
     Parallel routines
 
     PWSCF        :   6m24.81s CPU   6m49.17s WALL

 
   This run was terminated on:  11:45:32  14Nov2023            

=------------------------------------------------------------------------------=
   JOB DONE.
=------------------------------------------------------------------------------=
