
     Program PWSCF v.7.1 starts on  5Apr2024 at 15: 7:22 

     This program is part of the open-source Quantum ESPRESSO suite
     for quantum simulation of materials; please cite
         "P. Giannozzi et al., J. Phys.:Condens. Matter 21 395502 (2009);
         "P. Giannozzi et al., J. Phys.:Condens. Matter 29 465901 (2017);
         "P. Giannozzi et al., J. Chem. Phys. 152 154105 (2020);
          URL http://www.quantum-espresso.org", 
     in publications or presentations arising from this work. More details at
     http://www.quantum-espresso.org/quote

     Parallel version (MPI), running on    32 processors

     MPI processes distributed on     1 nodes
     206831 MiB available memory on the printing compute node when the environment starts
 
     Reading input from pw_WS2_nscf_k142_E47.in
Warning: card &IONS ignored
Warning: card / ignored
Warning: card &CELL ignored
Warning: card / ignored

     Current dimensions of program PWSCF are:
     Max number of different atomic species (ntypx) = 10
     Max number of k-points (npk) =  40000
     Max angular momentum in pseudopotentials (lmaxx) =  4

     Atomic positions and unit cell read from directory:
     out/WS2.save/
     Atomic positions from file used, from input discarded
 
 
     R & G space division:  proc/nbgrp/npool/nimage =      32
     Subspace diagonalization in iterative solution of the eigenvalue problem:
     one sub-group per band group will be used
     scalapack distributed-memory algorithm (size of sub-group:  5*  5 procs)

 
     Parallelization info
     --------------------
     sticks:   dense  smooth     PW     G-vecs:    dense   smooth      PW
     Min          14      14      4                 1864     1864     300
     Max          15      15      5                 1879     1879     321
     Sum         475     475    139                59873    59873    9783
 
     Using Slab Decomposition
 


     bravais-lattice index     =            4
     lattice parameter (alat)  =       6.0229  a.u.
     unit-cell volume          =    1375.6981 (a.u.)^3
     number of atoms/cell      =            3
     number of atomic types    =            2
     number of electrons       =        40.00
     number of Kohn-Sham states=         1216
     kinetic-energy cutoff     =      47.0000  Ry
     charge density cutoff     =     188.0000  Ry
     Exchange-correlation= PBE
                           (   1   4   3   4   0   0   0)

     celldm(1)=   6.022906  celldm(2)=   0.000000  celldm(3)=   7.270665
     celldm(4)=   0.000000  celldm(5)=   0.000000  celldm(6)=   0.000000

     crystal axes: (cart. coord. in units of alat)
               a(1) = (   1.000000   0.000000   0.000000 )  
               a(2) = (  -0.500000   0.866025   0.000000 )  
               a(3) = (   0.000000   0.000000   7.270665 )  

     reciprocal axes: (cart. coord. in units 2 pi/alat)
               b(1) = (  1.000000  0.577350  0.000000 )  
               b(2) = (  0.000000  1.154701  0.000000 )  
               b(3) = (  0.000000  0.000000  0.137539 )  


     PseudoPot. # 1 for S  read from file:
     /usr/scratch4/magr4985/FGWC/FGWC/pseudo/SG15/S.upf
     MD5 check sum: f9d020296ee6110346977bfd66d424f6
     Pseudo is Norm-conserving, Zval =  6.0
     Generated using ONCVPSP code by D. R. Hamann
     Using radial grid of  602 points,  4 beta functions with: 
                l(1) =   0
                l(2) =   0
                l(3) =   1
                l(4) =   1

     PseudoPot. # 2 for W  read from file:
     /usr/scratch4/magr4985/FGWC/FGWC/pseudo/SG15/W.upf
     MD5 check sum: b6096f31a98cdd82a46cfdcd1f902baf
     Pseudo is Norm-conserving, Zval = 28.0
     Generated using ONCVPSP code by D. R. Hamann
     Using radial grid of  602 points,  8 beta functions with: 
                l(1) =   0
                l(2) =   0
                l(3) =   1
                l(4) =   1
                l(5) =   2
                l(6) =   2
                l(7) =   3
                l(8) =   3

     atomic species   valence    mass     pseudopotential
        S              6.00    32.06500     S ( 1.00)
        W             28.00   183.84000     W ( 1.00)

     12 Sym. Ops. (no inversion) found



   Cartesian axes

     site n.     atom                  positions (alat units)
         1           W   tau(   1) = (   0.0000000   0.5773502   3.6353328  )
         2           S   tau(   2) = (   0.5000000   0.2886752   4.1286326  )
         3           S   tau(   3) = (   0.5000000   0.2886752   3.1420330  )

     number of k points=    10  Gaussian smearing, width (Ry)=  0.0005
                       cart. coord. in units 2pi/alat
        k(    1) = (   0.0000000   0.0000000   0.0000000), wk =   0.0312500
        k(    2) = (   0.0000000   0.1443376   0.0000000), wk =   0.1875000
        k(    3) = (   0.0000000   0.2886751   0.0000000), wk =   0.1875000
        k(    4) = (   0.0000000   0.4330127   0.0000000), wk =   0.1875000
        k(    5) = (   0.0000000  -0.5773503   0.0000000), wk =   0.0937500
        k(    6) = (   0.1250000   0.2165064   0.0000000), wk =   0.1875000
        k(    7) = (   0.1250000   0.3608439   0.0000000), wk =   0.3750000
        k(    8) = (   0.1250000   0.5051815   0.0000000), wk =   0.3750000
        k(    9) = (   0.2500000   0.4330127   0.0000000), wk =   0.1875000
        k(   10) = (   0.2500000   0.5773503   0.0000000), wk =   0.1875000

     Dense  grid:    59873 G-vectors     FFT dimensions: (  27,  27, 192)

     Estimated max dynamical RAM per process >      96.13 MB

     Estimated total dynamical RAM >       3.00 GB

     The potential is recalculated from file :
     out/WS2.save/charge-density

     Starting wfcs are random

     Band Structure Calculation
     Davidson diagonalization with overlap

     ethr =  5.00E-06,  avg # of iterations = 11.0

     total cpu time spent up to now is      281.6 secs

     End of band structure calculation

          k = 0.0000 0.0000 0.0000 (  7547 PWs)   bands (ev):

   -74.3778 -38.6238 -38.4725 -38.4725 -28.5535 -28.5524 -28.5524 -28.5332
   -28.4867 -28.4867 -28.4614 -15.0496 -13.4345  -6.6295  -3.1524  -3.1524
    -2.4270  -1.9296  -1.9296  -0.3506   2.5559   2.5559   2.6964   2.6964
     4.6469   5.0619   5.2710   5.7328   6.3679   7.2028   8.3354   8.3824
     9.3779  10.3125  10.3125  11.0696  11.6916  12.5816  12.5816  12.8397
    14.4229  15.2418  15.4834  15.9884  15.9884  16.3097  16.3097  17.8029
    18.3885  19.0513  19.8963  22.2951  22.2951  22.5339  22.9042  23.8719
    23.8719  24.2141  24.4405  24.4405  24.4478  24.5458  24.5458  24.7630
    24.9432  25.0742  25.0742  25.3239  25.3299  25.3299  25.3749  25.6818
    25.6818  25.7059  25.7059  25.7766  25.9718  25.9718  26.2195  26.2435
    26.6656  26.6656  26.7524  27.1835  27.1835  27.2815  27.2815  27.3273
    27.3869  27.8517  27.8517  27.9146  28.3361  28.5735  28.5735  28.8517
    29.0094  29.2291  29.2291  29.5794  29.5794  29.7284  30.4493  30.4542
    30.4542  30.6536  30.6536  31.1433  31.4890  31.7676  31.7676  32.4011
    32.4011  32.6706  32.7084  33.3037  33.3037  33.4690  33.6149  33.6149
    33.8988  34.5726  34.7268  34.7849  34.7849  35.4103  35.4103  36.3496
    36.6606  36.8572  36.8572  36.9487  36.9487  37.1114  37.1114  37.9426
    38.0488  38.3430  38.8180  38.8180  39.0202  39.2852  39.2852  39.7546
    40.7281  40.7416  40.7416  41.1866  41.3700  41.3700  41.4924  42.4963
    42.4963  42.9678  43.1648  43.1648  44.0691  44.2326  44.2326  45.0490
    45.0490  45.1616  45.6938  45.7963  45.7963  46.1070  46.5984  46.6370
    46.6370  46.7486  47.0565  47.0565  48.6385  48.6990  48.6990  49.7155
    49.7155  49.7254  49.8220  50.2713  51.2353  51.2353  51.5481  52.7383
    52.7383  52.8536  52.8536  52.9222  53.7608  54.6993  54.9082  54.9082
    55.2498  55.4804  55.4804  55.6765  55.6765  55.8257  56.2992  56.2992
    56.5789  57.5208  57.5887  57.5887  58.1636  58.7055  58.7875  58.9649
    58.9649  60.0069  60.0069  60.2215  60.2215  60.3497  60.4695  61.1726
    61.1726  61.3087  61.4046  61.8392  61.8392  62.1170  62.1929  62.1929
    62.8125  63.0705  63.0705  63.6454  63.7378  63.9303  63.9303  64.0425
    64.0425  64.3657  64.6285  64.6285  64.6430  64.6583  64.7027  64.7514
    64.7514  64.8322  64.8444  64.8444  64.8616  65.1526  65.1526  65.2853
    65.2853  65.5091  65.5511  65.6239  65.7260  65.9555  65.9807  65.9807
    66.1503  66.1503  66.1775  66.1775  66.2857  66.2857  66.7340  66.7340
    67.1314  67.2073  67.2073  67.4995  67.5739  67.6663  67.8746  67.8749
    67.8749  67.9877  67.9877  68.0258  68.0258  68.1045  68.3326  68.3326
    68.7390  68.7390  69.3441  69.9395  69.9395  69.9492  69.9492  70.2284
    70.3209  70.3682  70.4325  70.4325  70.5323  70.6945  70.6945  70.7599
    71.2039  71.2039  71.4478  71.7043  71.9603  71.9604  72.1724  72.8059
    72.8059  73.3880  73.3880  73.5448  73.6730  73.6730  73.7487  73.8397
    74.1167  74.2863  74.5548  74.5549  74.7085  74.7085  74.9575  74.9575
    74.9884  75.7607  75.7607  76.0287  76.0287  76.6217  76.6440  76.6440
    77.3676  77.3676  77.5130  77.5228  77.6015  77.7245  77.7314  77.9143
    77.9143  78.2446  78.2446  79.0381  79.7394  79.7394  79.7559  80.0807
    80.1340  80.3259  80.3259  80.6789  80.6790  80.8579  81.3458  81.3458
    81.3882  81.3882  82.0845  82.1198  82.3065  82.5203  82.5203  82.5463
    82.5463  82.7299  82.8017  82.8017  82.8681  83.1917  83.1917  83.2170
    83.4404  83.4404  83.9324  83.9324  84.0354  84.0354  84.0824  84.1825
    84.2862  84.3624  84.3624  84.3966  84.3966  84.4416  84.4810  84.6012
    84.9545  84.9545  84.9951  84.9951  85.1489  85.1489  85.2825  85.2825
    85.3139  85.4135  85.4346  85.6593  85.9405  85.9405  86.0653  86.0653
    86.4028  86.4028  86.5860  86.5938  86.5938  86.9542  86.9542  87.0066
    87.1732  87.1732  87.2936  87.3155  87.3271  87.4634  87.4735  87.4735
    87.6067  87.6067  87.8967  88.2594  88.4493  88.7963  89.0148  89.0148
    89.2136  89.2136  89.2634  89.5757  89.5757  89.7753  89.7753  89.8287
    90.0361  90.0959  90.2451  90.3584  90.3584  90.4874  90.4874  91.0487
    91.0487  91.1495  91.2131  91.2131  91.5881  91.5881  91.9178  92.2223
    92.2803  92.2803  92.5992  92.5992  92.6022  92.6023  92.9472  92.9472
    93.0881  93.1036  93.1036  93.1823  93.1979  93.3587  93.4227  93.4227
    93.5116  93.5477  93.5477  93.6705  94.1505  94.9070  95.7482  95.7482
    95.9744  95.9744  96.0966  96.4426  96.4428  96.4428  96.5656  96.5656
    96.9188  97.1534  97.1534  97.3096  97.7656  98.0467  98.0467  98.4116
    98.4637  98.4681  98.4681  98.6606  98.6606  98.8919  99.2157  99.2157
    99.4073  99.5135  99.8582  99.8582  99.9983 100.2501 100.2501 100.4668
   100.5331 100.5331 100.9048 100.9048 101.1977 101.3227 101.3227 101.4571
   101.6084 101.6084 101.6604 101.6604 101.9382 102.0047 102.4005 102.4016
   102.4016 102.8752 103.6586 103.6586 103.8428 103.9581 103.9581 104.3547
   104.3547 105.1924 105.1924 105.2199 105.4001 106.0997 106.0997 106.2568
   106.3626 106.4010 106.4010 106.5984 106.6515 106.6515 106.7767 106.8602
   106.8603 106.9715 107.4927 107.5313 108.0026 108.7968 108.7968 108.8730
   108.8730 109.4120 109.4120 109.4368 109.4368 109.6041 109.6788 109.8493
   109.8493 110.1731 110.1731 110.2558 110.7991 110.9266 110.9266 111.1927
   111.1927 111.4702 111.4702 111.4983 111.6446 111.7254 111.7254 112.3601
   112.9329 112.9329 112.9382 113.0646 113.1510 113.1817 113.3645 113.3645
   113.4551 113.4868 113.4868 113.8848 114.1863 114.1863 114.4146 114.5583
   114.5583 115.3727 115.4892 116.3436 116.5829 116.5829 117.2738 117.2738
   117.2820 117.6004 117.6004 117.8653 118.2584 118.2584 118.9950 118.9976
   118.9976 119.0507 119.1455 119.1455 119.5120 119.5120 119.8952 119.8952
   120.0690 120.1703 120.1703 120.3211 120.3653 120.6776 120.9668 120.9668
   121.2752 121.2752 121.3734 121.5215 121.7549 121.7549 121.7915 121.7915
   121.8064 122.2555 122.6636 122.6636 123.0282 123.1078 123.6522 123.6522
   124.1219 124.1219 124.4603 124.6495 124.9723 124.9723 125.1698 125.1698
   125.2090 125.2644 125.2644 125.5398 125.6724 125.7980 125.7980 126.2593
   126.2935 126.8096 127.0317 127.0803 127.0803 127.3772 127.3772 127.6433
   128.1933 128.1933 128.7840 128.7840 129.2013 129.3947 129.4074 129.4074
   129.6922 129.6922 130.5420 130.5420 130.6382 130.6382 130.8119 130.8435
   131.0610 131.0610 131.1670 131.2672 131.2672 131.2804 131.7312 131.7312
   131.9198 132.0385 132.2161 132.2161 132.4600 132.4600 132.5037 132.5037
   133.3176 133.5112 133.5112 133.5510 133.6777 133.6777 133.7743 133.8588
   133.8588 134.0967 134.5164 135.0484 135.0914 135.2804 135.2804 135.3003
   135.3003 135.5935 136.2829 136.6964 136.6964 137.6067 137.6067 137.7936
   137.8820 137.8820 138.1392 138.1477 138.2699 139.1451 139.1451 139.4011
   139.4011 139.6393 139.6393 139.7692 139.8665 140.1029 140.1029 140.1296
   140.2188 140.5642 140.5642 140.5973 141.2867 141.2867 141.3588 141.4281
   141.5323 141.5323 141.5348 141.5348 141.9393 141.9682 142.1689 142.1689
   142.2909 142.2909 142.6049 142.6049 142.6288 142.6885 142.7769 142.7769
   142.8835 142.8835 142.9275 142.9662 142.9894 142.9894 143.0781 143.3168
   143.3168 143.4764 143.4989 143.4989 143.5243 143.5243 143.5546 143.5690
   143.6057 143.6410 143.6410 143.6525 143.6526 143.7164 143.7164 143.7520
   143.7791 143.7791 143.7911 143.7911 143.7971 143.8698 144.0142 144.0143
   144.1755 144.2189 144.2189 144.2507 144.2507 144.2507 144.3533 144.4049
   144.4050 144.4162 144.5673 144.6170 144.6170 144.7689 144.7862 144.7863
   144.8305 144.8337 144.8338 144.8738 144.8739 144.9286 145.1742 145.3884
   145.3885 145.4126 145.4126 145.4334 145.7263 145.7263 145.8690 146.0786
   146.2355 146.2356 146.2478 146.4398 146.4398 146.5063 146.5079 146.5546
   146.5546 146.7001 146.7002 146.7828 146.8153 146.8154 146.8405 147.0968
   147.0968 147.1457 147.1458 147.3131 147.4645 147.4720 147.4720 148.0352
   148.0352 148.2561 148.3126 148.3764 148.6039 148.6039 148.6360 148.6360
   148.7600 148.7889 149.0817 149.0818 149.1520 149.1537 149.1537 149.2304
   149.2304 149.3246 149.3246 149.3694 149.4104 149.5202 149.5203 149.7107
   149.7385 149.8920 149.8920 149.9353 150.0400 150.0533 150.0533 150.1253
   150.3439 150.3439 150.4841 150.6711 150.8415 150.8415 150.8622 150.8622
   150.9293 151.3656 151.5603 151.5603 151.6146 151.6147 151.7506 151.7506
   152.0267 152.1525 152.1526 152.2854 152.2981 152.3986 152.5996 152.5996
   152.6965 152.6965 152.9326 152.9532 152.9532 153.0163 153.0352 153.0353
   153.0939 153.4963 153.4963 153.5788 154.0666 154.0667 154.1926 154.2263
   154.2263 154.5289 154.5289 154.7406 154.7662 154.7662 154.8015 154.9736
   154.9736 155.3591 155.3592 155.5553 155.6685 155.6702 155.6702 155.7730
   155.7731 155.8080 156.1227 156.1468 156.4451 156.4451 156.4889 156.4889
   156.6642 156.6643 156.7632 156.8945 156.8961 156.8961 156.9586 157.4053
   157.4054 157.4707 157.4708 157.5105 157.6266 157.9129 157.9129 158.1519
   158.1520 158.5400 158.5444 158.9244 158.9245 158.9913 159.0223 159.0223
   159.2300 159.3163 159.3163 159.5865 159.7099 159.7099 159.9075 159.9075
   159.9146 159.9150 160.0266 160.0266 160.0870 160.2202 160.4637 160.6448
   160.6449 160.8292 160.8520 160.8836 160.8836 160.9775 161.0401 161.0811
   161.0812 161.1916 161.1916 161.4748 161.4748 161.5983 161.9353 161.9417
   161.9417 162.1752 162.1752 162.2628 162.3247 162.5906 162.6402 162.6402
   162.7974 162.7975 163.4720 163.4720 163.5154 164.2302 164.2302 164.6102
   165.1869 165.3602 165.5385 165.5605 165.5605 165.6564 165.6564 165.7152
   165.7912 165.7912 165.8495 166.0300 166.0300 166.2144 166.2144 166.3772
   166.3772 166.3878 166.5212 166.7105 166.7105 166.7424 166.9390 167.0179
   167.0179 167.1049 167.1049 167.4320 167.4857 167.4857 167.5187 167.5187
   167.6456 167.6456 168.1272 168.3685 168.3685 168.5887 168.5887 168.6283
   169.0301 169.0474 169.0474 169.1554 169.7345 169.7345 169.7550 169.7973
   169.9539 170.2107 170.2108 170.2367 170.4656 170.4657 170.5179 170.9070
   170.9070 171.0133 171.0133 171.3905 171.3906 171.6028 171.6098 171.8197
   171.8197 171.8699 171.8700 171.9137 171.9213 171.9213 172.0298 172.0529
   172.0618 172.0618 172.3359 172.5842 172.5842 172.5857 172.5904 172.9662
   172.9662 173.1971 173.2211 173.2211 173.6395 173.8692 174.1992 174.9298
   174.9298 175.0274 175.0274 175.4409 175.6720 175.6720 175.9951 176.3029
   176.3029 177.0137 177.0137 177.0489 177.2029 177.2302 177.2302 177.4862
   177.5168 177.8007 177.8007 177.9664 177.9664 178.2356 178.4501 178.4501
   178.4598 178.7274 178.7274 178.7710 178.9364 179.0577 179.0577 179.1226
   179.3779 179.3779 179.4416 179.4719 179.5600 179.5600 179.9459 179.9459
   179.9732 180.0931 180.0931 180.1333 180.1333 180.5917 180.6872 180.6872
   180.7305 180.7305 180.8091 180.8412 180.9740 180.9740 181.1573 181.4353
   181.4353 181.4902 181.4902 181.6977 181.6977 181.9566 182.0238 182.0336
   182.0881 182.0881 182.1291 182.1329 182.4079 182.4079 182.4260 182.4261
   182.7737 182.8182 182.8182 183.0184 183.0185 183.0496 183.0496 183.0819
   183.1051 183.1991 183.3651 183.3654 183.3655 183.5111 183.5111 183.6690
   183.6691 183.7642 183.8870 183.9575 183.9576 184.2287 184.4278 184.4800
   184.4801 184.4879 184.4879 184.6042 184.6042 184.6284 184.6284 184.6796
   184.8165 184.8260 185.0544 185.0544 185.4177 185.4178 185.4362 185.6173

          k = 0.0000 0.1443 0.0000 (  7521 PWs)   bands (ev):

   -74.3754 -38.6150 -38.5210 -38.4838 -28.5526 -28.5520 -28.5517 -28.5350
   -28.4876 -28.4869 -28.4607 -14.7992 -13.3417  -6.3320  -3.7669  -3.1331
    -2.9098  -2.2996  -1.6863  -0.5071   2.2039   2.4231   2.4923   2.9914
     5.2078   5.3679   5.8707   6.2848   6.6674   7.5406   8.6208   9.2404
     9.3137   9.9023  11.0118  11.0222  11.5250  12.2080  12.6103  12.8262
    14.2864  15.0051  15.2491  15.4901  16.1978  16.4703  17.4421  18.4540
    18.8687  19.7548  19.9634  20.4103  20.8243  20.8913  21.2892  21.5158
    22.2867  22.3073  22.3675  22.4243  22.9103  23.1546  23.1651  23.2617
    23.2957  23.5005  23.6574  23.7396  23.8876  24.5045  24.6385  25.0463
    25.1810  25.4254  26.0736  26.4312  26.4782  26.7488  27.0701  27.1642
    27.2923  27.5808  27.7077  27.7896  27.9852  28.1373  28.1434  28.1951
    28.5576  28.6420  28.7711  28.8824  29.1974  29.4368  29.4454  29.6874
    29.9509  30.0771  30.3367  30.4260  30.5163  30.8842  30.9104  31.0392
    31.3063  31.3268  31.6460  31.7925  32.1239  32.3175  32.6482  32.6701
    32.7582  33.1221  33.3907  33.5649  33.7088  33.8351  33.9973  34.3669
    34.4389  34.5118  34.9806  35.1240  35.3663  35.4991  35.5702  36.0283
    36.6710  36.7216  36.7765  37.1197  37.3045  37.3453  37.5892  38.2435
    38.4778  38.6405  38.8512  39.2288  39.3331  39.9352  40.3286  40.4438
    40.4851  40.7536  40.9339  41.3656  41.5056  41.8558  42.0085  42.2412
    42.7907  43.1264  43.7411  43.9610  44.2008  44.4761  44.8008  45.0654
    45.2851  45.4110  45.7620  46.4753  46.6585  46.8335  47.0191  47.0781
    47.1328  47.6097  48.3365  48.4033  48.5364  48.9269  49.4043  49.4968
    49.7982  49.9321  50.1264  50.8253  50.9156  50.9896  51.4786  51.9113
    52.1152  52.5281  52.6817  53.0760  53.1864  53.5258  53.6498  54.3419
    54.6952  54.7011  54.8593  55.2820  55.5286  55.5519  55.7282  56.3983
    56.4482  56.9746  57.0779  57.0865  57.3870  57.4390  57.6745  57.7989
    57.8368  57.8718  58.1457  58.3950  58.5446  58.6313  58.8850  59.0209
    59.0513  59.1987  59.2295  59.3693  60.2030  60.3576  60.3971  60.5040
    60.8997  60.9301  61.2277  61.4413  61.5682  61.7819  62.0622  62.0878
    62.4156  62.5827  62.6181  62.9497  63.3211  63.5091  63.5705  63.7898
    64.0085  64.0321  64.2923  64.3721  64.5387  64.7753  64.8864  64.9291
    65.0839  65.0868  65.1302  65.2823  65.3785  65.8183  65.9036  65.9408
    66.1850  66.2687  66.4143  66.6948  66.7573  66.8225  66.9474  67.0867
    67.3864  67.3931  67.8306  68.1250  68.3411  68.5444  68.7040  68.8366
    69.0485  69.1855  69.3060  69.4274  69.6391  69.7671  70.0393  70.2734
    70.4572  70.4994  70.6597  70.8198  70.8266  71.1454  71.3542  71.4919
    71.6531  71.7304  71.8348  71.8755  72.0519  72.2199  72.2532  72.4147
    72.5208  72.5534  72.6125  72.7815  72.8029  73.3416  73.4032  73.4661
    73.5513  73.6794  73.6973  73.8648  73.9154  73.9702  74.1381  74.6036
    74.6992  74.8075  74.9147  75.0957  75.1203  75.1990  75.2165  75.3136
    75.6948  75.7900  75.8211  76.0465  76.2372  76.2753  76.3220  76.6008
    76.6865  76.9769  77.2305  77.3421  77.4174  77.6263  77.7504  77.9533
    78.1279  78.1329  78.2273  78.3188  78.4107  78.6625  78.7420  78.8480
    79.2375  79.3188  79.3748  79.5763  79.6175  79.6576  79.8260  79.8328
    80.1520  80.1615  80.2909  80.4274  80.4429  80.5984  80.6289  80.6315
    80.7866  80.8576  80.9349  81.0220  81.1798  81.2456  81.3223  81.5201
    81.7984  81.8704  81.8746  82.3380  82.3531  82.4617  82.5918  83.0060
    83.0649  83.1229  83.2509  83.5761  83.8575  83.8865  84.1908  84.3424
    84.5036  84.6417  84.8550  84.8838  85.1286  85.2237  85.4736  85.4940
    85.5182  85.8148  85.9136  86.0040  86.0816  86.4323  86.6470  86.8034
    86.9118  86.9822  87.0081  87.0455  87.3322  87.6405  87.8565  88.1405
    88.1414  88.1762  88.2092  88.4477  88.5305  88.7740  88.8227  88.9235
    89.2504  89.2752  89.3592  89.3742  89.4816  89.6155  89.6925  89.7341
    90.0805  90.1092  90.2834  90.3176  90.3852  90.5080  90.6874  90.9246
    90.9804  91.0769  91.1711  91.4907  91.7051  91.8326  91.9126  92.0867
    92.1860  92.2091  92.3274  92.4086  92.5788  92.5912  92.8295  92.8340
    92.8935  92.9280  93.4192  93.6551  93.6731  93.9372  94.0494  94.0886
    94.2858  94.5625  94.5814  94.7293  94.7578  94.8523  95.0254  95.0459
    95.1380  95.2560  95.3447  95.5498  95.6097  95.8100  95.9898  96.0547
    96.2333  96.5647  96.5843  96.6734  96.8044  97.1680  97.3408  97.3421
    97.3590  97.4877  97.6775  97.7024  98.1051  98.1256  98.1610  98.1755
    98.4526  98.4619  98.4972  98.7535  98.9263  99.1859  99.3727  99.4538
    99.5617  99.6202  99.8902 100.1023 100.2189 100.2694 100.4627 100.6025
   100.9482 101.2740 101.3926 101.4330 101.4447 101.8965 102.1012 102.1932
   102.3012 102.4797 102.6382 102.7197 102.8289 103.1424 103.1506 103.3600
   103.5001 103.6040 103.7124 104.1950 104.3289 104.3918 104.5481 104.6746
   104.9364 105.2654 105.2928 105.4875 105.6457 105.8303 106.1597 106.3208
   106.3504 106.5906 106.7151 106.8566 107.0196 107.0614 107.2091 107.2202
   107.2476 107.5096 107.6249 107.8315 107.8539 107.9310 108.0577 108.1693
   108.3462 108.4055 108.4346 108.9848 109.3418 109.5142 109.5724 110.0827
   110.5196 110.5321 110.6158 111.0590 111.1892 111.4593 111.6048 111.7166
   111.7316 112.1885 112.2250 112.4143 112.5201 112.6197 112.8398 112.8934
   112.9148 113.1253 113.1939 113.4257 113.4643 113.5915 113.7939 113.8513
   114.0260 114.4535 114.5763 114.6172 114.6451 114.7230 114.9194 115.1612
   115.2123 115.6213 115.7087 115.8807 116.2260 116.2795 116.6784 116.8507
   116.8903 117.0704 117.3933 117.6091 117.7293 117.8789 118.0003 118.2412
   118.2804 118.4851 118.6650 118.9719 119.0457 119.1677 119.4867 119.6642
   119.9175 120.0136 120.0926 120.3377 120.6653 121.1796 121.3276 121.3973
   121.4859 121.7134 121.9479 122.0696 122.2188 122.3148 122.4534 122.6014
   122.6345 122.8322 122.9966 123.2951 123.3799 123.4182 123.5381 123.7579
   123.8143 123.9938 124.1921 124.2277 124.2629 124.3548 124.6556 124.6642
   125.0311 125.3942 125.6296 125.6392 126.0822 126.0938 126.2220 126.4069
   126.4196 126.6568 126.6703 126.8601 127.1566 127.2106 127.3974 128.0531
   128.2310 128.4882 128.5221 128.5728 128.6786 128.9581 129.1539 129.3306
   129.4560 129.5627 129.8876 129.9136 130.2071 130.2164 130.3371 130.3868
   130.6208 130.8088 130.9568 131.0443 131.1140 131.1205 131.3796 131.4097
   131.4449 131.6076 131.7455 131.8912 132.0039 132.0200 132.1789 132.4124
   132.5273 132.5739 132.5751 132.6314 132.7636 132.7759 132.9621 133.2294
   133.6196 133.6208 133.6583 133.7158 133.7587 133.9854 134.0391 134.0525
   134.1455 134.2457 134.2834 134.3755 134.3834 134.4804 134.5046 134.5747
   134.5806 134.7328 134.8416 134.9860 135.3221 135.3340 135.3398 135.4630
   136.0185 136.1047 136.2867 136.3571 136.4350 136.6036 136.6992 136.8177
   136.8467 137.0444 137.1206 137.2531 137.3257 137.4370 137.4599 137.4855
   137.6279 137.7634 137.7800 137.9990 138.1038 138.1655 138.2462 138.3853
   138.8985 138.9448 139.1181 139.1320 139.2351 139.3635 139.4470 139.6461
   139.6624 139.6874 139.8643 139.9353 139.9569 140.0706 140.1958 140.4373
   140.4562 140.6533 140.7355 140.8046 140.8705 140.8956 141.1978 141.3062
   141.3282 141.4016 141.4475 141.5436 141.6325 141.6787 141.9392 141.9551
   142.1836 142.2590 142.3217 142.3855 142.7054 142.7133 142.8870 142.9460
   142.9561 143.0557 143.1292 143.3771 143.5611 143.5733 143.7812 143.8397
   144.0114 144.1332 144.2721 144.3764 144.4234 144.4255 144.5376 144.6024
   144.8113 144.8840 144.9496 145.2605 145.3828 145.6078 145.6332 145.6579
   145.8589 145.9655 145.9911 146.0002 146.1117 146.2238 146.2288 146.3945
   146.4182 146.4215 146.5811 146.6804 146.8313 146.9150 146.9659 147.1219
   147.1235 147.2368 147.3915 147.3970 147.4211 147.4528 147.5865 147.6066
   147.7145 147.7410 147.7727 148.1949 148.2831 148.3423 148.3836 148.5778
   148.5855 148.7631 148.9023 148.9754 149.1029 149.1521 149.1583 149.1936
   149.4556 149.5793 149.6142 149.8538 149.8682 149.8830 149.8937 150.2698
   150.2801 150.3342 150.4108 150.5105 150.5741 150.6742 150.8238 150.8731
   151.1328 151.1943 151.5423 151.5446 151.6956 151.8433 151.8706 151.9922
   152.0466 152.1941 152.2119 152.3468 152.3679 152.5075 152.5377 152.8046
   152.8949 153.0531 153.1053 153.3357 153.3414 153.4229 153.4672 153.7235
   153.7557 153.8289 153.9082 154.0931 154.1154 154.1223 154.1672 154.2949
   154.3966 154.4012 154.5065 154.6578 154.7736 154.8150 154.8334 154.8670
   154.9256 154.9773 155.1812 155.3436 155.4271 155.4505 155.5299 155.6674
   155.6914 155.6991 155.7303 156.0160 156.0282 156.0459 156.0829 156.2387
   156.2834 156.3441 156.4262 156.5310 156.5866 156.7461 156.7543 156.9137
   157.0710 157.1142 157.1683 157.1731 157.3605 157.3939 157.4706 157.7024
   157.7044 157.7199 157.7755 157.8956 158.0932 158.1186 158.1884 158.3905
   158.5542 158.6121 158.7741 158.7932 158.8658 158.9141 159.1153 159.2193
   159.2518 159.4033 159.4327 159.4475 159.5364 159.6788 159.7175 159.7362
   159.8387 159.8401 159.9403 160.0502 160.1043 160.3734 160.4836 160.4963
   160.5235 160.8739 161.0006 161.0245 161.0776 161.4472 161.4683 161.5361
   161.5934 161.7973 161.7984 161.9036 162.0775 162.2114 162.4038 162.4564
   162.6156 162.7521 162.8437 163.0300 163.0959 163.1302 163.1390 163.1735
   163.2509 163.3112 163.5215 163.5335 163.7996 163.8978 164.1919 164.2004
   164.2400 164.4594 164.5355 164.6107 164.6768 164.6993 164.7073 164.8909
   165.0925 165.0990 165.2709 165.3802 165.3808 165.5655 165.6195 165.6264
   165.7263 165.8588 165.9220 166.2390 166.2427 166.3820 166.4118 166.4941
   166.6980 166.7680 166.8450 166.8697 167.0148 167.2943 167.3797 167.6114
   167.7775 167.8099 168.1038 168.1381 168.2113 168.2851 168.5655 168.6080
   168.6869 168.9294 168.9521 169.0007 169.0598 169.2870 169.2959 169.3212
   169.3283 169.4840 169.5338 169.6129 169.7015 169.7668 169.9314 169.9616
   170.0196 170.2880 170.3062 170.3958 170.6273 170.7064 170.7994 170.8277
   170.8808 170.9527 171.0007 171.1885 171.3730 171.3774 171.5478 171.6383
   171.6606 171.8887 172.0079 172.2399 172.3816 172.3886 172.5587 172.6400
   172.6991 172.8491 173.1074 173.2614 173.3449 173.3991 173.5386 173.7157
   173.7343 173.8022 173.8396 174.0501 174.1717 174.2409 174.2861 174.5687
   174.7048 174.9142 174.9975 175.0124 175.0753 175.1494 175.2080 175.3024
   175.3284 175.3456 175.4799 175.6657 175.7523 175.8499 175.8748 175.9696
   176.0115 176.0972 176.1885 176.2594 176.3085 176.3103 176.3348 176.4405
   176.4821 176.5214 176.6345 176.7063 176.9446 176.9457 177.1404 177.1819
   177.1930 177.3017 177.3077 177.5505 177.6759 177.7051 177.8190 177.9807
   177.9996 178.1941 178.2001 178.5524 178.6109 178.6488 178.6721 178.7004
   178.7446 179.1445 179.1978 179.2662 179.2708 179.2716 179.4861 179.7367
   179.9226 180.0545 180.2125 180.2330 180.2653 180.5499 180.6267 180.8281
   180.9769 181.1501 181.1809 181.1882 181.3977 181.6509 181.6743 181.7109
   181.8231 181.8517 181.9942 182.0571 182.1164 182.1830 182.3004 182.3853
   182.6917 182.7697 182.7954 182.9805 182.9876 183.0877 183.2694 183.4382
   183.4704 183.5328 183.6172 184.0416 184.0849 184.1162 184.3716 184.4047
   184.5635 184.5807 184.7147 184.7509 184.8097 184.8770 184.9171 185.0856
   185.1575 185.1761 185.4500 185.5939 185.8037 185.8302 185.9407 186.1098

          k = 0.0000 0.2887 0.0000 (  7505 PWs)   bands (ev):

   -74.3697 -38.6365 -38.5939 -38.5110 -28.5530 -28.5500 -28.5484 -28.5392
   -28.4897 -28.4874 -28.4591 -14.1361 -13.0985  -5.7594  -4.7908  -4.1520
    -2.9869  -2.3221  -1.9730  -1.1633   1.9951   2.2130   2.8260   3.7546
     6.0338   6.2165   6.7896   7.3462   7.5039   8.3654   8.7242   9.0971
     9.6268  10.5598  11.3476  11.8763  12.2107  12.3356  12.8414  13.1304
    13.6110  14.2344  14.7144  15.7219  16.2273  16.3318  16.8091  17.2481
    17.3188  17.4698  18.3854  19.1332  19.3967  19.9832  20.1626  20.3697
    20.5602  20.8702  21.0568  21.2767  21.5279  21.5733  21.9450  22.1326
    22.3392  22.3599  22.5907  22.6053  23.3863  23.4963  23.9010  23.9307
    23.9472  24.1780  24.6177  24.9462  25.2659  25.5861  25.9628  26.5508
    26.7675  27.0470  27.3835  28.2613  28.4247  28.6368  28.6413  28.7996
    29.4310  29.9562  30.0632  30.1299  30.2220  30.4741  30.5378  30.9067
    31.0449  31.2928  31.2986  31.3555  31.7824  31.8226  31.8294  32.0714
    32.5776  32.9068  32.9439  33.0436  33.3640  33.7222  33.8368  33.9008
    34.3423  34.4335  34.7642  34.8049  34.9123  35.0467  35.4162  35.7002
    35.8576  36.1825  36.3725  36.7552  36.8637  37.1058  37.1478  37.3880
    37.4491  38.0619  38.1054  38.1370  38.6674  38.8341  39.2678  39.3463
    39.4627  39.8930  40.0389  40.3679  40.7230  40.9552  41.3056  41.3488
    41.5296  42.3875  42.4099  42.4837  42.8139  42.8612  43.0659  43.3910
    43.7718  43.9729  44.6758  44.6954  44.8114  44.9580  45.4068  45.6623
    45.8161  46.0005  46.0064  46.3778  46.7826  47.2827  47.3445  47.7809
    47.8156  47.9353  48.2911  48.5057  48.7558  49.0939  49.1048  49.4361
    49.5941  49.8760  50.1570  50.2401  50.8115  50.9370  50.9900  51.0991
    51.2529  51.5325  51.6095  51.7268  51.7737  52.1185  52.1546  52.5828
    52.7156  52.7802  52.8012  53.2170  53.3120  53.5971  53.8767  54.1171
    54.1693  54.3370  54.3997  54.7369  54.9963  55.1976  55.2529  55.4577
    55.7732  56.0198  56.0901  56.1762  56.5236  56.5693  56.9831  57.2617
    57.3020  57.9519  58.0483  58.2315  58.4424  58.8165  58.8229  59.2488
    59.5810  59.6385  59.9190  60.0513  60.3297  60.3499  60.4257  60.6402
    60.7963  60.9853  62.1625  62.1723  62.2123  62.6677  62.7865  62.8176
    63.2759  63.3521  63.5498  63.7669  64.0187  64.0409  64.1164  64.5962
    64.6272  65.1407  65.3972  65.4276  65.4966  65.6441  65.7534  65.8618
    65.9391  66.0075  66.0402  66.0921  66.3874  66.4378  66.5219  66.5717
    66.7725  66.8687  67.0375  67.2593  67.3299  67.4975  67.8788  68.1384
    68.2163  68.2334  68.2514  68.5234  68.6178  68.6954  68.8706  69.5143
    69.7674  69.8251  70.0612  70.1097  70.1844  70.2610  70.4263  70.6349
    71.0279  71.1028  71.1397  71.6175  71.7106  71.7600  71.9001  72.0474
    72.0631  72.3574  72.4809  72.7874  72.8264  72.8597  73.0491  73.2754
    73.4252  73.5014  73.6500  74.0683  74.1769  74.3951  74.4529  74.4962
    74.5921  74.8654  75.0796  75.1620  75.1908  75.4918  75.7454  75.8010
    75.9698  76.0996  76.1924  76.4658  76.5941  76.6682  76.6683  76.8316
    76.9410  77.2513  77.2635  77.3323  77.6339  77.9973  78.0066  78.1326
    78.1334  78.3732  78.4226  78.8101  78.8135  78.9290  79.0557  79.1093
    79.3075  79.4430  79.5411  79.7322  79.9337  79.9726  80.0772  80.1430
    80.4598  80.4657  80.6554  80.6669  80.7237  80.7451  80.9175  81.0337
    81.1511  81.1915  81.3478  81.4934  81.7556  81.8233  81.9627  81.9959
    82.0246  82.2826  82.3105  82.3181  82.5418  82.7444  82.7570  83.2458
    83.4607  83.5905  83.5988  83.6049  83.8220  84.0001  84.1086  84.4511
    84.4578  84.7807  84.8015  85.1886  85.2791  85.4597  85.5043  85.6139
    85.6210  85.6891  85.9424  86.1303  86.3058  86.5319  86.7251  86.8410
    86.9752  86.9837  87.3154  87.4144  87.6954  87.9280  87.9553  87.9975
    88.4038  88.4275  88.4596  88.8213  88.8448  88.8527  89.0966  89.2232
    89.4267  89.4691  89.7186  89.8036  89.8497  89.8946  90.4615  90.9272
    90.9778  91.0708  91.1039  91.3015  91.8008  91.9230  91.9642  92.0852
    92.1047  92.4795  92.5543  92.6532  92.9890  93.0265  93.4728  93.5145
    93.6642  93.8480  93.8897  93.9966  94.0704  94.1627  94.2556  94.2848
    94.5059  94.9841  95.1438  95.2282  95.4279  95.4516  95.5072  95.6153
    95.7735  95.8759  96.1036  96.1292  96.4453  96.4969  96.5030  96.5495
    96.5986  96.8212  96.8492  96.9397  97.3888  97.3994  97.7518  97.8914
    97.9436  98.0106  98.2234  98.3143  98.3888  98.4528  98.4906  98.5384
    98.9302  99.0402  99.2358  99.2553  99.8042  99.8916 100.1482 100.1530
   100.1985 100.3001 100.3977 100.7342 100.9469 101.0167 101.0249 101.2351
   101.3917 101.4199 101.9087 102.0046 102.1421 102.2138 102.3190 102.3389
   102.9655 103.0595 103.1460 103.2010 103.2471 103.5334 103.7858 104.0669
   104.1489 104.2245 104.2614 104.6110 104.6276 104.6418 105.0058 105.1047
   105.1718 105.2495 105.4933 105.7221 105.7859 105.7878 106.1820 106.1911
   106.1995 106.3237 106.3749 106.6425 106.8767 106.8859 107.1635 107.1880
   107.4684 107.5987 107.6601 107.7021 107.8297 107.8619 108.1452 108.2515
   108.4619 108.5138 108.7190 108.7868 108.8232 108.8442 108.9413 109.0123
   109.3372 109.3615 109.5936 109.7403 109.9867 110.6243 110.6482 110.8273
   111.0328 111.1393 111.3914 111.4789 111.6967 111.8979 111.9128 112.0872
   112.1337 112.1683 112.5362 112.7373 112.8280 112.9144 113.1505 113.2947
   113.4373 113.4667 113.7339 113.8532 114.0029 114.1037 114.3077 114.5020
   114.7089 115.1043 115.1149 115.4166 115.4840 115.6038 115.8258 115.8792
   116.1659 116.2731 116.5886 116.6010 116.7351 116.8455 117.1383 117.2200
   117.2967 117.3109 117.5070 117.6026 117.8496 117.8534 117.9721 118.1459
   118.2653 118.3551 118.4299 118.4651 118.7006 118.8728 119.2716 119.3804
   119.7732 119.9443 120.1214 120.1345 120.2830 120.3641 120.3829 120.5259
   120.7272 120.9138 120.9803 121.1207 121.2222 121.4910 121.7747 121.8830
   121.9313 121.9374 122.2211 122.2644 122.5301 122.5459 122.5516 122.6683
   122.8892 122.8970 123.1191 123.1499 123.1715 123.4403 123.4976 123.6630
   123.7478 123.7729 124.0483 124.1399 124.3972 124.4893 124.4961 124.6950
   124.7635 124.8312 124.9661 125.0920 125.0947 125.1213 125.1883 125.2692
   125.3621 125.6050 125.6583 125.9596 126.0199 126.0847 126.0878 126.1263
   126.2971 126.3110 126.3465 126.5681 126.6017 126.8906 126.9963 127.0942
   127.3601 127.4784 127.6411 127.7097 127.8327 127.8419 127.9256 127.9536
   128.0100 128.2235 128.3808 128.5537 128.6038 128.6210 128.7706 129.0155
   129.0679 129.3109 129.4595 129.5571 129.6089 129.9878 130.1523 130.1601
   130.2037 130.3339 130.5999 130.6906 130.8074 130.8372 130.9537 131.0169
   131.2694 131.6960 131.7050 131.7099 131.7165 131.8705 132.3589 132.4694
   132.4876 132.5755 132.7966 133.0024 133.1925 133.2108 133.3019 133.3260
   133.5241 133.5456 133.6108 134.0180 134.0481 134.1873 134.3173 134.5395
   134.6683 134.7282 134.7632 135.1838 135.3909 135.4257 135.6067 135.7935
   135.8145 135.8447 136.1801 136.2876 136.3191 136.5819 136.7374 136.7455
   137.1723 137.1850 137.3187 137.3261 137.4129 137.5875 137.6609 137.8290
   137.9760 138.0129 138.0610 138.2051 138.3863 138.5178 138.5399 138.9507
   138.9626 139.0262 139.2005 139.3201 139.3874 139.5194 139.5298 139.6177
   139.7249 139.7408 139.8684 140.0254 140.0653 140.2450 140.2991 140.4559
   140.6000 140.7553 140.8570 140.8735 140.8911 141.2000 141.3942 141.7276
   141.7421 141.9142 141.9612 142.1682 142.1930 142.1976 142.2327 142.4269
   142.5305 142.6260 142.6637 142.8740 142.9196 143.1123 143.1889 143.3121
   143.3131 143.5252 143.6811 143.7484 143.8545 144.0933 144.1369 144.2424
   144.4083 144.5278 144.9353 145.0427 145.0946 145.2716 145.3056 145.5421
   145.5746 145.7970 145.9188 145.9399 146.3238 146.3947 146.5367 146.6442
   147.0000 147.0212 147.1712 147.2492 147.2784 147.3189 147.4776 147.6252
   147.8199 147.8460 148.1085 148.2086 148.2572 148.3075 148.3361 148.5274
   148.7267 148.7561 148.7611 148.8818 148.9222 148.9489 149.0586 149.1079
   149.3040 149.4409 149.4564 149.7002 149.8409 149.8679 149.8961 149.9135
   150.2227 150.2425 150.4398 150.5483 150.5808 150.7715 150.8166 150.8408
   151.0259 151.0857 151.1806 151.2476 151.2833 151.5244 151.5456 151.7834
   151.7898 151.8788 151.9199 152.2439 152.3638 152.3826 152.4326 152.4772
   152.6767 152.7907 152.7971 152.9351 153.0094 153.1160 153.1905 153.2823
   153.3666 153.4577 153.4854 153.8170 153.9648 154.1173 154.1208 154.4152
   154.6059 154.6950 154.6983 154.7318 154.7433 154.7683 155.0913 155.1394
   155.1599 155.3425 155.3777 155.4170 155.4885 155.5280 155.6599 155.7561
   155.9574 156.2007 156.3472 156.3771 156.5000 156.5900 156.7990 156.9143
   157.1311 157.2100 157.3263 157.4141 157.5561 157.5850 157.8265 158.3653
   158.4084 158.4645 158.5430 158.6863 158.8366 158.9006 158.9512 159.0067
   159.2806 159.4256 159.5142 159.6359 159.6935 159.7625 159.8044 160.0427
   160.1371 160.3556 160.3825 160.3874 160.8307 160.8373 160.8856 161.1056
   161.2310 161.3302 161.3834 161.6117 161.6361 161.7409 161.7843 161.7949
   161.9095 162.0204 162.0536 162.0751 162.1399 162.3883 162.3977 162.4691
   162.6199 162.6638 162.7787 162.8373 163.1357 163.1361 163.1522 163.3287
   163.4586 163.6478 163.6884 163.6959 163.8016 163.9481 164.0145 164.2553
   164.4269 164.4442 164.4881 164.5842 164.6774 164.8793 164.9601 165.1268
   165.1630 165.4189 165.4703 165.4783 165.5055 165.7101 165.8472 165.9150
   166.1220 166.2537 166.3246 166.5248 166.5290 166.6114 166.9105 166.9220
   166.9779 167.0774 167.2187 167.2521 167.2926 167.3807 167.5323 167.6362
   167.8827 167.9165 167.9512 168.1943 168.2369 168.2596 168.3827 168.4486
   168.8103 168.8604 168.8843 168.9873 168.9926 169.1216 169.2384 169.3599
   169.3923 169.4074 169.4544 169.5258 169.5648 169.5803 169.6043 169.6430
   169.7464 169.8135 169.8875 169.9555 169.9917 170.1988 170.2243 170.2333
   170.3230 170.3483 170.4486 170.4911 170.5403 170.6759 170.7406 170.7966
   170.8212 170.9997 171.0645 171.0776 171.2959 171.4273 171.5204 171.6480
   171.7779 171.8133 171.8585 171.9555 172.0140 172.1409 172.1864 172.1868
   172.2358 172.3391 172.4813 172.4935 172.5606 172.5674 172.7758 172.8295
   172.8677 172.9514 173.0128 173.0871 173.2118 173.2571 173.3546 173.4598
   173.6049 173.6921 173.7162 173.7528 173.9923 174.0524 174.1099 174.3029
   174.4880 174.6113 174.6225 174.7805 174.8065 174.8477 174.8577 175.0510
   175.0955 175.2100 175.3334 175.4272 175.4424 175.4658 175.4792 175.7373
   175.8338 176.2061 176.3234 176.3500 176.5507 176.5908 176.6290 176.8607
   176.9131 176.9249 177.2147 177.2354 177.3911 177.4856 177.5112 177.5265
   177.6213 177.6758 177.8832 178.0548 178.0859 178.0882 178.2069 178.3829
   178.4700 178.4769 178.4970 178.7458 178.8135 179.0998 179.2269 179.2841
   179.3480 179.3932 179.6651 179.8129 179.8274 179.8359 179.9107 180.1334
   180.2621 180.7441 180.7836 180.7962 180.8778 181.1192 181.1896 181.3219
   181.3925 181.4390 181.6330 181.7275 181.8481 181.8486 181.8719 182.1021
   182.2238 182.3202 182.4507 182.4999 182.5779 182.5831 182.6957 182.7586
   182.9584 182.9824 183.0339 183.1621 183.3284 183.3857 183.5588 183.6126
   183.7360 183.8352 183.9626 183.9759 184.3901 184.4566 184.4957 184.7641
   184.8619 184.8763 185.1663 185.1942 185.2913 185.2941 185.4613 185.5210
   185.7150 185.9298 185.9937 186.0340 186.1246 186.2367 186.3322 186.4104

          k = 0.0000 0.4330 0.0000 (  7458 PWs)   bands (ev):

   -74.3638 -38.7498 -38.5726 -38.5380 -28.5534 -28.5483 -28.5448 -28.5434
   -28.4917 -28.4878 -28.4575 -13.3455 -12.8203  -6.3270  -5.0586  -4.7235
    -3.5180  -2.3298  -1.7807  -1.4944   2.3021   2.4689   3.4921   4.2388
     5.9601   7.0985   7.1477   8.0873   8.2409   8.9557   9.0332  10.0843
    10.2889  11.0093  11.3195  11.3461  12.3291  12.9255  12.9560  13.2698
    13.6730  14.0628  14.3854  14.4925  15.3259  15.4183  15.6939  15.7420
    16.4183  17.3651  17.6248  17.7045  18.4034  18.4318  19.3105  19.6183
    19.8060  20.3714  20.5366  20.5780  20.6038  20.8548  20.9485  21.5499
    21.5763  21.6268  22.0137  22.0293  22.9138  22.9489  23.1500  23.5179
    23.8263  24.1240  24.6008  24.7192  25.1118  25.3377  25.7830  25.7921
    26.0834  26.3635  26.6251  26.7999  26.8279  27.0562  28.0949  28.4810
    28.6244  29.1824  29.5215  29.9077  30.0406  30.6195  30.7358  31.3023
    31.3098  32.1001  32.2842  32.4797  32.7306  33.1236  34.0441  34.2276
    34.3359  34.3759  34.8920  35.0833  35.2962  35.3646  35.4210  35.5464
    35.6926  36.1576  36.2545  36.3416  36.5965  36.9068  36.9521  37.3563
    37.7155  37.8229  37.9089  38.2859  38.4361  38.6536  38.7564  38.8493
    39.2854  40.0763  40.1179  40.1508  40.4673  40.9851  41.0918  41.2640
    41.7000  41.7580  41.9167  42.1817  42.3942  42.6302  42.6840  42.8462
    43.1353  43.1809  43.2122  43.6547  43.7488  43.8654  44.1694  44.2171
    44.3986  44.8362  44.9713  45.0000  45.2475  45.3927  45.4542  45.5356
    45.5830  45.6736  45.9463  46.0714  46.2682  46.3782  46.6390  46.7883
    46.8162  47.0095  47.2094  47.5239  47.7273  47.7473  47.8207  48.2475
    48.3526  48.4932  48.5835  48.9309  49.2774  49.4205  49.4357  49.6872
    49.6885  50.1248  50.2295  50.2520  50.7416  50.9551  51.0763  51.3118
    51.7714  52.0397  52.2109  52.4613  52.7909  52.9969  53.0638  53.3359
    53.3938  53.7589  53.9064  54.3996  54.4388  54.6566  54.7392  55.2522
    55.3152  55.3999  55.4683  55.6573  55.7355  56.1409  56.2289  56.2658
    56.7849  56.8984  57.3334  57.5841  57.6167  57.7977  57.8143  57.8177
    58.0223  58.2824  58.5665  58.7050  58.9206  59.0861  59.3722  59.3739
    59.6877  59.7434  60.1939  60.3707  60.6826  60.9311  60.9963  61.3198
    61.8224  62.2181  62.4254  62.4544  62.4830  62.4997  63.0355  63.1461
    63.2909  63.3947  63.4065  63.7008  63.8036  63.9881  64.2223  64.6386
    65.0427  65.2177  65.5410  66.0274  66.0888  66.2724  66.5769  66.7659
    66.9025  67.1043  67.1101  67.1829  67.3826  67.4411  67.6584  67.6753
    67.8030  67.9510  68.0189  68.1034  68.3595  68.4967  68.9139  69.0235
    69.1659  69.2885  69.5750  69.7156  69.7976  69.8376  69.9243  70.0114
    70.2512  70.5452  70.5946  70.7440  70.7843  70.7889  71.0936  71.2710
    71.6491  71.7535  71.8176  72.0931  72.3694  72.3756  72.3765  72.4686
    72.6810  72.7685  72.8441  72.9538  73.0927  73.3258  73.4078  73.6497
    73.6710  73.9125  73.9387  74.0465  74.3538  74.5188  74.5540  74.6980
    74.9232  75.0886  75.1905  75.3636  75.3951  75.9900  76.0943  76.2383
    76.3922  76.4464  76.5592  76.6113  76.7702  77.1213  77.1327  77.2916
    77.5029  77.5703  77.9421  77.9745  78.0394  78.4034  78.5095  78.5994
    78.7264  78.9364  78.9784  79.1961  79.3806  79.4623  79.7784  79.8517
    80.0823  80.1748  80.2891  80.4975  80.7059  80.9569  81.1868  81.2490
    81.5111  81.5439  81.5466  82.1483  82.2608  82.5119  82.7758  82.8529
    83.1888  83.3110  83.3339  83.7282  83.9758  84.1634  84.3145  84.3192
    84.3742  85.0237  85.1066  85.1811  85.4277  85.4942  85.5352  85.7707
    85.7947  85.9471  86.3105  86.3739  86.5541  86.5754  86.8342  87.0666
    87.1862  87.3219  87.4183  88.0948  88.1619  88.4603  88.4818  88.7289
    88.7396  89.0652  89.2019  89.3415  89.3858  89.4942  89.6651  89.6881
    89.8275  89.8741  90.0782  90.3599  90.4071  90.4616  90.5173  90.6030
    90.7055  91.0102  91.2673  91.5963  91.6558  91.7732  91.8321  92.0376
    92.4230  92.4829  92.8939  92.9622  93.0601  93.0726  93.2291  93.3768
    93.3932  93.5804  93.6545  93.8156  93.8771  93.9937  94.1030  94.4301
    94.8767  94.9043  94.9398  94.9595  95.1458  95.3394  95.6129  95.6131
    95.8467  95.9562  96.2529  96.3303  96.4710  96.6427  96.7567  97.1224
    97.1431  97.5140  97.5665  97.6662  97.9084  98.1363  98.3700  98.5250
    98.6276  98.8116  98.9970  99.1436  99.4718  99.4936  99.5015  99.9313
    99.9888  99.9963 100.5471 100.5759 100.5921 100.7111 101.2285 101.3034
   101.4906 101.5287 101.5872 101.6445 101.8886 101.9526 102.0205 102.0619
   102.1615 102.2291 102.4790 102.5803 102.6032 102.6504 102.6694 102.8123
   102.9522 103.0714 103.0844 103.2183 103.3526 103.3656 103.3971 103.4048
   103.9538 104.1020 104.3246 104.5305 104.7497 104.9818 105.0352 105.0451
   105.2696 105.2907 105.3456 105.6210 105.6364 105.9538 106.3898 106.5031
   106.6198 106.7635 106.8272 107.0488 107.0762 107.1335 107.1731 107.3846
   107.6757 107.6846 108.0029 108.0829 108.3776 108.5073 108.5750 108.6341
   108.6443 108.6915 108.8900 108.9193 109.0729 109.2121 109.2608 109.4193
   109.5668 109.7133 109.8422 109.9081 109.9242 109.9497 110.1897 110.3384
   110.3860 110.4765 110.5066 110.5894 110.6072 110.8549 110.8556 111.0964
   111.1627 111.2294 111.4428 111.4989 111.8377 111.8571 112.0118 112.1336
   112.3276 112.3532 112.3800 112.5073 112.6781 113.0383 113.2187 113.3889
   113.5266 113.6621 113.7253 113.9428 114.0218 114.1526 114.2467 114.3821
   114.4643 114.4867 114.7442 114.8581 115.0011 115.1901 115.2305 115.3103
   115.3681 115.6907 115.7547 115.7562 116.0193 116.0243 116.1223 116.3562
   116.4360 116.4537 116.5536 116.6865 116.7164 116.8336 116.8927 116.9257
   116.9750 117.0060 117.0821 117.2585 117.3695 117.4653 117.7335 117.7407
   117.8315 117.8577 117.9214 118.0905 118.2930 118.4242 118.4738 118.5306
   118.7049 118.7446 118.7708 119.1126 119.1597 119.3174 119.4956 119.5343
   119.6460 119.6917 119.7034 119.8256 119.9048 119.9152 120.2402 120.2984
   120.3842 120.4096 120.5181 120.5470 120.6647 120.8550 120.9121 121.1485
   121.3539 121.5670 121.6433 121.8168 121.8765 122.0761 122.0934 122.3305
   122.4371 122.4835 122.7765 122.9179 122.9465 123.1340 123.3376 123.5531
   123.6087 123.6579 123.8146 123.8175 124.1214 124.3279 124.5672 124.7027
   124.7994 124.8834 124.9705 125.0125 125.0963 125.2680 125.3781 125.6031
   125.7625 126.1092 126.2949 126.2950 126.3612 126.5301 126.5948 126.7102
   126.8447 126.9724 127.1174 127.1680 127.4911 127.5146 127.5688 127.8283
   127.9021 128.1633 128.4253 128.4963 128.7205 128.9832 128.9973 129.2712
   129.3804 129.3978 129.5159 129.7658 129.8727 130.0525 130.0622 130.1581
   130.1796 130.3349 130.3541 130.7674 130.7988 130.9146 130.9308 130.9886
   130.9993 131.4601 131.4746 131.5652 131.7216 131.9318 131.9468 132.0424
   132.3917 132.5147 132.5393 132.7244 132.9482 133.1882 133.3014 133.3568
   133.4551 133.4738 133.7516 133.9240 133.9844 134.3691 134.3834 134.7113
   134.7432 135.4573 135.6009 135.6830 135.7413 135.8805 136.1650 136.3501
   136.6294 136.6349 136.6740 137.0855 137.0986 137.1179 137.2085 137.4995
   137.5876 137.6638 137.6715 137.8980 137.9834 138.2291 138.3369 138.4042
   138.4639 138.4767 138.6381 138.6467 138.7193 138.9474 139.0081 139.0121
   139.0912 139.1356 139.2879 139.4050 139.4305 139.5561 139.5674 139.6668
   139.7269 139.8712 140.0741 140.1266 140.2951 140.3946 140.4816 140.6230
   140.7174 140.7482 140.7863 141.0007 141.2053 141.2955 141.3428 141.5135
   141.5427 141.5805 141.6476 141.9249 141.9450 141.9610 142.0612 142.1881
   142.3304 142.3838 142.4073 142.4611 142.6508 142.6874 142.9542 143.1577
   143.1967 143.5856 143.6027 143.6154 143.6350 143.7644 143.9246 144.3702
   144.4425 144.5043 144.5707 144.6113 144.6705 144.8594 144.9604 144.9665
   145.0222 145.0772 145.3632 145.6050 145.8296 145.8314 145.8834 145.9313
   146.1377 146.3150 146.4068 146.5157 146.5601 146.9463 146.9656 147.1001
   147.2616 147.3153 147.6977 147.8536 147.8567 147.9478 148.2897 148.2908
   148.3057 148.3393 148.6118 148.8536 148.9050 149.0959 149.3928 149.4823
   149.6453 149.7358 149.9839 150.0224 150.1579 150.1866 150.4048 150.4382
   150.6171 150.9865 151.1550 151.1723 151.2600 151.3384 151.3916 151.5039
   151.5346 151.6473 151.6723 151.7604 151.8647 151.9565 152.0647 152.0901
   152.1807 152.2172 152.2701 152.4420 152.4737 152.8298 152.8389 152.8443
   153.1004 153.1830 153.3845 153.4038 153.5130 153.5279 153.5806 153.8445
   153.8622 153.8637 153.9974 154.2699 154.3234 154.4813 154.5245 154.7361
   154.7749 154.8806 155.0177 155.0319 155.2311 155.2497 155.5251 155.7020
   155.7159 156.1947 156.2541 156.3281 156.4095 156.5145 156.7039 156.7668
   156.8211 156.9257 157.1792 157.2317 157.5473 157.6710 157.6832 157.7713
   157.8117 158.0605 158.0799 158.1040 158.4329 158.5435 158.6003 158.9755
   158.9822 159.0348 159.0503 159.4657 159.5357 159.5405 159.6650 159.7437
   159.7719 159.8693 160.0964 160.3860 160.4166 160.5574 160.5817 160.7633
   160.8834 161.0130 161.4658 161.5078 161.6016 161.7835 161.7963 161.8381
   162.0279 162.0651 162.2165 162.2648 162.4692 162.4913 162.6098 162.6672
   162.7238 162.7506 162.9710 163.0090 163.2246 163.2452 163.2674 163.5052
   163.6151 163.6624 163.7000 163.7160 163.7650 163.9694 163.9899 164.1590
   164.2278 164.3117 164.3885 164.5918 164.6129 164.8157 164.8192 165.0199
   165.0849 165.1005 165.1164 165.3691 165.5343 165.5411 165.5704 165.6796
   165.7672 166.0087 166.0172 166.2452 166.2560 166.3016 166.3294 166.5955
   166.8179 166.8589 166.8847 167.0937 167.1107 167.2296 167.2388 167.2601
   167.4948 167.6646 167.7465 167.7725 167.8071 167.9137 167.9497 168.0986
   168.2591 168.4544 168.5039 168.6128 168.6753 168.8246 169.0467 169.1625
   169.1659 169.4669 169.5056 169.6937 169.9818 170.2363 170.3084 170.4830
   170.7037 170.7785 171.0712 171.0737 171.1840 171.3665 171.5386 171.6722
   171.7197 172.0794 172.1765 172.2419 172.2899 172.4031 172.6029 172.7421
   172.7807 172.7979 172.8459 173.1711 173.3122 173.3187 173.4351 173.5793
   173.6380 173.9178 174.0470 174.2377 174.2967 174.4251 174.4836 174.4960
   174.6800 174.7193 174.9089 175.1271 175.2522 175.2854 175.3392 175.4019
   175.5989 175.6078 175.7075 175.7161 175.7181 175.8679 175.8761 175.9091
   176.1259 176.1420 176.1422 176.1772 176.2781 176.3138 176.3147 176.3817
   176.4274 176.7512 176.8203 176.8414 176.9434 177.0232 177.0535 177.0646
   177.3125 177.3298 177.3815 177.4731 177.6098 177.7296 177.9366 177.9699
   178.1462 178.2574 178.2757 178.3487 178.5326 178.5493 178.6403 178.7378
   178.8332 178.8910 179.0812 179.5002 179.5747 179.5773 179.9576 180.0051
   180.2400 180.3256 180.3430 180.3945 180.4707 180.9074 181.0044 181.0715
   181.1318 181.3273 181.5104 181.5625 181.6851 181.7998 181.8576 181.9818
   182.0107 182.0752 182.1466 182.2712 182.3392 182.5143 182.6973 182.9768
   182.9777 182.9997 183.1662 183.2145 183.2348 183.4187 183.4570 183.6026
   183.6265 183.6292 183.8240 183.8261 183.8586 184.1757 184.2647 184.3050
   184.3450 184.5313 184.5727 184.5888 184.5896 184.7708 184.8170 184.8715
   184.9702 185.0017 185.1870 185.4020 185.4775 185.6493 185.9006 186.0231
   186.0477 186.0779 186.1361 186.2175 186.2513 186.3468 186.3818 186.4027
   186.7475 186.8422 186.8871 186.9407 187.1183 187.1326 187.3569 187.5801
   187.6287 187.6588 187.7783 187.7838 187.9641 188.0484 188.1502 188.1721

          k = 0.0000-0.5774 0.0000 (  7458 PWs)   bands (ev):

   -74.3615 -38.7961 -38.5638 -38.5492 -28.5536 -28.5476 -28.5451 -28.5433
   -28.4926 -28.4879 -28.4569 -12.9553 -12.6913  -6.7659  -5.4336  -4.7083
    -3.7098  -2.4446  -1.5931  -1.2324   2.5056   2.9567   3.7149   4.3774
     4.8299   7.3846   7.5413   8.7620   9.2092   9.7440  10.1946  10.3773
    10.5453  10.6924  10.7697  11.0621  11.1542  11.9960  12.2943  12.4653
    12.9933  14.0692  14.2723  14.6082  15.2934  15.4749  16.5229  16.6547
    16.8981  16.9084  17.5167  17.6854  18.3367  18.7144  19.0221  19.0266
    19.2256  19.6395  20.0887  20.2970  20.3664  20.4065  20.5046  21.2686
    21.3085  21.3393  21.3957  22.1414  22.3477  22.3995  22.9503  23.3099
    23.3246  23.7176  23.8432  24.3428  24.5445  24.9139  25.3371  25.3831
    25.3971  26.0271  26.3898  26.7643  27.1712  28.2964  28.3651  28.4999
    28.6439  29.3758  29.5463  29.6415  30.5223  30.7053  31.3854  31.4120
    31.8697  32.0425  32.4459  32.6487  32.8593  32.8961  33.2957  33.8591
    34.0328  34.5559  35.5663  35.7471  35.7943  35.9738  37.0016  37.3319
    37.5108  37.6134  37.8407  37.8942  38.1581  38.4718  38.6940  38.8643
    39.5064  39.5548  39.6650  39.7436  39.8473  39.8631  39.9935  40.0523
    40.2574  40.3537  40.4164  40.4271  40.7701  40.8210  40.8640  40.9414
    40.9560  41.5240  41.6645  41.6808  41.8914  41.9885  42.3194  42.4168
    42.4435  42.7383  42.7441  42.8718  42.9048  43.3248  43.7180  44.0762
    44.2500  44.4239  44.4704  44.8099  44.9305  45.1128  45.3312  45.5379
    45.8434  46.0794  46.1334  46.1351  46.3899  46.8554  47.0227  47.0453
    47.3023  47.5141  47.7810  48.0779  48.1120  48.2117  48.6431  48.6911
    48.9447  48.9716  49.0418  49.2656  49.8822  49.8922  49.9728  50.0164
    50.2738  50.4176  50.5550  50.5766  50.6921  50.8946  51.2098  51.2567
    51.2721  51.5668  51.7635  51.8563  51.8759  52.1441  52.3805  52.5773
    52.6988  52.9615  52.9957  53.2857  53.4477  53.5018  53.8134  54.0274
    54.2204  54.4044  54.4311  54.8957  54.9306  55.1490  55.2215  55.3730
    55.5002  56.4226  56.4531  56.7349  56.9636  57.0145  57.4570  57.4696
    57.5996  57.6482  57.9119  57.9176  58.5090  58.5930  58.8062  58.8374
    59.0550  59.1172  59.1221  59.5445  60.0165  60.0801  60.9874  61.0331
    61.7600  61.9043  61.9274  62.0755  62.3042  62.4050  62.7129  62.7818
    62.7946  63.0280  63.0861  63.6534  63.6732  63.7230  63.7642  64.2660
    64.8290  65.3302  65.6719  65.8166  66.0897  66.1066  66.5497  66.5598
    67.1736  67.3053  67.3397  67.3738  67.6778  67.9055  67.9543  68.0504
    68.2113  68.3525  68.4304  68.6782  68.6910  68.7737  68.8381  69.0939
    69.2140  69.4598  69.4641  69.6105  69.6483  69.6558  69.6911  69.6953
    69.9219  70.0778  70.0828  70.1974  70.3981  70.4826  70.5303  70.5730
    70.6933  70.8348  71.2712  71.4063  71.4112  71.6709  71.8813  72.0820
    72.1285  72.2698  72.3129  72.3574  72.6613  72.6718  72.8714  73.4042
    73.4220  73.5502  73.5719  73.7131  74.0388  74.0490  74.2770  74.2885
    74.3552  74.5449  74.8224  74.9677  75.2241  75.3938  75.5063  75.5640
    75.9668  75.9781  76.2520  76.5754  76.6894  76.6900  76.8145  76.9812
    77.0824  77.4588  77.5932  77.6715  78.0355  78.1036  78.1080  78.1994
    78.2390  78.5672  78.6229  78.6948  78.9637  79.0093  79.1584  79.4160
    80.0034  80.2708  80.2991  80.6513  80.8892  81.0214  81.1605  81.3172
    81.5592  81.6318  81.9030  82.0077  82.0123  82.0927  82.4714  82.5366
    82.5400  83.0023  83.0359  83.9546  84.0087  84.3568  84.5398  84.6790
    84.7663  84.9053  85.1812  85.2574  85.3275  85.3751  85.5581  85.9849
    85.9984  86.3691  86.3853  86.4435  86.9984  87.0967  87.1073  87.4774
    87.5324  87.5534  87.6211  87.9133  87.9831  88.1735  88.2663  88.5741
    88.7952  88.9150  89.1558  89.7334  89.8152  90.0300  90.2244  90.4476
    90.4771  90.8756  91.1109  91.2789  91.4153  91.5400  91.5921  91.9427
    92.0139  92.5216  92.6019  93.0301  93.0576  93.1038  93.2562  93.7376
    94.0516  94.3755  94.3870  94.6995  94.7099  94.7733  95.2074  95.3959
    95.5234  95.7211  95.8739  96.1089  96.2210  96.3019  96.3028  96.4086
    96.7701  96.9165  96.9208  96.9947  97.0493  97.4324  97.5585  97.7415
    97.9018  97.9435  97.9667  98.0208  98.5283  98.6776  98.9492  98.9517
    98.9544  98.9937  99.0912  99.2373  99.2450  99.2493  99.2538  99.2843
    99.4754  99.6333  99.8996 100.0609 100.0895 100.1552 100.1873 100.2078
   100.2251 100.5773 100.8710 100.9481 101.0343 101.2884 101.3254 101.4243
   101.8099 101.8220 101.8549 102.0125 102.1571 102.1703 102.2540 102.2664
   102.5929 102.8838 102.9895 103.2320 103.2998 103.5289 103.6242 103.7670
   103.8310 103.8641 104.1401 104.2443 104.2881 104.5557 104.6872 104.6878
   104.7831 104.8732 104.8977 105.0250 105.3059 105.3548 105.3660 105.5088
   105.5296 105.5345 105.8494 105.8523 106.1134 106.1522 106.3072 106.3079
   106.5138 106.8325 106.9093 106.9222 106.9722 107.1542 107.4037 107.7558
   107.7746 108.0386 108.0797 108.0905 108.1179 108.1182 108.1689 108.2297
   108.3905 108.4834 108.6012 108.6508 108.6755 108.7735 109.0641 109.1010
   109.1597 109.2546 109.3216 109.3259 109.4587 109.4915 109.6419 109.7248
   109.7925 109.9778 110.0413 110.1438 110.3242 110.3644 110.3738 110.4517
   110.5924 110.5950 110.6190 110.7349 110.8952 110.9463 110.9876 111.1921
   111.2408 111.3114 111.7842 111.7987 111.8043 111.8899 112.0645 112.1061
   112.1374 112.2088 112.3206 112.3899 112.4829 112.5049 113.0138 113.1293
   113.2679 113.3145 113.4453 113.5339 113.6463 113.7994 114.0711 114.4272
   114.4550 114.5303 114.5435 114.6809 114.7754 114.7870 114.7939 114.8383
   114.9947 115.0947 115.3870 115.4282 115.6005 115.7148 115.7252 115.9485
   116.1850 116.3298 116.3510 116.5053 116.5866 116.6826 116.7087 116.7945
   116.9450 116.9727 116.9844 117.2449 117.3923 117.5081 117.6270 117.6388
   117.8566 117.8757 118.0279 118.1844 118.2526 118.4161 118.4359 118.4682
   118.4861 118.8417 118.9616 119.1511 119.1972 119.7486 119.9151 120.1059
   120.3933 120.4870 120.4934 120.6566 121.1515 121.4205 121.5973 121.8510
   122.0092 122.0346 122.1505 122.1799 122.3027 122.3708 122.5778 122.9068
   123.0974 123.1532 123.2606 123.4403 123.5160 123.6125 123.8423 124.0411
   124.1683 124.6007 124.7881 124.8796 125.0585 125.0826 125.1479 125.3315
   125.3700 125.5419 125.6153 125.9396 126.0083 126.1534 126.2333 126.4997
   126.5063 126.5663 126.5854 126.5901 126.9188 126.9276 127.0750 127.1149
   127.2910 127.3471 127.4636 127.5632 127.5932 127.6283 127.8573 127.8896
   128.0184 128.0413 128.0640 128.2043 128.4322 128.6664 128.6933 128.8185
   128.8393 129.0755 129.1769 129.2801 129.4191 129.5062 129.5742 129.5973
   129.7091 129.9153 130.0038 130.1952 130.3132 130.7575 131.0052 131.0123
   131.1069 131.1773 131.5081 131.6726 131.9030 131.9291 132.1125 132.2649
   132.3885 132.6628 132.8645 132.9217 132.9256 133.0192 133.2228 133.2841
   133.3739 133.4094 133.7223 133.9474 134.0298 134.1824 134.2794 134.3259
   134.4435 134.4663 134.7057 134.8667 134.9978 135.0300 135.0511 135.1999
   135.2546 135.5560 135.6079 135.6380 135.7113 135.8299 135.8930 135.9963
   136.3208 136.3498 136.5265 136.5854 136.6269 136.7542 136.7824 136.9717
   137.0263 137.2567 137.5000 137.5219 137.6319 137.7062 137.8359 137.8553
   137.8826 138.1071 138.1987 138.3862 138.4216 138.6189 138.6528 138.7084
   138.7176 138.9121 139.0475 139.0869 139.3962 139.4165 139.5154 139.7664
   139.8120 139.9044 139.9377 140.0787 140.1297 140.1435 140.1670 140.5674
   140.6191 140.9248 141.0575 141.0869 141.1040 141.3910 141.4956 141.5245
   141.5596 141.8721 141.9406 141.9892 142.0375 142.1258 142.2649 142.7760
   143.2336 143.2530 143.4013 143.4092 143.5480 143.5545 143.6804 143.8617
   143.8916 144.2608 144.3624 144.4927 144.6186 144.7104 144.7758 144.8068
   144.8835 144.9779 145.0344 145.1812 145.2660 145.3564 145.7400 145.7839
   145.8034 145.9167 145.9564 146.1354 146.1380 146.3269 146.4310 146.5097
   146.7181 146.7700 147.0800 147.1115 147.2560 147.4029 147.4719 147.4849
   147.6508 147.6752 147.8823 147.9142 148.0066 148.2452 148.2467 148.5433
   148.6799 149.1145 149.2977 149.4950 149.6834 149.7317 149.8404 149.9993
   150.1271 150.4019 150.4813 150.6152 150.6292 150.7559 151.0796 151.1361
   151.2526 151.3168 151.5013 151.5393 151.6461 151.7797 152.0303 152.1423
   152.3793 152.5892 152.6644 152.6684 152.7635 152.8754 152.9036 153.0795
   153.3570 153.6611 153.9183 154.0082 154.1208 154.3862 154.4429 154.4450
   154.5077 155.1645 155.2863 155.3033 155.5028 155.5766 155.7524 155.8074
   155.8799 155.9742 155.9850 155.9872 156.2072 156.4046 156.4255 156.5209
   156.6766 156.6893 156.7020 156.8296 157.0426 157.3151 157.3179 157.5587
   157.5642 157.6997 157.7583 157.8404 157.8461 157.8705 157.9059 158.1317
   158.1517 158.1626 158.2692 158.2782 158.3038 158.4282 158.5073 158.5304
   158.5307 158.5633 158.6536 158.8483 158.9026 159.0286 159.0330 159.1300
   159.3872 159.3985 159.4247 159.4285 159.5113 159.5769 159.6332 159.7279
   160.2927 160.4111 160.5213 160.5561 160.8003 160.8767 161.0031 161.0964
   161.2813 161.3017 161.3810 161.4048 161.4718 161.5675 161.8455 161.8911
   161.9532 162.1884 162.2382 162.3997 162.4367 162.7809 162.9128 162.9309
   162.9675 163.0091 163.0697 163.2227 163.3149 163.6109 163.6839 163.7003
   163.7981 164.0746 164.0821 164.1866 164.3525 164.3559 164.3823 164.5489
   164.9245 165.0279 165.1124 165.1798 165.3693 165.4204 165.5994 165.6213
   165.7938 165.9672 166.0559 166.0593 166.1377 166.4281 166.4316 166.4671
   166.5556 166.6490 166.6740 166.7344 166.8939 166.9580 167.1638 167.1654
   167.1795 167.3052 167.3395 167.3446 167.4238 167.7053 167.7605 167.7918
   167.9360 167.9664 168.4101 168.4998 168.7045 168.9937 169.1056 169.2759
   169.4790 169.5416 169.6926 169.7655 169.9194 170.0273 170.2044 170.2839
   170.4233 170.4403 170.4988 170.6508 170.8165 171.0954 171.1982 171.2859
   171.3033 171.3164 171.3914 171.4950 171.7131 171.7744 172.4555 172.4917
   172.5612 172.7662 172.8017 172.9539 173.1237 173.1902 173.7677 173.7893
   173.9691 174.1450 174.3246 174.4429 174.5248 174.5689 174.7600 174.7949
   174.8151 174.8338 174.8540 175.2053 175.3615 175.4156 175.4200 175.4789
   175.5219 175.5688 175.6360 175.8370 175.8756 175.9159 175.9956 176.1274
   176.1330 176.3290 176.3739 176.5884 176.6049 176.6426 176.7429 176.9329
   176.9617 177.3528 177.5356 177.7920 177.8898 178.1976 178.2301 178.2716
   178.5864 178.9659 179.0957 179.2136 179.2240 179.5425 179.6122 179.7864
   179.9219 179.9318 179.9787 180.0969 180.3393 180.3757 180.5437 180.6154
   180.8402 180.8465 181.0273 181.2337 181.2583 181.3703 181.4697 181.4907
   181.6498 181.6836 181.7480 181.8894 182.2725 182.4251 182.4493 182.5932
   182.7137 182.8351 182.9214 183.0854 183.2139 183.3161 183.4444 183.7330
   183.7413 183.8652 183.9907 184.0134 184.2257 184.2448 184.5144 184.5756
   184.6079 184.8757 184.8882 185.1153 185.2340 185.4808 185.5700 185.6292
   185.6710 185.7638 185.9184 185.9415 186.0076 186.3618 186.4132 186.6574
   186.6883 186.7742 186.8409 186.9484 187.0701 187.1256 187.3777 187.4235
   187.4437 187.6662 187.6685 187.6908 187.7376 187.9249 187.9474 187.9800
   188.0044 188.0344 188.0485 188.1091 188.2767 188.3291 188.3920 188.4891
   188.5763 188.5812 188.7275 188.8267 188.8719 188.9819 189.0386 189.0763
   189.2713 189.2999 189.5901 189.6771 189.7012 189.8700 189.9435 190.0487

          k = 0.1250 0.2165 0.0000 (  7515 PWs)   bands (ev):

   -74.3713 -38.6001 -38.5976 -38.5084 -28.5528 -28.5506 -28.5495 -28.5380
   -28.4890 -28.4874 -28.4596 -14.3409 -13.1722  -5.8358  -4.5622  -3.7153
    -3.1913  -2.5882  -1.5780  -0.9104   1.8389   2.3152   2.4345   3.7083
     5.8456   5.9555   6.5457   7.2489   7.4437   8.2317   8.8901   9.0887
     9.6930  10.2357  10.7740  11.4381  11.8180  12.4504  12.5319  12.7488
    13.8102  14.3919  15.4079  15.4448  16.6097  17.1401  18.2117  18.2602
    18.3007  18.3930  18.8994  18.9448  19.0634  19.4667  19.6072  19.6444
    20.2458  20.4346  20.4723  21.1910  21.4644  21.6723  21.7607  22.4430
    22.8646  23.0275  23.4033  23.5047  23.7260  24.4123  24.4851  24.9271
    25.2527  25.4582  25.7029  25.8587  26.1120  26.3437  26.4020  26.4596
    26.7673  26.9724  27.3498  27.6908  27.8232  27.9535  28.3620  28.4517
    28.5702  28.6867  28.9315  29.3512  29.5750  30.0937  30.3341  30.3614
    30.5053  30.6670  31.4477  31.6571  31.7823  32.0334  32.1616  32.4877
    32.7578  32.8688  33.0495  33.2510  33.5490  33.6068  33.6518  33.7881
    33.9314  34.0188  34.1316  34.2471  34.2947  34.8304  34.9017  35.1425
    35.3116  35.3942  35.5621  36.2045  36.3218  36.4569  36.5605  36.7914
    37.0713  37.4161  37.4883  37.7547  38.1092  38.1696  38.6098  39.0380
    39.0521  39.4751  39.6095  39.6438  40.1810  40.6345  40.8076  41.3197
    41.4791  41.5526  41.7019  41.8255  42.3335  42.4776  42.7693  43.1634
    43.4251  43.6847  44.3353  44.4374  44.8728  44.9961  45.3131  45.4011
    45.9853  46.2521  46.2576  46.7929  47.0504  47.1912  47.2069  47.6307
    47.8022  47.9434  48.0698  48.4492  48.9181  49.0226  49.4301  49.5455
    49.7562  49.8993  50.1527  50.3086  50.5783  50.7201  50.9852  51.1498
    51.2094  51.7674  51.8728  51.9978  52.2983  52.5602  52.6008  52.8815
    53.2379  53.5942  53.7255  53.9595  54.0549  54.3020  54.4714  54.4836
    54.8261  55.0182  55.4920  55.5750  55.8033  56.1305  56.4473  56.5259
    56.8592  57.0138  57.3651  57.5641  57.7315  57.8158  57.9485  58.1354
    58.4078  58.4199  58.5767  58.7014  58.7212  59.1468  59.2067  59.4623
    59.5756  59.7410  59.8434  60.0297  60.2183  60.5032  60.6022  60.9260
    61.0490  61.2666  61.4393  61.6763  61.7880  62.1020  62.1294  62.3808
    62.5311  62.5672  62.6025  62.8205  63.0883  63.4096  63.7516  63.7993
    63.8637  63.9699  64.1821  64.8342  65.0808  65.2035  65.5607  65.7860
    66.1782  66.3867  66.4282  66.7326  66.9734  67.3178  67.5137  67.6383
    67.6932  67.8522  67.9755  68.2259  68.4469  68.6439  68.6644  68.7226
    68.8873  68.9714  69.0000  69.6733  69.7042  70.0349  70.1645  70.2449
    70.4278  70.5120  70.6187  70.6452  70.8307  71.1228  71.1920  71.2554
    71.3683  71.3945  71.6223  71.7163  72.1154  72.2596  72.3889  72.4279
    72.6427  72.7094  72.8680  72.8764  72.9843  73.1348  73.1434  73.2371
    73.4659  73.4748  73.6002  73.6267  73.9143  73.9733  74.1423  74.2668
    74.3973  74.4244  74.5945  74.6764  74.7649  75.0103  75.1252  75.4838
    75.6522  75.7471  75.9868  75.9876  76.1128  76.1795  76.2536  76.3376
    76.4298  76.5290  76.5387  76.6113  76.9044  76.9213  77.2998  77.7121
    77.9093  78.1200  78.1279  78.3293  78.3554  78.7056  78.7805  79.0287
    79.2877  79.4238  79.4848  79.5123  79.9164  80.0497  80.0734  80.2544
    80.3110  80.5149  80.5939  80.7935  80.8709  81.0076  81.1126  81.1373
    81.4221  81.6254  81.9164  82.0866  82.1594  82.3628  82.4857  82.6135
    82.6476  82.8834  82.9105  83.0340  83.1661  83.3259  83.4860  83.6682
    83.6966  83.9074  83.9868  84.1528  84.2677  84.7011  84.7220  84.7932
    84.8007  84.9347  85.0812  85.3102  85.3204  85.3786  85.4966  85.5717
    85.6937  85.8948  85.9242  85.9518  86.0715  86.1504  86.1731  86.4428
    86.4673  86.5498  86.8371  86.8582  87.2962  87.3688  87.4308  87.4982
    87.7082  87.9229  88.0981  88.1440  88.2808  88.3930  88.6848  88.8093
    89.0488  89.1333  89.3656  89.7090  90.0124  90.0289  90.1706  90.3048
    90.5902  90.6197  90.8043  90.9170  90.9382  91.0864  91.3840  91.4450
    91.5062  91.5535  91.5835  91.7412  92.1605  92.2856  92.2940  92.6544
    92.7599  92.8088  92.8449  92.9201  93.1512  93.2237  93.2319  93.4727
    93.4731  93.7863  93.9796  94.0906  94.2160  94.3403  94.6797  94.8843
    94.9441  95.2583  95.3168  95.6069  95.9277  96.0091  96.2728  96.4477
    96.5965  96.8344  96.9640  97.0772  97.1724  97.7742  97.8604  97.8743
    98.0412  98.0627  98.2046  98.4922  98.8446  99.0287  99.0581  99.0881
    99.1761  99.3794  99.5630  99.6283  99.7148  99.8968  99.9719  99.9878
   100.1173 100.1673 100.2791 100.3895 100.5846 100.5919 100.8738 100.9161
   101.1200 101.2241 101.2775 101.3702 101.4821 101.6375 101.7158 102.0738
   102.0997 102.4173 102.4385 102.6190 102.6661 102.7293 102.8691 102.8948
   103.0365 103.1523 103.1990 103.2871 103.4255 103.5450 104.0236 104.0565
   104.1285 104.5222 104.5384 104.8494 104.9384 105.1231 105.2252 105.4619
   105.7040 105.7765 105.8855 106.1229 106.4060 106.4568 106.6501 106.8041
   107.1177 107.2507 107.2809 107.4919 107.5634 107.6657 107.8526 108.0482
   108.1443 108.2873 108.5153 108.6381 108.6558 108.7973 108.9773 109.1515
   109.2858 109.4657 109.5095 109.7333 109.8046 109.9128 110.1365 110.4114
   110.6171 111.0030 111.0173 111.1698 111.4890 111.9049 111.9789 112.1266
   112.3179 112.3698 112.5205 112.6824 112.8289 112.8593 113.0289 113.2481
   113.3128 113.3472 113.4905 113.7374 114.0942 114.1942 114.2306 114.3897
   114.6104 114.6325 114.8888 114.9325 114.9633 115.0660 115.1159 115.4907
   115.8590 115.8741 115.9115 116.2734 116.4602 116.9136 117.0826 117.2313
   117.3149 117.4857 117.6748 117.6807 117.9543 118.0969 118.4379 118.4782
   118.6425 118.6731 118.8956 118.9145 119.0658 119.2351 119.5171 119.7247
   120.2820 120.2847 120.5719 120.7042 120.8680 121.0769 121.2048 121.2613
   121.4514 121.4882 121.5294 121.7368 122.0641 122.1288 122.1291 122.2462
   122.3776 122.4079 122.4566 122.4846 122.4856 122.6195 122.6481 122.6858
   122.8678 122.9447 123.1780 123.3238 123.4235 123.5275 123.6528 123.6579
   123.7254 123.9728 124.2970 124.3696 124.4326 124.6459 124.6951 125.1431
   125.1546 125.3577 125.4877 125.5337 125.8446 125.8534 125.8799 126.1881
   126.3071 126.4296 126.5972 126.6998 126.7960 127.0462 127.1359 127.2095
   127.5505 127.8120 127.8463 128.0471 128.1222 128.2422 128.3113 128.3169
   128.4526 128.5213 128.5833 128.9090 129.0030 129.0670 129.1966 129.3390
   129.5120 129.6230 129.6235 129.7191 129.7311 129.8113 129.9054 130.0996
   130.1540 130.2468 130.3223 130.5460 130.7725 130.8542 130.9630 131.1199
   131.1585 131.3106 131.3647 131.3974 131.7125 131.9087 131.9562 132.1466
   132.4713 132.5644 132.6574 132.6879 132.7902 132.8498 133.2237 133.2586
   133.4994 133.6250 133.7117 133.9465 134.0273 134.0713 134.3294 134.3476
   134.4208 134.4850 134.5910 134.7795 134.9075 134.9207 135.1570 135.2691
   135.3277 135.4885 135.4920 135.6762 135.6789 135.9026 136.0026 136.0557
   136.0772 136.1939 136.2141 136.4016 136.5991 136.6487 136.6824 136.7436
   136.8584 137.1280 137.1656 137.2239 137.2852 137.5447 137.5845 137.6235
   137.8513 137.8957 137.9010 138.0065 138.1578 138.1677 138.3248 138.4111
   138.4726 138.5867 138.6395 138.6583 138.8784 139.0421 139.0558 139.2339
   139.4470 139.5512 139.7925 139.9330 139.9938 139.9999 140.1072 140.3782
   140.4372 140.4643 140.5054 140.6664 141.1955 141.2178 141.3348 141.5271
   141.5682 141.7324 141.8249 141.9030 142.0506 142.4260 142.4513 142.4763
   142.5351 142.7395 142.7513 142.9374 142.9648 143.1796 143.2820 143.5535
   143.6193 143.6205 143.7441 143.7523 143.9916 144.0244 144.1991 144.2147
   144.4524 144.4860 144.8872 144.9228 144.9351 145.2485 145.2999 145.4197
   145.5399 145.7057 145.8120 146.0450 146.1310 146.1539 146.2882 146.3127
   146.3307 146.3977 146.5079 146.5265 146.9718 147.0538 147.3686 147.5697
   147.6352 147.6738 147.7890 147.8176 148.0651 148.0651 148.4072 148.4316
   148.6036 148.6596 148.8951 149.1592 149.2344 149.3624 149.4443 149.5474
   149.6710 149.7676 149.7887 150.0307 150.0793 150.3909 150.4179 150.5706
   150.8675 150.9686 151.0467 151.0561 151.2559 151.3285 151.3402 151.4347
   151.6178 151.6697 151.8421 151.8742 151.9929 152.0208 152.0634 152.1319
   152.3234 152.5139 152.6820 152.7116 152.7565 152.7614 153.1272 153.2696
   153.2760 153.4519 153.4557 153.5540 153.7081 153.9269 154.0363 154.1398
   154.3167 154.3728 154.4956 154.6516 154.7069 154.8862 154.9729 155.0672
   155.3243 155.3417 155.3462 155.5110 155.7058 155.7127 155.7954 155.9017
   155.9237 156.0391 156.1719 156.3525 156.4310 156.6388 156.6827 156.9372
   157.0451 157.1064 157.1954 157.3541 157.4024 157.4125 157.4544 157.5600
   157.6562 157.8854 158.0266 158.0898 158.1666 158.2571 158.3479 158.3726
   158.5369 158.5400 158.7938 158.9595 158.9609 159.1574 159.2653 159.2802
   159.4113 159.4951 159.4962 159.7015 159.7494 159.9139 159.9759 160.0610
   160.1674 160.3463 160.4268 160.4701 160.4843 160.6193 160.7486 160.8124
   160.8149 160.8632 160.9823 160.9925 161.1196 161.2576 161.4025 161.5532
   161.6314 161.7159 161.8366 161.8704 161.9937 162.0078 162.1173 162.2207
   162.2686 162.2835 162.3701 162.4456 162.5323 162.5894 162.6029 162.7934
   162.9185 162.9931 163.1329 163.1988 163.3221 163.3690 163.4826 163.7107
   163.7970 163.8375 163.9745 164.0393 164.1005 164.2321 164.3477 164.4011
   164.4215 164.4591 164.5335 164.7056 164.8178 164.8295 164.8681 165.0205
   165.1894 165.2139 165.2795 165.4214 165.5585 165.6276 165.6327 165.7397
   165.7490 165.8539 165.8810 165.9498 166.1136 166.2106 166.2982 166.3595
   166.3921 166.5025 166.5858 166.6170 166.7193 166.7867 166.8471 166.8546
   166.8998 167.0472 167.2222 167.3451 167.4205 167.5353 167.6053 167.6426
   167.8035 167.8275 167.9213 167.9929 168.0430 168.2532 168.2572 168.3033
   168.4494 168.5922 168.6649 168.8732 168.9761 169.0123 169.1229 169.1731
   169.3952 169.5050 169.6443 169.6683 169.7837 169.8628 169.8999 170.0357
   170.0919 170.2353 170.2536 170.4104 170.5101 170.7010 170.7279 170.7572
   170.9243 170.9450 171.3219 171.4829 171.4864 171.5520 171.6600 171.8416
   171.9001 171.9745 172.1672 172.2149 172.3531 172.4723 172.5245 172.7031
   172.7426 172.8360 172.8422 173.1130 173.2157 173.2446 173.3796 173.4791
   173.6741 173.7094 173.9728 174.0564 174.1217 174.2455 174.3098 174.3200
   174.4813 174.5638 174.6392 174.7240 175.0333 175.0565 175.2656 175.3000
   175.3843 175.5628 175.6147 175.6190 175.8413 175.8607 176.0844 176.2440
   176.2953 176.4023 176.4254 176.5767 176.5972 176.6642 176.6998 176.9049
   177.0859 177.2172 177.4308 177.4655 177.4685 177.5850 177.6387 177.7876
   177.8264 177.8941 178.1821 178.2552 178.3939 178.4406 178.6582 178.7199
   179.0056 179.0791 179.0868 179.4116 179.4182 179.4336 179.6469 179.7404
   179.7560 179.7982 179.9822 180.0482 180.1415 180.1804 180.2967 180.3522
   180.4228 180.6183 180.6808 180.7130 180.8078 180.8880 181.2208 181.2321
   181.3402 181.3523 181.6820 181.7430 181.8092 181.8572 181.9722 182.0200
   182.2086 182.4548 182.5201 182.7636 182.9572 183.1264 183.1988 183.4174
   183.4784 183.7371 183.7727 183.8206 183.8711 184.0785 184.1319 184.1594
   184.2520 184.3174 184.5991 184.6411 184.7151 184.8060 184.8469 184.8516
   184.9385 185.1603 185.2392 185.4465 185.4608 185.5625 185.7784 185.8045
   185.8413 185.9399 186.0786 186.1429 186.2774 186.4837 186.5982 186.6597

          k = 0.1250 0.3608 0.0000 (  7490 PWs)   bands (ev):

   -74.3656 -38.7002 -38.5789 -38.5472 -28.5529 -28.5491 -28.5459 -28.5422
   -28.4908 -28.4881 -28.4580 -13.5998 -12.9012  -5.8240  -4.7949  -4.7015
    -3.7346  -2.5861  -1.9144  -1.2235   1.8415   2.5612   2.9492   4.3160
     6.7978   6.9977   7.1963   7.7273   8.2419   8.8294   8.8539   9.9024
    10.1397  10.6458  11.2337  11.3287  11.8255  12.3428  12.9831  13.4159
    14.4487  14.6449  15.0296  15.0365  15.4013  15.8549  15.9712  16.5380
    16.9068  17.1369  17.1560  17.6868  17.8071  18.3667  18.4686  18.7739
    18.9540  19.4178  20.0401  20.3763  20.6771  20.8035  21.1616  21.8975
    22.0895  22.2655  22.9923  23.0269  23.5489  23.9681  24.2558  24.4938
    24.6863  24.8168  25.0926  25.3101  25.5389  25.5930  25.7830  26.0837
    26.2676  27.1074  27.1779  27.6225  27.8851  28.3389  28.6400  28.6695
    29.1957  29.4172  29.5248  29.7311  29.8983  30.0277  30.4419  30.4921
    30.7639  31.0350  31.2165  31.6353  31.8706  31.9544  32.5021  32.6099
    33.2662  33.3276  33.4460  34.0027  34.4800  34.5787  34.7478  35.2671
    35.6681  35.7766  35.9801  36.2331  36.5985  36.8548  36.9727  37.1037
    37.3730  37.6334  37.6901  38.0151  38.2661  38.5160  38.6126  38.9427
    38.9772  39.3820  39.6657  39.8047  39.9188  40.2207  40.3467  40.4757
    40.5729  40.7707  41.1670  41.5130  41.6627  41.7464  41.9101  42.0266
    42.4660  42.5279  42.8767  43.2323  43.2679  43.5230  43.6222  43.8328
    44.2489  44.2735  44.6173  44.7683  44.8564  44.8936  45.2414  45.2462
    45.5942  45.7984  45.8201  46.0670  46.4297  46.7485  46.7794  47.0693
    47.2387  47.6243  47.6952  47.9511  48.1025  48.3622  48.6046  48.7427
    48.8789  49.2332  49.4932  49.5057  49.9873  50.0532  50.3270  50.5310
    50.7346  50.7933  51.3714  51.3974  51.5077  51.6929  51.9389  52.1407
    52.2567  52.5528  52.7906  52.8902  52.9944  53.2416  53.3511  53.6438
    53.6857  53.7447  54.1512  54.3905  54.7223  54.8059  55.1253  55.2520
    55.3122  55.9914  56.0810  56.2841  56.6043  56.8897  56.9072  57.2347
    57.5496  57.5723  57.8402  57.9982  58.1530  58.3692  58.6220  58.8713
    58.9482  59.3200  59.3561  59.5242  59.7018  59.7168  59.9158  60.1857
    60.1909  60.4729  60.7379  60.9519  61.0991  61.3685  61.5247  61.7925
    61.8271  61.9416  61.9491  62.2953  62.3659  62.6993  62.7222  62.9813
    63.1457  63.2998  63.4070  63.6179  63.8221  63.8224  64.1024  64.3311
    64.5331  64.6319  64.7175  64.9999  65.1443  65.3975  65.5690  65.6558
    65.7139  66.1037  66.1673  66.4247  66.7049  66.8136  67.0381  67.1111
    67.3465  67.4479  67.4635  67.5913  67.6551  67.6962  67.8869  67.9824
    68.2954  68.6449  68.8870  68.9701  69.1391  69.2903  69.7546  69.8777
    70.1353  70.2002  70.3594  70.6018  71.0129  71.0822  71.4227  71.4391
    71.5273  71.7224  71.8609  72.0253  72.3024  72.4155  72.6935  72.7948
    73.1866  73.3377  73.4282  73.5516  73.7579  74.0800  74.1254  74.3005
    74.3642  74.5782  74.6077  74.6942  74.9279  74.9401  75.1002  75.3050
    75.3259  75.5614  75.7451  75.9766  76.2794  76.5027  76.5889  76.9860
    77.0815  77.2578  77.3619  77.6173  77.8762  78.0409  78.2164  78.5122
    78.6469  78.8402  78.9909  79.0968  79.3033  79.3647  79.5032  79.8776
    79.9201  80.1767  80.4269  80.5752  80.8041  80.8174  80.9602  81.0103
    81.2088  81.2190  81.4311  81.4651  81.6198  81.8073  81.8917  82.0181
    82.0274  82.2428  82.2848  82.5642  82.6110  82.7231  82.9437  83.0696
    83.1270  83.3119  83.3468  83.5786  83.7068  83.7597  83.9105  84.1532
    84.1994  84.2807  84.4455  84.7510  84.9412  85.0274  85.3224  85.4344
    85.5896  85.8213  85.9664  86.1989  86.2034  86.3290  86.6763  86.7638
    86.9685  87.2356  87.2584  87.5626  87.6047  87.6786  87.7315  88.0798
    88.3041  88.4526  88.4808  88.7932  88.8021  88.9300  88.9629  89.1726
    89.2585  89.2674  89.5708  89.6784  89.8362  90.0112  90.0753  90.2629
    90.2823  90.6077  90.6811  90.8807  90.8919  91.0869  91.1173  91.3225
    91.5709  91.6078  91.6941  91.8630  91.9709  92.0693  92.1844  92.3477
    92.5796  92.6795  92.7817  92.9214  93.1228  93.1799  93.3122  93.4529
    93.5873  93.6077  93.7001  94.0411  94.0529  94.3439  94.3796  94.6219
    94.6373  94.8906  94.9085  94.9736  95.2850  95.4266  95.4671  95.8016
    95.8174  96.0836  96.0952  96.2403  96.5035  96.8051  96.8202  96.9605
    97.3358  97.3601  97.6155  97.9914  98.1271  98.1324  98.2912  98.2932
    98.7055  98.7769  98.9122  98.9183  99.5274  99.6101  99.7838  99.8451
   100.0025 100.0412 100.4077 100.4885 100.5325 100.8027 100.9572 101.1023
   101.3194 101.5387 101.6513 101.8231 102.0532 102.1721 102.3295 102.4096
   102.6159 102.8828 102.9257 103.0738 103.1095 103.2391 103.4371 103.5506
   103.8810 103.9407 104.1988 104.2381 104.4523 104.6487 104.8426 105.0366
   105.1070 105.3852 105.3928 105.7072 105.8392 105.9739 106.1342 106.2213
   106.4006 106.6211 106.6613 106.8087 106.8700 106.9661 107.1339 107.3907
   107.5527 107.7363 108.0286 108.1192 108.2851 108.4705 108.6817 108.7890
   108.8836 108.9776 109.0804 109.2220 109.3334 109.3341 109.5839 109.8528
   109.9060 109.9907 110.1375 110.3369 110.4620 110.6460 110.7352 110.7357
[...]
   104.4830 104.6818 104.9434 105.1454 105.2520 105.4623 105.5315 105.5991
   105.7444 105.9194 106.1615 106.2391 106.4162 106.4328 106.6669 106.6902
   106.8944 106.9109 107.0694 107.2489 107.6612 107.8378 107.8914 108.1176
   108.2242 108.3215 108.4907 108.5157 108.6295 108.8854 109.0291 109.1047
   109.2872 109.4404 109.5441 109.6941 109.7568 109.9921 110.0372 110.0648
   110.1915 110.4472 110.5546 110.6891 110.7397 110.8800 110.9312 111.1817
   111.3436 111.4647 111.4871 111.9030 111.9633 112.4504 112.4881 112.6299
   112.6594 112.7084 112.9405 113.0092 113.3678 113.4293 113.4795 113.6605
   113.7484 113.9965 114.0952 114.1003 114.4344 114.5917 114.7385 114.9295
   114.9755 115.0023 115.1569 115.4459 115.5551 115.7915 115.8523 115.9658
   116.2358 116.3054 116.3200 116.3953 116.4850 116.7049 116.9817 117.0387
   117.2397 117.3023 117.3643 117.4516 117.5247 117.6011 117.6603 117.7572
   117.7986 117.8086 117.8581 117.9118 118.0893 118.2115 118.2859 118.4498
   118.4658 118.6277 118.6905 118.7218 118.7630 118.8022 118.8330 118.8596
   119.0897 119.1986 119.2360 119.2396 119.4112 119.4146 119.7544 119.8535
   120.0509 120.1030 120.2157 120.3853 120.4381 120.4797 120.5039 120.5521
   120.7287 120.7734 120.9087 120.9282 120.9959 121.5414 121.5882 121.6285
   121.6671 121.7097 121.8699 122.1327 122.2214 122.2363 122.6979 122.7114
   122.8991 122.9849 123.0564 123.1875 123.3646 123.4751 123.5573 123.7645
   123.8742 124.0224 124.1711 124.2425 124.3204 124.3527 124.4411 124.5518
   124.7713 124.8474 125.1043 125.1214 125.4061 125.4137 125.6109 125.6721
   125.9348 126.0336 126.1379 126.1436 126.3922 126.4693 126.5103 126.5528
   126.8762 126.8793 126.9820 127.1114 127.1198 127.2161 127.6558 127.9406
   128.0261 128.1016 128.1906 128.4915 128.5793 128.6177 128.7112 128.7710
   128.9604 129.0587 129.2904 129.6811 129.9891 130.0892 130.2110 130.2797
   130.3457 130.5128 130.5259 130.7636 130.7659 130.8216 130.9708 130.9731
   131.1467 131.1718 131.4642 131.5469 131.8291 131.9017 132.0580 132.1792
   132.2173 132.2860 132.3884 132.4725 132.5521 132.5736 132.6883 132.7368
   132.9997 133.0596 133.2050 133.3556 133.5017 133.5046 133.5831 133.6465
   133.6971 133.7710 133.9754 134.1437 134.3743 134.4650 134.5723 134.7518
   134.8220 134.9164 134.9606 134.9683 135.1712 135.3625 135.4363 135.4490
   135.5423 135.5850 135.6024 135.7075 135.9964 136.0386 136.5178 136.5735
   136.6769 136.9379 137.1301 137.1444 137.3066 137.3480 137.5174 137.9037
   137.9856 138.0564 138.0797 138.1160 138.1994 138.2381 138.4653 138.5968
   138.8026 138.9719 139.1122 139.2024 139.3838 139.4690 139.7822 139.8025
   139.8392 140.0901 140.1340 140.1979 140.2730 140.3751 140.4183 140.5366
   140.5711 140.6261 140.8043 140.9131 140.9705 141.2787 141.3773 141.4239
   141.6170 141.7443 141.9181 142.0488 142.1825 142.2431 142.3592 142.5392
   142.6252 142.8074 142.9189 143.0540 143.1308 143.1912 143.3057 143.4855
   143.5364 143.7515 143.8743 143.9325 144.4011 144.4098 144.5329 144.5779
   144.6994 144.7800 144.8996 144.9727 145.1400 145.1972 145.3489 145.4318
   145.5347 145.5697 145.6361 145.6845 145.6940 145.8852 145.9347 145.9685
   146.0557 146.2371 146.3821 146.4054 146.5340 146.5699 146.7690 146.8112
   147.1489 147.2811 147.2920 147.3890 147.5156 147.7425 147.8782 148.0067
   148.4401 148.5396 148.5828 148.7409 148.7562 148.9496 149.0046 149.3446
   149.4710 149.5023 149.5442 149.6886 149.7121 149.9861 150.0070 150.0946
   150.2320 150.4074 150.4199 150.7988 150.9033 151.0769 151.3085 151.3267
   151.5404 151.6323 151.7196 151.8891 151.9111 152.0034 152.2433 152.3711
   152.4598 152.5659 152.8511 152.9583 153.1619 153.1690 153.4855 153.5563
   153.5721 153.8655 153.8687 154.0270 154.0853 154.2919 154.5053 154.6579
   154.6899 154.8374 154.9450 154.9912 155.1755 155.2507 155.4206 155.4761
   155.6528 155.7475 155.9144 156.2056 156.5661 156.6726 156.6803 156.7532
   156.8549 157.0315 157.1126 157.1821 157.5661 157.6234 157.9669 158.0369
   158.0963 158.2373 158.5446 158.6412 158.6756 158.7560 158.9990 159.0645
   159.1187 159.1313 159.3465 159.5041 159.6138 159.7326 159.8525 159.9269
   159.9882 160.1789 160.2188 160.2699 160.3366 160.5329 160.6268 160.6630
   160.8078 160.9108 161.0486 161.1962 161.3128 161.4233 161.5535 161.6534
   161.7931 161.9793 161.9895 162.1306 162.3062 162.3136 162.3998 162.6499
   162.6724 162.8494 162.8854 163.0515 163.0607 163.2357 163.2911 163.4056
   163.5405 163.6090 163.7560 163.7982 163.8623 164.0134 164.1967 164.3821
   164.4073 164.6469 164.8206 164.8377 164.8933 164.9952 165.0797 165.1781
   165.3851 165.7469 165.8094 165.9556 166.1510 166.3134 166.3934 166.3973
   166.5119 166.5404 166.7183 166.8576 166.9026 167.2006 167.2962 167.3023
   167.4488 167.4970 167.6611 167.6975 167.8054 168.0516 168.0780 168.2198
   168.4484 168.5097 168.7160 168.8579 169.0451 169.2451 169.3163 169.3348
   169.5490 169.7751 169.8011 169.8298 169.9002 170.0459 170.2335 170.2481
   170.4483 170.4620 170.5843 170.7324 170.7733 170.8871 170.9375 171.0142
   171.1499 171.3123 171.4303 171.7249 171.7307 172.0609 172.0803 172.1305
   172.1680 172.4718 172.5388 172.8436 172.8613 172.9971 173.0363 173.3543
   173.7231 173.7469 173.8589 173.9040 173.9711 174.1056 174.1727 174.4113
   174.5065 174.5456 174.6720 174.8860 174.9221 175.1121 175.1523 175.3137
   175.4216 175.4978 175.6144 175.7251 175.8176 175.9910 176.1802 176.2847
   176.2927 176.4076 176.4453 176.5259 176.6794 176.6835 176.9608 177.0008
   177.0151 177.1148 177.4287 177.5275 177.5284 177.7509 177.7637 177.8272
   177.8675 178.0034 178.2860 178.3225 178.3241 178.4250 178.7856 178.9325
   178.9955 179.0111 179.1958 179.3507 179.3842 179.5572 179.6409 179.8433
   179.9231 179.9982 180.2342 180.3296 180.3905 180.5173 180.5733 180.6239
   180.7155 180.8971 181.0908 181.0942 181.1385 181.3176 181.7437 181.8027
   181.8516 182.0278 182.0850 182.2220 182.3304 182.3572 182.5310 182.6802
   182.7000 182.8009 182.9896 183.0693 183.2367 183.3262 183.4280 183.4949
   183.5829 183.6276 183.7165 183.8073 183.9149 183.9796 184.0018 184.1156
   184.1566 184.1961 184.3383 184.4657 184.5144 184.6050 184.7288 184.7361
   184.8441 185.0343 185.0369 185.2383 185.3184 185.4933 185.6369 185.7678
   185.8726 185.8792 185.9552 186.0340 186.1034 186.1509 186.4013 186.4530
   186.4958 186.6132 186.6336 186.7648 186.8117 186.8651 186.8998 186.9508
   186.9812 187.0308 187.1742 187.3573 187.5281 187.5497 187.7108 187.7673
   187.8589 187.8987 187.9657 188.0225 188.0541 188.2607 188.3171 188.4767
   188.5065 188.8094 188.8781 189.0105 189.1704 189.2267 189.3034 189.4309

          k = 0.2500 0.5774 0.0000 (  7468 PWs)   bands (ev):

   -74.3598 -38.7402 -38.6483 -38.5576 -28.5520 -28.5488 -28.5465 -28.5421
   -28.4916 -28.4900 -28.4565 -12.7020 -12.5562  -5.9395  -5.9355  -4.5796
    -3.9507  -3.6385  -2.5871  -0.5015   1.7636   3.1419   3.5104   4.9408
     5.9746   7.4166   8.9533   9.5230  10.2236  10.4483  10.6198  11.2629
    11.3558  11.4452  11.6542  11.8962  11.9667  12.2073  12.6238  12.9166
    13.1042  13.4868  13.5606  13.6686  13.9977  14.0701  14.1854  14.9145
    15.4274  15.5617  15.7895  15.9449  15.9672  17.3371  17.3891  17.9166
    18.0323  18.2316  18.3980  18.9205  19.8163  20.0868  20.7316  20.8256
    21.3224  22.1665  22.2841  23.0859  23.5232  23.5827  23.7383  23.9956
    24.6356  24.8990  25.5080  25.7997  26.2353  26.5190  26.7386  27.4312
    27.5457  27.9554  28.2440  28.2827  28.5009  28.8347  29.0058  29.3001
    29.6417  29.9908  30.3455  30.6404  30.6555  30.9949  31.4245  31.8014
    32.0836  32.7088  32.8280  33.0700  33.0807  33.3247  33.4805  33.6390
    33.6724  33.9391  33.9763  34.2528  34.2690  34.7035  34.7514  34.9641
    35.1332  35.6078  35.7386  36.1554  36.2112  36.5653  36.7320  36.7431
    37.0068  37.2941  37.4129  37.5798  38.0220  38.1764  38.4434  38.5928
    39.1871  39.3203  39.4158  39.8928  39.9578  40.3753  40.7352  40.8459
    41.2429  41.3523  41.4039  41.7876  42.3318  42.4161  42.4423  42.6411
    43.4839  43.6918  44.1014  44.6763  45.0409  45.1865  45.2751  45.5008
    45.5683  45.8186  46.1096  46.3555  46.3848  46.9297  47.1406  47.5277
    47.6345  47.7992  48.0276  48.0667  48.3372  48.4309  48.8398  48.8692
    49.1101  49.2229  49.2341  49.3289  49.5379  49.5957  49.7625  49.8859
    50.1942  50.3123  50.5306  50.7140  50.7492  50.8596  50.9317  50.9604
    51.1617  51.2497  51.3187  51.5716  51.5918  51.8035  51.8083  51.9410
    52.3084  52.4630  52.6285  53.0287  53.0309  53.3030  53.4040  53.5477
    53.5828  53.7845  53.9321  54.0317  54.3864  54.4721  54.6714  54.8567
    54.9904  55.2816  55.3387  55.3872  55.4168  55.7073  55.7511  55.7828
    55.9575  55.9667  56.0443  56.0617  56.3558  56.4681  56.6964  56.7339
    56.8340  56.9053  57.1639  57.2195  57.3792  57.6853  57.6860  57.9082
    58.2581  58.2760  58.4286  58.6657  58.6844  58.9862  59.0028  59.2669
    59.4379  59.8353  59.9294  60.1880  60.2541  60.2616  60.5964  60.7289
    60.9053  61.1570  61.2208  61.2583  61.3328  61.5303  61.8849  62.0122
    62.0378  62.3351  62.3904  62.9376  63.0033  63.0294  63.4040  63.4410
    63.5019  63.9723  64.0486  64.1135  64.4471  64.6809  64.7485  65.0865
    65.2240  65.6542  65.8600  65.9051  66.5605  66.7672  66.8173  67.1625
    67.2574  67.3470  67.5288  67.6307  67.9865  68.1546  68.3610  68.3795
    68.6021  68.6334  68.8647  68.9460  69.5102  69.7248  70.0685  70.2094
    70.3028  70.6199  70.7967  70.9769  71.3062  71.3084  71.4439  71.5522
    72.1379  72.1891  72.5960  72.9786  73.0263  73.3824  73.4051  73.7288
    73.7832  74.0249  74.1828  74.6576  74.7923  75.0280  75.1302  75.6754
    75.6900  76.0387  76.2177  76.2391  76.5218  76.7060  76.7419  76.9031
    77.4753  77.5694  77.5744  77.7944  78.0163  78.3079  78.3110  78.6431
    78.7544  78.8682  79.0578  79.3536  79.3919  79.6683  79.7798  80.2436
    80.5152  80.9421  81.0930  81.1087  81.6651  81.7814  81.9264  82.1029
    82.6572  82.6873  82.6927  83.2058  83.5289  83.6228  83.6612  83.9573
    84.0098  84.2765  84.3830  84.4371  84.6331  84.9021  85.0442  85.1071
    85.2171  85.2173  85.3355  85.3618  85.4211  85.7010  85.7870  86.1489
    86.2302  86.3182  86.3946  86.5063  86.5539  86.7017  87.1547  87.2401
    87.4982  87.7216  87.7716  88.0396  88.1767  88.2840  88.3910  88.6264
    88.9695  89.0520  89.1431  89.1708  89.1983  89.6854  89.7263  90.0938
    90.1909  90.4620  90.7302  90.7754  90.8577  90.9280  91.0765  91.2787
    91.4757  91.5651  91.6042  91.7842  91.9344  92.2947  92.3416  92.4333
    92.5906  92.7150  92.7613  92.8959  93.0110  93.2741  93.2819  93.4719
    93.5348  93.6831  93.8165  94.0613  94.1329  94.1940  94.3413  94.4441
    94.5867  94.6956  94.7323  94.9656  95.0532  95.1905  95.2051  95.3392
    95.4821  95.5160  95.6758  95.7333  95.8236  95.9978  96.0991  96.2546
    96.3379  96.5430  96.5506  96.7447  96.7645  97.0059  97.0576  97.1237
    97.2127  97.2256  97.5403  97.6128  97.7274  97.9188  98.0186  98.0278
    98.1320  98.1559  98.4534  98.5156  98.6826  98.6932  98.9274  98.9278
    99.0085  99.0236  99.4224  99.4736  99.4817  99.7619  99.8637  99.9370
   100.2953 100.4623 100.6430 100.6510 100.8758 100.8872 101.0031 101.1574
   101.2773 101.4730 101.6396 101.9589 102.0696 102.2686 102.3469 102.5679
   102.9579 103.0839 103.1793 103.3415 103.4168 103.4875 103.5591 103.8703
   103.9155 104.1287 104.1917 104.3691 104.8325 104.9352 105.0052 105.0635
   105.2420 105.3040 105.5428 105.5514 105.7871 105.9140 105.9431 106.1385
   106.5766 106.5931 106.6833 106.8072 106.8729 106.8740 106.9836 107.0995
   107.2018 107.2617 107.4159 107.4196 107.5461 107.6151 107.7014 107.7054
   107.9091 107.9581 108.1770 108.2372 108.3898 108.4317 108.6079 108.6966
   108.7297 108.8636 108.8668 109.0569 109.2238 109.3533 109.5184 109.6271
   109.7158 109.8820 110.0341 110.0357 110.2110 110.2867 110.4413 110.4858
   110.6336 110.8553 110.9562 111.1472 111.2111 111.2122 111.3901 111.4321
   111.8992 111.9227 112.2165 112.3319 112.3459 112.4287 112.5616 112.8674
   112.9471 112.9635 113.1263 113.4602 113.4931 113.6155 113.7350 114.0055
   114.2150 114.2606 114.3074 114.4014 114.8003 114.8745 114.9125 115.1234
   115.2277 115.3577 115.6773 115.7600 115.7887 115.9978 116.0797 116.0911
   116.3669 116.5309 116.6876 116.8669 116.8784 117.0808 117.1061 117.1668
   117.3097 117.3862 117.3933 117.5964 117.6349 117.8269 117.9641 118.0891
   118.2364 118.4946 118.6229 118.6998 118.8187 118.8888 118.9617 119.2021
   119.4104 119.5204 119.6545 119.7809 119.8448 120.0910 120.2166 120.3316
   120.4125 120.5074 120.6132 120.6545 120.7550 121.1121 121.1807 121.2595
   121.5130 121.6647 121.7470 122.0836 122.1785 122.2876 122.4381 122.6829
   122.7441 122.8098 122.8738 123.1785 123.3026 123.3250 123.4151 123.7851
   123.8167 124.0189 124.0403 124.1520 124.2169 124.5025 124.7138 124.7822
   124.8387 124.9404 125.0644 125.1140 125.1356 125.2087 125.4497 125.5582
   125.6891 125.7223 125.7630 125.9609 126.0353 126.0830 126.1836 126.1983
   126.3188 126.3603 126.9324 127.0824 127.1823 127.2096 127.3487 127.4183
   127.5011 127.6896 127.7539 127.9520 128.0937 128.2354 128.2749 128.3234
   128.4497 128.5645 128.5926 128.7244 128.8334 128.9439 128.9441 129.2595
   129.4176 129.4602 129.6678 129.6787 129.7369 129.8502 129.8568 129.9847
   129.9912 130.1923 130.1959 130.2796 130.4146 130.4324 130.4911 130.5903
   130.6462 130.6904 130.8570 130.8919 130.9745 131.3112 131.4677 131.5524
   131.6361 131.7988 131.8429 131.9422 131.9891 132.2277 132.3437 132.4462
   132.5847 132.7121 132.7664 132.8725 132.9916 133.0482 133.3594 133.4023
   133.4309 133.7923 133.8582 134.0151 134.1111 134.1756 134.3845 134.5906
   134.6818 134.7199 134.9234 134.9359 135.0581 135.0862 135.1688 135.3028
   135.3639 135.4212 135.4814 135.5433 135.6985 135.9090 136.0872 136.2229
   136.2799 136.2927 136.6134 136.6216 136.8807 136.9142 137.0859 137.2134
   137.2238 137.2848 137.3373 137.4998 137.5305 137.7160 137.9145 137.9352
   137.9569 138.0648 138.1274 138.3070 138.3605 138.3822 138.6142 138.6692
   138.7911 138.9917 139.0001 139.2176 139.3326 139.3901 139.6643 139.7908
   139.8558 139.9712 139.9874 140.0369 140.2716 140.2859 140.3998 140.5085
   140.5234 140.6475 140.7933 140.9902 141.0694 141.3103 141.3853 141.5813
   141.6281 141.7426 141.8351 141.9291 142.0810 142.1546 142.2157 142.4139
   142.4463 142.6104 142.6465 142.6957 142.7235 142.9801 143.0084 143.2391
   143.3357 143.3565 143.5859 143.7196 143.8574 143.8938 144.0330 144.0746
   144.2638 144.3916 144.5407 144.5569 145.0423 145.0673 145.2082 145.2681
   145.3556 145.4226 145.7368 145.7904 145.8132 146.0248 146.2153 146.2910
   146.3457 146.6874 146.7900 146.8444 146.8639 147.0242 147.2719 147.3599
   147.3968 147.5083 147.6285 147.7938 148.1410 148.3558 148.4857 148.6968
   148.7646 148.9140 149.0562 149.1776 149.5163 149.6126 149.7444 149.8896
   150.1855 150.3601 150.3842 150.4895 150.6435 150.8753 151.0311 151.0986
   151.1465 151.3765 151.4508 151.7617 151.8569 151.9284 152.0254 152.0612
   152.1685 152.1862 152.2638 152.4269 152.4564 152.5892 152.6960 152.8761
   152.9561 153.0955 153.1929 153.2889 153.5662 153.6420 153.8871 153.9448
   153.9539 154.1664 154.1949 154.6320 154.6529 154.8541 154.9736 155.0527
   155.5186 155.5335 155.9164 156.0042 156.1081 156.1216 156.4072 156.8384
   156.8434 156.8916 156.9195 157.1404 157.2339 157.2990 157.5582 157.5864
   157.6588 157.8927 157.9726 158.0361 158.1399 158.5028 158.5078 158.6394
   158.8499 159.0810 159.1793 159.3445 159.4702 159.6374 159.6480 159.6942
   159.9367 160.1795 160.2603 160.2611 160.4376 160.6195 160.8139 160.9440
   161.0984 161.1836 161.6350 161.8140 161.8402 161.8422 161.8749 162.1068
   162.1326 162.2852 162.2933 162.3889 162.5063 162.6898 162.8301 162.8907
   162.9875 163.0797 163.2460 163.2929 163.5184 163.5471 163.8719 163.9867
   164.1236 164.3012 164.5876 164.6187 164.6593 164.6606 164.8982 164.9139
   165.0330 165.1713 165.4889 165.6104 165.6996 165.7408 166.0066 166.1935
   166.2048 166.2472 166.2585 166.4729 166.4902 166.7608 166.8024 166.8688
   167.0760 167.1895 167.2496 167.5901 167.6068 167.6688 167.8627 167.9345
   168.2910 168.2957 168.3967 168.4019 168.6641 168.8549 168.8613 168.9688
   169.1334 169.3031 169.6432 169.8458 169.9679 170.0022 170.1918 170.3189
   170.3225 170.4648 170.6260 170.6927 170.7337 171.0151 171.0809 171.1479
   171.2286 171.2868 171.4600 171.6845 171.8658 171.8857 171.9828 171.9963
   172.1339 172.2832 172.5900 172.6255 172.6819 172.8104 173.1033 173.3338
   173.4416 173.6377 173.6548 173.7351 173.8527 173.9420 173.9974 174.1389
   174.2076 174.2310 174.2698 174.2974 174.4950 174.6024 174.6881 174.8672
   174.9294 175.1424 175.1836 175.1888 175.2079 175.4103 175.5287 175.6779
   175.7231 175.7776 176.0718 176.1244 176.3487 176.3775 176.5433 176.7460
   176.7484 176.8797 177.0624 177.1776 177.2834 177.3217 177.3728 177.5395
   177.6575 177.7628 177.9014 177.9331 178.0529 178.0756 178.4367 178.6341
   178.7053 178.8320 178.9598 179.0106 179.0370 179.1897 179.2019 179.4374
   179.6085 179.7113 179.8515 179.8910 180.0180 180.0399 180.0831 180.1143
   180.1720 180.3291 180.4136 180.4755 180.6752 180.8052 180.8564 180.8709
   181.0981 181.1223 181.2591 181.3308 181.5585 181.5721 181.6101 181.7147
   181.8019 181.9248 182.0040 182.1530 182.1811 182.3173 182.3277 182.3872
   182.4960 182.6419 182.6677 182.6972 182.7619 182.8799 182.9630 183.0799
   183.0831 183.2042 183.3987 183.5673 183.6545 183.7656 183.7852 183.8036
   183.8734 184.0704 184.1947 184.3005 184.4805 184.5475 184.6412 184.7434
   184.7510 184.9953 185.2799 185.5233 185.6454 185.7631 185.8798 185.9340
   186.0380 186.1559 186.2840 186.4635 186.5544 186.6547 186.7621 186.8092
   186.8648 187.0810 187.1261 187.2033 187.3306 187.4445 187.4920 187.6188
   187.7229 187.9312 188.0825 188.1558 188.3522 188.5988 188.6747 188.7837
   188.7882 188.9392 189.0568 189.0671 189.1928 189.2605 189.6188 189.6400
   189.7264 189.9227 190.0993 190.1133 190.1734 190.1773 190.5031 190.5400

     the Fermi energy is     0.1030 ev
     (compare with:     0.1412 eV, computed in scf)

     Writing all to output data dir out/WS2.save/
 
     init_run     :      0.10s CPU      0.15s WALL (       1 calls)
     electrons    :    258.51s CPU    281.22s WALL (       1 calls)

     Called by init_run:
     wfcinit      :      0.00s CPU      0.00s WALL (       1 calls)
     potinit      :      0.07s CPU      0.09s WALL (       1 calls)
     hinit0       :      0.01s CPU      0.04s WALL (       1 calls)

     Called by electrons:
     c_bands      :    258.50s CPU    281.22s WALL (       1 calls)
     v_of_rho     :      0.01s CPU      0.01s WALL (       1 calls)

     Called by c_bands:
     init_us_2    :      0.00s CPU      0.00s WALL (      10 calls)
     init_us_2:cp :      0.00s CPU      0.00s WALL (      10 calls)
     cegterg      :    251.66s CPU    273.91s WALL (      10 calls)

     Called by *egterg:
     cdiaghg      :    208.86s CPU    227.86s WALL (     120 calls)
     h_psi        :     15.82s CPU     16.21s WALL (     130 calls)
     g_psi        :      0.09s CPU      0.09s WALL (     110 calls)

     Called by h_psi:
     h_psi:calbec :      0.29s CPU      0.31s WALL (     130 calls)
     vloc_psi     :     15.08s CPU     15.40s WALL (     130 calls)
     add_vuspsi   :      0.31s CPU      0.32s WALL (     130 calls)

     General routines
     calbec       :      0.29s CPU      0.31s WALL (     130 calls)
     fft          :      0.02s CPU      0.05s WALL (      10 calls)
     fftw         :     14.52s CPU     14.83s WALL (  182736 calls)
 
     Parallel routines
 
     PWSCF        :   4m20.58s CPU   4m44.35s WALL

 
   This run was terminated on:  15:12: 7   5Apr2024            

=------------------------------------------------------------------------------=
   JOB DONE.
=------------------------------------------------------------------------------=
