
     Program PWSCF v.7.1 starts on  5Apr2024 at 11:56:29 

     This program is part of the open-source Quantum ESPRESSO suite
     for quantum simulation of materials; please cite
         "P. Giannozzi et al., J. Phys.:Condens. Matter 21 395502 (2009);
         "P. Giannozzi et al., J. Phys.:Condens. Matter 29 465901 (2017);
         "P. Giannozzi et al., J. Chem. Phys. 152 154105 (2020);
          URL http://www.quantum-espresso.org", 
     in publications or presentations arising from this work. More details at
     http://www.quantum-espresso.org/quote

     Parallel version (MPI), running on     8 processors

     MPI processes distributed on     1 nodes
     234412 MiB available memory on the printing compute node when the environment starts
 
     Reading input from pw_WS2_nscf_k1_E47.in
Warning: card &IONS ignored
Warning: card / ignored
Warning: card &CELL ignored
Warning: card / ignored

     Current dimensions of program PWSCF are:
     Max number of different atomic species (ntypx) = 10
     Max number of k-points (npk) =  40000
     Max angular momentum in pseudopotentials (lmaxx) =  4

     Atomic positions and unit cell read from directory:
     out/WS2.save/
     Atomic positions from file used, from input discarded
 
 
     R & G space division:  proc/nbgrp/npool/nimage =       8
     Subspace diagonalization in iterative solution of the eigenvalue problem:
     one sub-group per band group will be used
     scalapack distributed-memory algorithm (size of sub-group:  2*  2 procs)

 
     Parallelization info
     --------------------
     sticks:   dense  smooth     PW     G-vecs:    dense   smooth      PW
     Min          59      59     17                 7479     7479    1187
     Max          60      60     18                 7492     7492    1202
     Sum         475     475    139                59873    59873    9553
 
     Using Slab Decomposition
 


     bravais-lattice index     =            4
     lattice parameter (alat)  =       6.0229  a.u.
     unit-cell volume          =    1375.6981 (a.u.)^3
     number of atoms/cell      =            3
     number of atomic types    =            2
     number of electrons       =        40.00
     number of Kohn-Sham states=         1200
     kinetic-energy cutoff     =      47.0000  Ry
     charge density cutoff     =     188.0000  Ry
     Exchange-correlation= PBE
                           (   1   4   3   4   0   0   0)

     celldm(1)=   6.022906  celldm(2)=   0.000000  celldm(3)=   7.270665
     celldm(4)=   0.000000  celldm(5)=   0.000000  celldm(6)=   0.000000

     crystal axes: (cart. coord. in units of alat)
               a(1) = (   1.000000   0.000000   0.000000 )  
               a(2) = (  -0.500000   0.866025   0.000000 )  
               a(3) = (   0.000000   0.000000   7.270665 )  

     reciprocal axes: (cart. coord. in units 2 pi/alat)
               b(1) = (  1.000000  0.577350  0.000000 )  
               b(2) = (  0.000000  1.154701  0.000000 )  
               b(3) = (  0.000000  0.000000  0.137539 )  


     PseudoPot. # 1 for S  read from file:
     /usr/scratch4/magr4985/FGWC/FGWC/pseudo/SG15/S.upf
     MD5 check sum: f9d020296ee6110346977bfd66d424f6
     Pseudo is Norm-conserving, Zval =  6.0
     Generated using ONCVPSP code by D. R. Hamann
     Using radial grid of  602 points,  4 beta functions with: 
                l(1) =   0
                l(2) =   0
                l(3) =   1
                l(4) =   1

     PseudoPot. # 2 for W  read from file:
     /usr/scratch4/magr4985/FGWC/FGWC/pseudo/SG15/W.upf
     MD5 check sum: b6096f31a98cdd82a46cfdcd1f902baf
     Pseudo is Norm-conserving, Zval = 28.0
     Generated using ONCVPSP code by D. R. Hamann
     Using radial grid of  602 points,  8 beta functions with: 
                l(1) =   0
                l(2) =   0
                l(3) =   1
                l(4) =   1
                l(5) =   2
                l(6) =   2
                l(7) =   3
                l(8) =   3

     atomic species   valence    mass     pseudopotential
        S              6.00    32.06500     S ( 1.00)
        W             28.00   183.84000     W ( 1.00)

     12 Sym. Ops. (no inversion) found



   Cartesian axes

     site n.     atom                  positions (alat units)
         1           W   tau(   1) = (   0.0000000   0.5773502   3.6353328  )
         2           S   tau(   2) = (   0.5000000   0.2886752   4.1286326  )
         3           S   tau(   3) = (   0.5000000   0.2886752   3.1420330  )

     number of k points=     2  Gaussian smearing, width (Ry)=  0.0005
                       cart. coord. in units 2pi/alat
        k(    1) = (   0.0000000   0.0000000   0.0000000), wk =   0.5000000
        k(    2) = (   0.0000000  -0.5773503   0.0000000), wk =   1.5000000

     Dense  grid:    59873 G-vectors     FFT dimensions: (  27,  27, 192)

     Estimated max dynamical RAM per process >     195.08 MB

     Estimated total dynamical RAM >       1.52 GB

     The potential is recalculated from file :
     out/WS2.save/charge-density

     Starting wfcs are random

     Band Structure Calculation
     Davidson diagonalization with overlap

     ethr =  5.00E-06,  avg # of iterations = 12.0

     total cpu time spent up to now is      296.9 secs

     End of band structure calculation

          k = 0.0000 0.0000 0.0000 (  7547 PWs)   bands (ev):

   -74.3778 -38.6238 -38.4725 -38.4724 -28.5535 -28.5524 -28.5524 -28.5332
   -28.4867 -28.4867 -28.4614 -15.0496 -13.4345  -6.6295  -3.1524  -3.1524
    -2.4270  -1.9296  -1.9296  -0.3506   2.5559   2.5559   2.6964   2.6964
     4.6469   5.0619   5.2710   5.7328   6.3679   7.2028   8.3354   8.3824
     9.3779  10.3125  10.3125  11.0696  11.6916  12.5816  12.5816  12.8397
    14.4229  15.2418  15.4834  15.9884  15.9884  16.3097  16.3097  17.8029
    18.3885  19.0513  19.8963  22.2951  22.2951  22.5339  22.9042  23.8719
    23.8719  24.2141  24.4405  24.4405  24.4478  24.5458  24.5458  24.7630
    24.9432  25.0742  25.0742  25.3239  25.3299  25.3299  25.3749  25.6818
    25.6818  25.7059  25.7059  25.7766  25.9718  25.9718  26.2195  26.2435
    26.6656  26.6656  26.7524  27.1835  27.1835  27.2815  27.2815  27.3273
    27.3869  27.8517  27.8517  27.9146  28.3361  28.5735  28.5735  28.8517
    29.0094  29.2291  29.2291  29.5794  29.5794  29.7284  30.4493  30.4542
    30.4542  30.6536  30.6536  31.1433  31.4890  31.7676  31.7676  32.4011
    32.4011  32.6706  32.7084  33.3037  33.3037  33.4690  33.6149  33.6149
    33.8988  34.5726  34.7268  34.7849  34.7849  35.4103  35.4103  36.3496
    36.6606  36.8572  36.8572  36.9487  36.9487  37.1114  37.1114  37.9426
    38.0488  38.3430  38.8180  38.8180  39.0202  39.2852  39.2852  39.7546
    40.7281  40.7416  40.7416  41.1866  41.3700  41.3700  41.4924  42.4963
    42.4963  42.9678  43.1648  43.1648  44.0691  44.2326  44.2326  45.0490
    45.0490  45.1616  45.6938  45.7963  45.7963  46.1070  46.5984  46.6370
    46.6370  46.7486  47.0565  47.0565  48.6385  48.6990  48.6990  49.7155
    49.7155  49.7254  49.8220  50.2713  51.2353  51.2353  51.5481  52.7383
    52.7383  52.8536  52.8536  52.9222  53.7608  54.6993  54.9082  54.9082
    55.2498  55.4804  55.4804  55.6765  55.6765  55.8257  56.2992  56.2992
    56.5789  57.5208  57.5887  57.5887  58.1636  58.7055  58.7875  58.9649
    58.9649  60.0069  60.0069  60.2215  60.2215  60.3497  60.4695  61.1726
    61.1726  61.3087  61.4046  61.8392  61.8392  62.1170  62.1929  62.1929
    62.8125  63.0705  63.0705  63.6454  63.7378  63.9303  63.9303  64.0425
    64.0425  64.3657  64.6285  64.6285  64.6430  64.6583  64.7028  64.7514
    64.7514  64.8322  64.8444  64.8444  64.8616  65.1526  65.1526  65.2853
    65.2853  65.5091  65.5511  65.6239  65.7260  65.9555  65.9807  65.9807
    66.1503  66.1503  66.1775  66.1775  66.2857  66.2857  66.7340  66.7340
    67.1314  67.2073  67.2073  67.4995  67.5739  67.6663  67.8746  67.8749
    67.8749  67.9877  67.9877  68.0258  68.0258  68.1045  68.3326  68.3326
    68.7390  68.7390  69.3441  69.9395  69.9395  69.9492  69.9492  70.2284
    70.3209  70.3682  70.4325  70.4325  70.5323  70.6945  70.6945  70.7599
    71.2039  71.2039  71.4478  71.7043  71.9604  71.9604  72.1724  72.8059
    72.8059  73.3880  73.3880  73.5448  73.6730  73.6730  73.7487  73.8397
    74.1167  74.2863  74.5549  74.5549  74.7085  74.7085  74.9575  74.9575
    74.9884  75.7607  75.7607  76.0287  76.0287  76.6217  76.6440  76.6440
    77.3676  77.3676  77.5130  77.5228  77.6015  77.7245  77.7314  77.9143
    77.9143  78.2446  78.2446  79.0381  79.7394  79.7394  79.7559  80.0807
    80.1340  80.3259  80.3259  80.6790  80.6790  80.8579  81.3458  81.3458
    81.3882  81.3882  82.0845  82.1198  82.3065  82.5203  82.5203  82.5463
    82.5463  82.7299  82.8017  82.8017  82.8681  83.1917  83.1917  83.2170
    83.4404  83.4404  83.9324  83.9324  84.0354  84.0354  84.0824  84.1825
    84.2862  84.3624  84.3624  84.3966  84.3966  84.4416  84.4810  84.6012
    84.9545  84.9545  84.9951  84.9951  85.1489  85.1489  85.2825  85.2825
    85.3139  85.4135  85.4346  85.6593  85.9405  85.9405  86.0653  86.0653
    86.4028  86.4028  86.5860  86.5938  86.5938  86.9542  86.9542  87.0066
    87.1732  87.1732  87.2936  87.3155  87.3271  87.4634  87.4735  87.4735
    87.6067  87.6067  87.8967  88.2594  88.4493  88.7963  89.0148  89.0148
    89.2136  89.2136  89.2634  89.5757  89.5757  89.7753  89.7753  89.8287
    90.0361  90.0959  90.2451  90.3584  90.3584  90.4874  90.4874  91.0487
    91.0487  91.1495  91.2131  91.2131  91.5881  91.5881  91.9178  92.2223
    92.2803  92.2803  92.5992  92.5992  92.6023  92.6023  92.9472  92.9472
    93.0881  93.1036  93.1036  93.1823  93.1979  93.3587  93.4227  93.4227
    93.5116  93.5477  93.5477  93.6705  94.1505  94.9070  95.7482  95.7482
    95.9744  95.9744  96.0966  96.4426  96.4428  96.4428  96.5656  96.5656
    96.9188  97.1534  97.1534  97.3096  97.7656  98.0467  98.0467  98.4116
    98.4637  98.4681  98.4681  98.6606  98.6606  98.8919  99.2157  99.2157
    99.4073  99.5135  99.8582  99.8582  99.9983 100.2501 100.2501 100.4668
   100.5331 100.5331 100.9048 100.9048 101.1977 101.3227 101.3227 101.4571
   101.6084 101.6084 101.6604 101.6604 101.9382 102.0047 102.4005 102.4016
   102.4016 102.8752 103.6586 103.6586 103.8428 103.9581 103.9581 104.3547
   104.3547 105.1924 105.1924 105.2199 105.4001 106.0997 106.0997 106.2568
   106.3626 106.4010 106.4010 106.5984 106.6515 106.6515 106.7767 106.8602
   106.8603 106.9715 107.4927 107.5313 108.0026 108.7968 108.7968 108.8730
   108.8730 109.4120 109.4120 109.4368 109.4368 109.6041 109.6788 109.8493
   109.8493 110.1731 110.1731 110.2558 110.7991 110.9266 110.9266 111.1927
   111.1927 111.4702 111.4702 111.4983 111.6446 111.7254 111.7254 112.3601
   112.9329 112.9329 112.9382 113.0646 113.1510 113.1817 113.3645 113.3645
   113.4551 113.4868 113.4868 113.8848 114.1863 114.1863 114.4146 114.5583
   114.5583 115.3727 115.4892 116.3436 116.5829 116.5829 117.2738 117.2738
   117.2820 117.6004 117.6004 117.8653 118.2584 118.2584 118.9950 118.9976
   118.9976 119.0507 119.1455 119.1455 119.5120 119.5120 119.8952 119.8952
   120.0690 120.1703 120.1703 120.3211 120.3653 120.6776 120.9668 120.9668
   121.2752 121.2752 121.3734 121.5215 121.7549 121.7549 121.7915 121.7915
   121.8064 122.2555 122.6636 122.6636 123.0282 123.1078 123.6522 123.6522
   124.1219 124.1219 124.4603 124.6495 124.9723 124.9723 125.1698 125.1698
   125.2090 125.2644 125.2644 125.5398 125.6724 125.7980 125.7980 126.2593
   126.2935 126.8096 127.0317 127.0803 127.0803 127.3772 127.3772 127.6433
   128.1933 128.1933 128.7840 128.7840 129.2013 129.3947 129.4074 129.4074
   129.6922 129.6922 130.5420 130.5420 130.6382 130.6382 130.8119 130.8435
   131.0610 131.0610 131.1670 131.2672 131.2672 131.2804 131.7312 131.7312
   131.9198 132.0385 132.2161 132.2161 132.4600 132.4600 132.5037 132.5037
   133.3176 133.5112 133.5112 133.5510 133.6777 133.6777 133.7743 133.8588
   133.8588 134.0967 134.5164 135.0484 135.0914 135.2804 135.2804 135.3003
   135.3003 135.5935 136.2829 136.6964 136.6964 137.6067 137.6067 137.7936
   137.8820 137.8820 138.1392 138.1477 138.2699 139.1451 139.1451 139.4011
   139.4011 139.6393 139.6393 139.7692 139.8665 140.1029 140.1029 140.1296
   140.2188 140.5642 140.5642 140.5973 141.2867 141.2867 141.3588 141.4281
   141.5323 141.5323 141.5348 141.5348 141.9393 141.9682 142.1689 142.1689
   142.2909 142.2909 142.6049 142.6049 142.6288 142.6885 142.7769 142.7769
   142.8835 142.8835 142.9275 142.9662 142.9894 142.9894 143.0781 143.3168
   143.3168 143.4764 143.4989 143.4989 143.5243 143.5243 143.5546 143.5690
   143.6057 143.6410 143.6410 143.6526 143.6526 143.7164 143.7164 143.7520
   143.7791 143.7791 143.7911 143.7911 143.7970 143.8697 144.0142 144.0142
   144.1755 144.2189 144.2189 144.2507 144.2507 144.2507 144.3532 144.4049
   144.4049 144.4162 144.5673 144.6170 144.6170 144.7689 144.7862 144.7862
   144.8305 144.8337 144.8337 144.8738 144.8738 144.9286 145.1742 145.3885
   145.3885 145.4126 145.4126 145.4334 145.7263 145.7263 145.8690 146.0785
   146.2355 146.2355 146.2478 146.4398 146.4398 146.5063 146.5079 146.5546
   146.5546 146.7002 146.7002 146.7828 146.8153 146.8153 146.8405 147.0968
   147.0968 147.1457 147.1457 147.3131 147.4645 147.4720 147.4720 148.0352
   148.0352 148.2561 148.3126 148.3764 148.6039 148.6039 148.6360 148.6360
   148.7600 148.7889 149.0818 149.0818 149.1520 149.1537 149.1537 149.2304
   149.2304 149.3246 149.3246 149.3694 149.4104 149.5203 149.5203 149.7107
   149.7385 149.8920 149.8920 149.9353 150.0400 150.0533 150.0533 150.1253
   150.3439 150.3439 150.4841 150.6711 150.8415 150.8415 150.8622 150.8622
   150.9293 151.3656 151.5603 151.5603 151.6147 151.6147 151.7506 151.7506
   152.0267 152.1525 152.1525 152.2854 152.2981 152.3986 152.5996 152.5996
   152.6965 152.6965 152.9326 152.9532 152.9532 153.0163 153.0352 153.0352
   153.0939 153.4963 153.4963 153.5788 154.0667 154.0667 154.1926 154.2263
   154.2263 154.5289 154.5289 154.7406 154.7662 154.7662 154.8015 154.9736
   154.9736 155.3591 155.3592 155.5553 155.6685 155.6702 155.6702 155.7731
   155.7731 155.8080 156.1227 156.1468 156.4451 156.4451 156.4889 156.4889
   156.6642 156.6642 156.7632 156.8945 156.8961 156.8961 156.9586 157.4053
   157.4054 157.4707 157.4707 157.5105 157.6265 157.9129 157.9129 158.1519
   158.1519 158.5400 158.5444 158.9244 158.9244 158.9913 159.0223 159.0223
   159.2300 159.3163 159.3163 159.5865 159.7099 159.7099 159.9075 159.9075
   159.9146 159.9150 160.0266 160.0266 160.0870 160.2202 160.4637 160.6449
   160.6449 160.8292 160.8520 160.8836 160.8836 160.9775 161.0401 161.0811
   161.0812 161.1916 161.1916 161.4748 161.4748 161.5983 161.9353 161.9417
   161.9417 162.1752 162.1752 162.2628 162.3247 162.5906 162.6402 162.6402
   162.7974 162.7975 163.4720 163.4720 163.5154 164.2302 164.2302 164.6102
   165.1869 165.3602 165.5385 165.5605 165.5605 165.6564 165.6564 165.7152
   165.7912 165.7912 165.8495 166.0300 166.0300 166.2144 166.2144 166.3772
   166.3772 166.3878 166.5212 166.7105 166.7105 166.7424 166.9390 167.0179
   167.0179 167.1049 167.1049 167.4320 167.4857 167.4857 167.5187 167.5187
   167.6456 167.6456 168.1272 168.3685 168.3685 168.5887 168.5887 168.6283
   169.0301 169.0474 169.0474 169.1554 169.7345 169.7345 169.7550 169.7973
   169.9539 170.2107 170.2107 170.2367 170.4656 170.4656 170.5179 170.9070
   170.9070 171.0133 171.0133 171.3906 171.3906 171.6029 171.6098 171.8197
   171.8197 171.8699 171.8700 171.9137 171.9213 171.9213 172.0298 172.0529
   172.0618 172.0618 172.3359 172.5842 172.5842 172.5857 172.5904 172.9662
   172.9662 173.1971 173.2211 173.2211 173.6395 173.8692 174.1992 174.9298
   174.9298 175.0274 175.0274 175.4409 175.6720 175.6720 175.9951 176.3029
   176.3029 177.0137 177.0137 177.0489 177.2029 177.2302 177.2302 177.4862
   177.5168 177.8007 177.8007 177.9664 177.9664 178.2356 178.4501 178.4501
   178.4598 178.7274 178.7274 178.7710 178.9364 179.0577 179.0577 179.1226
   179.3779 179.3779 179.4416 179.4719 179.5600 179.5600 179.9459 179.9459
   179.9732 180.0931 180.0931 180.1333 180.1333 180.5917 180.6872 180.6872
   180.7305 180.7305 180.8091 180.8412 180.9740 180.9740 181.1573 181.4353
   181.4353 181.4902 181.4902 181.6977 181.6977 181.9566 182.0238 182.0336
   182.0881 182.0881 182.1291 182.1329 182.4079 182.4079 182.4261 182.4261
   182.7737 182.8182 182.8182 183.0184 183.0184 183.0496 183.0496 183.0819
   183.1051 183.1991 183.3651 183.3651 183.3655 183.5111 183.5111 183.6690
   183.6690 183.7642 183.8870 183.9575 183.9575 184.2287 184.4278 184.4800

          k = 0.0000-0.5774 0.0000 (  7458 PWs)   bands (ev):

   -74.3615 -38.7961 -38.5638 -38.5492 -28.5536 -28.5476 -28.5451 -28.5433
   -28.4926 -28.4879 -28.4569 -12.9553 -12.6913  -6.7659  -5.4336  -4.7083
    -3.7098  -2.4446  -1.5931  -1.2324   2.5056   2.9567   3.7149   4.3774
     4.8299   7.3847   7.5413   8.7620   9.2092   9.7440  10.1946  10.3773
    10.5453  10.6924  10.7697  11.0621  11.1542  11.9960  12.2943  12.4653
    12.9933  14.0692  14.2723  14.6082  15.2934  15.4749  16.5229  16.6547
    16.8981  16.9084  17.5167  17.6854  18.3367  18.7144  19.0221  19.0266
    19.2256  19.6395  20.0887  20.2970  20.3664  20.4065  20.5046  21.2686
    21.3085  21.3393  21.3957  22.1414  22.3477  22.3995  22.9503  23.3099
    23.3246  23.7176  23.8432  24.3428  24.5445  24.9139  25.3371  25.3831
    25.3971  26.0271  26.3898  26.7643  27.1712  28.2964  28.3651  28.4999
    28.6439  29.3758  29.5463  29.6415  30.5223  30.7053  31.3854  31.4120
    31.8697  32.0425  32.4459  32.6487  32.8593  32.8961  33.2957  33.8591
    34.0328  34.5559  35.5663  35.7471  35.7943  35.9738  37.0016  37.3319
    37.5108  37.6134  37.8407  37.8942  38.1581  38.4718  38.6940  38.8643
    39.5064  39.5548  39.6650  39.7436  39.8473  39.8631  39.9935  40.0523
    40.2574  40.3537  40.4164  40.4271  40.7701  40.8210  40.8640  40.9414
    40.9560  41.5240  41.6645  41.6808  41.8914  41.9885  42.3194  42.4168
    42.4435  42.7383  42.7441  42.8718  42.9048  43.3248  43.7180  44.0762
    44.2500  44.4239  44.4704  44.8099  44.9305  45.1128  45.3312  45.5379
    45.8434  46.0794  46.1334  46.1351  46.3899  46.8554  47.0227  47.0453
    47.3023  47.5141  47.7810  48.0779  48.1120  48.2117  48.6431  48.6911
    48.9447  48.9716  49.0418  49.2656  49.8822  49.8922  49.9728  50.0164
    50.2738  50.4176  50.5550  50.5766  50.6921  50.8946  51.2098  51.2567
    51.2721  51.5668  51.7635  51.8563  51.8759  52.1441  52.3805  52.5773
    52.6988  52.9615  52.9957  53.2857  53.4477  53.5018  53.8134  54.0274
    54.2204  54.4044  54.4311  54.8957  54.9306  55.1490  55.2215  55.3730
    55.5002  56.4226  56.4531  56.7349  56.9636  57.0145  57.4570  57.4696
    57.5996  57.6482  57.9119  57.9176  58.5090  58.5930  58.8062  58.8374
    59.0550  59.1172  59.1221  59.5445  60.0165  60.0801  60.9874  61.0331
    61.7600  61.9043  61.9274  62.0755  62.3042  62.4050  62.7129  62.7818
    62.7946  63.0280  63.0861  63.6534  63.6732  63.7230  63.7642  64.2660
    64.8290  65.3302  65.6719  65.8166  66.0897  66.1066  66.5497  66.5598
    67.1736  67.3053  67.3397  67.3738  67.6778  67.9055  67.9543  68.0504
    68.2113  68.3525  68.4304  68.6782  68.6910  68.7737  68.8381  69.0939
    69.2140  69.4598  69.4641  69.6105  69.6483  69.6558  69.6911  69.6953
    69.9219  70.0778  70.0828  70.1974  70.3981  70.4826  70.5303  70.5730
    70.6933  70.8348  71.2712  71.4063  71.4112  71.6709  71.8813  72.0820
    72.1285  72.2698  72.3129  72.3574  72.6613  72.6718  72.8714  73.4042
    73.4220  73.5502  73.5719  73.7131  74.0388  74.0490  74.2770  74.2885
    74.3552  74.5449  74.8224  74.9677  75.2241  75.3938  75.5063  75.5640
    75.9668  75.9781  76.2520  76.5754  76.6894  76.6900  76.8145  76.9812
    77.0824  77.4588  77.5932  77.6715  78.0355  78.1036  78.1080  78.1994
    78.2390  78.5672  78.6229  78.6948  78.9637  79.0093  79.1584  79.4160
    80.0034  80.2708  80.2991  80.6513  80.8892  81.0214  81.1605  81.3172
    81.5592  81.6318  81.9030  82.0077  82.0123  82.0927  82.4714  82.5366
    82.5400  83.0023  83.0359  83.9546  84.0087  84.3568  84.5398  84.6790
    84.7663  84.9053  85.1812  85.2574  85.3275  85.3751  85.5581  85.9849
    85.9984  86.3691  86.3853  86.4435  86.9984  87.0967  87.1073  87.4774
    87.5324  87.5534  87.6211  87.9133  87.9831  88.1735  88.2663  88.5741
    88.7952  88.9150  89.1558  89.7334  89.8152  90.0300  90.2244  90.4476
    90.4771  90.8756  91.1109  91.2789  91.4153  91.5400  91.5921  91.9427
    92.0139  92.5216  92.6019  93.0301  93.0576  93.1038  93.2562  93.7376
    94.0516  94.3755  94.3870  94.6995  94.7099  94.7733  95.2074  95.3959
    95.5234  95.7211  95.8739  96.1089  96.2210  96.3019  96.3028  96.4086
    96.7701  96.9165  96.9208  96.9947  97.0493  97.4324  97.5585  97.7415
    97.9018  97.9435  97.9667  98.0208  98.5283  98.6776  98.9492  98.9517
    98.9544  98.9937  99.0912  99.2373  99.2450  99.2493  99.2538  99.2843
    99.4754  99.6333  99.8996 100.0609 100.0895 100.1552 100.1873 100.2078
   100.2251 100.5773 100.8710 100.9481 101.0343 101.2884 101.3254 101.4243
   101.8099 101.8220 101.8549 102.0125 102.1571 102.1703 102.2540 102.2664
   102.5929 102.8838 102.9895 103.2320 103.2998 103.5289 103.6242 103.7670
   103.8310 103.8641 104.1401 104.2443 104.2881 104.5557 104.6872 104.6878
   104.7831 104.8732 104.8977 105.0250 105.3059 105.3548 105.3660 105.5088
   105.5296 105.5345 105.8494 105.8523 106.1134 106.1522 106.3072 106.3079
   106.5138 106.8325 106.9093 106.9222 106.9722 107.1542 107.4037 107.7558
   107.7746 108.0386 108.0797 108.0905 108.1179 108.1182 108.1689 108.2297
   108.3905 108.4834 108.6012 108.6508 108.6755 108.7735 109.0641 109.1010
   109.1597 109.2546 109.3216 109.3259 109.4587 109.4915 109.6419 109.7248
   109.7925 109.9778 110.0413 110.1438 110.3242 110.3644 110.3738 110.4517
   110.5924 110.5950 110.6190 110.7349 110.8952 110.9463 110.9876 111.1921
   111.2408 111.3114 111.7842 111.7987 111.8043 111.8899 112.0645 112.1061
   112.1374 112.2088 112.3206 112.3899 112.4829 112.5049 113.0138 113.1293
   113.2679 113.3145 113.4453 113.5339 113.6463 113.7994 114.0711 114.4272
   114.4550 114.5303 114.5435 114.6809 114.7754 114.7870 114.7939 114.8383
   114.9947 115.0947 115.3870 115.4282 115.6005 115.7148 115.7252 115.9485
   116.1850 116.3298 116.3510 116.5053 116.5866 116.6826 116.7087 116.7945
   116.9450 116.9727 116.9844 117.2449 117.3923 117.5081 117.6270 117.6388
   117.8566 117.8757 118.0279 118.1844 118.2526 118.4161 118.4359 118.4682
   118.4861 118.8417 118.9616 119.1511 119.1972 119.7486 119.9151 120.1059
   120.3933 120.4870 120.4934 120.6566 121.1515 121.4205 121.5973 121.8510
   122.0092 122.0346 122.1505 122.1799 122.3027 122.3708 122.5778 122.9068
   123.0974 123.1532 123.2606 123.4403 123.5160 123.6125 123.8423 124.0411
   124.1683 124.6007 124.7881 124.8796 125.0585 125.0826 125.1479 125.3315
   125.3700 125.5419 125.6153 125.9396 126.0083 126.1534 126.2333 126.4997
   126.5063 126.5663 126.5854 126.5901 126.9188 126.9276 127.0750 127.1149
   127.2910 127.3471 127.4636 127.5632 127.5932 127.6283 127.8573 127.8896
   128.0184 128.0413 128.0640 128.2043 128.4322 128.6664 128.6933 128.8185
   128.8393 129.0755 129.1769 129.2801 129.4191 129.5062 129.5742 129.5973
   129.7091 129.9153 130.0038 130.1952 130.3132 130.7575 131.0052 131.0123
   131.1069 131.1773 131.5081 131.6726 131.9030 131.9291 132.1125 132.2649
   132.3885 132.6628 132.8645 132.9217 132.9256 133.0192 133.2228 133.2841
   133.3739 133.4094 133.7223 133.9474 134.0298 134.1824 134.2794 134.3259
   134.4435 134.4663 134.7057 134.8667 134.9978 135.0300 135.0511 135.1999
   135.2546 135.5560 135.6079 135.6380 135.7113 135.8299 135.8930 135.9963
   136.3208 136.3498 136.5265 136.5854 136.6269 136.7542 136.7824 136.9717
   137.0263 137.2567 137.5000 137.5219 137.6319 137.7062 137.8359 137.8553
   137.8826 138.1071 138.1987 138.3862 138.4216 138.6189 138.6528 138.7084
   138.7176 138.9121 139.0475 139.0869 139.3962 139.4165 139.5154 139.7664
   139.8120 139.9044 139.9377 140.0787 140.1297 140.1435 140.1670 140.5674
   140.6191 140.9248 141.0575 141.0869 141.1040 141.3910 141.4956 141.5245
   141.5596 141.8721 141.9406 141.9892 142.0375 142.1258 142.2649 142.7760
   143.2336 143.2530 143.4013 143.4092 143.5480 143.5545 143.6804 143.8617
   143.8916 144.2608 144.3624 144.4927 144.6186 144.7104 144.7758 144.8068
   144.8835 144.9779 145.0344 145.1812 145.2660 145.3564 145.7400 145.7839
   145.8034 145.9167 145.9564 146.1354 146.1380 146.3269 146.4310 146.5097
   146.7181 146.7700 147.0800 147.1115 147.2560 147.4029 147.4719 147.4849
   147.6508 147.6752 147.8823 147.9142 148.0066 148.2452 148.2467 148.5433
   148.6799 149.1145 149.2977 149.4950 149.6834 149.7317 149.8404 149.9994
   150.1271 150.4019 150.4813 150.6152 150.6292 150.7559 151.0796 151.1361
   151.2526 151.3168 151.5013 151.5393 151.6461 151.7797 152.0303 152.1423
   152.3793 152.5892 152.6644 152.6684 152.7635 152.8754 152.9036 153.0795
   153.3570 153.6611 153.9183 154.0082 154.1208 154.3862 154.4429 154.4450
   154.5077 155.1645 155.2863 155.3033 155.5028 155.5766 155.7524 155.8074
   155.8799 155.9742 155.9850 155.9872 156.2072 156.4046 156.4255 156.5209
   156.6766 156.6893 156.7020 156.8296 157.0426 157.3151 157.3179 157.5587
   157.5642 157.6997 157.7583 157.8404 157.8461 157.8705 157.9059 158.1317
   158.1517 158.1626 158.2692 158.2782 158.3038 158.4282 158.5073 158.5304
   158.5307 158.5633 158.6536 158.8483 158.9026 159.0286 159.0330 159.1300
   159.3872 159.3985 159.4247 159.4285 159.5113 159.5769 159.6332 159.7279
   160.2927 160.4111 160.5213 160.5561 160.8003 160.8767 161.0031 161.0964
   161.2813 161.3017 161.3810 161.4048 161.4718 161.5675 161.8455 161.8911
   161.9532 162.1884 162.2382 162.3997 162.4367 162.7809 162.9128 162.9309
   162.9675 163.0091 163.0697 163.2227 163.3149 163.6109 163.6839 163.7003
   163.7981 164.0746 164.0821 164.1866 164.3525 164.3559 164.3823 164.5489
   164.9245 165.0279 165.1124 165.1798 165.3693 165.4204 165.5994 165.6213
   165.7938 165.9672 166.0559 166.0593 166.1377 166.4281 166.4316 166.4671
   166.5556 166.6490 166.6740 166.7344 166.8939 166.9580 167.1638 167.1654
   167.1795 167.3052 167.3395 167.3446 167.4238 167.7053 167.7605 167.7918
   167.9360 167.9664 168.4101 168.4998 168.7045 168.9937 169.1056 169.2759
   169.4790 169.5416 169.6926 169.7655 169.9194 170.0273 170.2044 170.2839
   170.4233 170.4403 170.4988 170.6508 170.8165 171.0954 171.1982 171.2859
   171.3033 171.3164 171.3914 171.4950 171.7131 171.7744 172.4555 172.4917
   172.5612 172.7662 172.8017 172.9539 173.1237 173.1902 173.7677 173.7893
   173.9691 174.1450 174.3246 174.4429 174.5248 174.5689 174.7600 174.7949
   174.8151 174.8338 174.8540 175.2053 175.3615 175.4156 175.4200 175.4789
   175.5219 175.5688 175.6360 175.8370 175.8756 175.9159 175.9956 176.1274
   176.1330 176.3290 176.3739 176.5884 176.6049 176.6426 176.7429 176.9329
   176.9617 177.3528 177.5356 177.7920 177.8898 178.1976 178.2301 178.2716
   178.5864 178.9659 179.0957 179.2136 179.2240 179.5425 179.6122 179.7864
   179.9219 179.9318 179.9787 180.0969 180.3393 180.3757 180.5437 180.6154
   180.8402 180.8465 181.0273 181.2337 181.2583 181.3703 181.4697 181.4907
   181.6498 181.6836 181.7480 181.8894 182.2725 182.4251 182.4493 182.5932
   182.7137 182.8351 182.9214 183.0854 183.2139 183.3161 183.4444 183.7330
   183.7413 183.8652 183.9907 184.0134 184.2257 184.2448 184.5144 184.5756
   184.6079 184.8757 184.8882 185.1153 185.2340 185.4808 185.5700 185.6292
   185.6710 185.7638 185.9184 185.9415 186.0076 186.3618 186.4132 186.6574
   186.6883 186.7742 186.8409 186.9484 187.0701 187.1256 187.3777 187.4235
   187.4437 187.6662 187.6685 187.6908 187.7376 187.9249 187.9474 187.9800
   188.0044 188.0344 188.0485 188.1091 188.2767 188.3291 188.3920 188.4891

     the Fermi energy is     1.5808 ev
     (compare with:     0.1412 eV, computed in scf)

     Writing all to output data dir out/WS2.save/
 
     init_run     :      0.16s CPU      0.21s WALL (       1 calls)
     electrons    :    287.65s CPU    296.48s WALL (       1 calls)

     Called by init_run:
     wfcinit      :      0.00s CPU      0.00s WALL (       1 calls)
     potinit      :      0.02s CPU      0.03s WALL (       1 calls)
     hinit0       :      0.04s CPU      0.08s WALL (       1 calls)

     Called by electrons:
     c_bands      :    287.65s CPU    296.48s WALL (       1 calls)
     v_of_rho     :      0.01s CPU      0.01s WALL (       1 calls)

     Called by c_bands:
     init_us_2    :      0.00s CPU      0.00s WALL (       2 calls)
     init_us_2:cp :      0.00s CPU      0.00s WALL (       2 calls)
     cegterg      :    283.02s CPU    291.70s WALL (       2 calls)

     Called by *egterg:
     cdiaghg      :    264.61s CPU    272.97s WALL (      26 calls)
     h_psi        :      4.92s CPU      5.03s WALL (      28 calls)
     g_psi        :      0.03s CPU      0.03s WALL (      24 calls)

     Called by h_psi:
     h_psi:calbec :      0.12s CPU      0.12s WALL (      28 calls)
     vloc_psi     :      4.59s CPU      4.69s WALL (      28 calls)
     add_vuspsi   :      0.17s CPU      0.17s WALL (      28 calls)

     General routines
     calbec       :      0.12s CPU      0.12s WALL (      28 calls)
     fft          :      0.01s CPU      0.05s WALL (      10 calls)
     fftw         :      4.25s CPU      4.34s WALL (   38264 calls)
 
     Parallel routines
 
     PWSCF        :   4m48.26s CPU   4m57.35s WALL

 
   This run was terminated on:  12: 1:27   5Apr2024            

=------------------------------------------------------------------------------=
   JOB DONE.
=------------------------------------------------------------------------------=
