
     Program PWSCF v.7.1 starts on 18Nov2023 at 22:13:51 

     This program is part of the open-source Quantum ESPRESSO suite
     for quantum simulation of materials; please cite
         "P. Giannozzi et al., J. Phys.:Condens. Matter 21 395502 (2009);
         "P. Giannozzi et al., J. Phys.:Condens. Matter 29 465901 (2017);
         "P. Giannozzi et al., J. Chem. Phys. 152 154105 (2020);
          URL http://www.quantum-espresso.org", 
     in publications or presentations arising from this work. More details at
     http://www.quantum-espresso.org/quote

     Parallel version (MPI), running on    24 processors

     MPI processes distributed on     1 nodes
     123016 MiB available memory on the printing compute node when the environment starts
 
     Reading input from pw_mp-2472_scf_k3000_E124.in
Warning: card &CELL ignored
Warning: card / ignored

     Current dimensions of program PWSCF are:
     Max number of different atomic species (ntypx) = 10
     Max number of k-points (npk) =  40000
     Max angular momentum in pseudopotentials (lmaxx) =  4
 
     R & G space division:  proc/nbgrp/npool/nimage =      24
     Subspace diagonalization in iterative solution of the eigenvalue problem:
     a serial algorithm will be used

 
     Parallelization info
     --------------------
     sticks:   dense  smooth     PW     G-vecs:    dense   smooth      PW
     Min          68      68     19                 1816     1816     280
     Max          69      69     20                 1818     1818     282
     Sum        1639    1639    475                43599    43599    6735
 
     Using Slab Decomposition
 


     bravais-lattice index     =            2
     lattice parameter (alat)  =       9.7653  a.u.
     unit-cell volume          =     232.8067 (a.u.)^3
     number of atoms/cell      =            2
     number of atomic types    =            2
     number of electrons       =        16.00
     number of Kohn-Sham states=           16
     kinetic-energy cutoff     =     124.0000  Ry
     charge density cutoff     =     496.0000  Ry
     scf convergence threshold =      1.0E-10
     mixing beta               =       0.7000
     number of iterations used =            8  plain     mixing
     Exchange-correlation= PBE
                           (   1   4   3   4   0   0   0)

     celldm(1)=   9.765290  celldm(2)=   0.000000  celldm(3)=   0.000000
     celldm(4)=   0.000000  celldm(5)=   0.000000  celldm(6)=   0.000000

     crystal axes: (cart. coord. in units of alat)
               a(1) = (  -0.500000   0.000000   0.500000 )  
               a(2) = (   0.000000   0.500000   0.500000 )  
               a(3) = (  -0.500000   0.500000   0.000000 )  

     reciprocal axes: (cart. coord. in units 2 pi/alat)
               b(1) = ( -1.000000 -1.000000  1.000000 )  
               b(2) = (  1.000000  1.000000  1.000000 )  
               b(3) = ( -1.000000  1.000000 -1.000000 )  


     PseudoPot. # 1 for O  read from file:
     /usr/scratch4/magr4985/MG/HTDF/pseudo/SG15/O.upf
     MD5 check sum: e36c48deb68f4e355fffe4602be2c42c
     Pseudo is Norm-conserving, Zval =  6.0
     Generated using ONCVPSP code by D. R. Hamann
     Using radial grid of  602 points,  4 beta functions with: 
                l(1) =   0
                l(2) =   0
                l(3) =   1
                l(4) =   1

     PseudoPot. # 2 for Sr read from file:
     /usr/scratch4/magr4985/MG/HTDF/pseudo/SG15/Sr.upf
     MD5 check sum: 3f9bc8d6f3e8472da0cbe0e6a3044a9f
     Pseudo is Norm-conserving, Zval = 10.0
     Generated using ONCVPSP code by D. R. Hamann
     Using radial grid of  602 points,  6 beta functions with: 
                l(1) =   0
                l(2) =   0
                l(3) =   1
                l(4) =   1
                l(5) =   2
                l(6) =   2

     atomic species   valence    mass     pseudopotential
        O              6.00    15.99940     O ( 1.00)
        Sr            10.00    87.62000     Sr( 1.00)

     48 Sym. Ops., with inversion, found



   Cartesian axes

     site n.     atom                  positions (alat units)
         1           Sr  tau(   1) = (  -0.5000000   0.5000000   0.5000000  )
         2           O   tau(   2) = (   0.0000000   0.0000000   0.0000000  )

     number of k points=    72  Gaussian smearing, width (Ry)=  0.0005
                       cart. coord. in units 2pi/alat
        k(    1) = (   0.0000000   0.0000000   0.0000000), wk =   0.0011574
        k(    2) = (  -0.0833333   0.0833333  -0.0833333), wk =   0.0092593
        k(    3) = (  -0.1666667   0.1666667  -0.1666667), wk =   0.0092593
        k(    4) = (  -0.2500000   0.2500000  -0.2500000), wk =   0.0092593
        k(    5) = (  -0.3333333   0.3333333  -0.3333333), wk =   0.0092593
        k(    6) = (  -0.4166667   0.4166667  -0.4166667), wk =   0.0092593
        k(    7) = (   0.5000000  -0.5000000   0.5000000), wk =   0.0046296
        k(    8) = (   0.0000000   0.1666667   0.0000000), wk =   0.0069444
        k(    9) = (  -0.0833333   0.2500000  -0.0833333), wk =   0.0277778
        k(   10) = (  -0.1666667   0.3333333  -0.1666667), wk =   0.0277778
        k(   11) = (  -0.2500000   0.4166667  -0.2500000), wk =   0.0277778
        k(   12) = (  -0.3333333   0.5000000  -0.3333333), wk =   0.0277778
        k(   13) = (   0.5833333  -0.4166667   0.5833333), wk =   0.0277778
        k(   14) = (   0.5000000  -0.3333333   0.5000000), wk =   0.0277778
        k(   15) = (   0.4166667  -0.2500000   0.4166667), wk =   0.0277778
        k(   16) = (   0.3333333  -0.1666667   0.3333333), wk =   0.0277778
        k(   17) = (   0.2500000  -0.0833333   0.2500000), wk =   0.0277778
        k(   18) = (   0.1666667  -0.0000000   0.1666667), wk =   0.0138889
        k(   19) = (   0.0000000   0.3333333   0.0000000), wk =   0.0069444
        k(   20) = (  -0.0833333   0.4166667  -0.0833333), wk =   0.0277778
        k(   21) = (  -0.1666667   0.5000000  -0.1666667), wk =   0.0277778
        k(   22) = (  -0.2500000   0.5833333  -0.2500000), wk =   0.0277778
        k(   23) = (   0.6666667  -0.3333333   0.6666667), wk =   0.0277778
        k(   24) = (   0.5833333  -0.2500000   0.5833333), wk =   0.0277778
        k(   25) = (   0.5000000  -0.1666667   0.5000000), wk =   0.0277778
        k(   26) = (   0.4166667  -0.0833333   0.4166667), wk =   0.0277778
        k(   27) = (   0.3333333   0.0000000   0.3333333), wk =   0.0138889
        k(   28) = (   0.0000000   0.5000000   0.0000000), wk =   0.0069444
        k(   29) = (  -0.0833333   0.5833333  -0.0833333), wk =   0.0277778
        k(   30) = (  -0.1666667   0.6666667  -0.1666667), wk =   0.0277778
        k(   31) = (   0.7500000  -0.2500000   0.7500000), wk =   0.0277778
        k(   32) = (   0.6666667  -0.1666667   0.6666667), wk =   0.0277778
        k(   33) = (   0.5833333  -0.0833333   0.5833333), wk =   0.0277778
        k(   34) = (   0.5000000   0.0000000   0.5000000), wk =   0.0138889
        k(   35) = (   0.0000000   0.6666667   0.0000000), wk =   0.0069444
        k(   36) = (  -0.0833333   0.7500000  -0.0833333), wk =   0.0277778
        k(   37) = (   0.8333333  -0.1666667   0.8333333), wk =   0.0277778
        k(   38) = (   0.7500000  -0.0833333   0.7500000), wk =   0.0277778
        k(   39) = (   0.6666667  -0.0000000   0.6666667), wk =   0.0138889
        k(   40) = (   0.0000000   0.8333333   0.0000000), wk =   0.0069444
        k(   41) = (   0.9166667  -0.0833333   0.9166667), wk =   0.0277778
        k(   42) = (   0.8333333   0.0000000   0.8333333), wk =   0.0138889
        k(   43) = (   0.0000000  -1.0000000   0.0000000), wk =   0.0034722
        k(   44) = (  -0.1666667   0.3333333   0.0000000), wk =   0.0277778
        k(   45) = (  -0.2500000   0.4166667  -0.0833333), wk =   0.0555556
        k(   46) = (  -0.3333333   0.5000000  -0.1666667), wk =   0.0555556
        k(   47) = (   0.5833333  -0.4166667   0.7500000), wk =   0.0555556
        k(   48) = (   0.5000000  -0.3333333   0.6666667), wk =   0.0277778
        k(   49) = (  -0.1666667   0.5000000   0.0000000), wk =   0.0277778
        k(   50) = (  -0.2500000   0.5833333  -0.0833333), wk =   0.0555556
        k(   51) = (   0.6666667  -0.3333333   0.8333333), wk =   0.0555556
        k(   52) = (   0.5833333  -0.2500000   0.7500000), wk =   0.0555556
        k(   53) = (   0.5000000  -0.1666667   0.6666667), wk =   0.0555556
        k(   54) = (   0.4166667  -0.0833333   0.5833333), wk =   0.0555556
        k(   55) = (   0.3333333   0.0000000   0.5000000), wk =   0.0277778
        k(   56) = (  -0.1666667   0.6666667  -0.0000000), wk =   0.0277778
        k(   57) = (   0.7500000  -0.2500000   0.9166667), wk =   0.0555556
        k(   58) = (   0.6666667  -0.1666667   0.8333333), wk =   0.0555556
        k(   59) = (   0.5833333  -0.0833333   0.7500000), wk =   0.0555556
        k(   60) = (   0.5000000   0.0000000   0.6666667), wk =   0.0277778
        k(   61) = (   0.8333333  -0.1666667   1.0000000), wk =   0.0277778
        k(   62) = (   0.7500000  -0.0833333   0.9166667), wk =   0.0555556
        k(   63) = (   0.6666667   0.0000000   0.8333333), wk =   0.0277778
        k(   64) = (  -0.1666667  -1.0000000  -0.0000000), wk =   0.0138889
        k(   65) = (   0.6666667  -0.3333333   1.0000000), wk =   0.0277778
        k(   66) = (   0.5833333  -0.2500000   0.9166667), wk =   0.0555556
        k(   67) = (   0.5000000  -0.1666667   0.8333333), wk =   0.0277778
        k(   68) = (   0.6666667  -0.1666667   1.0000000), wk =   0.0277778
        k(   69) = (   0.5833333  -0.0833333   0.9166667), wk =   0.0555556
        k(   70) = (   0.5000000   0.0000000   0.8333333), wk =   0.0277778
        k(   71) = (  -0.3333333  -1.0000000   0.0000000), wk =   0.0138889
        k(   72) = (  -0.5000000  -1.0000000   0.0000000), wk =   0.0069444

     Dense  grid:    43599 G-vectors     FFT dimensions: (  50,  50,  50)

     Estimated max dynamical RAM per process >       5.32 MB

     Estimated total dynamical RAM >     127.66 MB

     Initial potential from superposition of free atoms

     starting charge      15.7183, renormalised to      16.0000
     Starting wfcs are random

     total cpu time spent up to now is        1.0 secs

     Self-consistent Calculation

     iteration #  1     ecut=   124.00 Ry     beta= 0.70
     Davidson diagonalization with overlap
     ethr =  1.00E-02,  avg # of iterations =  8.1

     total cpu time spent up to now is        3.3 secs

     total energy              =     -94.27969957 Ry
     estimated scf accuracy    <       0.39444573 Ry

     iteration #  2     ecut=   124.00 Ry     beta= 0.70
     Davidson diagonalization with overlap
     ethr =  2.47E-03,  avg # of iterations =  2.0

     total cpu time spent up to now is        4.2 secs

     total energy              =     -94.24608277 Ry
     estimated scf accuracy    <       1.16685662 Ry

     iteration #  3     ecut=   124.00 Ry     beta= 0.70
     Davidson diagonalization with overlap
     ethr =  2.47E-03,  avg # of iterations =  2.0

     total cpu time spent up to now is        5.1 secs

     total energy              =     -94.47256658 Ry
     estimated scf accuracy    <       0.01368063 Ry

     iteration #  4     ecut=   124.00 Ry     beta= 0.70
     Davidson diagonalization with overlap
     ethr =  8.55E-05,  avg # of iterations =  1.8

     total cpu time spent up to now is        6.0 secs

     total energy              =     -94.47494575 Ry
     estimated scf accuracy    <       0.00012156 Ry

     iteration #  5     ecut=   124.00 Ry     beta= 0.70
     Davidson diagonalization with overlap
     ethr =  7.60E-07,  avg # of iterations =  4.9

     total cpu time spent up to now is        7.0 secs

     total energy              =     -94.47497270 Ry
     estimated scf accuracy    <       0.00000265 Ry

     iteration #  6     ecut=   124.00 Ry     beta= 0.70
     Davidson diagonalization with overlap
     ethr =  1.66E-08,  avg # of iterations =  1.9

     total cpu time spent up to now is        7.9 secs

     total energy              =     -94.47497294 Ry
     estimated scf accuracy    <       0.00000130 Ry

     iteration #  7     ecut=   124.00 Ry     beta= 0.70
     Davidson diagonalization with overlap
     ethr =  8.10E-09,  avg # of iterations =  1.1

     total cpu time spent up to now is        8.6 secs

     total energy              =     -94.47497312 Ry
     estimated scf accuracy    <          4.1E-09 Ry

     iteration #  8     ecut=   124.00 Ry     beta= 0.70
     Davidson diagonalization with overlap
     ethr =  2.55E-11,  avg # of iterations =  2.0

     total cpu time spent up to now is        9.5 secs

     End of self-consistent calculation

          k = 0.0000 0.0000 0.0000 (  5521 PWs)   bands (ev):

   -24.6560  -7.2881  -6.3028  -6.3028  -6.3028   7.7321   7.7321   7.7321
    11.6313  13.9597  13.9597  13.9597  16.0992  16.0992  20.2224  30.8530

          k =-0.0833 0.0833-0.0833 (  5450 PWs)   bands (ev):

   -24.6475  -7.4789  -6.3082  -6.3082  -6.1334   7.5163   7.6449   7.6449
    11.9573  13.8747  14.0937  14.0937  16.2787  16.2787  20.6819  30.1499

          k =-0.1667 0.1667-0.1667 (  5444 PWs)   bands (ev):

   -24.6242  -7.8475  -6.3228  -6.3228  -5.8233   7.0256   7.4201   7.4201
    12.7674  13.7474  14.4802  14.4802  16.7722  16.7722  21.8555  28.4744

          k =-0.2500 0.2500-0.2500 (  5414 PWs)   bands (ev):

   -24.5921  -8.2179  -6.3427  -6.3427  -5.5331   6.4840   7.1395   7.1395
    13.6835  13.8745  15.0670  15.0670  17.4774  17.4774  23.1670  26.9902

          k =-0.3333 0.3333-0.3333 (  5429 PWs)   bands (ev):

   -24.5597  -8.5209  -6.3623  -6.3623  -5.3104   6.0239   6.8833   6.8833
    13.9009  14.8837  15.7431  15.7431  18.2917  18.2917  23.3649  25.5182

          k =-0.4167 0.4167-0.4167 (  5438 PWs)   bands (ev):

   -24.5358  -8.7178  -6.3765  -6.3765  -5.1724   5.7201   6.7084   6.7084
    14.1362  15.7118  16.3116  16.3116  19.1085  19.1085  22.6753  23.8564

          k = 0.5000-0.5000 0.5000 (  5444 PWs)   bands (ev):

   -24.5269  -8.7859  -6.3816  -6.3816  -5.1258   5.6143   6.6467   6.6467
    14.2486  16.0363  16.5375  16.5375  19.5520  19.5520  22.3448  23.1047

          k = 0.0000 0.1667 0.0000 (  5441 PWs)   bands (ev):

   -24.6447  -7.5153  -6.3266  -6.3266  -6.0750   7.3347   7.6980   7.6980
    12.0230  13.6252  14.2516  14.2516  16.1928  16.4737  20.8249  30.3433

          k =-0.0833 0.2500-0.0833 (  5422 PWs)   bands (ev):

   -24.6264  -7.7761  -6.3526  -6.3393  -5.8568   6.9555   7.5423   7.5887
    12.5925  13.3930  14.5843  14.6516  16.4609  16.9493  21.7454  28.7142

          k =-0.1667 0.3333-0.1667 (  5421 PWs)   bands (ev):

   -24.5973  -8.1054  -6.3789  -6.3521  -5.6146   6.5451   7.2385   7.3617
    13.3593  13.4854  15.0483  15.2365  17.0385  17.5846  23.0460  26.8398

          k =-0.2500 0.4167-0.2500 (  5427 PWs)   bands (ev):

   -24.5651  -8.4053  -6.3986  -6.3750  -5.4097   6.1712   6.9419   7.0951
    13.5548  14.4400  15.6675  15.8909  17.8445  18.2720  23.5590  25.5693

          k =-0.3333 0.5000-0.3333 (  5432 PWs)   bands (ev):

   -24.5383  -8.6233  -6.4064  -6.4034  -5.2672   5.8861   6.7485   6.8615
    13.9027  15.1429  16.3900  16.4264  18.7653  18.9596  22.6655  23.9775

          k = 0.5833-0.4167 0.5833 (  5435 PWs)   bands (ev):

   -24.5245  -8.7293  -6.4293  -6.4005  -5.1968   5.7370   6.6927   6.7111
    14.1953  15.4438  16.6332  16.9074  19.4377  19.5398  21.9432  23.2123

          k = 0.5000-0.3333 0.5000 (  5434 PWs)   bands (ev):

   -24.5274  -8.7100  -6.4452  -6.3824  -5.2027   5.7544   6.6717   6.7737
    14.1808  15.4240  16.3969  16.8492  19.3062  19.4483  22.0269  23.5893

          k = 0.4167-0.2500 0.4167 (  5420 PWs)   bands (ev):

   -24.5462  -8.5685  -6.4456  -6.3568  -5.2869   5.9428   6.7503   6.9694
    13.9108  14.9942  15.8154  16.3708  18.6000  18.7125  22.9048  24.4051

          k = 0.3333-0.1667 0.3333 (  5417 PWs)   bands (ev):

   -24.5758  -8.3240  -6.4287  -6.3305  -5.4479   6.2794   6.9339   7.2362
    13.6482  14.1542  15.1366  15.7646  17.6690  18.0122  23.5911  25.2890

          k = 0.2500-0.0833 0.2500 (  5424 PWs)   bands (ev):

   -24.6079  -8.0123  -6.3961  -6.3105  -5.6752   6.7169   7.1874   7.5002
    13.1967  13.5664  14.5625  15.1178  16.9193  17.3018  22.6081  26.9273

          k = 0.1667-0.0000 0.1667 (  5429 PWs)   bands (ev):

   -24.6341  -7.6938  -6.3517  -6.3023  -5.9359   7.1786   7.4507   7.6585
    12.3998  13.6807  14.1998  14.5266  16.4336  16.6829  21.3700  28.9253

          k = 0.0000 0.3333 0.0000 (  5409 PWs)   bands (ev):

   -24.6140  -7.8437  -6.3915  -6.3915  -5.7905   6.6969   7.6316   7.6316
    12.7868  12.9007  15.0522  15.0522  16.4617  17.3426  22.3404  28.5676

          k =-0.0833 0.4167-0.0833 (  5417 PWs)   bands (ev):

   -24.5900  -8.0268  -6.4290  -6.4203  -5.6942   6.4690   7.4813   7.5325
    12.6600  13.3814  15.5631  15.6229  16.8079  17.8228  23.4450  26.7372

          k =-0.1667 0.5000-0.1667 (  5425 PWs)   bands (ev):

   -24.5609  -8.2487  -6.4553  -6.4504  -5.5896   6.3095   7.1830   7.3310
    12.7435  14.2086  16.0805  16.2378  17.4819  18.3271  23.9517  25.5001

          k =-0.2500 0.5833-0.2500 (  5437 PWs)   bands (ev):

   -24.5344  -8.4415  -6.4997  -6.4635  -5.4866   6.1936   6.9140   7.0951
    13.1255  14.9024  16.5849  16.7226  18.3765  18.9224  22.6112  24.2226

          k = 0.6667-0.3333 0.6667 (  5436 PWs)   bands (ev):

   -24.5177  -8.5634  -6.5570  -6.4515  -5.3994   6.0733   6.8208   6.8883
    13.6972  15.0611  16.9139  17.0225  19.1358  19.6598  21.5193  23.5054

          k = 0.5833-0.2500 0.5833 (  5419 PWs)   bands (ev):

   -24.5154  -8.5949  -6.6002  -6.4225  -5.3444   5.9817   6.7558   6.9103
    14.1731  14.8444  16.6870  17.0386  19.2918  20.1156  21.2476  23.8085

          k = 0.5000-0.1667 0.5000 (  5425 PWs)   bands (ev):

   -24.5282  -8.5350  -6.6094  -6.3840  -5.3380   5.9907   6.7225   7.1025
    14.0005  14.8143  16.1135  16.6284  19.0016  19.5443  21.8353  24.0663

          k = 0.4167-0.0833 0.4167 (  5424 PWs)   bands (ev):

   -24.5526  -8.3983  -6.5738  -6.3461  -5.3927   6.1266   6.7949   7.3188
    13.6486  14.4531  15.4486  16.2525  18.4218  18.5212  23.1061  24.4067

          k = 0.3333 0.0000 0.3333 (  5424 PWs)   bands (ev):

   -24.5818  -8.2117  -6.4960  -6.3191  -5.5113   6.3803   6.9608   7.4763
    13.4854  13.8013  14.8979  15.8002  17.4618  17.9250  23.6887  24.8941

          k = 0.0000 0.5000 0.0000 (  5425 PWs)   bands (ev):

   -24.5722  -8.0214  -6.4793  -6.4793  -5.7825   6.4256   7.5913   7.5913
    12.1530  13.6175  16.1795  16.1795  16.8661  18.0562  24.3524  26.7045

          k =-0.0833 0.5833-0.0833 (  5435 PWs)   bands (ev):

   -24.5483  -8.0915  -6.5268  -6.5166  -5.8419   6.4565   7.4658   7.5187
    11.9976  14.1990  16.6988  16.7518  17.2980  18.3114  24.4465  25.5187

          k =-0.1667 0.6667-0.1667 (  5438 PWs)   bands (ev):

   -24.5250  -8.1983  -6.6135  -6.5313  -5.8130   6.5346   7.1944   7.3467
    12.2182  14.9131  16.8415  17.1570  18.0593  18.9098  22.6427  24.4942

          k = 0.7500-0.2500 0.7500 (  5434 PWs)   bands (ev):

   -24.5083  -8.3008  -6.7265  -6.5199  -5.7059   6.5345   7.0064   7.1338
    12.7557  15.2744  16.7967  17.3502  18.7484  19.9215  21.2857  23.8833

          k = 0.6667-0.1667 0.6667 (  5418 PWs)   bands (ev):

   -24.5030  -8.3776  -6.8036  -6.4851  -5.5744   6.3470   6.9372   7.0728
    13.4911  14.9405  16.8506  17.1636  19.0643  20.5224  21.1116  23.8991

          k = 0.5833-0.0833 0.5833 (  5426 PWs)   bands (ev):

   -24.5105  -8.4221  -6.8021  -6.4357  -5.4616   6.1679   6.7998   7.2099
    14.1806  14.4018  16.6147  16.6332  19.0851  20.6024  21.2632  23.5807

          k = 0.5000 0.0000 0.5000 (  5428 PWs)   bands (ev):

   -24.5287  -8.4307  -6.7159  -6.3848  -5.3959   6.0878   6.7485   7.3078
    13.8858  14.5869  15.9728  16.3891  18.8992  19.6715  21.8168  24.1923

          k = 0.0000 0.6667 0.0000 (  5449 PWs)   bands (ev):

   -24.5306  -7.9783  -6.5662  -6.5662  -6.1127   6.6371   7.5965   7.5965
    11.5566  14.4700  17.3265  17.3904  17.3904  18.1651  24.1081  25.2759

          k =-0.0833 0.7500-0.0833 (  5444 PWs)   bands (ev):

   -24.5125  -7.9340  -6.6808  -6.5917  -6.2149   6.8330   7.4881   7.5430
    11.5204  14.9936  17.3456  17.5638  18.0076  18.6946  22.6213  24.5718

          k = 0.8333-0.1667 0.8333 (  5450 PWs)   bands (ev):

   -24.4989  -7.9625  -6.8948  -6.5867  -6.0772   6.9761   7.2355   7.3839
    11.8808  15.5662  16.7141  17.8314  18.4339  19.8821  21.3002  24.1403

          k = 0.7500-0.0833 0.7500 (  5433 PWs)   bands (ev):

   -24.4935  -8.0757  -7.0060  -6.5525  -5.8627   6.7756   7.1716   7.2084
    12.5539  15.5325  16.4673  17.7608  18.6930  20.4877  21.2667  23.7905

          k = 0.6667-0.0000 0.6667 (  5396 PWs)   bands (ev):

   -24.4977  -8.2517  -6.9579  -6.4974  -5.6449   6.4446   6.9612   7.2481
    13.4086  14.8843  16.6202  17.2360  18.9546  20.3282  22.5321  22.6083

          k = 0.0000 0.8333 0.0000 (  5442 PWs)   bands (ev):

   -24.5005  -7.7051  -6.6576  -6.6292  -6.6292   7.0683   7.6246   7.6246
    11.1808  15.1907  17.7121  17.9691  18.3697  18.3697  22.1153  24.3208

          k = 0.9167-0.0833 0.9167 (  5431 PWs)   bands (ev):

   -24.4920  -7.5829  -7.0396  -6.6348  -6.4523   7.2201   7.5093   7.5705
    11.2739  15.5348  17.2831  17.9306  18.5708  19.3609  21.3149  24.1063

          k = 0.8333 0.0000 0.8333 (  5428 PWs)   bands (ev):

   -24.4895  -7.7403  -7.1464  -6.6069  -6.1722   7.1899   7.2689   7.4026
    11.7656  15.9749  16.3817  18.2795  18.3213  20.5367  20.7351  23.9090

          k = 0.0000-1.0000 0.0000 (  5434 PWs)   bands (ev):

   -24.4895  -7.2553  -7.2173  -6.6522  -6.6522   7.2885   7.6396   7.6396
    11.0531  15.4665  17.8666  17.9341  18.7584  18.7584  21.2746  23.9828

          k =-0.1667 0.3333 0.0000 (  5438 PWs)   bands (ev):

   -24.6053  -7.9796  -6.4197  -6.3422  -5.6963   6.6291   7.3330   7.5799
    13.1374  13.1440  14.9001  15.2699  16.7610  17.4726  22.7418  26.9106

          k =-0.2500 0.4167-0.0833 (  5428 PWs)   bands (ev):

   -24.5762  -8.2233  -6.4798  -6.3554  -5.5350   6.3407   7.0592   7.4221
    13.1558  13.9147  15.3672  15.9004  17.4002  18.0729  23.8238  25.0418

          k =-0.3333 0.5000-0.1667 (  5431 PWs)   bands (ev):

   -24.5468  -8.4413  -6.5162  -6.3844  -5.4085   6.1170   6.8394   7.1805
    13.4358  14.6632  15.9748  16.3985  18.2966  18.7067  22.9958  24.5225

          k = 0.5833-0.4167 0.7500 (  5433 PWs)   bands (ev):

   -24.5252  -8.5892  -6.5292  -6.4173  -5.3304   5.9694   6.7411   6.9480
    13.8866  14.9926  16.5615  16.8313  19.0496  19.4793  21.8368  23.7457

          k = 0.5000-0.3333 0.6667 (  5438 PWs)   bands (ev):

   -24.5172  -8.6414  -6.5298  -6.4332  -5.3042   5.9165   6.7620   6.8096
    14.1854  14.9479  16.7802  17.1029  19.3793  19.8797  21.3843  23.5987

          k =-0.1667 0.5000 0.0000 (  5429 PWs)   bands (ev):

   -24.5662  -8.1372  -6.5116  -6.4314  -5.6769   6.3740   7.3041   7.5264
    12.4607  13.9191  16.0493  16.2268  17.2155  18.2136  24.4194  24.9334

          k =-0.2500 0.5833-0.0833 (  5427 PWs)   bands (ev):

   -24.5400  -8.2693  -6.5797  -6.4659  -5.6334   6.3482   7.0583   7.3896
    12.6042  14.5931  16.5075  16.6226  17.9498  18.7595  23.1139  24.6997

          k = 0.6667-0.3333 0.8333 (  5426 PWs)   bands (ev):

   -24.5185  -8.3826  -6.6318  -6.5101  -5.5679   6.3275   6.8963   7.1804
    13.0531  14.9962  16.6867  17.0600  18.6738  19.6141  21.7245  23.9487

          k = 0.5833-0.2500 0.7500 (  5428 PWs)   bands (ev):

   -24.5076  -8.4507  -6.6826  -6.5154  -5.5017   6.2457   6.9135   6.9878
    13.6977  14.7513  16.9169  17.1993  19.1559  20.3911  20.9466  23.8320

          k = 0.5000-0.1667 0.6667 (  5424 PWs)   bands (ev):

   -24.5104  -8.4627  -6.7092  -6.4789  -5.4555   6.1690   6.8245   7.0895
    14.0521  14.4689  16.8022  16.9389  19.1271  20.4629  21.0938  23.6908

          k = 0.4167-0.0833 0.5833 (  5426 PWs)   bands (ev):

   -24.5259  -8.4208  -6.6826  -6.4254  -5.4432   6.1538   6.7901   7.2684
    13.5565  14.7082  16.3904  16.4813  18.7908  19.6574  21.8233  24.1563

          k = 0.3333 0.0000 0.5000 (  5421 PWs)   bands (ev):

   -24.5501  -8.3357  -6.5989  -6.3784  -5.4712   6.2086   6.8771   7.3998
    13.2181  14.4124  15.8112  16.2978  18.1737  18.6654  23.1700  24.4611

          k =-0.1667 0.6667-0.0000 (  5439 PWs)   bands (ev):

   -24.5274  -8.0887  -6.6024  -6.5689  -5.9337   6.5931   7.3276   7.5202
    11.9011  14.7053  16.9141  17.3064  17.7095  18.6968  23.1271  24.8361

          k = 0.7500-0.2500 0.9167 (  5426 PWs)   bands (ev):

   -24.5090  -8.1169  -6.7267  -6.6237  -5.8843   6.7233   7.1192   7.4001
    12.1817  15.2177  16.6456  17.6860  18.2983  19.6175  21.7417  24.1130

          k = 0.6667-0.1667 0.8333 (  5425 PWs)   bands (ev):

   -24.4981  -8.1724  -6.8621  -6.6149  -5.7603   6.6504   7.0911   7.2092
    12.7736  15.1672  16.5398  17.7901  18.8164  20.6750  20.8223  23.7864

          k = 0.5833-0.0833 0.7500 (  5427 PWs)   bands (ev):

   -24.4977  -8.2562  -6.9029  -6.5654  -5.6274   6.4428   7.0011   7.2077
    13.5571  14.5528  16.6297  17.5220  19.0059  20.3947  21.7668  23.2079

          k = 0.5000 0.0000 0.6667 (  5423 PWs)   bands (ev):

   -24.5079  -8.3505  -6.8306  -6.4940  -5.5171   6.2678   6.8491   7.2780
    13.9474  14.3152  16.5250  16.9662  18.9880  20.5861  21.3648  23.4880

          k = 0.8333-0.1667 1.0000 (  5434 PWs)   bands (ev):

   -24.4993  -7.8318  -6.8492  -6.6682  -6.2259   7.0361   7.3678   7.5401
    11.5460  15.4016  16.9484  17.9710  18.3426  19.3832  21.6648  24.0705

          k = 0.7500-0.0833 0.9167 (  5431 PWs)   bands (ev):

   -24.4913  -7.8367  -7.0466  -6.6870  -6.0474   7.0501   7.2306   7.4196
    11.9593  15.7573  16.2491  18.2979  18.5474  20.4145  20.8756  23.6410

          k = 0.6667 0.0000 0.8333 (  5423 PWs)   bands (ev):

   -24.4908  -8.0117  -7.0491  -6.6445  -5.8322   6.7541   7.2203   7.2574
    12.6743  15.2178  16.3574  18.1275  18.7357  20.3783  21.6192  23.1967

          k =-0.1667-1.0000-0.0000 (  5436 PWs)   bands (ev):

   -24.4891  -7.5351  -7.1815  -6.6922  -6.3165   7.2786   7.3712   7.5520
    11.4251  15.7177  16.7985  18.0970  18.7623  19.7821  20.9882  23.7425

          k = 0.6667-0.3333 1.0000 (  5431 PWs)   bands (ev):

   -24.5189  -8.2737  -6.7001  -6.5391  -5.6379   6.4226   6.9361   7.3771
    12.7970  14.8822  16.4792  17.1087  18.4567  19.6844  21.8553  24.1918

          k = 0.5833-0.2500 0.9167 (  5424 PWs)   bands (ev):

   -24.5034  -8.2659  -6.7822  -6.6293  -5.6206   6.4493   6.9571   7.2683
    13.2865  14.6585  16.5145  17.5905  18.8715  20.5225  21.1891  23.5340

          k = 0.5000-0.1667 0.8333 (  5420 PWs)   bands (ev):

   -24.4977  -8.2606  -6.8100  -6.6701  -5.6111   6.4411   7.0754   7.1328
    13.9195  14.0422  16.6377  17.7678  19.0939  20.5351  21.2374  23.4883

          k = 0.6667-0.1667 1.0000 (  5438 PWs)   bands (ev):

   -24.4965  -8.0406  -6.8435  -6.7733  -5.8272   6.7680   7.1102   7.3870
    12.5013  15.1623  16.3035  18.2675  18.5786  20.4058  21.1656  23.4502

          k = 0.5833-0.0833 0.9167 (  5435 PWs)   bands (ev):

   -24.4907  -8.0279  -6.9509  -6.8045  -5.7385   6.6543   7.2186   7.2828
    13.1173  14.5198  16.3451  18.4383  18.9197  20.4018  21.5957  22.8909

          k = 0.5000 0.0000 0.8333 (  5424 PWs)   bands (ev):

   -24.4932  -8.1230  -6.9132  -6.7497  -5.6685   6.5430   7.1161   7.2855
    13.8048  13.9143  16.4372  18.1720  18.9671  20.3475  22.0803  22.6150

          k =-0.3333-1.0000 0.0000 (  5424 PWs)   bands (ev):

   -24.4883  -7.8424  -7.0821  -6.7998  -5.8937   6.8762   7.2663   7.3954
    12.3978  15.2618  16.1230  18.6582  18.7701  20.5310  21.0223  23.0902

          k =-0.5000-1.0000 0.0000 (  5440 PWs)   bands (ev):

   -24.4879  -7.9553  -6.9431  -6.9431  -5.7211   6.6447   7.2935   7.2935
    13.7391  13.7391  16.2875  18.7740  18.9860  20.3385  22.1507  22.1507

     the Fermi energy is    10.0527 ev

!    total energy              =     -94.47497312 Ry
     estimated scf accuracy    <          6.2E-11 Ry
     smearing contrib. (-TS)   =      -0.00000000 Ry
     internal energy E=F+TS    =     -94.47497312 Ry

     The total energy is F=E-TS. E is the sum of the following terms:
     one-electron contribution =     -18.77834491 Ry
     hartree contribution      =      17.46211023 Ry
     xc contribution           =     -15.91482898 Ry
     ewald contribution        =     -77.24390946 Ry

     convergence has been achieved in   8 iterations

     Writing all to output data dir out/mp-2472.save/
 
     init_run     :      0.69s CPU      0.99s WALL (       1 calls)
     electrons    :      7.70s CPU      8.61s WALL (       1 calls)

     Called by init_run:
     wfcinit      :      0.65s CPU      0.93s WALL (       1 calls)
     potinit      :      0.01s CPU      0.01s WALL (       1 calls)
     hinit0       :      0.01s CPU      0.03s WALL (       1 calls)

     Called by electrons:
     c_bands      :      6.53s CPU      7.11s WALL (       8 calls)
     sum_band     :      1.08s CPU      1.26s WALL (       8 calls)
     v_of_rho     :      0.03s CPU      0.04s WALL (       9 calls)
     mix_rho      :      0.05s CPU      0.07s WALL (       8 calls)

     Called by c_bands:
     init_us_2    :      0.08s CPU      0.10s WALL (    1224 calls)
     init_us_2:cp :      0.08s CPU      0.09s WALL (    1224 calls)
     cegterg      :      6.02s CPU      6.28s WALL (     576 calls)

     Called by *egterg:
     cdiaghg      :      0.63s CPU      0.67s WALL (    2291 calls)
     h_psi        :      5.56s CPU      5.83s WALL (    2363 calls)
     g_psi        :      0.02s CPU      0.03s WALL (    1715 calls)

     Called by h_psi:
     h_psi:calbec :      0.12s CPU      0.12s WALL (    2363 calls)
     vloc_psi     :      5.35s CPU      5.61s WALL (    2363 calls)
     add_vuspsi   :      0.07s CPU      0.07s WALL (    2363 calls)

     General routines
     calbec       :      0.11s CPU      0.12s WALL (    2363 calls)
     fft          :      0.02s CPU      0.04s WALL (      89 calls)
     ffts         :      0.00s CPU      0.00s WALL (       8 calls)
     fftw         :      5.84s CPU      6.15s WALL (   63090 calls)
     davcio       :      0.09s CPU      0.42s WALL (    1940 calls)
 
     Parallel routines
 
     PWSCF        :      8.60s CPU     11.89s WALL

 
   This run was terminated on:  22:14: 3  18Nov2023            

=------------------------------------------------------------------------------=
   JOB DONE.
=------------------------------------------------------------------------------=
