
     Program PWSCF v.7.1 starts on 18Nov2023 at  1:22:39 

     This program is part of the open-source Quantum ESPRESSO suite
     for quantum simulation of materials; please cite
         "P. Giannozzi et al., J. Phys.:Condens. Matter 21 395502 (2009);
         "P. Giannozzi et al., J. Phys.:Condens. Matter 29 465901 (2017);
         "P. Giannozzi et al., J. Chem. Phys. 152 154105 (2020);
          URL http://www.quantum-espresso.org", 
     in publications or presentations arising from this work. More details at
     http://www.quantum-espresso.org/quote

     Parallel version (MPI), running on     8 processors

     MPI processes distributed on     1 nodes
     123293 MiB available memory on the printing compute node when the environment starts
 
     Reading input from pw_mp-2472_nscf_k0_E108.in
Warning: card &IONS ignored
Warning: card / ignored
Warning: card &CELL ignored
Warning: card / ignored

     Current dimensions of program PWSCF are:
     Max number of different atomic species (ntypx) = 10
     Max number of k-points (npk) =  40000
     Max angular momentum in pseudopotentials (lmaxx) =  4

     Atomic positions and unit cell read from directory:
     out/mp-2472.save/
     Atomic positions from file used, from input discarded
 
 
     R & G space division:  proc/nbgrp/npool/nimage =       8
     Subspace diagonalization in iterative solution of the eigenvalue problem:
     one sub-group per band group will be used
     scalapack distributed-memory algorithm (size of sub-group:  2*  2 procs)

 
     Parallelization info
     --------------------
     sticks:   dense  smooth     PW     G-vecs:    dense   smooth      PW
     Min         177     177     45                 4417     4417     558
     Max         178     178     46                 4420     4420     560
     Sum        1417    1417    361                35341    35341    4477
 
     Using Slab Decomposition
 


     bravais-lattice index     =            2
     lattice parameter (alat)  =       9.7653  a.u.
     unit-cell volume          =     232.8067 (a.u.)^3
     number of atoms/cell      =            2
     number of atomic types    =            2
     number of electrons       =        16.00
     number of Kohn-Sham states=         1672
     kinetic-energy cutoff     =     108.0000  Ry
     charge density cutoff     =     432.0000  Ry
     Exchange-correlation= PBE
                           (   1   4   3   4   0   0   0)

     celldm(1)=   9.765290  celldm(2)=   0.000000  celldm(3)=   0.000000
     celldm(4)=   0.000000  celldm(5)=   0.000000  celldm(6)=   0.000000

     crystal axes: (cart. coord. in units of alat)
               a(1) = (  -0.500000   0.000000   0.500000 )  
               a(2) = (   0.000000   0.500000   0.500000 )  
               a(3) = (  -0.500000   0.500000   0.000000 )  

     reciprocal axes: (cart. coord. in units 2 pi/alat)
               b(1) = ( -1.000000 -1.000000  1.000000 )  
               b(2) = (  1.000000  1.000000  1.000000 )  
               b(3) = ( -1.000000  1.000000 -1.000000 )  


     PseudoPot. # 1 for O  read from file:
     /usr/scratch4/magr4985/MG/HTDF/pseudo/SG15/O.upf
     MD5 check sum: e36c48deb68f4e355fffe4602be2c42c
     Pseudo is Norm-conserving, Zval =  6.0
     Generated using ONCVPSP code by D. R. Hamann
     Using radial grid of  602 points,  4 beta functions with: 
                l(1) =   0
                l(2) =   0
                l(3) =   1
                l(4) =   1

     PseudoPot. # 2 for Sr read from file:
     /usr/scratch4/magr4985/MG/HTDF/pseudo/SG15/Sr.upf
     MD5 check sum: 3f9bc8d6f3e8472da0cbe0e6a3044a9f
     Pseudo is Norm-conserving, Zval = 10.0
     Generated using ONCVPSP code by D. R. Hamann
     Using radial grid of  602 points,  6 beta functions with: 
                l(1) =   0
                l(2) =   0
                l(3) =   1
                l(4) =   1
                l(5) =   2
                l(6) =   2

     atomic species   valence    mass     pseudopotential
        O              6.00    15.99940     O ( 1.00)
        Sr            10.00    87.62000     Sr( 1.00)

     48 Sym. Ops., with inversion, found



   Cartesian axes

     site n.     atom                  positions (alat units)
         1           Sr  tau(   1) = (  -0.5000000   0.5000000   0.5000000  )
         2           O   tau(   2) = (   0.0000000   0.0000000   0.0000000  )

     number of k points=     1  Gaussian smearing, width (Ry)=  0.0005
                       cart. coord. in units 2pi/alat
        k(    1) = (   0.0000000   0.0000000   0.0000000), wk =   2.0000000

     Dense  grid:    35341 G-vectors     FFT dimensions: (  45,  45,  45)

     Estimated max dynamical RAM per process >     204.04 MB

     Estimated total dynamical RAM >       1.59 GB

     The potential is recalculated from file :
     out/mp-2472.save/charge-density

     Starting wfcs are random

     Band Structure Calculation
     Davidson diagonalization with overlap

     ethr =  5.00E-06,  avg # of iterations =  4.0

     total cpu time spent up to now is      237.2 secs

     End of band structure calculation

          k = 0.0000 0.0000 0.0000 (  4477 PWs)   bands (ev):

   -24.6559  -7.2884  -6.3027  -6.3027  -6.3027   7.7322   7.7322   7.7322
    11.6313  13.9597  13.9597  13.9597  16.0992  16.0992  20.2225  30.8530
    30.8530  30.8530  32.5543  32.5543  32.5543  34.7909  34.7909  34.7909
    37.7388  37.7388  39.6991  41.6366  41.6366  41.6366  47.8199  47.8199
    51.1182  52.7003  52.7003  52.7003  55.5601  55.7355  55.7355  55.7355
    59.4146  59.4146  59.4146  60.6028  60.6028  60.6028  61.2744  61.2744
    61.2744  62.2013  62.2013  62.2013  64.8496  64.8496  65.6424  65.6424
    65.6424  66.7174  66.8735  74.4197  74.4197  74.4197  76.9581  76.9581
    85.4995  88.0296  88.0296  88.0296  90.1331  90.1331  90.1331  93.4889
    93.4889  93.4889  93.7598  93.7598  96.7281  96.7281  96.7281  99.9191
   102.2157 102.2157 102.2157 103.6284 104.9631 104.9631 105.1520 105.1520
   105.1520 105.2098 105.2098 105.2098 106.5792 106.5792 106.5792 107.6805
   107.6805 107.6805 107.7526 107.7526 107.7526 107.7861 107.7861 108.9545
   108.9545 108.9545 111.2532 111.2532 111.5201 112.0420 112.0420 112.0420
   112.7373 121.5863 121.5863 121.5863 124.4989 124.5097 124.5097 124.5097
   127.1235 127.1235 129.0696 129.0696 129.0696 131.9576 131.9576 132.0011
   132.0011 132.0011 132.1120 132.1880 132.1880 132.1880 132.1977 132.1977
   132.1977 132.2558 132.2558 132.2558 133.1943 133.1943 140.1245 143.1428
   143.1428 143.1428 143.5053 143.5053 143.5053 146.6163 147.8568 147.8568
   147.8568 148.2811 148.2811 148.2811 148.9535 148.9535 148.9535 149.0797
   149.0797 149.0797 149.3782 154.2006 154.2006 154.2273 154.2300 154.2300
   154.2300 162.5294 162.5294 162.5294 164.9132 164.9132 164.9132 166.2143
   166.2143 168.7505 168.7505 168.7505 169.5481 169.5481 169.5481 170.8502
   180.3883 180.3883 180.3883 181.1535 181.1535 184.1911 184.1911 184.5866
   184.5866 184.5866 184.7473 184.7473 184.7473 186.3387 186.7608 186.8084
   186.8084 186.8084 186.8824 186.8824 186.8824 187.9096 187.9096 187.9096
   190.2414 190.2414 190.5758 190.5758 190.5758 191.6482 191.6482 191.6482
   191.6639 192.2604 192.2604 193.4322 193.9441 193.9441 193.9441 194.1112
   194.1112 194.1112 194.7783 194.7783 194.7783 195.7773 197.2102 197.2102
   197.2102 197.3340 197.3340 197.8983 197.8983 197.8983 198.7276 198.7276
   198.7276 199.2585 200.2906 200.4308 200.4308 200.4308 200.4640 200.4640
   201.1204 201.1204 201.1204 201.6949 201.6949 201.6949 202.1539 202.1539
   202.1539 202.1825 202.1825 212.3919 212.3919 212.3919 212.5068 212.5068
   215.2574 215.2574 215.2574 217.3328 217.3328 217.3328 217.6556 217.6556
   217.6556 217.9758 217.9758 217.9758 218.9219 223.6897 223.6897 223.8248
   223.8248 223.8248 223.9444 224.4673 224.4673 224.4673 225.4513 225.4513
   225.4513 230.4744 233.2380 233.2586 233.2586 236.9702 236.9702 236.9702
   237.1682 237.1682 237.4431 237.4431 237.4431 237.5929 237.5929 237.5929
   237.6971 237.6971 237.6971 239.1514 239.1514 239.1514 240.9095 240.9095
   240.9095 242.4843 243.3420 243.3420 244.3239 244.3239 244.3239 244.3741
   244.3741 244.3741 244.4202 244.4202 244.4202 244.5179 244.5179 244.6710
   244.6710 244.6710 246.2669 249.9560 249.9560 253.4367 253.4367 253.4367
   254.7182 254.7182 254.7182 262.4571 262.4571 262.4571 264.0201 264.8481
   264.8481 264.8481 264.9385 268.4972 268.4972 269.3667 269.3667 269.3667
   270.0339 270.0339 270.0339 270.9589 271.3717 277.0557 277.0557 277.0557
   281.2968 281.2968 281.2968 282.0937 282.0937 282.0937 282.2658 282.2658
   282.3106 282.3106 282.3106 282.7576 282.7576 282.7576 282.8334 282.8334
   282.8334 284.7445 284.7445 284.7445 284.8837 284.8837 284.8837 284.9935
   285.4255 285.4255 285.4321 285.4321 285.4321 285.4844 285.4844 285.4844
   286.6975 286.6975 287.5504 287.5504 287.5504 287.8844 287.8844 287.8844
   287.9205 287.9453 287.9453 287.9453 289.1525 289.1525 289.1810 289.1810
   289.1810 289.1961 293.1547 297.1817 297.1817 297.1817 301.7752 301.7752
   302.3219 302.3219 302.3219 303.6192 306.9460 306.9538 306.9538 306.9538
   307.0612 307.0612 307.0612 307.0837 307.0837 307.2318 307.2318 307.2318
   307.8387 307.8387 307.8387 308.6761 308.6761 308.6761 311.6771 311.6771
   311.9768 311.9768 311.9768 312.1467 312.1467 312.1917 312.1917 312.1917
   312.2733 312.2733 312.2733 312.3017 312.3017 312.3017 312.6386 312.6386
   312.6386 314.0635 314.0635 314.0904 314.0972 314.0972 314.0972 314.1127
   314.1127 314.1127 314.1389 319.5787 319.5787 319.5787 319.7662 320.1408
   320.1408 320.1408 321.2064 321.2064 321.2064 322.5212 322.5212 322.5212
   322.7935 323.1937 323.1937 323.1937 324.2315 324.2315 324.5697 324.5697
   324.5697 325.0095 328.7695 328.7695 328.9403 328.9403 328.9403 329.4499
   329.5360 329.5360 329.5360 329.6168 329.6168 329.6168 329.7032 329.7032
   329.7032 329.7262 329.7262 329.7893 330.3189 330.3189 330.3189 330.4595
   330.4595 332.3177 332.3177 332.3177 332.3552 332.3552 332.3552 332.4320
   332.4320 332.4320 332.4349 332.4349 332.4349 333.7696 333.7696 333.8001
   333.8003 333.8003 333.8003 335.1140 335.1140 341.1802 341.1802 341.1802
   351.6315 354.1790 354.1790 354.1790 362.6851 362.6851 362.6851 363.4919
   363.4919 369.0105 369.0105 369.0105 369.2468 369.4318 370.5325 370.5325
   370.5325 370.5412 370.5412 370.5412 370.5643 370.5643 370.5643 370.5944
   370.5944 370.5944 370.6851 370.6851 371.3683 371.3683 371.4567 371.4567
   371.4567 372.3329 372.6893 372.6893 372.6893 373.5028 374.5068 374.5068
   374.5068 374.6397 374.6397 374.6397 374.8481 374.8481 374.8481 375.0612
   375.0612 375.0612 380.2438 380.2438 380.3576 380.3576 380.3576 380.3592
   380.3592 380.3592 380.4466 380.4466 380.4466 380.5689 380.5689 380.5689
   380.6183 380.6183 381.1635 381.1635 381.2649 381.2649 381.2649 381.2904
   381.9140 385.5422 385.5422 385.5422 388.3708 388.3708 392.2427 392.2427
   392.2427 392.9090 392.9090 392.9090 393.4650 395.7041 395.7041 395.7041
   399.9370 399.9370 400.2406 400.2756 400.2756 400.2756 400.4816 400.4816
   400.5616 400.5616 400.5616 400.7965 400.7965 400.7965 400.9212 400.9212
   400.9212 400.9536 400.9536 400.9536 402.8254 403.9252 403.9252 403.9252
   403.9527 403.9527 403.9527 405.3157 405.3157 407.7306 407.7306 407.7306
   412.4932 412.4932 413.6828 413.6828 413.6828 413.7893 413.7893 413.7893
   413.8161 413.8161 413.8161 413.8647 413.8647 413.8647 413.9007 414.3362
   414.6848 415.2695 415.2695 415.2695 416.2174 416.2174 416.2200 416.2200
   416.2200 416.8446 416.8446 416.8446 417.1246 417.1246 417.1246 417.1637
   417.4024 420.5257 420.5257 420.5257 421.2737 421.2737 421.2737 422.3400
   422.3400 422.5437 422.5437 422.5702 422.5702 422.5702 422.6108 422.6108
   422.6108 422.6851 422.6851 422.6851 422.7057 422.9368 422.9368 422.9368
   424.8052 425.1293 425.1293 425.1293 425.3744 425.3744 425.3744 425.6170
   425.6170 425.6170 425.6371 425.6371 427.2934 433.2423 433.2423 435.0332
   435.0332 435.0332 439.9791 439.9791 439.9791 440.1805 440.1805 442.5167
   442.5167 442.5167 442.5402 442.5402 442.5402 442.9945 442.9945 442.9945
   443.2598 443.2598 443.4602 443.4602 443.4602 443.6096 443.7564 443.8235
   443.8235 443.8235 449.3603 449.3603 449.3603 450.4018 453.6902 453.6902
   453.6902 455.0804 456.9133 456.9133 457.8301 457.8301 457.8301 458.0055
   458.0055 458.0055 458.0891 458.0891 458.1772 458.1772 458.1772 458.2888
   458.2888 458.2888 458.5862 461.9639 461.9639 461.9639 462.4426 462.4426
   462.4426 462.5011 462.5011 462.5011 462.5913 462.5913 462.5913 462.6923
   462.6923 462.6923 462.7162 462.7162 462.7799 462.7799 462.7799 463.0454
   463.0454 463.1454 463.1454 463.1454 463.1675 463.1675 463.1675 463.5023
   463.5023 463.5023 463.6107 463.6107 463.6107 464.3189 464.9526 465.0736
   465.0736 465.0736 465.2044 465.2044 465.2044 465.3348 466.1595 466.1595
   466.6269 466.6269 466.6269 466.7848 466.7848 466.8044 466.8044 466.8044
   466.8240 466.8240 466.8240 466.9993 466.9993 466.9993 469.3885 469.4136
   469.4136 469.4136 469.4220 469.4220 471.1318 471.1318 471.1318 471.1977
   471.1977 471.2039 471.2039 471.2039 471.2185 471.2185 471.2185 471.2189
   471.2189 471.2189 471.2365 471.2365 471.7419 471.7916 471.7916 471.7916
   471.8375 471.8375 471.8375 471.8814 472.5836 481.3511 481.3511 481.3511
   481.9006 481.9006 481.9006 483.4164 487.3711 492.1269 492.1269 492.1269
   492.3046 492.3046 492.3908 492.3908 492.3908 492.4821 492.4821 492.4821
   492.5881 492.5881 492.5881 492.6468 492.6468 493.3720 493.3720 494.6947
   494.6947 494.6947 498.3173 498.3173 498.3173 499.9804 499.9804 499.9804
   500.1605 500.1605 500.1605 500.2714 500.2714 500.2714 504.1698 504.1698
   504.2034 504.2393 504.2393 504.2393 504.3768 509.3538 509.3609 509.3609
   509.3609 509.3918 509.3918 512.2614 512.2614 512.2614 512.2810 512.2810
   512.2810 512.2858 512.2858 512.2858 512.3092 512.3092 512.3092 513.8279
   513.8371 513.8371 513.8426 513.8426 513.8426 527.4120 527.4120 527.4120
   528.2725 528.2725 528.2725 530.2820 530.2820 533.8064 533.8452 533.8452
   533.8452 533.8483 533.8483 533.8483 533.9580 533.9580 533.9580 534.0005
   534.0005 534.0005 534.0721 534.0721 534.4506 536.0653 536.0653 536.0653
   536.5560 536.5560 536.5560 537.8582 537.8582 539.8977 539.8977 539.8977
   540.2139 540.5134 540.5134 540.5134 543.2674 543.2674 543.2674 543.8897
   544.4453 544.4453 546.2482 546.2482 546.2482 546.7750 550.1271 550.1271
   550.4578 550.4578 550.4578 550.8468 550.8468 550.8468 551.0791 551.3610
   551.3610 551.3610 551.4530 551.4530 551.4530 551.7337 551.7337 551.7795
   551.7795 551.7795 552.2431 552.2431 552.2431 552.4307 553.5162 553.5162
   553.6384 553.6384 553.6384 553.8918 553.8918 553.8918 553.9176 554.1923
   554.1923 554.1923 554.6739 554.6739 554.7034 554.7034 554.7034 554.9520
   554.9520 554.9520 555.0474 555.0474 555.0474 555.2475 555.2475 555.2475
   555.2505 555.2505 555.7486 555.7515 555.7515 555.7515 555.7720 555.7720
   555.7901 555.7901 555.7901 555.8112 555.8112 555.8112 557.5810 557.5810
   557.7257 557.7398 557.7398 557.7398 557.7557 557.7557 557.7557 557.7570
   557.7570 557.7570 561.7415 572.8381 572.8381 572.8381 573.4296 573.4296
   575.0482 575.0482 575.0482 576.3603 576.3603 576.3603 576.6911 576.8315
   576.9781 576.9781 576.9781 577.0443 577.0443 577.0443 577.2016 577.2016
   577.2016 577.2016 577.2016 577.3802 577.3802 577.3802 577.4649 577.4649
   577.4649 578.0447 578.0447 578.2724 578.2724 578.2724 578.3707 578.3707
   578.3707 578.4948 578.4948 578.4948 579.7738 582.0566 582.0566 582.0566
   582.0850 582.0850 582.0850 582.0897 582.0897 582.0915 582.0915 582.0915
   582.1185 582.1185 582.1280 582.1897 582.2981 582.2981 582.2981 582.3724
   582.3724 582.3724 582.4103 582.4103 582.4103 583.9992 583.9992 584.0397
   584.0397 584.0397 584.0669 586.0679 586.0679 586.0679 588.2436 588.2436
   588.2436 588.6075 588.6075 589.6329 589.6329 589.6329 591.3947 591.3947
   591.4308 591.4308 591.4308 591.6263 591.6263 591.6263 591.9242 591.9242
   591.9242 592.1443 594.8677 596.0259 596.3383 596.3383 596.3383 596.5736
   596.5736 596.5736 597.1930 597.1930 597.2439 597.2439 597.2439 597.5271
   597.5271 597.5271 597.6500 597.6500 597.6500 597.7528 597.7528 597.7528
   597.7736 597.7736 598.7803 600.6604 600.6604 600.6604 600.9400 600.9400
   600.9400 601.0228 601.8603 601.8603 601.9173 601.9173 601.9173 602.0584
   602.0584 602.0584 602.0838 602.0838 602.0838 602.1320 602.1320 602.1320
   602.1557 602.1711 602.2030 602.2494 602.2494 602.2498 602.2498 602.2498
   602.2529 602.2529 602.2529 603.1079 603.1079 603.1471 603.1471 603.1471
   603.2129 603.2129 603.2715 603.4325 603.4325 603.4325 603.5703 603.5703
   603.5703 603.5829 603.5829 603.5829 603.5855 603.5855 603.5855 603.6309
   603.6309 603.6309 605.7821 633.1542 633.1542 633.1542 635.8688 635.8688
   635.8688 636.8610 636.8610 637.7430 637.8374 637.8450 637.8450 637.8450
   637.9507 637.9507 637.9507 637.9713 637.9713 637.9713 637.9749 637.9749
   637.9749 637.9775 637.9775 638.0880 638.0880 638.0880 640.5849 640.5849
   640.5849 641.4334 642.1387 642.1387 642.9601 642.9601 642.9601 643.0488
   643.0488 643.0488 643.0866 643.0866 643.0866 643.2545 643.2545 643.2545
   643.2720 643.2720 643.3456 643.3456 643.4969 643.4969 643.4969 643.5610
   643.5685 643.5685 643.5685 643.6206 643.6206 643.6206 643.6981 644.3004
   644.3004 644.3004 644.5829 644.5829 644.5829 644.7045 644.8571 644.8571
   644.8571 645.4193 645.4193 645.4193 645.7195 645.7195 645.8516 645.8516
   645.8516 645.9838 646.1192 646.1192 646.3718 646.3718 646.3718 646.5409
   646.5409 646.5977 646.5977 646.5977 646.6002 646.6002 646.6002 646.6089
   646.6089 646.6089 648.0545 651.1140 651.1140 651.1652 651.1652 651.1652
   651.1734 651.1734 651.1734 651.2165 651.2165 651.2165 651.2188 651.2188
   651.2188 651.2673 651.2673 653.0426 653.0716 653.0716 653.0716 653.1010
   653.1010 653.1010 653.1305 663.4769 663.4769 663.4769 665.8175 665.8175
   667.6635 667.7640 667.7640 667.7640 667.8954 667.8954 668.0077 668.0077
   668.0077 668.0835 668.0835 668.0835 668.2676 668.2676 668.2676 668.2806
   668.2806 668.2806 668.6972 668.6972 669.4303 669.6414 669.6414 669.6414
   670.3130 673.2199 673.2199 673.2222 673.2222 673.2222 673.2703 673.3786
   673.3786 673.3786 673.3892 673.3892 673.3892 673.4150 673.4150 673.4150
   673.4636 673.4636 673.4636 673.5763 673.5763 673.6205 673.6205 673.6205
   673.6606 679.0565 679.0565 679.0565 679.5923 679.5923 679.5923 680.0026
   681.6651 687.6139 687.6139 687.6139 687.6159 687.6159 687.6159 687.6417
   687.6417 687.6417 687.6444 687.6444 687.6444 689.4275 689.4275 689.4275
   689.4437 689.4437 689.4445 689.4445 689.4470 689.4470 689.4470 689.4476
   689.4476 689.4476 689.4799 689.4799 689.4799 694.6352 694.6364 694.6364
   694.6384 694.6384 694.6384 707.2934 707.2934 707.2934 707.5646 707.5646
   707.5646 707.5763 707.5763 707.8978 707.8978 707.8978 707.9647 712.7546
   712.7546 712.7546 720.0318 720.0318 720.5438 720.5438 720.5438 721.2708
   721.2708 721.2708 722.9204 722.9204 722.9204 723.0068 723.0068 723.7477
   724.6034 724.7112 724.7112 724.7112 725.4890 725.4890 725.4890 725.7087
   725.7087 725.7087 726.1495 726.1495 726.1495 728.2548 728.6907 728.6907
   728.6907 728.7581 728.7581 729.1105 729.1105 729.1105 729.1992 729.1992
   729.1992 729.6423 729.7031 729.7031 729.7031 729.8355 729.8355 730.0091
   730.0091 730.0091 730.0781 730.0781 730.1728 730.1728 730.1728 730.2389
   730.3649 730.3649 730.3649 730.4198 730.4198 730.4198 730.5705 730.5705
   730.5705 730.6390 730.7107 730.7107 730.7107 730.7194 730.7194 731.5875
   731.5875 731.6129 731.6129 731.6129 731.7042 731.7042 731.7042 731.7826
   731.7826 731.7826 731.8337 734.0816 734.0816 734.0816 734.6730 734.6794
   734.6794 734.6829 734.6829 734.6829 736.0039 736.0039 736.0039 736.7606
   736.9158 736.9158 737.0846 737.0846 737.0846 737.4843 737.4843 737.4843
   737.4923 737.4923 737.4923 737.4984 737.4984 737.4984 737.5294 737.5294
   737.5294 737.6529 737.6529 737.6529 737.6982 737.6982 737.6982 737.8260
   737.8260 737.8260 737.8419 737.8596 737.8596 737.9338 738.0823 738.0823
   738.0823 738.1036 738.1036 738.1036 738.1254 738.1254 738.1254 738.2166
   738.2166 738.7309 738.7309 738.8779 738.8779 738.8779 739.0845 739.0845
   739.0845 739.0983 739.0983 739.1039 739.1039 739.1039 739.1081 739.2024
   739.2024 739.2024 739.4470 740.8505 740.8505 740.8505 740.8779 740.8779
   740.9075 740.9075 740.9075 740.9959 740.9959 740.9959 741.0660 752.1710
   752.1710 752.1710 753.1895 753.1895 753.1895 753.2898 753.9723 756.9187
   756.9187 756.9187 757.4388 757.4388 757.5332 757.5332 757.5332 757.5779
   757.5779 757.5779 757.9838 757.9838 758.0293 758.0293 758.0293 758.1088
   758.1088 758.1088 758.1405 758.1405 758.1405 758.1651 758.3592 762.6980

     the Fermi energy is     9.1186 ev
     (compare with:     9.1186 eV, computed in scf)

     Writing all to output data dir out/mp-2472.save/
 
     init_run     :      0.07s CPU      0.10s WALL (       1 calls)
     electrons    :    220.05s CPU    236.85s WALL (       1 calls)

     Called by init_run:
     wfcinit      :      0.00s CPU      0.00s WALL (       1 calls)
     potinit      :      0.01s CPU      0.02s WALL (       1 calls)
     hinit0       :      0.01s CPU      0.03s WALL (       1 calls)

     Called by electrons:
     c_bands      :    220.04s CPU    236.85s WALL (       1 calls)
     v_of_rho     :      0.01s CPU      0.01s WALL (       1 calls)

     Called by c_bands:
     init_us_2    :      0.00s CPU      0.00s WALL (       1 calls)
     init_us_2:cp :      0.00s CPU      0.00s WALL (       1 calls)
     cegterg      :    213.18s CPU    229.45s WALL (       1 calls)

     Called by *egterg:
     cdiaghg      :    202.99s CPU    219.19s WALL (       5 calls)
     h_psi        :      2.70s CPU      2.79s WALL (       6 calls)
     g_psi        :      0.02s CPU      0.02s WALL (       4 calls)

     Called by h_psi:
     h_psi:calbec :      0.04s CPU      0.05s WALL (       6 calls)
     vloc_psi     :      2.60s CPU      2.67s WALL (       6 calls)
     add_vuspsi   :      0.04s CPU      0.04s WALL (       6 calls)

     General routines
     calbec       :      0.04s CPU      0.05s WALL (       6 calls)
     fft          :      0.00s CPU      0.02s WALL (      10 calls)
     fftw         :      2.36s CPU      2.42s WALL (   18288 calls)
 
     Parallel routines
 
     PWSCF        :   3m40.44s CPU   3m57.39s WALL

 
   This run was terminated on:   1:26:36  18Nov2023            

=------------------------------------------------------------------------------=
   JOB DONE.
=------------------------------------------------------------------------------=
