
     Program PWSCF v.7.1 starts on 18Nov2023 at  2:43: 3 

     This program is part of the open-source Quantum ESPRESSO suite
     for quantum simulation of materials; please cite
         "P. Giannozzi et al., J. Phys.:Condens. Matter 21 395502 (2009);
         "P. Giannozzi et al., J. Phys.:Condens. Matter 29 465901 (2017);
         "P. Giannozzi et al., J. Chem. Phys. 152 154105 (2020);
          URL http://www.quantum-espresso.org", 
     in publications or presentations arising from this work. More details at
     http://www.quantum-espresso.org/quote

     Parallel version (MPI), running on     8 processors

     MPI processes distributed on     1 nodes
     123470 MiB available memory on the printing compute node when the environment starts
 
     Reading input from pw_mp-2472_scf_k3000_E108.in
Warning: card &CELL ignored
Warning: card / ignored

     Current dimensions of program PWSCF are:
     Max number of different atomic species (ntypx) = 10
     Max number of k-points (npk) =  40000
     Max angular momentum in pseudopotentials (lmaxx) =  4
 
     R & G space division:  proc/nbgrp/npool/nimage =       8
     Subspace diagonalization in iterative solution of the eigenvalue problem:
     a serial algorithm will be used

 
     Parallelization info
     --------------------
     sticks:   dense  smooth     PW     G-vecs:    dense   smooth      PW
     Min         177     177     52                 4417     4417     698
     Max         178     178     53                 4420     4420     701
     Sum        1417    1417    421                35341    35341    5601
 
     Using Slab Decomposition
 


     bravais-lattice index     =            2
     lattice parameter (alat)  =       9.7653  a.u.
     unit-cell volume          =     232.8067 (a.u.)^3
     number of atoms/cell      =            2
     number of atomic types    =            2
     number of electrons       =        16.00
     number of Kohn-Sham states=           16
     kinetic-energy cutoff     =     108.0000  Ry
     charge density cutoff     =     432.0000  Ry
     scf convergence threshold =      1.0E-10
     mixing beta               =       0.7000
     number of iterations used =            8  plain     mixing
     Exchange-correlation= PBE
                           (   1   4   3   4   0   0   0)

     celldm(1)=   9.765290  celldm(2)=   0.000000  celldm(3)=   0.000000
     celldm(4)=   0.000000  celldm(5)=   0.000000  celldm(6)=   0.000000

     crystal axes: (cart. coord. in units of alat)
               a(1) = (  -0.500000   0.000000   0.500000 )  
               a(2) = (   0.000000   0.500000   0.500000 )  
               a(3) = (  -0.500000   0.500000   0.000000 )  

     reciprocal axes: (cart. coord. in units 2 pi/alat)
               b(1) = ( -1.000000 -1.000000  1.000000 )  
               b(2) = (  1.000000  1.000000  1.000000 )  
               b(3) = ( -1.000000  1.000000 -1.000000 )  


     PseudoPot. # 1 for O  read from file:
     /usr/scratch4/magr4985/MG/HTDF/pseudo/SG15/O.upf
     MD5 check sum: e36c48deb68f4e355fffe4602be2c42c
     Pseudo is Norm-conserving, Zval =  6.0
     Generated using ONCVPSP code by D. R. Hamann
     Using radial grid of  602 points,  4 beta functions with: 
                l(1) =   0
                l(2) =   0
                l(3) =   1
                l(4) =   1

     PseudoPot. # 2 for Sr read from file:
     /usr/scratch4/magr4985/MG/HTDF/pseudo/SG15/Sr.upf
     MD5 check sum: 3f9bc8d6f3e8472da0cbe0e6a3044a9f
     Pseudo is Norm-conserving, Zval = 10.0
     Generated using ONCVPSP code by D. R. Hamann
     Using radial grid of  602 points,  6 beta functions with: 
                l(1) =   0
                l(2) =   0
                l(3) =   1
                l(4) =   1
                l(5) =   2
                l(6) =   2

     atomic species   valence    mass     pseudopotential
        O              6.00    15.99940     O ( 1.00)
        Sr            10.00    87.62000     Sr( 1.00)

     48 Sym. Ops., with inversion, found



   Cartesian axes

     site n.     atom                  positions (alat units)
         1           Sr  tau(   1) = (  -0.5000000   0.5000000   0.5000000  )
         2           O   tau(   2) = (   0.0000000   0.0000000   0.0000000  )

     number of k points=    72  Gaussian smearing, width (Ry)=  0.0005
                       cart. coord. in units 2pi/alat
        k(    1) = (   0.0000000   0.0000000   0.0000000), wk =   0.0011574
        k(    2) = (  -0.0833333   0.0833333  -0.0833333), wk =   0.0092593
        k(    3) = (  -0.1666667   0.1666667  -0.1666667), wk =   0.0092593
        k(    4) = (  -0.2500000   0.2500000  -0.2500000), wk =   0.0092593
        k(    5) = (  -0.3333333   0.3333333  -0.3333333), wk =   0.0092593
        k(    6) = (  -0.4166667   0.4166667  -0.4166667), wk =   0.0092593
        k(    7) = (   0.5000000  -0.5000000   0.5000000), wk =   0.0046296
        k(    8) = (   0.0000000   0.1666667   0.0000000), wk =   0.0069444
        k(    9) = (  -0.0833333   0.2500000  -0.0833333), wk =   0.0277778
        k(   10) = (  -0.1666667   0.3333333  -0.1666667), wk =   0.0277778
        k(   11) = (  -0.2500000   0.4166667  -0.2500000), wk =   0.0277778
        k(   12) = (  -0.3333333   0.5000000  -0.3333333), wk =   0.0277778
        k(   13) = (   0.5833333  -0.4166667   0.5833333), wk =   0.0277778
        k(   14) = (   0.5000000  -0.3333333   0.5000000), wk =   0.0277778
        k(   15) = (   0.4166667  -0.2500000   0.4166667), wk =   0.0277778
        k(   16) = (   0.3333333  -0.1666667   0.3333333), wk =   0.0277778
        k(   17) = (   0.2500000  -0.0833333   0.2500000), wk =   0.0277778
        k(   18) = (   0.1666667  -0.0000000   0.1666667), wk =   0.0138889
        k(   19) = (   0.0000000   0.3333333   0.0000000), wk =   0.0069444
        k(   20) = (  -0.0833333   0.4166667  -0.0833333), wk =   0.0277778
        k(   21) = (  -0.1666667   0.5000000  -0.1666667), wk =   0.0277778
        k(   22) = (  -0.2500000   0.5833333  -0.2500000), wk =   0.0277778
        k(   23) = (   0.6666667  -0.3333333   0.6666667), wk =   0.0277778
        k(   24) = (   0.5833333  -0.2500000   0.5833333), wk =   0.0277778
        k(   25) = (   0.5000000  -0.1666667   0.5000000), wk =   0.0277778
        k(   26) = (   0.4166667  -0.0833333   0.4166667), wk =   0.0277778
        k(   27) = (   0.3333333   0.0000000   0.3333333), wk =   0.0138889
        k(   28) = (   0.0000000   0.5000000   0.0000000), wk =   0.0069444
        k(   29) = (  -0.0833333   0.5833333  -0.0833333), wk =   0.0277778
        k(   30) = (  -0.1666667   0.6666667  -0.1666667), wk =   0.0277778
        k(   31) = (   0.7500000  -0.2500000   0.7500000), wk =   0.0277778
        k(   32) = (   0.6666667  -0.1666667   0.6666667), wk =   0.0277778
        k(   33) = (   0.5833333  -0.0833333   0.5833333), wk =   0.0277778
        k(   34) = (   0.5000000   0.0000000   0.5000000), wk =   0.0138889
        k(   35) = (   0.0000000   0.6666667   0.0000000), wk =   0.0069444
        k(   36) = (  -0.0833333   0.7500000  -0.0833333), wk =   0.0277778
        k(   37) = (   0.8333333  -0.1666667   0.8333333), wk =   0.0277778
        k(   38) = (   0.7500000  -0.0833333   0.7500000), wk =   0.0277778
        k(   39) = (   0.6666667  -0.0000000   0.6666667), wk =   0.0138889
        k(   40) = (   0.0000000   0.8333333   0.0000000), wk =   0.0069444
        k(   41) = (   0.9166667  -0.0833333   0.9166667), wk =   0.0277778
        k(   42) = (   0.8333333   0.0000000   0.8333333), wk =   0.0138889
        k(   43) = (   0.0000000  -1.0000000   0.0000000), wk =   0.0034722
        k(   44) = (  -0.1666667   0.3333333   0.0000000), wk =   0.0277778
        k(   45) = (  -0.2500000   0.4166667  -0.0833333), wk =   0.0555556
        k(   46) = (  -0.3333333   0.5000000  -0.1666667), wk =   0.0555556
        k(   47) = (   0.5833333  -0.4166667   0.7500000), wk =   0.0555556
        k(   48) = (   0.5000000  -0.3333333   0.6666667), wk =   0.0277778
        k(   49) = (  -0.1666667   0.5000000   0.0000000), wk =   0.0277778
        k(   50) = (  -0.2500000   0.5833333  -0.0833333), wk =   0.0555556
        k(   51) = (   0.6666667  -0.3333333   0.8333333), wk =   0.0555556
        k(   52) = (   0.5833333  -0.2500000   0.7500000), wk =   0.0555556
        k(   53) = (   0.5000000  -0.1666667   0.6666667), wk =   0.0555556
        k(   54) = (   0.4166667  -0.0833333   0.5833333), wk =   0.0555556
        k(   55) = (   0.3333333   0.0000000   0.5000000), wk =   0.0277778
        k(   56) = (  -0.1666667   0.6666667  -0.0000000), wk =   0.0277778
        k(   57) = (   0.7500000  -0.2500000   0.9166667), wk =   0.0555556
        k(   58) = (   0.6666667  -0.1666667   0.8333333), wk =   0.0555556
        k(   59) = (   0.5833333  -0.0833333   0.7500000), wk =   0.0555556
        k(   60) = (   0.5000000   0.0000000   0.6666667), wk =   0.0277778
        k(   61) = (   0.8333333  -0.1666667   1.0000000), wk =   0.0277778
        k(   62) = (   0.7500000  -0.0833333   0.9166667), wk =   0.0555556
        k(   63) = (   0.6666667   0.0000000   0.8333333), wk =   0.0277778
        k(   64) = (  -0.1666667  -1.0000000  -0.0000000), wk =   0.0138889
        k(   65) = (   0.6666667  -0.3333333   1.0000000), wk =   0.0277778
        k(   66) = (   0.5833333  -0.2500000   0.9166667), wk =   0.0555556
        k(   67) = (   0.5000000  -0.1666667   0.8333333), wk =   0.0277778
        k(   68) = (   0.6666667  -0.1666667   1.0000000), wk =   0.0277778
        k(   69) = (   0.5833333  -0.0833333   0.9166667), wk =   0.0555556
        k(   70) = (   0.5000000   0.0000000   0.8333333), wk =   0.0277778
        k(   71) = (  -0.3333333  -1.0000000   0.0000000), wk =   0.0138889
        k(   72) = (  -0.5000000  -1.0000000   0.0000000), wk =   0.0069444

     Dense  grid:    35341 G-vectors     FFT dimensions: (  45,  45,  45)

     Estimated max dynamical RAM per process >       7.09 MB

     Estimated total dynamical RAM >      56.69 MB

     Initial potential from superposition of free atoms

     starting charge      15.7183, renormalised to      16.0000
     Starting wfcs are random

     total cpu time spent up to now is        1.7 secs

     Self-consistent Calculation

     iteration #  1     ecut=   108.00 Ry     beta= 0.70
     Davidson diagonalization with overlap
     ethr =  1.00E-02,  avg # of iterations =  8.0

     total cpu time spent up to now is        6.0 secs

     total energy              =     -94.28092439 Ry
     estimated scf accuracy    <       0.39264174 Ry

     iteration #  2     ecut=   108.00 Ry     beta= 0.70
     Davidson diagonalization with overlap
     ethr =  2.45E-03,  avg # of iterations =  2.0

     total cpu time spent up to now is        8.1 secs

     total energy              =     -94.24783281 Ry
     estimated scf accuracy    <       1.15431471 Ry

     iteration #  3     ecut=   108.00 Ry     beta= 0.70
     Davidson diagonalization with overlap
     ethr =  2.45E-03,  avg # of iterations =  2.0

     total cpu time spent up to now is       10.0 secs

     total energy              =     -94.47248223 Ry
     estimated scf accuracy    <       0.01383591 Ry

     iteration #  4     ecut=   108.00 Ry     beta= 0.70
     Davidson diagonalization with overlap
     ethr =  8.65E-05,  avg # of iterations =  1.7

     total cpu time spent up to now is       11.7 secs

     total energy              =     -94.47487012 Ry
     estimated scf accuracy    <       0.00010226 Ry

     iteration #  5     ecut=   108.00 Ry     beta= 0.70
     Davidson diagonalization with overlap
     ethr =  6.39E-07,  avg # of iterations =  5.2

     total cpu time spent up to now is       13.8 secs

     total energy              =     -94.47489300 Ry
     estimated scf accuracy    <       0.00000310 Ry

     iteration #  6     ecut=   108.00 Ry     beta= 0.70
     Davidson diagonalization with overlap
     ethr =  1.94E-08,  avg # of iterations =  1.7

     total cpu time spent up to now is       15.4 secs

     total energy              =     -94.47489342 Ry
     estimated scf accuracy    <       0.00000166 Ry

     iteration #  7     ecut=   108.00 Ry     beta= 0.70
     Davidson diagonalization with overlap
     ethr =  1.04E-08,  avg # of iterations =  1.1

     total cpu time spent up to now is       17.1 secs

     total energy              =     -94.47489365 Ry
     estimated scf accuracy    <          2.1E-09 Ry

     iteration #  8     ecut=   108.00 Ry     beta= 0.70
     Davidson diagonalization with overlap
     ethr =  1.33E-11,  avg # of iterations =  2.3

     total cpu time spent up to now is       19.1 secs

     total energy              =     -94.47489365 Ry
     estimated scf accuracy    <          1.4E-10 Ry

     iteration #  9     ecut=   108.00 Ry     beta= 0.70
     Davidson diagonalization with overlap
     ethr =  8.54E-13,  avg # of iterations =  1.7

     total cpu time spent up to now is       20.9 secs

     End of self-consistent calculation

          k = 0.0000 0.0000 0.0000 (  4477 PWs)   bands (ev):

   -24.6559  -7.2884  -6.3027  -6.3027  -6.3027   7.7322   7.7322   7.7322
    11.6313  13.9597  13.9597  13.9597  16.0992  16.0992  20.2225  30.8530

          k =-0.0833 0.0833-0.0833 (  4423 PWs)   bands (ev):

   -24.6475  -7.4790  -6.3081  -6.3081  -6.1334   7.5165   7.6450   7.6450
    11.9573  13.8747  14.0937  14.0937  16.2787  16.2787  20.6819  30.1500

          k =-0.1667 0.1667-0.1667 (  4429 PWs)   bands (ev):

   -24.6242  -7.8476  -6.3228  -6.3228  -5.8234   7.0257   7.4202   7.4202
    12.7674  13.7474  14.4802  14.4802  16.7722  16.7722  21.8555  28.4744

          k =-0.2500 0.2500-0.2500 (  4420 PWs)   bands (ev):

   -24.5921  -8.2180  -6.3426  -6.3426  -5.5331   6.4841   7.1396   7.1396
    13.6835  13.8745  15.0670  15.0670  17.4774  17.4774  23.1670  26.9902

          k =-0.3333 0.3333-0.3333 (  4419 PWs)   bands (ev):

   -24.5596  -8.5210  -6.3622  -6.3622  -5.3105   6.0240   6.8834   6.8834
    13.9010  14.8837  15.7432  15.7432  18.2917  18.2917  23.3649  25.5181

          k =-0.4167 0.4167-0.4167 (  4407 PWs)   bands (ev):

   -24.5357  -8.7179  -6.3764  -6.3764  -5.1725   5.7202   6.7085   6.7085
    14.1363  15.7118  16.3116  16.3116  19.1086  19.1086  22.6753  23.8564

          k = 0.5000-0.5000 0.5000 (  4446 PWs)   bands (ev):

   -24.5269  -8.7860  -6.3816  -6.3816  -5.1258   5.6144   6.6468   6.6468
    14.2486  16.0363  16.5376  16.5376  19.5521  19.5521  22.3449  23.1047

          k = 0.0000 0.1667 0.0000 (  4436 PWs)   bands (ev):

   -24.6447  -7.5154  -6.3266  -6.3266  -6.0750   7.3348   7.6981   7.6981
    12.0230  13.6252  14.2516  14.2516  16.1928  16.4737  20.8249  30.3433

          k =-0.0833 0.2500-0.0833 (  4429 PWs)   bands (ev):

   -24.6264  -7.7762  -6.3525  -6.3392  -5.8569   6.9557   7.5425   7.5888
    12.5925  13.3930  14.5843  14.6516  16.4610  16.9493  21.7455  28.7142

          k =-0.1667 0.3333-0.1667 (  4427 PWs)   bands (ev):

   -24.5973  -8.1055  -6.3789  -6.3520  -5.6146   6.5452   7.2386   7.3618
    13.3593  13.4854  15.0483  15.2365  17.0385  17.5846  23.0461  26.8398

          k =-0.2500 0.4167-0.2500 (  4410 PWs)   bands (ev):

   -24.5650  -8.4054  -6.3985  -6.3749  -5.4097   6.1713   6.9420   7.0953
    13.5548  14.4400  15.6675  15.8909  17.8445  18.2721  23.5590  25.5693

          k =-0.3333 0.5000-0.3333 (  4407 PWs)   bands (ev):

   -24.5383  -8.6234  -6.4064  -6.4033  -5.2673   5.8862   6.7486   6.8616
    13.9027  15.1429  16.3900  16.4265  18.7653  18.9597  22.6655  23.9774

          k = 0.5833-0.4167 0.5833 (  4420 PWs)   bands (ev):

   -24.5244  -8.7293  -6.4293  -6.4005  -5.1969   5.7371   6.6928   6.7112
    14.1953  15.4438  16.6333  16.9075  19.4378  19.5398  21.9432  23.2123

          k = 0.5000-0.3333 0.5000 (  4414 PWs)   bands (ev):

   -24.5273  -8.7101  -6.4451  -6.3823  -5.2028   5.7545   6.6718   6.7738
    14.1809  15.4240  16.3969  16.8492  19.3062  19.4484  22.0269  23.5893

          k = 0.4167-0.2500 0.4167 (  4417 PWs)   bands (ev):

   -24.5462  -8.5686  -6.4455  -6.3568  -5.2870   5.9429   6.7504   6.9695
    13.9109  14.9942  15.8154  16.3708  18.6001  18.7126  22.9048  24.4051

          k = 0.3333-0.1667 0.3333 (  4416 PWs)   bands (ev):

   -24.5757  -8.3241  -6.4286  -6.3305  -5.4480   6.2795   6.9340   7.2363
    13.6483  14.1542  15.1366  15.7646  17.6690  18.0122  23.5911  25.2890

          k = 0.2500-0.0833 0.2500 (  4422 PWs)   bands (ev):

   -24.6079  -8.0124  -6.3961  -6.3105  -5.6753   6.7170   7.1875   7.5003
    13.1967  13.5665  14.5625  15.1178  16.9193  17.3018  22.6081  26.9273

          k = 0.1667-0.0000 0.1667 (  4431 PWs)   bands (ev):

   -24.6341  -7.6939  -6.3516  -6.3022  -5.9359   7.1787   7.4508   7.6586
    12.3997  13.6807  14.1998  14.5266  16.4336  16.6830  21.3700  28.9253

          k = 0.0000 0.3333 0.0000 (  4428 PWs)   bands (ev):

   -24.6139  -7.8439  -6.3915  -6.3915  -5.7905   6.6970   7.6317   7.6317
    12.7868  12.9007  15.0522  15.0522  16.4617  17.3426  22.3404  28.5676

          k =-0.0833 0.4167-0.0833 (  4432 PWs)   bands (ev):

   -24.5900  -8.0270  -6.4290  -6.4202  -5.6943   6.4691   7.4814   7.5326
    12.6600  13.3814  15.5631  15.6229  16.8079  17.8228  23.4450  26.7372

          k =-0.1667 0.5000-0.1667 (  4417 PWs)   bands (ev):

   -24.5609  -8.2488  -6.4552  -6.4504  -5.5896   6.3096   7.1832   7.3311
    12.7435  14.2086  16.0805  16.2379  17.4820  18.3272  23.9517  25.5001

          k =-0.2500 0.5833-0.2500 (  4407 PWs)   bands (ev):

   -24.5343  -8.4416  -6.4996  -6.4634  -5.4867   6.1937   6.9141   7.0952
    13.1255  14.9025  16.5849  16.7226  18.3766  18.9225  22.6112  24.2226

          k = 0.6667-0.3333 0.6667 (  4412 PWs)   bands (ev):

   -24.5176  -8.5635  -6.5570  -6.4515  -5.3995   6.0734   6.8209   6.8884
    13.6972  15.0611  16.9139  17.0225  19.1358  19.6599  21.5193  23.5053

          k = 0.5833-0.2500 0.5833 (  4405 PWs)   bands (ev):

   -24.5153  -8.5950  -6.6002  -6.4225  -5.3445   5.9818   6.7559   6.9104
    14.1732  14.8444  16.6870  17.0386  19.2918  20.1157  21.2476  23.8085

          k = 0.5000-0.1667 0.5000 (  4414 PWs)   bands (ev):

   -24.5282  -8.5351  -6.6093  -6.3839  -5.3380   5.9908   6.7226   7.1026
    14.0006  14.8143  16.1135  16.6284  19.0016  19.5443  21.8353  24.0663

          k = 0.4167-0.0833 0.4167 (  4417 PWs)   bands (ev):

   -24.5525  -8.3984  -6.5738  -6.3460  -5.3927   6.1267   6.7950   7.3189
    13.6486  14.4531  15.4486  16.2525  18.4218  18.5212  23.1061  24.4067

          k = 0.3333 0.0000 0.3333 (  4419 PWs)   bands (ev):

   -24.5817  -8.2118  -6.4959  -6.3190  -5.5113   6.3804   6.9609   7.4764
    13.4854  13.8013  14.8979  15.8002  17.4618  17.9251  23.6887  24.8941

          k = 0.0000 0.5000 0.0000 (  4432 PWs)   bands (ev):

   -24.5721  -8.0215  -6.4793  -6.4793  -5.7825   6.4257   7.5914   7.5914
    12.1530  13.6175  16.1796  16.1796  16.8661  18.0562  24.3524  26.6956

          k =-0.0833 0.5833-0.0833 (  4429 PWs)   bands (ev):

   -24.5483  -8.0916  -6.5267  -6.5165  -5.8419   6.4566   7.4659   7.5189
    11.9976  14.1989  16.6988  16.7518  17.2980  18.3114  24.4465  25.5187

          k =-0.1667 0.6667-0.1667 (  4416 PWs)   bands (ev):

   -24.5249  -8.1984  -6.6135  -6.5312  -5.8131   6.5347   7.1945   7.3468
    12.2182  14.9131  16.8415  17.1570  18.0593  18.9098  22.6427  24.4942

          k = 0.7500-0.2500 0.7500 (  4415 PWs)   bands (ev):

   -24.5083  -8.3009  -6.7265  -6.5198  -5.7059   6.5346   7.0065   7.1339
    12.7558  15.2744  16.7967  17.3502  18.7485  19.9215  21.2857  23.8833

          k = 0.6667-0.1667 0.6667 (  4404 PWs)   bands (ev):

   -24.5029  -8.3777  -6.8036  -6.4850  -5.5745   6.3471   6.9373   7.0729
    13.4911  14.9406  16.8506  17.1636  19.0644  20.5224  21.1117  23.8991

          k = 0.5833-0.0833 0.5833 (  4415 PWs)   bands (ev):

   -24.5104  -8.4222  -6.8020  -6.4357  -5.4617   6.1680   6.7999   7.2100
    14.1806  14.4018  16.6147  16.6332  19.0851  20.6024  21.2632  23.5808

          k = 0.5000 0.0000 0.5000 (  4403 PWs)   bands (ev):

   -24.5286  -8.4308  -6.7159  -6.3847  -5.3960   6.0879   6.7486   7.3079
    13.8858  14.5869  15.9728  16.3891  18.8992  19.6715  21.8168  24.1923

          k = 0.0000 0.6667 0.0000 (  4424 PWs)   bands (ev):

   -24.5306  -7.9784  -6.5662  -6.5662  -6.1128   6.6372   7.5966   7.5966
    11.5566  14.4700  17.3265  17.3904  17.3904  18.1652  24.1080  25.2758

          k =-0.0833 0.7500-0.0833 (  4403 PWs)   bands (ev):

   -24.5125  -7.9341  -6.6807  -6.5916  -6.2150   6.8332   7.4882   7.5431
    11.5204  14.9936  17.3456  17.5638  18.0076  18.6947  22.6213  24.5718

          k = 0.8333-0.1667 0.8333 (  4403 PWs)   bands (ev):

   -24.4989  -7.9626  -6.8947  -6.5867  -6.0772   6.9763   7.2356   7.3840
    11.8809  15.5662  16.7142  17.8314  18.4340  19.8821  21.3001  24.1401

          k = 0.7500-0.0833 0.7500 (  4406 PWs)   bands (ev):

   -24.4934  -8.0758  -7.0060  -6.5524  -5.8628   6.7757   7.1717   7.2085
    12.5539  15.5325  16.4673  17.7608  18.6931  20.4877  21.2668  23.7905

          k = 0.6667-0.0000 0.6667 (  4412 PWs)   bands (ev):

   -24.4977  -8.2518  -6.9579  -6.4974  -5.6449   6.4447   6.9614   7.2482
    13.4086  14.8843  16.6202  17.2360  18.9546  20.3282  22.5321  22.6083

          k = 0.0000 0.8333 0.0000 (  4416 PWs)   bands (ev):

   -24.5004  -7.7052  -6.6576  -6.6292  -6.6292   7.0684   7.6247   7.6247
    11.1808  15.1906  17.7121  17.9691  18.3697  18.3697  22.1153  24.3208

          k = 0.9167-0.0833 0.9167 (  4397 PWs)   bands (ev):

   -24.4919  -7.5830  -7.0396  -6.6347  -6.4523   7.2202   7.5094   7.5706
    11.2739  15.5348  17.2832  17.9306  18.5708  19.3610  21.3149  24.0945

          k = 0.8333 0.0000 0.8333 (  4396 PWs)   bands (ev):

   -24.4894  -7.7404  -7.1463  -6.6069  -6.1722   7.1900   7.2690   7.4028
    11.7656  15.9749  16.3817  18.2796  18.3213  20.5367  20.7351  23.9091

          k = 0.0000-1.0000 0.0000 (  4360 PWs)   bands (ev):

   -24.4894  -7.2555  -7.2173  -6.6521  -6.6521   7.2887   7.6397   7.6397
    11.0531  15.4665  17.8667  17.9341  18.7585  18.7585  21.2746  23.9828

          k =-0.1667 0.3333 0.0000 (  4439 PWs)   bands (ev):

   -24.6052  -7.9797  -6.4196  -6.3422  -5.6963   6.6293   7.3331   7.5800
    13.1374  13.1440  14.9001  15.2699  16.7610  17.4726  22.7419  26.9106

          k =-0.2500 0.4167-0.0833 (  4416 PWs)   bands (ev):

   -24.5761  -8.2234  -6.4797  -6.3553  -5.5350   6.3408   7.0593   7.4222
    13.1559  13.9147  15.3672  15.9004  17.4002  18.0729  23.8238  25.0418

          k =-0.3333 0.5000-0.1667 (  4411 PWs)   bands (ev):

   -24.5468  -8.4414  -6.5162  -6.3843  -5.4086   6.1171   6.8395   7.1806
    13.4358  14.6633  15.9748  16.3986  18.2966  18.7067  22.9958  24.5225

          k = 0.5833-0.4167 0.7500 (  4412 PWs)   bands (ev):

   -24.5251  -8.5893  -6.5291  -6.4173  -5.3305   5.9695   6.7412   6.9481
    13.8866  14.9926  16.5615  16.8313  19.0497  19.4794  21.8368  23.7457

          k = 0.5000-0.3333 0.6667 (  4422 PWs)   bands (ev):

   -24.5172  -8.6415  -6.5298  -6.4332  -5.3043   5.9166   6.7621   6.8097
    14.1855  14.9479  16.7803  17.1029  19.3794  19.8797  21.3843  23.5987

          k =-0.1667 0.5000 0.0000 (  4427 PWs)   bands (ev):

   -24.5661  -8.1374  -6.5116  -6.4313  -5.6769   6.3741   7.3042   7.5266
    12.4607  13.9191  16.0494  16.2268  17.2155  18.2137  24.4194  24.9334

          k =-0.2500 0.5833-0.0833 (  4418 PWs)   bands (ev):

   -24.5399  -8.2694  -6.5797  -6.4659  -5.6334   6.3483   7.0584   7.3897
    12.6042  14.5932  16.5075  16.6227  17.9499  18.7595  23.1139  24.6997

          k = 0.6667-0.3333 0.8333 (  4411 PWs)   bands (ev):

   -24.5184  -8.3827  -6.6317  -6.5101  -5.5680   6.3276   6.8964   7.1805
    13.0532  14.9963  16.6867  17.0600  18.6738  19.6141  21.7245  23.9487

          k = 0.5833-0.2500 0.7500 (  4407 PWs)   bands (ev):

   -24.5076  -8.4508  -6.6825  -6.5153  -5.5017   6.2458   6.9136   6.9880
    13.6978  14.7513  16.9169  17.1994  19.1560  20.3912  20.9466  23.8320

          k = 0.5000-0.1667 0.6667 (  4414 PWs)   bands (ev):

   -24.5103  -8.4628  -6.7091  -6.4788  -5.4555   6.1691   6.8246   7.0896
    14.0522  14.4689  16.8022  16.9390  19.1271  20.4629  21.0938  23.6909

          k = 0.4167-0.0833 0.5833 (  4417 PWs)   bands (ev):

   -24.5259  -8.4209  -6.6825  -6.4253  -5.4433   6.1539   6.7902   7.2686
    13.5565  14.7082  16.3904  16.4813  18.7909  19.6574  21.8233  24.1564

          k = 0.3333 0.0000 0.5000 (  4416 PWs)   bands (ev):

   -24.5500  -8.3358  -6.5988  -6.3783  -5.4713   6.2087   6.8772   7.4000
    13.2181  14.4124  15.8112  16.2978  18.1737  18.6655  23.1700  24.4611

          k =-0.1667 0.6667-0.0000 (  4409 PWs)   bands (ev):

   -24.5274  -8.0888  -6.6024  -6.5689  -5.9337   6.5932   7.3277   7.5204
    11.9011  14.7053  16.9141  17.3064  17.7096  18.6969  23.1271  24.8361

          k = 0.7500-0.2500 0.9167 (  4413 PWs)   bands (ev):

   -24.5090  -8.1170  -6.7267  -6.6236  -5.8844   6.7234   7.1193   7.4002
    12.1817  15.2178  16.6457  17.6861  18.2983  19.6175  21.7417  24.1130

          k = 0.6667-0.1667 0.8333 (  4406 PWs)   bands (ev):

   -24.4981  -8.1725  -6.8621  -6.6148  -5.7603   6.6506   7.0912   7.2093
    12.7736  15.1672  16.5399  17.7901  18.8164  20.6750  20.8223  23.7864

          k = 0.5833-0.0833 0.7500 (  4403 PWs)   bands (ev):

   -24.4977  -8.2563  -6.9028  -6.5654  -5.6275   6.4429   7.0012   7.2078
    13.5571  14.5528  16.6297  17.5220  19.0060  20.3947  21.7668  23.2079

          k = 0.5000 0.0000 0.6667 (  4419 PWs)   bands (ev):

   -24.5079  -8.3506  -6.8306  -6.4939  -5.5171   6.2679   6.8492   7.2781
    13.9474  14.3153  16.5250  16.9662  18.9881  20.5861  21.3648  23.4881

          k = 0.8333-0.1667 1.0000 (  4403 PWs)   bands (ev):

   -24.4992  -7.8319  -6.8491  -6.6682  -6.2259   7.0362   7.3679   7.5403
    11.5460  15.4016  16.9485  17.9710  18.3426  19.3832  21.6648  24.0705

          k = 0.7500-0.0833 0.9167 (  4393 PWs)   bands (ev):

   -24.4913  -7.8369  -7.0465  -6.6870  -6.0474   7.0503   7.2307   7.4198
    11.9594  15.7573  16.2491  18.2979  18.5474  20.4145  20.8756  23.6410

          k = 0.6667 0.0000 0.8333 (  4396 PWs)   bands (ev):

   -24.4907  -8.0118  -7.0491  -6.6444  -5.8323   6.7543   7.2204   7.2575
    12.6744  15.2179  16.3574  18.1276  18.7357  20.3783  21.6192  23.1967

          k =-0.1667-1.0000-0.0000 (  4386 PWs)   bands (ev):

   -24.4890  -7.5353  -7.1814  -6.6921  -6.3165   7.2787   7.3713   7.5522
    11.4251  15.7177  16.7985  18.0970  18.7623  19.7822  20.9882  23.7424

          k = 0.6667-0.3333 1.0000 (  4418 PWs)   bands (ev):

   -24.5189  -8.2738  -6.7001  -6.5391  -5.6380   6.4227   6.9362   7.3772
    12.7971  14.8822  16.4792  17.1087  18.4567  19.6844  21.8553  24.1919

          k = 0.5833-0.2500 0.9167 (  4406 PWs)   bands (ev):

   -24.5034  -8.2660  -6.7821  -6.6293  -5.6207   6.4494   6.9572   7.2684
    13.2865  14.6585  16.5146  17.5906  18.8716  20.5225  21.1891  23.5340

          k = 0.5000-0.1667 0.8333 (  4408 PWs)   bands (ev):

   -24.4977  -8.2607  -6.8100  -6.6701  -5.6111   6.4412   7.0756   7.1329
    13.9195  14.0423  16.6377  17.7679  19.0939  20.5351  21.2374  23.4883

          k = 0.6667-0.1667 1.0000 (  4413 PWs)   bands (ev):

   -24.4964  -8.0407  -6.8434  -6.7732  -5.8273   6.7682   7.1103   7.3871
    12.5013  15.1624  16.3036  18.2676  18.5786  20.4058  21.1656  23.4502

          k = 0.5833-0.0833 0.9167 (  4403 PWs)   bands (ev):

   -24.4906  -8.0280  -6.9509  -6.8045  -5.7386   6.6544   7.2188   7.2830
    13.1173  14.5198  16.3451  18.4384  18.9198  20.4018  21.5957  22.8910

          k = 0.5000 0.0000 0.8333 (  4403 PWs)   bands (ev):

   -24.4932  -8.1231  -6.9131  -6.7497  -5.6685   6.5431   7.1162   7.2856
    13.8048  13.9143  16.4372  18.1720  18.9672  20.3475  22.0804  22.6150

          k =-0.3333-1.0000 0.0000 (  4388 PWs)   bands (ev):

   -24.4882  -7.8426  -7.0821  -6.7998  -5.8937   6.8763   7.2664   7.3956
    12.3978  15.2619  16.1230  18.6583  18.7701  20.5309  21.0224  23.0902

          k =-0.5000-1.0000 0.0000 (  4388 PWs)   bands (ev):

   -24.4879  -7.9554  -6.9430  -6.9430  -5.7211   6.6448   7.2936   7.2936
    13.7391  13.7391  16.2875  18.7740  18.9861  20.3385  22.1507  22.1507

     the Fermi energy is    10.0528 ev

!    total energy              =     -94.47489365 Ry
     estimated scf accuracy    <          6.3E-11 Ry
     smearing contrib. (-TS)   =      -0.00000000 Ry
     internal energy E=F+TS    =     -94.47489365 Ry

     The total energy is F=E-TS. E is the sum of the following terms:
     one-electron contribution =     -18.77828920 Ry
     hartree contribution      =      17.46206293 Ry
     xc contribution           =     -15.91475792 Ry
     ewald contribution        =     -77.24390946 Ry

     convergence has been achieved in   9 iterations

     Writing all to output data dir out/mp-2472.save/
 
     init_run     :      1.23s CPU      1.62s WALL (       1 calls)
     electrons    :     17.66s CPU     19.18s WALL (       1 calls)

     Called by init_run:
     wfcinit      :      1.15s CPU      1.52s WALL (       1 calls)
     potinit      :      0.02s CPU      0.02s WALL (       1 calls)
     hinit0       :      0.01s CPU      0.03s WALL (       1 calls)

     Called by electrons:
     c_bands      :     14.86s CPU     16.07s WALL (       9 calls)
     sum_band     :      2.70s CPU      3.00s WALL (       9 calls)
     v_of_rho     :      0.08s CPU      0.08s WALL (      10 calls)
     mix_rho      :      0.02s CPU      0.02s WALL (       9 calls)

     Called by c_bands:
     init_us_2    :      0.20s CPU      0.22s WALL (    1368 calls)
     init_us_2:cp :      0.20s CPU      0.22s WALL (    1368 calls)
     cegterg      :     13.45s CPU     14.15s WALL (     648 calls)

     Called by *egterg:
     cdiaghg      :      0.69s CPU      0.73s WALL (    2501 calls)
     h_psi        :     12.74s CPU     13.47s WALL (    2573 calls)
     g_psi        :      0.06s CPU      0.06s WALL (    1853 calls)

     Called by h_psi:
     h_psi:calbec :      0.30s CPU      0.32s WALL (    2573 calls)
     vloc_psi     :     12.25s CPU     12.96s WALL (    2573 calls)
     add_vuspsi   :      0.15s CPU      0.16s WALL (    2573 calls)

     General routines
     calbec       :      0.30s CPU      0.31s WALL (    2573 calls)
     fft          :      0.04s CPU      0.06s WALL (      99 calls)
     ffts         :      0.00s CPU      0.00s WALL (       9 calls)
     fftw         :     13.80s CPU     14.64s WALL (   69030 calls)
     davcio       :      0.11s CPU      0.77s WALL (    2174 calls)
 
     Parallel routines
 
     PWSCF        :     19.04s CPU     21.76s WALL

 
   This run was terminated on:   2:43:25  18Nov2023            

=------------------------------------------------------------------------------=
   JOB DONE.
=------------------------------------------------------------------------------=
