
     Program PWSCF v.7.1 starts on  5Apr2024 at 13:23:53 

     This program is part of the open-source Quantum ESPRESSO suite
     for quantum simulation of materials; please cite
         "P. Giannozzi et al., J. Phys.:Condens. Matter 21 395502 (2009);
         "P. Giannozzi et al., J. Phys.:Condens. Matter 29 465901 (2017);
         "P. Giannozzi et al., J. Chem. Phys. 152 154105 (2020);
          URL http://www.quantum-espresso.org", 
     in publications or presentations arising from this work. More details at
     http://www.quantum-espresso.org/quote

     Parallel version (MPI), running on    16 processors

     MPI processes distributed on     1 nodes
     223712 MiB available memory on the printing compute node when the environment starts
 
     Reading input from pw_mp-2201_nscf_k260_E51.in
Warning: card &IONS ignored
Warning: card / ignored
Warning: card &CELL ignored
Warning: card / ignored

     Current dimensions of program PWSCF are:
     Max number of different atomic species (ntypx) = 10
     Max number of k-points (npk) =  40000
     Max angular momentum in pseudopotentials (lmaxx) =  4

     Atomic positions and unit cell read from directory:
     out/mp-2201.save/
     Atomic positions from file used, from input discarded
 
 
     R & G space division:  proc/nbgrp/npool/nimage =      16
     Subspace diagonalization in iterative solution of the eigenvalue problem:
     one sub-group per band group will be used
     scalapack distributed-memory algorithm (size of sub-group:  4*  4 procs)

 
     Parallelization info
     --------------------
     sticks:   dense  smooth     PW     G-vecs:    dense   smooth      PW
     Min          59      59     17                 1222     1222     195
     Max          60      60     18                 1226     1226     198
     Sum         955     955    283                19603    19603    3143
 
     Using Slab Decomposition
 


     bravais-lattice index     =            2
     lattice parameter (alat)  =      11.6816  a.u.
     unit-cell volume          =     398.5191 (a.u.)^3
     number of atoms/cell      =            2
     number of atomic types    =            2
     number of electrons       =        20.00
     number of Kohn-Sham states=          752
     kinetic-energy cutoff     =      51.0000  Ry
     charge density cutoff     =     204.0000  Ry
     Exchange-correlation= PBE
                           (   1   4   3   4   0   0   0)

     celldm(1)=  11.681619  celldm(2)=   0.000000  celldm(3)=   0.000000
     celldm(4)=   0.000000  celldm(5)=   0.000000  celldm(6)=   0.000000

     crystal axes: (cart. coord. in units of alat)
               a(1) = (  -0.500000   0.000000   0.500000 )  
               a(2) = (   0.000000   0.500000   0.500000 )  
               a(3) = (  -0.500000   0.500000   0.000000 )  

     reciprocal axes: (cart. coord. in units 2 pi/alat)
               b(1) = ( -1.000000 -1.000000  1.000000 )  
               b(2) = (  1.000000  1.000000  1.000000 )  
               b(3) = ( -1.000000  1.000000 -1.000000 )  


     PseudoPot. # 1 for Pb read from file:
     /usr/scratch4/magr4985/FGWC/FGWC/pseudo/SG15/Pb.upf
     MD5 check sum: 7f27c247474026287e0dbe0f3167d60b
     Pseudo is Norm-conserving, Zval = 14.0
     Generated using ONCVPSP code by D. R. Hamann
     Using radial grid of  602 points,  8 beta functions with: 
                l(1) =   0
                l(2) =   0
                l(3) =   1
                l(4) =   1
                l(5) =   2
                l(6) =   2
                l(7) =   3
                l(8) =   3

     PseudoPot. # 2 for Se read from file:
     /usr/scratch4/magr4985/FGWC/FGWC/pseudo/SG15/Se.upf
     MD5 check sum: e78e48a4f5d8ce1f8dc76ec1271f249c
     Pseudo is Norm-conserving, Zval =  6.0
     Generated using ONCVPSP code by D. R. Hamann
     Using radial grid of  602 points,  6 beta functions with: 
                l(1) =   0
                l(2) =   0
                l(3) =   1
                l(4) =   1
                l(5) =   2
                l(6) =   2

     atomic species   valence    mass     pseudopotential
        Pb            14.00   207.20000     Pb( 1.00)
        Se             6.00    78.96000     Se( 1.00)

     48 Sym. Ops., with inversion, found



   Cartesian axes

     site n.     atom                  positions (alat units)
         1           Pb  tau(   1) = (   0.0000000   0.0000000   0.0000000  )
         2           Se  tau(   2) = (  -0.5000000   0.5000000   0.5000000  )

     number of k points=    16  Gaussian smearing, width (Ry)=  0.0005
                       cart. coord. in units 2pi/alat
        k(    1) = (   0.0000000   0.0000000   0.0000000), wk =   0.0092593
        k(    2) = (  -0.1666667   0.1666667  -0.1666667), wk =   0.0740741
        k(    3) = (  -0.3333333   0.3333333  -0.3333333), wk =   0.0740741
        k(    4) = (   0.5000000  -0.5000000   0.5000000), wk =   0.0370370
        k(    5) = (   0.0000000   0.3333333   0.0000000), wk =   0.0555556
        k(    6) = (  -0.1666667   0.5000000  -0.1666667), wk =   0.2222222
        k(    7) = (   0.6666667  -0.3333333   0.6666667), wk =   0.2222222
        k(    8) = (   0.5000000  -0.1666667   0.5000000), wk =   0.2222222
        k(    9) = (   0.3333333   0.0000000   0.3333333), wk =   0.1111111
        k(   10) = (   0.0000000   0.6666667   0.0000000), wk =   0.0555556
        k(   11) = (   0.8333333  -0.1666667   0.8333333), wk =   0.2222222
        k(   12) = (   0.6666667  -0.0000000   0.6666667), wk =   0.1111111
        k(   13) = (   0.0000000  -1.0000000   0.0000000), wk =   0.0277778
        k(   14) = (   0.6666667  -0.3333333   1.0000000), wk =   0.2222222
        k(   15) = (   0.5000000  -0.1666667   0.8333333), wk =   0.2222222
        k(   16) = (  -0.3333333  -1.0000000   0.0000000), wk =   0.1111111

     Dense  grid:    19603 G-vectors     FFT dimensions: (  40,  40,  40)

     Estimated max dynamical RAM per process >      52.45 MB

     Estimated total dynamical RAM >     839.21 MB

     The potential is recalculated from file :
     out/mp-2201.save/charge-density

     Starting wfcs are random

     Band Structure Calculation
     Davidson diagonalization with overlap

     ethr =  5.00E-06,  avg # of iterations = 10.1

     total cpu time spent up to now is       96.7 secs

     End of band structure calculation

          k = 0.0000 0.0000 0.0000 (  2445 PWs)   bands (ev):

    -8.5123  -8.5123  -8.5123  -8.5052  -8.5052  -5.0612   1.9325   6.5473
     6.5473   6.5473  12.9285  12.9285  12.9285  14.8784  14.8784  14.8784
    16.5008  16.5594  17.2923  17.2923  28.0228  28.0228  28.0228  29.2444
    29.2444  29.2444  30.9202  30.9202  30.9202  32.2522  32.2522  35.0738
    36.7194  36.7194  36.7194  37.5863  39.5525  39.5525  39.5525  40.9514
    40.9514  41.7888  41.7888  41.7888  42.9876  42.9876  42.9876  43.7386
    43.7386  43.7386  44.4988  46.8375  46.8375  46.8375  46.9630  46.9630
    46.9630  47.5987  47.5987  48.4119  50.0213  50.0213  50.0213  52.8679
    56.1317  56.1317  56.1317  58.3314  58.3314  58.3314  62.9573  62.9573
    63.5882  65.8118  69.4184  69.4184  69.4184  69.9574  69.9574  69.9574
    70.3881  70.3881  70.3881  71.7586  71.7586  72.6621  72.6621  72.6621
    74.6253  74.6253  74.6253  75.9642  75.9642  75.9642  76.0884  76.0884
    76.0884  77.2994  77.2994  77.3262  77.3262  77.3262  78.1957  78.1957
    78.8025  79.2793  79.2793  79.2793  80.1845  80.2336  80.6122  80.6122
    82.0483  82.0483  82.0483  83.3255  83.3255  83.3255  85.8033  85.9238
    85.9238  85.9238  91.6719  91.6719  91.6719  92.8304  92.8304  92.8304
    93.3439  93.3439  93.8950  93.8950  93.8950  94.1143  94.1143  94.1143
    94.7320  94.7611  94.7611  96.4042  96.4042  96.4042  97.3826  97.6767
    97.6767  97.6767  98.4087  98.4087  98.4087 101.7680 103.5440 103.5440
   103.5440 104.8402 104.8402 104.8402 104.9815 104.9815 104.9815 108.0385
   108.0385 108.0385 109.5349 109.5997 109.5997 109.6837 109.6837 109.6837
   109.7168 110.5860 110.5860 111.0888 111.0888 111.0888 111.4968 111.4968
   111.4968 118.7063 118.7063 118.7063 121.5077 121.5077 121.5077 122.1557
   122.4100 122.4100 123.6931 123.8004 123.8004 123.8004 126.0155 126.0155
   126.0155 129.6611 129.6611 129.9698 129.9698 129.9698 130.4001 131.9130
   132.4002 132.4002 132.4002 132.4941 132.4941 133.0203 133.0203 133.0203
   133.0809 133.0809 133.0809 133.5308 133.9507 133.9507 133.9507 134.8373
   135.7286 135.7286 135.7286 137.0749 137.1486 137.1486 137.7823 137.7823
   137.7823 138.4951 138.4951 138.4951 138.7625 138.7625 138.7625 139.1827
   139.1827 139.1827 139.4309 139.4309 139.4309 139.9025 139.9025 140.0324
   140.0324 140.0324 140.4670 140.4670 140.4670 140.6941 140.6941 140.6941
   140.8732 140.8732 140.9414 140.9414 140.9414 141.1105 141.1105 141.1252
   141.2910 141.2910 141.2910 149.0783 149.0783 149.0783 149.1953 149.1953
   149.1953 149.2470 149.2470 149.8398 149.8398 149.8398 151.1603 151.6516
   151.6516 151.6516 153.8563 153.8563 153.8563 156.4140 157.1401 157.1401
   157.1401 157.1540 157.1540 157.2806 158.4421 158.4421 158.4421 161.0002
   161.0002 161.0002 161.7289 165.0767 165.0767 166.5083 166.5083 166.5083
   167.4108 167.6610 167.6610 167.6610 167.7795 167.7795 167.7795 168.1583
   168.1583 168.1583 168.2021 168.2021 169.0202 169.0202 169.0202 170.1123
   170.1123 170.1123 170.1259 170.1259 170.1259 170.1431 170.1431 170.3273
   170.3273 170.3273 170.7300 170.7300 171.0004 171.2161 171.2161 171.2161
   172.4329 172.4329 172.4329 175.1569 175.1569 179.4964 179.4964 179.4964
   181.1250 182.1928 182.1928 182.1928 182.8257 184.9358 184.9358 184.9358
   185.5962 186.3645 186.3645 186.3645 187.4032 187.4032 187.4032 190.7261
   190.7261 191.4162 191.4162 191.4162 191.4793 191.4793 191.4793 191.6442
   192.8024 192.8024 192.8024 193.7790 193.7790 196.9060 196.9060 196.9060
   197.1979 197.1979 197.1979 197.5371 197.5371 197.5371 197.8202 197.8202
   197.8202 197.9932 197.9932 197.9932 198.7503 199.5732 200.9888 200.9888
   200.9888 201.0629 201.0629 201.0629 201.3862 201.3862 201.4417 201.4417
   201.4417 201.4467 201.4467 201.4950 201.4950 201.4950 202.2133 202.2133
   202.2133 202.3083 202.3083 202.3083 202.3274 204.0149 204.0149 204.0156
   204.0260 204.0260 204.0260 209.7194 211.6137 211.6137 211.6137 212.8983
   212.8983 212.8983 213.8507 215.4655 215.4655 215.4655 215.4931 215.4931
   215.7759 215.7759 215.8556 215.8556 215.8556 215.8558 215.8558 215.8558
   215.9408 215.9408 215.9408 218.1858 218.1858 218.1858 218.6573 218.6573
   219.4550 219.4550 219.6614 219.6614 219.6614 219.6703 219.6703 219.6703
   219.8178 219.8178 219.8178 219.8267 219.8267 219.8267 220.1226 220.1226
   220.4738 220.6005 220.6005 220.6005 220.9306 221.1708 221.1708 221.1708
   221.3571 221.3571 221.3571 221.5460 221.7071 221.7071 221.7071 222.4900
   222.4900 222.4900 222.5804 223.7496 223.7496 223.7496 225.5278 225.5278
   225.5278 226.0641 226.1373 226.1373 226.1470 226.1470 226.1470 226.2583
   226.2583 226.2583 226.5639 230.0507 230.0507 230.5446 230.5446 230.5446
   230.8172 230.8172 230.8172 230.9008 230.9008 230.9008 231.2911 231.2911
   231.2911 231.3067 231.3067 231.7003 231.9655 231.9655 231.9655 231.9912
   231.9912 233.4866 233.4866 233.4866 233.5874 233.5874 233.5874 233.7015
   233.7015 233.7015 233.8101 233.8101 233.8101 234.8221 234.8960 234.8960
   234.8960 234.9116 234.9116 236.0054 236.0054 239.3166 239.3166 239.3166
   240.9515 255.7562 255.7562 255.7562 256.0082 256.0082 256.0082 256.6292
   257.1113 258.9793 258.9793 258.9793 259.0844 259.0844 259.2111 259.2111
   259.2111 259.3958 259.3958 259.3958 259.6338 259.6338 259.6338 260.2519
   260.2519 260.2519 260.4696 260.4696 260.7533 260.7533 260.9485 261.1769
   261.1769 261.1769 261.3223 261.9221 261.9221 261.9221 262.0186 262.0186
   262.0186 262.0214 262.0214 262.0214 262.4773 262.4773 262.4773 262.6738
   262.9078 262.9078 262.9078 266.0381 266.0381 266.1198 266.1198 266.1198
   266.2213 266.2213 266.2213 266.2905 266.2905 266.2905 266.3155 266.3155
   266.3841 266.3841 266.3841 267.2322 267.2322 267.2856 267.2856 267.2856
   267.3859 275.2410 275.2410 275.2410 275.2674 275.2674 275.3120 275.3120
   275.3120 275.4195 275.4195 275.4195 275.9396 280.0599 280.1495 280.1495
   280.1495 280.2115 280.2115 280.8559 280.8559 280.8559 281.1282 281.1282
   281.1282 281.1561 281.1561 281.1561 281.2031 281.2031 281.2031 281.4241
   281.4241 281.4241 281.4692 281.4692 281.5702 281.6624 281.6624 281.6624
   282.2149 282.2149 282.9379 282.9379 282.9379 284.2789 284.3859 284.3859
   284.3859 289.5334 289.6989 289.6989 289.9583 289.9583 289.9583 290.0233
   290.0233 290.0233 290.0437 290.0437 290.0437 290.1036 290.1036 290.1036
   290.2002 290.7230 290.7230 290.7230 291.3014 294.6668 294.6668 294.6898
   294.6898 294.6898 294.8047 294.8047 294.8047 294.8249 294.8249 294.8249
   294.9032 295.6748 295.6748 295.6748 295.8770 295.8770 295.8770 295.8824
   295.8824 295.9025 295.9025 295.9025 295.9255 296.5979 296.5979 296.5979
   296.8215 296.8215 296.9177 296.9177 296.9177 297.0565 297.0565 297.0894
   297.0894 297.0894 297.1078 297.1148 297.1148 297.1148 297.1608 297.1778
   297.1778 297.1778 297.2012 297.2012 297.2012 304.3884 304.3884 304.8171
   304.8171 304.8171 305.6813 308.9143 308.9143 308.9143 309.0463 309.0463
   309.0463 309.0567 309.0567 309.0567 309.1126 309.1126 309.1126 309.6834
   309.6834 309.8133 309.8959 309.8959 309.8959 310.0167 310.0167 311.3927

          k =-0.1667 0.1667-0.1667 (  2475 PWs)   bands (ev):

    -8.5125  -8.5125  -8.5113  -8.5029  -8.5029  -4.8654   1.3407   6.6168
     6.6168   6.9465  11.4052  11.9334  11.9334  14.6724  15.4422  15.4422
    18.1014  18.7430  18.7562  18.7562  25.5122  25.8967  25.8967  28.7818
    28.7818  29.4979  31.2528  31.2528  31.5787  34.3943  34.3943  35.3071
    35.3305  35.3305  36.7047  37.7554  37.7566  38.3651  38.3651  38.7676
    39.3224  39.3224  41.4303  41.7985  41.7985  43.8057  44.1649  44.1649
    45.3087  45.3087  45.9093  45.9093  46.1065  46.1536  47.3603  47.3603
    49.1388  49.9054  50.1320  50.1320  52.1318  52.1318  52.4533  54.4430
    55.9785  55.9785  57.6950  58.2019  58.2019  58.2580  62.7598  62.9373
    62.9373  63.6964  63.6964  65.1063  66.5602  68.2992  68.5892  68.5892
    69.0312  69.0312  70.5328  70.9406  70.9406  72.2126  72.2753  72.2753
    72.7077  74.6760  74.8953  74.8953  75.5597  75.7210  75.7210  76.2906
    76.2906  77.1930  77.1930  77.7215  77.7215  77.7873  78.5677  78.6454
    79.0485  79.0485  80.9989  80.9989  81.5030  82.4361  83.1196  83.7605
    83.7605  84.1413  84.1413  85.1522  85.1522  86.5286  86.5286  86.7594
    86.8177  87.8732  88.3528  88.3528  88.4427  89.1193  89.1193  91.3587
    91.3587  91.9897  92.6697  93.1153  93.1153  94.1592  94.3084  95.2571
    95.6443  95.6443  95.6486  95.8717  95.8717  98.9781  99.0709  99.3737
    99.3737  99.6810  99.6810 100.6412 100.6412 102.0883 102.6472 102.6472
   103.3980 103.8777 103.8777 104.0824 104.4994 104.4994 105.7904 106.0562
   106.6583 106.6583 108.4873 108.4873 109.4659 110.4474 110.4474 110.5202
   110.5202 112.5203 112.9489 113.8084 113.8084 115.1413 115.3977 116.8257
   116.8257 117.6388 117.9407 117.9407 119.2197 119.2197 119.5557 120.8585
   121.2892 121.3964 121.3964 121.8838 123.7074 123.7074 124.5240 124.8940
   125.2025 125.2025 127.7316 127.7316 127.9779 127.9779 128.0490 128.4847
   128.4847 129.2533 129.3284 129.3284 129.4470 130.3932 130.3932 130.4045
   131.7520 131.7520 132.3611 133.3869 133.4899 133.4899 134.1413 134.1603
   134.1603 135.1492 135.1492 135.3000 135.8694 135.8694 136.0199 136.3999
   136.3999 137.3566 137.3579 137.3579 137.6386 137.8524 138.4253 138.4253
   139.2797 139.2797 139.3136 140.5571 140.5571 140.8342 141.3812 141.4765
   141.4765 141.9898 141.9898 142.2244 142.6907 143.0095 143.0095 143.7151
   143.7151 143.7765 143.7765 143.7906 144.5526 144.7722 145.9322 145.9657
   145.9657 147.0641 147.5241 148.0623 148.0623 148.7879 148.7879 148.8288
   150.1981 150.4862 150.4862 150.9473 150.9473 151.9133 152.9794 152.9794
   153.4142 153.4142 154.5546 154.5546 154.7609 155.9007 156.3249 156.3249
   157.2227 157.3139 157.6426 157.6426 158.7630 158.7630 160.0189 160.0189
   160.8060 161.2254 161.2254 161.3360 162.5671 162.5671 163.0668 163.0668
   163.2889 163.3113 164.1592 164.1592 164.3319 165.0144 165.0144 165.3033
   165.9936 165.9936 166.3303 167.1078 167.9918 167.9918 168.6113 168.6113
   168.9496 170.8134 172.1259 172.1259 172.1600 173.6949 173.6949 173.8286
   174.1540 174.2138 174.2138 174.7507 175.2013 175.2013 177.4745 177.8605
   177.8605 178.2126 178.4228 178.4228 178.6510 179.3830 179.3830 180.1469
   180.9791 180.9791 181.3460 181.6896 181.6896 183.7309 183.7309 184.2893
   185.3201 185.3596 185.3596 186.9112 187.0486 187.0486 187.3992 187.7669
   187.7669 188.4819 188.5083 188.5083 188.7115 189.0718 189.0718 189.8213
   189.8213 190.6343 190.8904 191.0232 191.0232 191.3904 191.7393 191.7393
   191.9364 193.0964 193.0964 194.1651 195.2069 195.2069 195.5657 195.6411
   195.6411 197.6695 199.6212 200.4574 200.4574 200.9139 200.9139 200.9861
   201.7923 201.7923 201.8963 201.9026 201.9718 201.9718 202.3184 202.3184
   202.9676 202.9676 203.1020 203.4422 204.1850 204.2049 204.2049 204.7242
   204.7242 205.6935 205.8683 206.0901 206.0901 206.4295 206.4295 206.7878
   207.4924 207.5975 207.5975 207.8672 207.8672 208.4287 208.6364 208.6364
   210.0115 210.2740 210.2740 210.7819 211.7227 212.0858 212.2233 212.2233
   213.2497 213.2497 213.4336 213.4586 213.9207 213.9207 214.2052 214.3091
   214.3091 214.6176 214.6176 214.7755 214.9128 214.9128 215.1631 215.1631
   215.4779 216.3609 216.3609 216.4164 216.8729 216.8729 217.0353 217.3216
   217.5029 217.5029 218.3686 219.0393 219.0715 219.0715 219.9534 219.9534
   220.4840 220.4840 220.5202 220.6183 220.6183 220.7085 221.7745 221.7745
   221.8733 222.0362 222.1623 222.1623 223.3953 223.3953 223.4756 223.8814
   223.9262 223.9262 225.6502 225.6502 226.1457 226.8773 226.8773 227.1408
   227.1408 227.2140 227.2202 227.6984 227.7026 227.7026 228.2210 228.2210
   229.0584 229.3082 229.3082 229.5204 229.6896 229.6896 229.8662 230.0605
   230.2949 230.8104 230.8104 231.0323 231.4992 231.4992 231.5820 231.5820
   234.4248 234.4248 235.0634 235.2912 235.4127 235.4127 235.7117 235.7117
   236.9547 236.9547 237.2009 237.6476 238.1836 238.8392 238.8392 239.1781
   239.4222 239.7331 239.7331 240.3473 240.5175 240.5175 241.5779 243.4869
   243.4869 243.9351 245.5141 245.5141 246.3212 246.8669 246.8669 247.6386
   247.6386 248.0426 248.1139 248.1139 248.3109 248.3109 248.3884 249.0051
   249.0051 249.1824 249.1824 249.3442 250.2317 250.6917 251.0029 251.0029
   251.7092 251.7092 252.3055 252.5488 252.5488 252.9777 253.3939 253.3939
   253.4586 257.7031 257.8610 257.8610 258.7372 258.7372 258.8945 259.1905
   259.2241 259.2241 260.0104 260.0104 260.1102 261.5156 261.5156 261.5979
   262.8389 262.8389 263.0017 263.5570 263.5570 263.7082 265.7724 265.8545
   265.8545 266.5911 266.5911 267.3406 268.4891 268.7528 268.7528 268.8321
   268.8321 269.1130 270.1058 270.3638 270.3638 270.6498 270.6498 270.8168
   270.8923 270.9187 270.9187 271.5579 271.5579 271.7872 271.8688 272.1594
   272.1594 272.1807 273.0877 273.4690 273.4690 274.2567 274.2567 274.2790
   274.3460 274.3460 274.5707 274.9840 274.9840 275.1790 276.0594 276.1716
   276.1716 276.4763 276.9713 276.9713 277.0472 277.9954 278.0905 278.0905
   278.5287 278.5287 278.9043 278.9043 279.0868 279.0960 279.2023 279.2023
   279.3792 281.1135 281.1135 281.9020 281.9137 281.9339 281.9339 282.2430
   282.5573 282.5573 283.3755 283.3851 283.3851 284.7618 284.7618 285.1624
   285.1624 285.2194 286.8532 286.8713 286.8713 290.2331 290.2331 290.2646
   290.5559 290.5559 290.6763 290.8393 290.8393 291.2498 291.7169 291.7169
   292.0447 292.0447 292.1895 292.3683 292.4368 292.7610 292.7610 293.0659
   293.0659 293.1293 293.5298 293.5447 293.5447 293.9193 293.9193 293.9923
   294.0835 294.2795 294.2795 294.3495 294.3495 294.3915 295.9186 295.9186
   296.7371 296.8981 296.8981 296.9811 296.9874 296.9874 297.2715 298.8227
   298.8227 298.9092 299.1101 299.1267 299.1267 299.3508 299.3508 299.3538
   299.4336 299.4336 299.4629 299.6772 299.8755 299.9006 299.9006 302.2582
   302.2582 304.3598 304.3598 304.4509 304.4509 304.4650 304.5413 305.7438
   305.7438 305.8528 306.3957 306.3957 307.8933 308.0175 308.2024 308.2024
   308.6180 308.6180 308.8844 309.0536 309.8902 309.8902 310.1128 310.8342
   310.8342 311.3746 311.8461 311.8461 311.8712 311.9466 311.9838 311.9838

          k =-0.3333 0.3333-0.3333 (  2448 PWs)   bands (ev):

    -8.5224  -8.5224  -8.5097  -8.4889  -8.4889  -4.3838   0.2307   6.8047
     6.8047   7.6468   9.6524  10.6046  10.6046  15.4087  16.8752  16.8752
    19.9549  21.4382  21.4382  22.0990  22.7328  22.7328  24.0368  28.7443
    28.7443  30.1610  30.7800  31.2213  31.2213  31.7182  32.3445  32.3445
    34.0994  35.4350  35.4350  35.4669  36.7508  36.7508  37.0167  38.5059
    40.3563  40.3563  41.4184  41.4184  42.6730  43.7024  44.3929  44.3929
    46.3305  46.3839  46.3839  48.2187  48.2187  49.2736  49.4556  49.4556
    50.0156  52.0772  52.0772  53.9670  54.7631  55.6501  55.6501  56.1785
    56.1785  56.5832  57.8613  57.9259  57.9259  59.5406  59.5406  59.7385
    61.4854  61.4854  61.5879  62.4741  63.3199  63.3199  64.7153  66.7354
    66.7354  66.9500  67.7771  70.2492  70.9144  70.9144  71.5660  71.5660
    71.5973  72.3020  72.3020  73.0889  75.4710  75.4710  76.6957  76.6957
    77.3712  77.5709  77.5709  77.7211  77.7379  77.7379  79.0969  79.3115
    79.8248  79.8248  80.9442  81.8308  81.8308  82.1982  84.7031  84.7031
    84.9454  85.7353  85.7353  85.9553  86.3493  86.3493  87.4249  87.4249
    87.7151  88.5253  89.6709  90.1799  90.4953  90.4953  91.7553  91.7553
    91.8381  93.2083  93.3630  93.3630  94.1009  94.1009  94.5557  94.5557
    95.0125  95.1350  96.7509  96.7509  97.3300  97.3842  97.3842  98.6047
    98.6047  99.3734 100.2273 100.7882 100.7882 101.3215 101.3215 103.0716
   103.4493 105.1914 105.1914 105.2509 105.7580 105.7580 106.5030 106.5030
   108.4395 108.5835 109.1195 109.3901 109.3901 111.4809 112.7719 112.7719
   114.2029 114.3362 114.9026 114.9026 115.7502 115.7502 116.1845 116.1845
   116.6780 116.7243 116.7243 117.4641 117.6880 117.8383 117.8383 119.1328
   119.5291 119.5291 120.0724 120.1817 120.5521 120.5521 122.1716 122.1716
   123.2918 123.5241 123.5241 123.7102 124.0625 124.0625 124.7760 125.6027
   125.6027 127.3672 127.4038 127.4038 128.3332 129.1367 130.4660 130.4660
   131.4570 131.4570 131.7991 132.0312 132.0312 132.8264 133.0746 133.1848
   133.1848 133.4563 134.3576 134.3576 135.0150 135.5645 135.5645 135.7287
   136.5644 136.5644 137.0577 137.2360 137.2360 137.6477 137.6477 138.0269
   138.0463 139.5322 139.5322 140.0813 140.3685 140.3685 142.1218 142.1659
   142.1659 143.7979 143.7979 143.9333 144.2236 144.6631 144.6631 145.2250
   145.3434 145.3434 145.8034 145.8034 146.0978 146.7818 146.7818 147.2301
   147.2941 147.5401 147.5401 148.2123 148.2123 149.5179 149.5179 149.6497
   150.4619 153.4947 153.4947 154.4117 154.6809 154.8818 155.1642 155.1642
   155.6619 155.9165 155.9165 156.3929 156.3929 156.6444 156.7156 156.7156
   156.7821 157.0982 158.6123 158.6123 159.7361 160.2165 160.2165 161.1776
   162.8011 162.8011 162.9022 162.9022 163.1430 163.1430 163.8159 164.2129
   164.3365 164.5954 164.5954 164.7853 165.2808 165.8533 165.8533 166.1040
   166.1040 167.2967 167.3965 167.3965 167.8158 168.3057 168.3057 168.9118
   168.9118 171.0958 171.3422 171.3422 173.4280 174.4753 174.5607 174.5607
   175.9091 175.9091 176.4273 176.6798 176.6963 176.6963 176.8483 176.8483
   177.1171 178.3507 178.3507 178.3867 178.4836 178.6713 178.6713 178.7807
   179.1426 179.1426 179.3967 180.1825 180.1825 181.8580 181.8580 182.0211
   183.0035 185.6383 186.1744 186.1744 186.5504 186.5504 186.7837 187.4981
   187.6508 187.6508 188.3751 188.3751 188.6151 189.0208 189.1929 189.1929
   189.2316 189.9449 189.9449 190.4480 190.9893 191.0297 191.0297 191.2841
   191.3861 191.3861 192.9173 192.9173 193.7194 193.7194 194.2341 195.1360
   195.6679 195.6679 196.4457 196.4457 196.6864 196.6864 196.9662 196.9897
   197.7778 197.7778 198.1772 198.1772 198.6586 198.7794 198.7794 199.2714
   199.4879 199.4879 200.2288 200.2288 200.3941 200.4153 202.4072 202.9480
   202.9480 203.3469 203.4145 203.4145 204.7241 204.7241 204.7738 205.6554
   206.0195 206.0195 206.4879 207.2369 207.2369 207.7325 207.7325 208.4488
   208.7897 208.8937 208.8937 209.1903 209.1903 209.4628 210.9473 211.1329
   211.1329 212.3842 212.6758 212.6758 213.4986 213.4986 214.0461 214.5064
   214.5950 214.5950 215.2860 215.9402 215.9402 216.3728 216.3728 216.7280
   216.7280 216.7902 216.8684 217.6395 217.8505 217.8505 218.5998 218.5998
   219.0283 219.9178 219.9546 219.9546 220.1545 220.3850 220.7048 220.7048
   221.5206 221.5206 221.5555 222.0526 222.2037 222.2037 222.9417 223.0193
   223.0193 224.1097 224.4263 224.6118 224.6118 225.1842 225.3708 225.3708
   226.0951 226.0951 226.1200 227.6327 227.6327 228.0467 228.1593 228.1593
   228.5949 228.7122 228.8512 228.8512 229.1255 229.7607 229.7607 230.0886
   230.0886 230.1771 230.5437 230.5437 232.8150 232.8150 233.2027 233.3707
   233.3707 234.5505 236.1518 236.7574 236.7574 236.8546 237.1191 237.1191
   237.5921 237.5921 238.4641 239.0513 239.1455 239.1455 240.0194 240.0194
   240.1871 241.8274 242.1314 242.1314 242.3075 242.3075 242.3701 243.3256
   243.3256 243.6331 244.1999 244.2134 244.2134 244.6111 244.6111 244.9718
   245.2259 245.4183 245.4183 245.6832 245.7006 245.7901 245.7901 246.7719
   246.7719 246.7960 247.6606 247.6606 248.6387 248.6387 248.7419 249.8627
   250.2072 250.2072 250.2650 250.3746 250.3746 251.0879 251.0879 251.2307
   251.7275 251.7275 251.7830 251.8609 251.8609 251.9958 252.0734 252.0734
   252.4780 252.6311 252.6311 253.9186 254.1100 257.4828 258.2233 258.2233
   258.7751 258.7751 258.8859 258.9983 259.4542 259.4542 259.7826 259.7826
   260.1062 261.0029 261.0215 261.0215 261.3822 261.3980 261.3980 261.4958
   261.4958 261.6914 261.7419 261.7419 261.8668 262.2265 262.6949 262.6949
   262.8514 264.3791 264.3791 264.6500 264.9894 265.0094 265.0094 266.6253
   266.6253 267.5912 267.5912 267.8272 267.8349 267.8349 267.8585 270.8948
   270.8948 271.1509 271.8437 271.8437 271.8792 274.4779 274.6485 274.6485
   275.3775 275.3775 275.6385 277.2900 277.2900 277.3004 278.3408 278.3408
   278.4649 278.6371 278.6371 279.0928 279.3320 279.3748 279.3748 279.6977
   279.7249 279.7249 279.7812 279.7812 279.7816 280.5611 280.6603 280.6603
   280.9516 280.9516 281.1201 281.2061 281.6300 281.6300 281.8253 281.9356
   282.0750 282.0750 283.2835 283.2835 283.4504 283.6095 283.6095 284.3750
   284.3750 285.0150 287.5005 287.5142 287.5142 287.7823 287.7823 289.2397
   290.5873 291.2477 291.2477 291.6765 291.6765 291.7846 291.9293 291.9293
   292.0853 292.0991 292.0991 292.1851 292.3137 292.4416 292.4416 292.6907
   292.6907 292.8386 293.3458 293.3458 293.3777 293.7224 293.7224 293.7255
   293.9029 294.2867 294.2867 294.4171 294.8568 294.8568 294.9761 295.9328
   295.9328 297.5181 297.5181 297.8195 298.0031 298.4137 298.4137 298.4324
   298.6193 299.0409 299.5241 299.5241 300.9965 301.0448 301.0448 301.3983
   301.4531 301.4531 301.8251 301.8251 302.0475 302.5089 302.5089 302.6361
   302.6997 302.6997 302.9445 302.9445 303.0185 303.0255 303.1814 303.1814
   303.2728 303.4976 303.5181 303.5181 303.5479 303.5479 303.5872 303.7688
   303.7964 303.7964 303.8482 303.8482 304.1449 304.1449 304.1739 304.4886
   304.4886 305.5927 305.5927 305.6597 308.1861 308.1861 308.3954 309.4359

          k = 0.5000-0.5000 0.5000 (  2452 PWs)   bands (ev):

    -8.5276  -8.5276  -8.5091  -8.4817  -8.4817  -4.0655  -0.3529   6.9372
     6.9372   8.2695   8.6469  10.0418  10.0418  16.8129  18.4003  18.4825
    18.4825  20.0604  20.0604  24.2394  24.2394  25.7313  26.2190  26.9739
    26.9739  27.0918  30.2857  30.6570  31.5024  31.5024  31.6167  32.3008
    32.3008  33.5629  33.5629  34.3942  36.9023  36.9023  37.3823  37.7363
    40.8290  40.8290  42.0808  42.0808  42.7782  43.7657  43.7657  45.4493
    48.3750  48.9535  48.9535  49.1701  49.1701  49.3516  51.5747  51.5747
    51.6114  51.6114  52.6501  52.7372  54.1840  54.1840  54.5688  56.2544
    56.2544  57.0042  57.7956  57.8851  57.8851  58.0342  58.0342  60.3439
    62.2796  62.2796  62.4012  62.5276  62.5592  63.8153  63.8153  66.2278
    66.2278  67.2044  67.6970  67.6970  68.0683  69.7264  69.8083  70.3269
    70.3269  71.6871  71.6871  72.0237  73.5359  73.5359  74.8422  74.8422
    76.4946  78.9387  79.4637  79.4637  79.9462  80.7720  80.8443  80.8443
    81.4859  81.4859  81.5074  81.8659  82.1713  82.1713  83.3548  83.3548
    83.4768  83.4768  83.8764  84.6346  84.6676  86.2780  87.0025  87.0025
    89.1525  89.1525  89.1758  91.0581  91.6377  91.6377  91.9743  91.9743
    94.1090  94.1090  94.3724  94.3724  94.4146  95.9407  95.9407  96.1597
    96.2323  96.5935  96.5935  96.6352  98.0069  98.0069  98.1979  98.5615
   100.3254 100.3254 101.6286 101.6923 101.6923 102.5030 102.8841 102.8841
   104.3128 104.4754 104.4754 105.3015 105.3015 106.5291 106.9432 106.9432
   107.0122 107.0122 107.0933 108.7522 110.4696 111.5622 111.7653 111.7653
   112.6308 112.6320 112.6320 112.7505 112.7505 112.9318 112.9792 114.5929
   114.5929 114.7775 117.1240 117.1240 117.8743 119.1390 119.5862 119.5862
   120.3664 120.4953 120.4953 122.6217 122.6709 122.6709 123.2555 123.2555
   124.0604 124.0604 124.7483 125.3042 125.3042 125.4048 125.6007 126.2022
   126.2022 126.4428 126.4428 126.4573 126.6995 127.8412 127.9497 127.9497
   127.9972 127.9972 128.7311 131.6454 132.2925 132.2925 132.6119 133.2164
   133.2164 133.3776 134.5646 134.5646 134.5950 134.5950 135.6305 135.6305
   135.9446 136.0003 136.0003 136.0326 136.1400 137.1669 137.1669 137.9438
   137.9438 138.1257 139.4491 139.4491 139.9447 140.2511 140.2616 140.2616
   140.7682 141.6571 143.5019 143.5019 144.2695 144.2695 144.4321 145.6689
   145.6689 145.7957 147.1696 148.0540 148.0540 149.8404 150.2946 150.2946
   150.4042 150.4042 150.6999 150.8053 150.8610 150.8610 151.0296 151.2366
   151.4565 151.6517 151.6517 151.6810 151.6810 152.3131 152.3693 152.3693
   153.9124 153.9124 153.9564 153.9564 153.9895 156.8460 156.8460 157.8664
   157.8664 158.6843 160.4095 160.4425 164.1198 164.1221 164.1221 164.1427
   164.1427 165.1948 165.4674 165.4674 165.5528 165.5795 165.5795 165.6762
   165.7206 165.9159 165.9159 166.3579 166.3845 166.3845 167.4098 167.7673
   169.3204 169.3204 169.4430 170.2288 170.2288 170.3352 170.5231 171.4713
   171.4713 171.7239 172.2058 172.2058 172.3964 172.3964 172.4698 172.5184
   172.5184 173.0727 173.2365 173.2365 173.3603 173.3603 175.2728 175.4690
   176.1098 176.1098 176.1281 176.1281 177.3644 177.3646 180.5650 180.5650
   180.7549 180.7549 182.5354 182.7493 182.8468 182.8468 183.0664 183.0664
   184.2303 184.2511 184.2511 184.4268 184.4268 184.9433 184.9433 185.4407
   185.7354 186.4402 186.4402 186.9459 187.3581 187.3581 187.4396 187.4546
   187.4546 187.7205 188.3742 188.4568 188.4568 189.3044 189.3664 189.3664
   189.4482 191.6322 191.6322 191.7656 191.7656 191.9041 191.9726 191.9726
   191.9902 192.9609 193.7141 193.7141 196.5282 196.8447 196.8447 197.0967
   197.0967 197.1228 197.5679 197.5679 197.7597 197.7597 197.9306 198.4618
   202.4792 202.7898 202.7959 202.7959 202.9383 202.9383 204.1351 204.1351
   204.2379 204.4000 204.6005 204.6005 204.8370 204.8370 205.4366 205.6202
   205.7094 205.8995 205.8995 206.4252 206.4252 206.8668 206.9914 207.3326
   207.3326 207.6789 208.7072 208.7072 208.8129 209.5907 209.5907 209.8017
   210.0582 210.2115 210.2115 210.5492 211.3978 211.3978 212.3669 212.3669
   212.7728 212.7728 213.2686 213.9567 213.9567 214.1888 214.1888 214.4201
   217.2374 217.7134 217.7134 217.8628 217.8671 217.8671 219.7413 219.7890
   219.7890 220.2590 220.3573 220.3573 222.0439 222.0943 222.2371 222.2371
   222.2476 222.2476 223.3013 223.3820 223.3820 223.5295 223.5295 223.6112
   224.9166 224.9166 225.5437 225.7020 225.7020 225.7248 226.5708 226.5708
   226.7336 226.7336 227.2049 227.6682 230.5264 230.5773 230.9479 230.9479
   231.0515 231.0515 232.7400 232.7400 233.2167 234.3499 234.4320 234.4320
   234.8744 235.6964 235.6964 235.7704 235.8299 235.8299 235.8743 236.1122
   236.6093 236.6093 237.2188 237.2188 237.3666 237.6303 237.8366 237.8366
   237.8883 237.9925 237.9925 238.5648 238.8468 238.8468 239.3049 239.3049
   239.3255 239.3255 239.8181 239.9904 240.1297 241.0807 241.0807 241.1212
   242.5748 242.9196 243.2769 243.2769 243.4551 243.4551 243.7839 243.7839
   243.8143 243.8143 244.1098 244.1779 244.7587 245.0902 245.1824 245.1824
   245.1875 245.1875 245.5946 245.5946 245.6830 245.7349 245.7349 245.8840
   251.2743 251.3463 251.4177 251.4177 251.5738 251.5738 252.4657 252.4657
   252.7222 252.7222 252.8859 253.0512 253.1726 253.1726 253.2163 253.2751
   253.3659 253.3659 254.6936 254.6936 254.7407 254.7407 254.7567 254.8046
   258.9206 258.9206 259.1006 259.1172 259.1172 259.1424 259.1962 259.1962
   259.6008 259.6278 259.6985 259.6985 261.2886 261.6645 262.8379 262.8379
   262.9111 262.9111 264.2571 265.2141 265.2141 265.2198 265.2489 265.2489
   265.2609 265.5300 265.9600 265.9600 266.4183 266.4183 266.5105 266.5105
   266.7996 266.9629 267.0640 267.0640 269.5395 269.5395 269.7729 269.7729
   270.2334 270.2334 271.2446 271.2455 272.7610 272.7610 272.8633 272.9099
   272.9099 273.0374 273.1844 273.7554 273.8576 273.8576 273.9871 274.8317
   275.0343 275.0343 275.1193 275.1373 275.1373 276.1672 276.1672 277.0764
   277.0764 277.7592 278.4037 278.4037 278.4057 278.4057 278.5272 278.5332
   279.0053 279.3942 280.0613 280.0613 280.7206 280.8053 281.5155 281.5155
   285.1892 285.1892 285.2032 285.2032 287.4796 287.4796 287.5063 287.5063
   287.6309 288.2953 288.9371 289.0499 289.0499 289.0551 289.0551 289.0576
   289.3539 289.4297 289.8680 289.8680 290.1374 290.1374 290.7016 290.7016
   291.2563 291.2563 291.3604 291.3604 291.5214 291.5773 291.7711 291.9343
   291.9343 291.9961 292.0130 292.0474 292.0474 292.1062 292.1062 292.1328
   292.3836 292.3836 292.3968 292.4598 292.4598 292.4649 292.9411 293.0319
   293.0319 293.1134 293.1134 293.2728 295.9675 295.9675 296.2790 296.3779
   296.3779 296.4034 296.5564 296.8389 296.8389 297.0773 297.0773 297.1447
   300.6463 300.7470 300.7470 300.8195 300.8195 300.8306 302.1726 302.1726
   302.4124 302.6004 302.6004 302.7175 305.8314 305.8314 306.0015 306.0015
   306.0174 306.1272 306.2564 306.3462 306.3462 306.6181 306.6181 306.8284
   306.9661 307.0092 307.0092 307.1902 307.1902 307.2518 308.3408 308.3408
   308.4892 308.4892 308.5080 308.5086 308.5719 308.5719 308.5842 308.6044

          k = 0.0000 0.3333 0.0000 (  2473 PWs)   bands (ev):

    -8.5216  -8.5162  -8.5028  -8.5028  -8.5009  -4.7964   1.3145   6.1850
     6.1850   7.5162  10.3240  12.8110  12.8110  13.5930  16.4362  16.4362
    17.1511  17.6121  18.6734  21.0070  25.4345  25.8749  25.8749  26.4469
    29.0573  29.0573  31.0060  32.1057  32.1057  32.6983  34.1272  35.1618
    36.5743  36.8821  36.8821  37.0557  37.0557  37.6850  39.0936  39.5035
    39.7188  39.7188  40.4164  41.2297  42.3455  42.6054  42.8299  43.4227
    43.4227  46.0146  46.0146  46.3842  47.3531  48.2117  48.2117  48.6218
    48.6218  49.3750  50.6789  51.2898  51.2898  51.6062  52.7139  54.9929
    56.5179  56.5764  57.3331  57.3331  60.0373  60.0373  61.5139  62.7046
    62.9426  62.9426  63.9913  64.9424  65.6501  67.6967  67.6967  68.1510
    69.6943  69.6943  69.9026  70.1471  70.3143  70.6112  70.7205  70.7205
    71.9793  73.3431  74.2561  74.2561  75.3314  76.3869  76.4048  76.4048
    76.6254  76.6647  77.5497  77.6703  77.6703  79.0851  79.0851  79.9703
    80.5774  80.9777  81.3672  81.9363  81.9363  82.0063  84.1216  84.5063
    84.5063  84.6166  84.6166  85.2421  85.5982  85.9599  85.9599  86.4809
    86.6002  87.4379  87.4379  88.6968  89.1867  89.3032  89.8774  90.2217
    90.2217  90.5001  91.0357  91.0357  91.6605  92.7540  93.4784  93.4784
    96.6481  97.1461  97.5702  98.6198  98.6198  99.2738  99.5876  99.7220
    99.7220  99.9337 100.4069 101.1326 101.1326 101.9930 101.9930 102.0976
   102.9729 102.9738 103.8434 103.8434 103.9625 104.9443 106.1206 106.8144
   106.8144 108.7088 109.8381 109.8958 109.9917 109.9917 111.0217 111.0217
   111.0289 112.0152 112.7479 112.9102 113.7660 113.7660 115.0600 115.0600
   116.4828 116.8305 116.8305 117.0114 119.9955 120.2433 121.2776 121.5490
   121.5490 122.3887 122.3887 123.1858 123.2804 123.3276 123.7494 123.9608
   123.9608 124.2587 126.2532 126.2532 126.3808 127.2506 127.6451 127.6451
   128.1562 128.5147 130.2998 130.4325 130.4958 130.4958 130.5553 130.9302
   130.9664 130.9664 131.7026 132.1697 132.4825 132.4825 132.6017 133.0576
   133.0576 133.5705 133.9202 134.2147 134.5066 134.6423 134.6423 135.4210
   135.6681 135.6681 135.7367 136.7250 136.7250 137.2711 138.4433 138.4433
   138.6349 139.1945 140.4024 140.4417 140.4417 140.6756 141.5768 141.8620
   142.3616 142.3616 143.3680 143.7198 143.7198 145.4174 145.4703 145.5818
   146.5873 146.7897 146.7897 146.8168 147.0672 147.5488 147.5488 148.3267
   148.5164 148.5164 148.9440 148.9440 148.9970 149.5620 149.9844 150.2477
   150.5968 150.5968 151.0504 151.6640 152.2058 152.3391 152.3391 152.3492
   152.6684 152.6684 153.6045 153.7216 153.7216 153.8542 154.0410 154.3267
   155.2284 155.9561 155.9561 157.2160 157.6588 158.0904 158.0904 158.7155
   159.0347 159.3674 159.3674 159.4731 160.1279 160.1279 160.8241 162.0331
   164.2396 165.2534 165.2534 165.4189 165.5574 165.8018 165.8018 166.2758
   166.4675 167.0498 167.3204 167.3204 168.7758 168.7758 170.8538 171.0678
   172.4397 172.4397 173.2299 173.2512 174.2684 174.5787 174.8281 174.8283
   174.8283 175.3815 175.3815 175.6942 176.0318 176.0783 176.0783 176.3567
   176.5537 177.0500 177.0500 177.4382 178.7666 178.9058 178.9058 179.1919
   179.9459 179.9459 180.4363 180.4363 180.5088 180.7902 181.3285 181.4733
   181.4733 184.5992 184.8345 185.6878 186.0107 186.0107 186.3775 187.6915
   188.4750 188.4750 188.7347 188.8122 189.2616 189.2616 189.4666 189.5341
   190.0707 190.0707 190.4105 191.2261 192.9236 194.0487 194.0487 195.1171
   195.1517 195.1517 195.8294 196.5920 196.7379 196.7985 196.9000 196.9000
   197.2450 197.2450 197.2710 198.5367 199.0718 199.0718 199.5972 200.3351
   201.2300 201.7814 201.8082 201.8082 201.9684 201.9684 202.3406 202.6768
   202.8760 202.8760 203.2985 203.6028 203.7979 203.8622 203.8622 203.9495
   204.0100 204.0100 204.9253 205.3569 205.3693 205.3693 205.4183 205.5858
   206.2163 206.2163 206.4726 206.8347 207.2606 207.2606 207.7685 208.0927
   208.2016 208.2016 208.3306 208.6973 209.4277 211.8088 211.8088 212.1294
   212.3038 212.9953 213.0554 213.0554 213.3995 213.9727 214.2273 214.4503
   214.4503 215.0060 215.0412 215.0412 215.0607 215.3336 215.3336 215.3848
   215.4151 215.5444 215.5444 216.0298 216.0298 216.5667 216.7075 216.7799
   217.0259 217.0259 218.3938 218.6012 218.7053 218.7053 218.9476 219.0337
   220.0387 220.0387 220.1933 220.2515 221.2492 221.2492 222.1685 222.4211
   222.7489 222.7489 222.7667 223.0731 223.6711 223.8849 223.8849 223.9740
   224.4313 224.5827 224.7805 224.7805 226.2194 226.5455 226.5455 226.7082
   227.0495 227.6293 227.6293 228.4028 228.7228 229.0876 229.0876 229.2477
   230.1251 230.1251 230.1859 231.1228 231.3791 232.3917 232.4868 232.4868
   232.6675 233.0872 233.0872 233.8892 235.0636 235.2544 235.2544 235.3617
   235.5558 235.5558 235.7511 235.8991 236.0526 236.2977 236.2977 236.4172
   236.6675 237.6735 238.8550 238.8550 239.4096 239.6753 239.6753 240.3668
   240.3668 240.5204 241.1392 241.4376 241.5147 241.5147 242.3513 242.4189
   242.7604 242.8560 242.8560 243.0113 243.5999 243.5999 243.9108 244.8204
   244.8399 244.8399 245.0188 245.5620 245.5620 245.8406 246.2596 246.7211
   250.0978 252.1346 252.2217 252.2217 252.2714 252.3218 252.3218 252.3341
   252.7696 252.7696 253.1283 253.4775 253.6390 254.0201 254.1382 254.1382
   254.9226 255.7100 255.7100 256.2454 257.9509 258.0790 258.0790 258.0901
   259.4945 259.6907 259.7546 259.7546 259.9771 260.6207 260.6765 261.2303
   261.2303 261.6761 261.6761 261.6866 262.1234 262.6820 262.8030 262.8030
   262.9525 265.6133 265.6133 266.3698 267.2679 267.5208 267.5329 267.5329
   267.8888 268.2873 268.6844 268.6844 269.0557 269.7169 269.7773 269.8973
   269.8973 270.3570 271.2682 271.2682 271.6957 274.6873 274.6873 274.6987
   274.7336 275.1378 275.3297 275.3297 275.4582 276.0951 276.2483 276.5112
   276.5112 276.8969 276.9255 277.0270 277.0270 277.1289 277.1289 277.1303
   277.1720 277.4538 277.4538 277.5853 277.7801 278.3185 278.3185 278.3468
   278.4706 278.5732 278.6301 278.6301 279.2954 280.2600 280.6553 280.6704
   280.6704 280.9661 281.0885 281.0885 281.4044 281.4709 281.5673 281.5697
   281.5697 282.1543 282.2377 283.1214 283.1214 283.3003 283.3972 283.4606
   283.4606 283.4609 283.5075 283.5075 283.5238 286.1013 286.2039 286.2039
   286.2245 286.5380 286.7977 286.7977 286.8860 288.5065 288.6804 288.6804
   289.3445 289.5294 289.6053 289.6147 289.6147 289.6865 291.6164 291.7102
   291.7102 291.8413 291.8931 292.0127 292.0127 292.0504 295.4289 295.4289
   295.4333 295.5321 297.7675 297.7675 297.8954 298.3975 298.4215 298.4215
   298.4939 298.6949 298.7379 298.7791 298.7791 298.8739 299.8765 299.8765
   301.1368 301.4677 301.4677 301.5087 301.5286 301.5983 302.4179 302.4179
   302.5326 302.5326 302.5481 302.9102 304.0493 304.4856 304.4856 304.9832
   305.0739 305.5493 305.9079 305.9079 305.9745 306.0221 306.0221 306.6447
   306.6991 306.7644 306.7644 306.8186 306.8535 307.1784 307.1948 307.1948
   307.4026 308.5675 308.7133 308.7133 308.7802 309.0285 309.2191 309.2191
   309.2616 309.2733 309.5112 309.5112 309.8289 309.9832 310.0767 310.3657

          k =-0.1667 0.5000-0.1667 (  2451 PWs)   bands (ev):

    -8.5397  -8.5150  -8.5079  -8.4941  -8.4866  -4.4004   0.6121   6.0528
     6.0776   7.0078  10.2960  11.9365  12.1455  13.8918  17.2376  17.7601
    19.0556  19.3923  21.4168  21.9884  22.6907  24.4142  25.5327  26.8870
    27.2785  29.3814  29.4015  30.8539  31.5012  31.6708  33.5375  34.1113
    34.9590  35.7556  36.3002  36.6134  37.3944  37.6519  38.1551  38.2931
    39.0185  39.8202  40.9174  41.9537  42.4270  43.0782  44.0990  44.6372
    44.6478  45.7082  46.8630  47.0511  48.0005  48.6071  48.9073  50.0981
    50.3562  51.0593  52.6272  53.5308  53.5364  54.4516  55.6470  56.1947
    57.3330  57.6809  57.6840  58.2944  58.8365  60.2840  60.5457  60.6182
    60.8700  62.5413  62.7979  63.0288  63.8019  64.0082  64.4512  65.5578
    66.8943  66.9843  68.9446  69.0556  69.4925  70.3460  70.3993  71.2439
    71.8658  72.3194  72.5031  73.0027  73.4984  74.5699  75.8491  76.7274
    77.0854  77.4124  77.9031  78.3355  78.5832  78.8551  79.3437  80.4149
    80.5561  81.2728  81.3202  82.0552  82.2027  82.9671  83.7312  84.1121
    84.3185  85.1778  85.7818  85.8457  86.0443  86.3492  86.8229  87.0333
    88.3286  88.7286  89.0375  89.4551  89.7337  90.4764  90.9380  91.5174
    91.5532  91.7686  92.1716  92.8732  93.9247  93.9801  94.3407  95.1131
    95.4577  95.9459  96.1101  96.1717  96.9051  97.2207  97.8646  98.0842
    99.4212  99.8508 100.8553 101.6059 102.0006 102.6605 102.8936 103.8446
   104.4155 104.5824 106.1384 106.5391 106.6659 106.9819 107.4501 107.7768
   108.1055 109.0742 109.5186 109.6745 110.5192 111.4034 111.5172 111.5687
   112.3546 112.6838 113.4240 113.9174 114.3356 114.5954 114.7002 115.6098
   115.9295 116.8452 117.2744 118.1883 118.3179 118.7633 119.1052 119.2447
   119.3309 119.8320 120.3237 120.6262 121.0102 121.5161 121.7642 122.6606
   122.9082 123.1396 123.2600 124.1746 124.6129 125.1352 125.2415 125.5660
   125.7162 126.4278 126.7385 127.0634 127.5578 127.8894 128.2308 128.5214
   129.0864 130.8723 131.1911 131.2159 131.6709 132.3136 132.5386 132.6873
   132.8318 132.9888 133.1881 134.1688 134.4216 134.4392 134.7977 135.5162
   135.9117 136.4061 136.6903 137.0887 137.5638 137.8236 138.3302 138.7838
   139.0013 140.5085 141.4948 141.8333 142.1371 142.1811 142.6405 142.8262
   143.4572 143.9871 144.4112 144.5924 144.6427 144.9730 145.0180 145.3018
   145.6878 146.1243 146.3939 146.8570 147.1580 147.5996 147.7790 148.2358
   148.3643 149.1749 149.3608 149.7289 150.4741 151.0734 151.6476 152.0706
   152.5752 152.6775 153.1445 153.1532 153.4254 153.4516 153.7898 154.4381
   154.5151 154.6631 154.8977 155.1384 155.2612 155.7867 156.2702 157.3123
   157.6631 157.7375 158.0648 158.2654 158.3554 158.3850 158.9752 159.0269
   159.4820 159.6836 160.2050 161.6587 162.1345 162.4949 162.7125 162.7379
   163.7127 164.5630 165.0102 165.2673 165.3228 165.4855 167.0918 167.4070
   167.4794 167.9556 168.5201 168.5554 169.1891 169.6945 170.1531 170.5554
   170.6613 171.1876 171.5180 171.5464 171.7247 172.3549 172.7669 173.2980
   173.5356 174.1934 174.5172 174.6510 175.1915 175.3901 176.4529 176.7624
   176.9357 177.0847 177.4061 177.8400 178.0180 178.7001 179.1240 179.1623
   179.6940 180.9225 181.4680 181.7189 181.7215 182.6361 183.6577 184.2249
   184.7904 184.8067 185.1207 185.8429 186.1342 186.9010 187.6448 187.7032
   188.3718 188.6681 188.7588 188.9007 189.2859 189.4552 189.5143 189.7840
   189.8397 190.1881 190.4584 190.8912 191.0422 191.1488 191.5402 191.7559
   191.8476 191.9312 192.5803 192.9690 193.0481 193.2753 193.4980 193.9107
   195.0087 195.3067 195.4233 195.5248 197.5153 197.8364 197.8612 198.0157
   198.0536 198.2854 198.5899 198.9704 199.9821 200.2857 200.4242 200.4604
   200.7137 201.0752 201.5325 201.5733 202.0833 202.6240 202.8570 202.9739
   203.0846 203.3716 203.6266 203.8692 204.0979 204.4305 204.7097 204.8847
   204.9541 205.6463 206.0375 206.2138 206.3647 206.8169 206.9934 207.3171
   207.7912 207.9114 208.3824 209.0558 209.2634 209.4852 209.5177 209.8437
   210.2691 210.3641 211.1121 211.7240 212.0338 212.9223 213.1932 213.2169
   213.4863 213.5155 213.7263 214.8656 215.3220 215.3503 215.3888 215.6320
   215.6962 215.9068 216.2472 216.6782 216.8546 217.2415 217.4722 217.6512
   217.7347 218.1122 218.7233 219.6062 219.6787 219.8635 220.5734 220.6716
   221.6902 221.7317 221.9966 222.5582 222.7767 223.4473 223.9172 224.2179
   224.5370 225.1633 225.7332 225.9748 226.4111 226.4752 226.7179 227.2385
   227.4848 227.5358 228.0525 228.1186 228.6961 228.8679 229.0044 229.0904
   229.1306 229.4283 229.4792 229.8802 230.1199 230.3706 230.4167 230.6640
   230.6788 231.1930 231.7178 232.2940 232.4542 233.0955 233.2655 233.9254
   234.1554 235.5909 235.7034 236.5320 236.5338 236.6275 236.6908 236.7098
   237.1021 237.5010 237.6297 237.9429 237.9946 238.1173 238.2390 238.7449
   239.0031 239.4037 239.7033 240.4054 240.5287 240.7282 241.2638 241.4267
   241.5304 241.7834 243.4502 243.6879 243.8893 244.7261 244.8190 244.9634
   245.2869 245.8214 245.9515 246.1030 246.2190 246.5859 246.7687 247.0873
   247.1088 247.2765 247.4067 247.9449 248.4534 248.4667 248.8278 249.0744
   249.2005 249.7218 250.1607 250.2361 250.2386 250.5365 250.8688 251.3177
   251.4469 252.6796 252.8381 252.8774 252.9790 253.0370 253.0582 254.5828
   254.6746 254.9957 255.2972 255.4541 255.7240 255.8900 255.9335 256.8373
   257.8085 257.9081 258.8073 259.4943 259.5557 259.6928 259.9754 260.0981
   260.1671 260.1811 260.8361 261.5241 261.5844 261.7094 262.2916 262.4393
   262.5395 262.8233 262.8251 263.1744 263.3492 263.5933 263.7761 264.6079
   264.8642 265.0917 265.2516 265.7871 266.7289 266.8700 267.1093 267.3166
   267.5162 267.5679 267.8557 267.8764 268.3733 268.4376 268.7291 268.7708
   269.9161 270.2460 270.5152 270.6054 271.5846 272.1984 272.2806 273.4983
   274.1859 274.5712 274.6339 274.7411 274.9728 275.6755 275.7680 275.8396
   276.1425 276.9035 276.9377 277.0783 277.2915 277.7875 277.8647 278.5381
   278.6354 278.7745 279.2758 279.4275 280.9385 281.3007 281.5469 281.6950
   282.1498 282.3276 282.3639 282.5378 282.6566 283.1817 283.2862 283.4621
   283.5572 283.8428 284.1805 284.1922 284.2238 284.3807 284.7955 285.3604
   285.4442 285.9937 286.6695 286.8799 287.1516 287.4561 287.9248 288.0415
   288.1105 288.2942 288.3211 288.9504 289.1313 289.3238 289.7393 289.9157
   290.0601 290.0871 290.2735 290.5433 290.6290 290.8343 291.1778 291.5261
   291.7473 292.1247 292.2496 292.4533 292.6595 292.8936 293.4319 293.7328
   293.8768 294.8258 294.9256 295.1029 295.3359 295.4617 295.7213 296.0785
   296.0872 296.2522 296.8223 297.1893 297.4589 297.7582 297.8112 297.9339
   298.6075 299.0253 299.4105 299.4542 299.6603 299.9333 300.2574 300.4306
   300.4443 300.5038 300.7607 301.1172 301.2307 301.6223 301.6278 302.6746
   302.7277 302.9398 303.4437 303.6286 304.1799 304.6918 304.8335 304.9516
   305.0885 305.2297 305.9060 306.2994 306.4580 306.4760 306.8929 307.0059
   307.3334 307.3692 307.5495 307.7025 307.9152 308.0609 308.9983 309.0570
   309.2668 309.3423 309.6211 309.6260 309.8544 310.6850 310.6881 310.9504

          k = 0.6667-0.3333 0.6667 (  2450 PWs)   bands (ev):

    -8.5460  -8.5170  -8.5071  -8.4898  -8.4802  -3.9915  -0.0907   5.6763
     6.3235   6.9444  10.1387  11.0549  11.7053  15.2994  17.9799  18.7151
    19.0121  20.2610  22.3884  23.0295  23.5733  24.5586  25.6250  27.6894
    27.9649  28.2508  28.4769  29.3547  29.5293  30.7155  31.5657  31.7693
    32.5040  34.0448  35.1158  36.1624  37.0716  37.3903  37.9784  38.4993
    40.3226  40.7541  41.4169  42.0760  43.4745  44.6246  45.1774  45.5832
    46.4240  47.8178  47.8399  48.8395  48.9394  49.4563  49.7633  51.0661
    51.6469  51.9726  52.0191  52.8659  54.5899  54.8332  55.7469  55.9864
    56.3515  57.8070  57.8791  58.5944  59.0991  59.2811  59.7748  59.9525
    60.4320  61.8049  62.2993  63.5399  63.5618  64.0088  65.2607  65.3842
    65.5165  66.6679  66.7105  67.5941  68.1573  69.7338  69.9908  70.4711
    71.1007  71.5282  71.9733  72.5630  72.9321  73.6995  74.6777  74.9465
    75.6466  76.6138  76.9415  77.6835  78.0752  78.3294  79.0191  80.4079
    80.7326  80.8762  81.5387  81.7276  82.0639  82.2346  83.8052  84.1867
    84.3700  85.7468  85.8585  86.1192  87.3320  87.4143  87.4579  88.7780
    89.0845  89.7683  90.0871  90.3321  90.6784  90.9461  91.4427  91.5331
    91.8866  92.7088  93.6051  93.6383  95.2292  95.2991  95.4788  95.6641
    96.3232  96.5317  97.5209  97.6255  98.3821  99.4271  99.8250 101.0879
   101.3394 101.7753 101.8214 102.2396 102.6022 102.8008 103.4113 104.1065
   104.1315 104.5933 104.7006 105.4965 105.5267 105.8821 106.4862 106.5293
   107.5696 107.8231 108.7148 108.8949 109.7999 110.2773 111.3735 111.7587
   112.0460 112.1823 112.6786 112.6993 113.5062 113.6376 113.9762 114.9915
   115.3935 115.5491 116.2084 116.3479 116.7544 117.5364 118.1420 118.6107
   119.1108 119.3781 119.5456 120.8744 121.4977 121.6895 122.1853 122.6561
   122.8265 123.2994 123.8609 123.9967 124.6307 125.0299 125.0592 125.4996
   126.1159 126.1508 126.6837 127.1691 127.6621 127.9595 128.3926 129.0144
   130.1154 130.6237 130.8321 130.9093 131.1080 131.4096 131.4584 132.5014
   132.5374 132.6359 133.0157 133.3137 133.3884 133.9107 134.0486 134.7163
   134.9264 135.3044 135.6576 136.8834 136.9692 137.2288 137.8798 138.6874
   139.3707 139.9173 140.0952 140.2809 140.3621 140.8658 141.1606 141.9232
   142.5054 142.7088 143.0232 143.8000 144.3576 144.8209 145.2042 145.3156
   146.1414 146.1550 146.5430 147.2252 147.3770 147.8602 148.3406 148.4619
   148.9791 149.0878 149.5587 149.6183 150.5307 151.1343 151.3250 152.1481
   152.8247 152.8610 153.0748 153.2858 153.9113 154.0391 155.1248 155.1614
   155.7399 156.4290 156.7212 157.3800 157.8908 157.9721 158.2293 158.7486
   159.3110 160.1000 160.3745 160.3948 161.5366 161.6508 162.0921 162.1790
   162.5298 162.7250 162.9665 163.2605 163.8315 164.6088 165.0554 165.2272
   165.2579 165.2709 165.5003 165.6625 166.0576 166.0759 166.1201 166.4585
   167.3258 167.7479 168.2518 168.5747 170.0136 170.2729 170.7143 170.9597
   171.6105 171.8808 172.0134 172.6580 173.5092 173.7282 174.1882 174.5400
   174.7419 174.9929 175.1654 175.7946 176.1138 176.3093 176.8781 177.1975
   177.3568 177.7956 178.0982 178.2370 178.5893 178.6127 178.9684 179.1398
   179.5442 179.5537 179.6301 180.1529 180.5835 180.9982 181.1192 181.5866
   181.6169 181.8992 182.3453 182.5496 182.5834 182.8073 183.8388 184.4883
   185.1596 185.9759 186.0728 186.7501 187.1455 187.8221 188.0339 188.2754
   188.8467 189.4684 189.5950 189.6402 189.8216 190.5085 190.5461 190.9115
   191.0532 191.5000 191.5137 191.9947 192.1372 192.4094 192.6672 193.2864
   194.0456 194.0476 194.4058 194.5330 194.7511 194.9109 195.3098 195.7515
   196.1509 196.2308 196.6200 196.6774 197.3462 197.4019 198.0698 198.8811
   199.1265 199.7488 200.7941 201.3648 201.7684 201.9794 202.5269 202.5304
   202.7041 203.9557 204.0017 204.2010 204.5123 204.9371 205.3730 205.7589
   205.8551 206.0708 206.1649 206.2393 206.3436 206.6243 206.6786 206.7629
   207.1827 208.6236 208.7378 208.9904 209.3831 209.8667 209.9869 210.1791
   210.3614 210.3654 211.0841 211.4768 211.6029 212.9333 212.9838 213.6066
   214.4669 215.5230 215.7135 216.1264 216.7585 216.8948 216.8966 217.0511
   217.1177 217.4314 217.6006 217.6210 218.0704 218.2570 218.5749 218.8330
   219.1439 219.1850 219.3977 219.9974 220.5084 220.5482 221.1565 221.3765
   221.6591 222.1475 222.4394 222.5834 222.9369 222.9726 224.0736 224.2296
   224.7459 225.3513 225.8880 226.5426 226.8924 227.2208 227.3954 227.6049
   228.0668 228.3276 228.7115 229.1694 229.3090 229.8505 230.0950 230.1603
   230.4557 230.7140 231.0722 231.2367 231.9132 232.5225 233.0649 233.4019
   233.6286 233.9676 234.0368 234.2566 234.4430 234.5296 234.6895 235.4103
   235.5523 236.0052 236.0607 236.0937 236.3030 236.3895 236.6255 236.7919
   236.9199 237.3418 237.4508 238.0987 238.5183 238.6923 238.7170 238.9763
   238.9825 239.2445 240.5799 240.9097 240.9853 241.8843 241.9177 242.2247
   242.4026 242.9552 243.7105 243.7157 244.1301 244.6636 244.9623 245.2375
   245.2719 245.3340 245.4495 246.5366 246.5584 246.5968 246.9683 247.4705
   247.5057 248.5130 248.5301 248.6910 248.7134 249.0194 249.0938 249.8958
   249.9185 250.3852 250.6435 251.0271 251.0722 251.7965 252.0210 252.2453
   252.3373 252.5297 253.0107 253.4267 253.9266 254.4639 254.6114 254.9140
   254.9784 255.2625 256.0612 256.1476 256.6067 256.6916 257.2567 257.3695
   257.5376 257.9194 258.1530 258.2005 258.2547 258.5359 258.6319 258.7691
   258.8069 259.0388 260.0758 260.1583 260.2389 261.3281 261.3790 262.4080
   262.5772 262.5878 263.0939 263.3206 263.4583 263.8555 264.3179 264.5977
   264.6548 265.0112 265.4405 265.7765 265.9880 267.0487 267.1349 267.4403
   267.9190 267.9811 268.0787 268.4263 268.9739 269.4115 269.6087 269.6984
   269.8848 270.2225 270.5276 270.8028 271.1896 271.5060 271.5123 271.9303
   273.0351 273.0893 273.6108 274.0391 274.2876 274.6634 274.7160 275.2125
   275.2915 275.5927 276.6647 276.9861 277.1298 277.1782 277.3984 277.4076
   277.6874 277.7072 277.7980 278.0944 278.2904 278.6458 278.7865 279.5639
   280.1281 280.1996 280.6607 280.8178 280.8678 280.9318 281.2091 281.2129
   281.4733 281.5592 281.5871 281.6206 281.8638 282.2855 282.4502 282.5091
   282.6881 282.9236 283.3936 283.5792 283.7725 283.9070 284.2551 284.9650
   285.4957 287.1604 288.0332 288.4674 288.4826 288.6925 289.2695 289.3061
   289.5573 289.5987 290.0496 290.0847 290.1099 290.2203 290.5314 290.7370
   290.7371 291.0931 291.1346 291.2901 291.4873 292.4016 292.4963 292.7709
   292.9208 293.3489 293.4292 293.6137 294.0327 294.3195 294.4427 294.4517
   294.9137 295.0097 295.1976 295.5316 295.5494 296.6114 296.6395 296.7537
   297.0872 298.3816 298.4682 298.6482 299.1941 299.2148 300.0180 300.1864
   300.5933 300.5971 301.2317 301.4927 301.6287 301.8107 302.9737 302.9766
   303.5613 303.6321 304.8572 304.8857 305.0413 306.1641 306.2552 306.3850
   306.4130 306.5140 306.7466 307.1592 307.1716 307.6622 307.6738 308.0165
   308.2109 308.4387 308.9613 309.0065 309.1140 309.6085 309.6591 309.6891
   309.8622 310.0103 310.1864 310.1947 310.6763 311.2350 311.2449 311.6154

          k = 0.5000-0.1667 0.5000 (  2445 PWs)   bands (ev):

    -8.5356  -8.5205  -8.5048  -8.4890  -8.4885  -4.1003   0.0230   5.3737
     6.8347   7.6559   9.4817  10.3759  12.2193  15.9492  16.7888  17.9613
    19.2947  20.0821  22.7986  22.9770  24.1266  24.2047  25.8659  26.9410
    27.0514  28.3348  28.4916  30.2003  30.5028  31.0445  31.6043  32.1744
    33.4923  33.7531  35.3695  36.5883  36.8866  37.6931  38.0658  38.7146
    39.5293  40.2406  41.7673  42.0494  43.7796  44.0064  44.4492  45.1433
    45.6921  46.8095  48.1843  48.3352  48.9129  49.5963  50.6380  51.0696
    51.3361  51.4657  53.3985  53.5412  54.1438  54.2335  55.3623  55.6375
    55.9698  56.6671  57.1750  58.2594  58.8080  59.7986  59.8868  61.0410
    61.4211  62.4101  63.1433  63.6262  63.7933  63.7978  64.1118  65.3938
    65.4213  66.3560  66.6539  66.9601  69.9071  70.0118  70.3543  70.7444
    71.2699  71.3093  72.3429  73.3159  73.3741  74.4680  74.6374  75.3005
    75.8509  76.2010  76.7440  76.7524  77.9711  78.3458  78.3973  80.1840
    80.5024  81.4080  81.9945  82.4309  82.8707  83.6283  83.8012  84.5778
    84.9008  85.3933  86.2981  86.5250  86.8439  87.5348  87.9132  88.0846
    88.1403  88.5186  89.1477  89.4166  90.5017  90.5404  91.5972  92.0385
    92.1296  92.4760  93.0920  93.7033  94.1806  95.1297  95.4412  96.0189
    96.3484  96.8430  97.0556  97.1557  97.7902  99.1777  99.5370 100.1215
   100.5536 100.7672 100.9836 101.3936 101.9183 102.5460 102.9356 103.7396
   103.9444 104.3892 104.9724 105.2409 106.0968 106.4902 107.0483 107.4316
   108.0410 108.0702 108.9415 109.8866 109.9157 110.5963 111.1746 111.4172
   111.7514 111.9340 112.1869 113.0801 113.2790 113.8663 114.6694 115.0773
   115.4566 115.8888 116.4982 117.3527 117.7374 118.4324 118.8894 119.0697
   119.2900 119.8995 120.5681 121.5081 121.9590 122.3246 122.4732 122.5101
   123.1976 123.5882 123.7307 123.8933 124.5992 124.8195 124.8752 125.0997
   125.9111 125.9761 126.2799 126.4767 126.7463 127.1610 127.6173 127.8644
   129.1908 129.3542 129.9410 130.6326 130.8210 132.1733 132.7043 132.8567
   133.0331 133.5693 134.0467 134.2171 134.3340 134.7745 134.8455 135.7093
   136.1790 136.9832 137.1182 137.2215 137.5970 137.6622 138.2316 138.7787
   139.1893 139.2882 139.3384 139.6397 140.1646 140.2091 140.5717 141.0768
   142.3489 143.2786 143.8557 143.9616 144.1270 144.2058 144.6292 144.6526
   144.9518 145.1698 145.3024 145.9926 146.8841 148.2565 148.5775 149.1889
   149.2676 149.5138 149.9279 150.7971 150.9429 151.1569 151.7116 151.8970
   152.2950 153.4463 154.0466 154.2855 154.3206 154.4773 154.8343 155.1341
   155.2319 155.7447 155.7694 155.9152 156.4076 156.7054 157.5133 157.5208
   158.4417 158.8904 158.9211 159.5342 160.1257 160.5102 160.9822 161.5035
   161.6143 162.1360 162.6140 163.4885 163.7783 164.1918 164.2839 164.9094
   165.1139 165.1257 165.4726 165.7542 166.3315 167.0711 167.4770 167.7289
   168.2901 168.9659 169.0829 169.7288 169.8494 170.5010 171.0454 171.1445
   171.2551 171.6907 171.8529 172.0713 172.4769 172.6753 173.4710 173.7252
   174.0399 174.4623 174.6714 175.0552 175.7596 176.4145 177.0201 177.3023
   177.7003 177.9376 178.1514 178.3066 178.7599 178.8283 179.3636 179.4816
   179.8011 179.9378 180.4434 180.5298 180.6853 180.7268 180.8394 181.2987
   181.7751 181.8467 182.8083 183.4964 184.0853 184.2324 184.7873 184.9063
   185.3335 185.8593 186.2107 186.8971 187.1710 187.3193 187.9035 188.6756
   188.9033 189.3950 189.6465 190.3392 191.1099 191.2145 191.2740 191.4158
   191.5620 191.7361 191.8253 192.0222 192.2913 192.7645 192.8131 193.2444
   193.5060 193.7473 194.3006 194.7287 194.9250 194.9547 195.5439 195.7362
   196.3535 196.6486 196.6840 197.4295 197.6851 199.6142 200.0855 200.2316
   200.7575 200.8599 201.7994 201.8700 202.3797 202.5803 202.6181 202.7792
   202.9583 203.2923 203.6162 203.8438 204.2815 204.4532 204.9639 205.2658
   205.5363 205.5969 206.2826 206.3506 206.7416 206.7961 206.8847 207.2639
   207.3027 207.4634 207.6617 208.0625 208.4895 208.6588 208.7790 209.2009
   209.9629 210.2920 210.8624 211.3488 212.6750 212.9051 212.9799 213.6616
   214.0145 214.9233 215.0225 215.8890 216.0065 216.0595 216.2002 216.6202
   217.5658 217.7926 217.8844 217.9742 218.6817 218.9600 219.2293 219.4325
   219.5317 219.7887 219.8320 220.2951 220.7549 220.8339 221.5716 221.9574
   223.2460 223.6504 223.7115 223.9774 224.5519 224.6176 224.8186 225.3028
   225.3514 225.4184 225.9274 226.4155 226.4838 226.8881 226.9443 227.2415
   227.3755 227.5135 227.6123 227.9370 227.9865 229.1287 229.2916 229.4611
   229.8183 229.9421 230.5339 230.9932 231.0039 231.2952 231.4357 231.5066
   231.6429 231.8350 231.8701 232.7798 233.1583 233.2207 233.4288 233.6698
   234.0836 234.6951 234.8940 235.0330 235.3116 235.6535 235.6869 235.6908
   236.2324 236.6645 236.9318 237.0049 237.5640 240.8110 240.8817 240.8967
   241.1097 241.1666 241.7984 241.8069 242.1519 242.2390 242.5124 242.6467
   242.7003 242.8681 242.9828 243.4829 244.0287 244.1691 244.5532 244.7063
   245.1073 245.7320 245.7697 246.4138 246.9798 247.0099 247.1008 247.3277
   247.7513 247.8399 247.9870 248.2199 248.2201 248.8395 249.7414 249.8269
   249.8450 250.4909 250.5532 250.7884 250.9592 251.0481 251.0547 251.5640
   252.1116 252.2256 252.4339 253.4119 253.4839 253.6972 254.5406 255.4117
   255.5152 255.8226 256.6763 256.7693 256.9620 256.9767 257.2589 257.4620
   258.1514 258.2355 258.7070 258.7216 258.7825 259.2615 259.5072 259.6688
   259.7002 259.7987 260.0134 260.1073 260.1139 260.3637 260.6667 261.6417
   262.0138 263.0472 263.0710 263.4546 263.6341 263.6366 263.8671 264.1171
   264.5297 264.8832 264.9074 265.0768 265.2152 266.0774 267.4413 267.5620
   268.0499 268.2966 268.4237 268.6349 268.8353 270.2990 270.4065 270.9104
   270.9287 271.3402 271.3605 271.5111 271.6535 271.9899 272.0748 272.8024
   273.1261 273.5867 273.7079 273.8797 274.0510 274.1798 274.5843 274.6710
   274.9965 275.1768 275.1849 275.6007 275.6501 276.0270 276.0813 276.1399
   276.1476 276.6338 277.1694 277.2244 278.1539 278.6409 278.7192 279.0490
   279.3701 279.8259 279.9450 280.0319 280.0991 280.4273 280.6998 280.7490
   281.3505 282.3778 282.4617 282.7920 283.0533 283.9899 284.3002 284.3577
   285.1081 285.2825 285.4294 285.7136 285.8147 285.9279 286.3258 286.7553
   286.7862 287.6602 288.5436 288.5484 289.0040 289.0384 289.0757 289.2112
   289.2527 290.0313 290.0317 290.4135 290.4606 290.5840 290.5921 290.5975
   290.6212 291.6161 292.6399 293.2461 293.7224 293.8067 293.9067 294.4402
   294.5296 294.6540 294.7931 294.8312 295.5501 296.4317 296.4407 296.7529
   296.8585 296.9786 297.0260 297.1473 297.1971 297.3780 297.5144 297.9890
   298.0578 298.2691 298.3703 298.5457 298.5572 299.1866 299.2850 299.5131
   300.1257 300.3167 300.3319 300.6229 301.4076 301.5794 301.8488 302.3175
   302.3222 302.5224 302.6261 304.0838 304.1417 304.2340 304.3184 305.0385
   305.0574 305.3222 305.5170 305.8102 306.1065 306.1221 306.2442 306.5138
   306.8131 306.8699 307.9318 308.0319 308.2730 308.3566 308.7337 308.9100
   309.3918 309.8004 310.0989 310.1707 310.1950 310.3433 310.3470 310.6715

          k = 0.3333 0.0000 0.3333 (  2465 PWs)   bands (ev):

    -8.5189  -8.5164  -8.5098  -8.5017  -8.4926  -4.5663   0.7499   5.7581
     7.0045   7.7415   9.8655  10.6780  12.4808  15.2006  15.5681  17.1849
    17.8417  20.4747  20.5916  21.3690  23.0307  25.5096  25.5378  26.9092
    27.1351  29.3817  31.1591  31.7655  32.0236  32.3861  32.5739  34.5235
    35.7000  36.5428  36.6598  36.8029  36.8407  37.1496  37.3852  37.9841
    39.5771  39.8150  40.6200  41.7695  42.4736  43.2403  43.7248  44.5188
    44.7815  44.8033  46.3263  47.7008  48.2317  48.6007  49.3196  49.4339
    49.5493  50.0473  50.8860  52.7367  52.8569  54.4453  54.8793  56.1434
    56.6796  56.7621  58.0808  58.6870  58.7644  59.2472  59.9452  60.1886
    61.1636  62.3706  63.4424  63.9461  64.5920  65.9122  66.0852  66.2027
    67.0387  68.3751  70.2060  70.2721  70.3243  70.5188  71.1690  71.4782
    71.5526  71.5843  72.1790  73.7277  74.3169  74.5247  76.1233  76.7673
    76.8473  77.5009  77.7868  78.7960  78.8760  79.3649  80.2233  80.3549
    80.4812  80.5311  81.6993  81.7651  81.8016  82.1928  83.2628  83.8651
    84.1072  84.6149  85.3306  85.5368  85.9557  86.4519  86.7187  86.9522
    87.4201  88.1491  88.7182  89.6032  90.3622  90.4993  91.0435  91.2852
    91.4776  92.2356  92.2602  92.6370  92.7055  93.0210  93.6128  95.4770
    95.7745  96.0366  96.1056  96.2311  96.7175  98.0866  98.2276  98.4382
    98.9918  99.1912  99.3910  99.6529 101.8864 102.1681 103.0611 103.3505
   103.4750 103.5447 104.4290 105.2820 105.6603 106.8243 107.2713 107.5396
   108.3258 108.8368 109.2013 109.5198 109.8473 110.7231 111.5022 112.2571
   112.3970 113.5469 113.7865 113.8621 114.0842 114.1584 114.8418 115.5351
   116.2700 117.3843 117.5207 117.7783 119.1752 119.3913 119.5517 119.6306
   120.2759 120.5869 120.6259 121.8916 122.2214 122.8814 123.2221 123.6791
   124.2004 124.2184 124.6169 124.7095 124.8639 125.3930 125.8796 126.0757
   126.1168 126.4673 126.6501 127.5462 127.6333 128.9230 129.6853 130.1170
   130.1267 130.4009 131.2921 131.3694 131.9965 132.0024 132.2960 133.0398
   133.1803 133.5896 133.9958 134.1533 134.2123 134.5865 135.3547 135.8221
   136.3075 136.4437 136.9557 137.5626 137.7427 138.3349 138.6299 139.2804
   139.7064 140.0973 141.2907 141.4031 141.5739 141.8526 142.3671 142.5044
   142.6809 143.5213 143.9820 144.5204 144.6085 144.9717 145.3730 145.6158
   145.6762 145.9329 146.0714 146.4488 146.4734 146.7020 146.9668 147.2651
   147.3121 147.5520 149.0845 149.1002 149.2232 149.4174 149.7646 149.9250
   150.7956 151.0110 151.1402 151.3484 151.8372 152.1376 152.4019 153.1311
   153.3582 154.1271 155.7234 155.8151 155.8544 156.0213 156.6654 157.1082
   157.6704 157.8833 157.9983 159.2957 160.1476 160.2288 160.2424 160.3422
   160.5463 160.7226 161.1524 161.1700 161.1780 161.7256 161.7888 162.2848
   162.8533 163.1662 164.0460 164.2369 164.4881 165.1445 165.6438 166.6746
   167.0747 167.0922 167.1085 167.3726 168.4151 168.7177 170.5507 170.6690
   171.3294 171.4311 171.6246 171.7788 172.1800 172.2142 172.6187 173.5063
   173.8032 174.8848 175.3674 175.6149 175.8825 176.0810 177.2394 177.3782
   178.0578 178.3912 179.4356 179.6162 179.8553 180.0557 180.0864 180.1730
   180.1839 180.9445 181.1190 181.1271 181.2458 181.8299 182.8266 182.9980
   183.2088 185.2446 185.4279 185.6297 185.7593 187.0631 187.1865 187.3288
   187.4303 188.1559 188.5178 188.6916 189.1656 189.4017 189.4149 189.4777
   189.6382 189.7445 189.8416 190.0863 190.7596 190.8816 191.0813 191.5431
   191.6910 191.8304 192.2755 192.9967 193.2448 193.2676 193.6129 195.9247
   195.9697 195.9802 196.7393 196.7526 197.0504 197.2480 197.6907 198.1366
   198.4151 198.5817 198.5957 199.3134 201.1565 201.7708 201.8281 202.0640
   202.2051 202.3731 203.2696 203.3034 203.3783 203.8825 204.3112 204.4306
   204.5839 204.8574 204.9553 205.0581 205.4047 205.4808 205.5475 206.2698
   206.4033 206.4663 206.5677 206.6510 206.8206 207.1891 207.5340 207.7833
   207.7891 208.3996 208.5164 208.8527 209.1970 210.8850 211.0842 212.1369
   212.4811 212.5785 212.7362 213.0056 213.2736 213.4154 213.4854 213.5876
   213.8614 214.5475 214.6289 214.8138 215.0937 215.1023 215.1965 215.2150
   215.7369 215.8054 215.9127 215.9857 216.1372 216.6587 216.7407 216.9183
   216.9802 217.0864 217.4400 217.4913 217.5898 218.1485 218.8100 219.0358
   220.8177 221.2439 221.3703 222.1256 222.1526 222.7979 222.8539 223.7185
   223.7951 224.1007 224.1801 224.2219 224.3724 224.5614 224.5713 224.6126
   224.7647 225.8776 226.0358 226.8530 227.0304 228.2460 228.8161 229.1757
   229.6237 229.6979 229.7497 229.7648 229.8016 230.4753 230.5552 230.6331
   230.6675 231.2228 231.9727 232.1214 232.4149 232.4600 232.9365 234.5136
   234.7219 234.9078 235.1285 235.2028 235.2585 235.3428 235.6501 235.8664
   235.9312 236.1687 236.2384 236.9938 237.3698 237.7503 238.1122 238.9754
   239.0352 239.4160 239.4785 239.6617 240.2744 240.9110 240.9210 241.2865
   241.3367 241.5105 241.6380 241.9127 242.3344 242.8358 242.9231 243.3704
   244.0042 244.0199 244.2736 244.3934 244.7200 244.9422 245.3302 245.5482
   245.9831 246.0210 246.7806 246.8116 246.9118 247.2141 248.6414 248.7003
   249.4844 250.0151 250.4270 250.5204 250.6078 250.7612 251.7307 251.7645
   252.9084 252.9118 253.7396 254.0698 254.4351 254.8577 255.5357 255.7885
   255.8110 256.0983 256.2030 256.2397 256.5540 256.7356 257.3961 257.4394
   257.5729 258.7558 258.7709 258.9297 259.7489 260.4906 260.6842 260.8100
   260.8540 260.8892 261.0974 261.1998 261.2192 261.5470 261.5798 261.8571
   262.8664 264.7065 264.7475 264.8543 264.8789 265.0939 265.1756 265.3857
   265.8649 265.9895 266.0269 266.1905 266.2750 266.3612 266.5138 266.5999
   266.6710 266.8990 267.5632 267.7256 269.9448 270.0662 270.5486 270.5581
   270.8140 270.8145 271.8579 272.0298 272.0877 272.1184 272.1779 272.2817
   274.7640 275.0616 275.0705 275.0867 275.9462 276.0225 276.3803 276.5325
   276.7078 276.7137 276.7568 276.8174 278.0944 278.2698 278.5924 278.6680
   278.6751 278.7905 279.6972 279.8280 280.7283 281.2643 281.7125 281.7169
   281.8568 282.0477 282.0675 282.2598 282.5127 282.9884 283.6253 283.6315
   283.9235 284.6715 284.6769 284.6895 284.7508 284.7790 285.7965 285.9816
   286.1576 286.4619 287.5896 287.6552 287.7711 287.7751 288.4863 288.9700
   289.4982 289.6682 289.9037 290.1196 290.1610 290.3077 290.4290 290.5697
   290.7435 291.0301 291.2148 291.2219 291.3339 291.3645 291.9856 292.2202
   292.2627 292.2907 293.1451 293.3179 293.5109 293.6461 293.7407 293.8388
   293.8905 293.9192 296.0855 296.4279 296.4518 296.4576 296.6284 296.8729
   296.9606 297.1019 297.5352 297.6298 297.6618 297.7766 297.9465 298.0877
   298.2780 298.3274 298.5665 298.8069 298.8558 298.9037 299.0938 299.2402
   299.7937 299.9247 299.9309 299.9683 300.0509 300.0896 301.9128 302.0762
   302.1334 302.1403 302.5966 302.6663 303.6765 303.6774 303.6850 303.7448
   305.8974 306.0155 306.0350 306.0361 306.1673 306.2900 306.6075 307.1954
   307.5791 307.7443 307.8140 307.9665 307.9751 308.1100 308.1136 308.1939
   308.3212 308.4828 309.4426 309.7747 309.8894 310.0303 310.0742 310.2924

          k = 0.0000 0.6667 0.0000 (  2453 PWs)   bands (ev):

    -8.5766  -8.5241  -8.4925  -8.4829  -8.4829  -4.1417   0.7963   5.2760
     5.5343   5.5343  12.1422  12.4862  13.3166  13.3166  18.4081  18.5525
    19.4448  19.4448  21.9930  22.2333  23.1812  23.1812  23.2891  25.9731
    28.2836  28.8547  28.8547  29.6549  29.6549  30.6494  33.4965  34.8563
    35.5527  35.5527  35.5793  37.4420  37.6525  37.9274  37.9274  39.7838
    39.7838  40.7328  41.4027  41.7104  41.7104  41.7723  42.6381  43.5516
    44.5972  45.7295  47.6371  48.2509  48.2509  48.4381  50.0526  50.0526
    53.0327  53.1573  53.1573  54.0691  54.0713  55.4431  55.4431  56.2135
    56.2135  57.2101  58.1435  59.0517  59.0634  59.0634  60.3917  60.5463
    62.5473  62.5473  63.3762  63.5548  63.8821  63.8821  64.0532  65.0236
    65.3696  67.7180  67.8506  68.3178  68.3178  69.4047  69.4047  69.4532
    70.3394  71.1624  71.3422  71.3422  74.3789  74.3789  75.3384  75.7985
    76.4776  76.4776  77.1238  77.6006  78.6699  80.3389  80.3389  80.7107
    80.8121  81.3714  81.3714  81.4650  83.7166  83.7166  83.9404  84.2244
    84.3984  85.4786  85.4786  85.4888  85.8544  85.8991  86.2491  86.2491
    86.3987  87.7835  88.7064  88.7447  88.7447  90.8079  91.6178  91.6178
    92.3880  93.0351  93.0351  93.8337  94.0067  94.0067  94.7557  95.2395
    96.0392  96.9193  96.9193  97.2659  97.8367  99.4674 101.2263 101.2943
   101.2943 101.5728 102.1342 103.5416 103.5416 103.6745 104.4581 104.4581
   104.5579 104.7286 105.3725 105.7581 106.5252 106.5252 107.2009 107.9176
   107.9234 107.9234 109.6827 111.7047 112.0068 112.0068 113.0839 113.1794
   113.1794 113.3798 113.5658 113.5658 114.3654 114.3997 114.6469 114.6469
   114.8197 115.4272 115.6734 116.0899 116.0899 116.9537 118.0047 118.0047
   118.2111 119.8108 120.0289 120.0289 120.2854 120.6873 121.3884 121.7768
   122.0102 122.0102 122.1815 122.5822 122.5822 122.6433 123.1765 123.8070
   123.8070 124.4029 124.9626 126.3470 126.3470 126.6774 127.0655 127.5368
   129.2233 129.2233 130.5338 130.5338 131.0084 131.4619 131.8288 131.8916
   131.8916 131.9319 132.1338 132.1768 132.1768 134.5635 134.5635 135.9497
   135.9914 137.6385 138.2281 139.3236 140.0065 140.0254 140.0254 140.1629
   140.9197 141.3076 141.3076 141.5611 141.5611 141.5927 143.5376 143.5376
   143.6112 144.0757 144.2970 144.5477 144.6938 145.1001 145.1001 145.1752
   145.9120 145.9120 146.2157 148.1539 148.6387 148.6387 148.9146 149.1973
   151.3685 151.3685 151.3988 151.6440 151.6440 151.8432 152.0063 152.1514
   153.5583 153.5583 154.0544 154.1270 154.4770 154.8056 154.8056 154.9617
   155.3342 155.3342 156.1790 156.7514 156.8777 156.8777 157.8698 158.1032
   158.1032 158.6102 159.3207 160.1204 160.1204 160.3918 160.7685 160.7832
   162.1261 162.1261 162.7082 162.8623 162.8623 163.0152 163.2013 163.4462
   163.7823 163.7823 163.9964 164.1077 164.5085 164.5085 165.1475 165.5842
   165.9751 166.2085 166.2085 166.5462 166.5462 166.8312 167.0385 167.0385
   167.1963 167.9803 167.9803 168.3805 168.4122 168.9665 169.6937 175.0881
   175.3672 175.7219 175.8337 175.8337 177.0428 177.4692 177.4692 177.5403
   179.3173 179.3721 179.6244 179.6244 180.5262 180.5262 180.6328 180.6692
   182.1910 182.2598 182.2598 182.4969 182.6070 182.9702 182.9702 183.1611
   183.3336 183.3336 185.0142 185.2300 185.2386 185.2386 185.3967 185.3967
   185.6085 186.0844 186.9495 187.1744 187.1744 187.9245 189.0905 189.0905
   189.2126 189.7143 189.7143 190.1710 190.1725 190.3927 191.3560 191.6622
   192.8920 193.5510 193.5510 194.3171 194.6063 194.6063 194.8419 195.1443
   195.8765 196.2140 196.2140 196.4781 197.8538 197.8632 197.8632 198.0301
   198.1066 198.2819 198.2819 198.3164 198.7523 198.7523 198.9467 199.3230
   199.3230 199.3549 199.8283 200.0256 200.3212 201.6633 201.6633 202.4501
   202.6459 202.7111 202.7111 202.8573 203.3247 203.3247 203.3348 204.1908
   204.8251 205.1170 205.2344 205.2344 205.5926 206.1476 206.1476 206.5720
   206.7760 207.3344 207.3344 207.4609 208.6311 208.6311 208.6320 208.7226
   209.2699 209.4134 209.4134 209.4364 209.7874 210.3894 210.4379 210.4379
   211.8846 211.9776 211.9776 212.0090 214.4413 214.8034 214.8034 215.0517
   215.8130 216.6725 216.8287 216.8287 218.2968 218.3404 218.3404 218.3722
   218.5435 219.2709 219.2870 219.2870 220.2156 220.3213 220.3213 222.3653
   222.9234 223.1147 223.1147 223.3504 223.5918 223.5918 223.6381 223.9252
   225.2316 225.2316 225.3567 225.5625 226.0806 227.0645 227.2385 227.2385
   227.3711 228.6795 229.1614 229.1614 229.3702 230.6417 230.9610 230.9610
   231.2788 231.4909 231.5668 231.5668 231.7681 232.0745 232.0745 232.8753
   233.1112 235.0742 235.0742 235.3934 235.4169 235.7460 235.7767 236.0812
   236.0812 236.5486 236.5486 236.8677 238.9162 238.9162 238.9296 239.1054
   239.7579 239.7579 240.1329 240.2568 240.8175 240.8175 240.8669 241.0772
   241.1153 241.1153 241.1725 241.9679 242.2425 242.2425 242.4482 242.7258
   242.7748 242.9173 242.9173 243.3678 243.7022 244.3107 244.7344 244.7344
   244.9901 244.9901 245.6092 246.0264 246.0796 246.1546 246.4522 246.8232
   246.8232 247.1801 247.1801 247.1851 247.4075 247.7883 247.7883 247.9194
   248.6511 249.0036 249.0036 249.7260 249.9067 249.9067 250.4251 250.5392
   250.6429 250.6482 250.6482 251.5128 252.8105 253.2268 253.2268 253.5772
   254.8675 254.8675 255.3203 255.3931 255.7380 255.8254 255.8530 255.8530
   258.7595 258.9036 258.9036 259.0556 259.7314 260.0683 260.3055 260.5412
   260.5412 260.8371 261.1074 261.7080 261.7080 262.1845 262.1995 262.1995
   262.6757 262.8389 262.8607 262.8607 264.1509 264.2927 264.5186 264.5186
   264.7201 264.9857 265.0284 265.0284 265.9976 266.2341 266.4641 266.4641
   266.7328 266.7677 267.0539 267.0539 268.0716 269.6527 269.7507 269.7507
   269.8862 270.2596 271.4897 271.5460 271.5460 271.5728 271.9606 271.9606
   272.7986 272.7986 272.8987 272.9157 273.2428 273.3026 273.3536 273.3536
   273.4263 274.3692 274.3692 274.5337 274.7443 275.2332 275.6818 275.6818
   276.0026 277.5677 277.8812 277.8812 277.9233 278.1049 278.1386 278.1386
   278.2951 278.5370 278.5370 281.2734 282.0076 282.7257 282.7257 283.1914
   283.2574 283.4948 283.4948 283.6281 283.7596 284.6321 284.6321 284.8495
   285.0542 286.9718 286.9718 287.0913 287.5895 288.2733 288.2769 288.2769
   288.2930 288.7033 288.9112 288.9112 288.9370 289.0498 289.0715 289.0715
   289.0821 289.3947 289.4784 289.7396 289.7396 289.8808 289.8808 290.1833
   290.2465 290.3094 290.5332 290.5332 290.5428 292.5929 292.7412 292.7412
   292.8524 293.3948 293.4424 293.4424 293.4523 296.7072 296.7072 296.7866
   297.4909 297.8891 297.8891 297.9522 298.1195 298.7222 298.8512 298.8751
   298.9715 298.9715 299.0285 299.0285 299.0844 299.1953 299.1953 299.2323
   299.4696 301.5182 301.6361 301.7016 301.7097 301.7097 303.9392 303.9392
   304.8028 304.8996 305.0200 305.0200 305.0592 305.0592 305.3457 305.4490
   306.3777 306.3777 306.8088 307.0997 307.3919 307.6541 307.6823 307.7661
   307.7661 307.8368 308.3390 308.3390 308.6170 308.6769 308.7521 308.7521
   308.7704 309.4972 309.5906 309.5906 310.4675 310.5323 310.7287 310.7287

          k = 0.8333-0.1667 0.8333 (  2450 PWs)   bands (ev):

    -8.5902  -8.5204  -8.4968  -8.4801  -8.4763  -3.8287   0.5365   4.2013
     5.5386   5.7095  12.0779  12.8271  13.2192  13.7429  19.1185  19.5001
    20.1385  20.1449  21.4386  22.3824  23.4870  23.8769  24.3112  25.3529
    27.1018  27.1402  27.7111  29.6617  29.9646  30.6947  32.3071  32.7838
    33.8076  34.4136  35.9697  36.0885  36.3064  38.2189  38.7423  39.4265
    39.4555  41.5604  41.7775  42.5395  43.0478  43.1734  44.0465  45.0182
    46.0590  46.8775  47.6632  49.2400  49.2996  49.5496  49.8187  50.7913
    51.5294  52.0998  53.0990  53.9571  54.9098  55.2537  55.3756  56.5048
    56.9353  57.2517  57.7756  58.1198  59.5401  59.6961  60.4344  60.6434
    60.8268  61.9914  63.0509  63.5902  64.1670  64.2467  64.4898  64.8377
    65.3493  66.3384  67.2826  68.2394  69.1669  69.4054  69.4147  70.3410
    70.4218  71.0223  71.7494  72.3760  72.7565  73.4787  73.8502  74.8429
    74.8450  76.1700  76.1746  76.9634  77.3938  78.0719  79.1048  79.5944
    79.8860  80.0654  80.2082  80.7331  81.0495  81.4478  82.9100  83.3019
    83.7671  84.9565  85.5143  86.3329  86.5461  87.2608  88.2818  88.5086
    88.5757  88.8410  89.4591  90.4520  91.3448  92.3281  93.1287  93.4138
    93.7179  94.1629  94.2397  95.2290  95.3251  95.7631  96.0747  96.7988
    96.9096  98.0032  98.2048  99.1587  99.7434  99.8226 100.1050 100.4134
   101.3775 102.2388 102.2425 102.8462 103.4525 103.5450 103.6012 104.6141
   104.6559 105.3395 105.9685 106.2666 106.7133 107.6882 107.7960 108.6292
   108.9515 109.0057 109.8642 109.8647 109.8706 110.3854 110.4389 110.6297
   111.5772 111.9647 112.4480 113.1225 113.2252 113.8431 114.0517 114.3174
   114.5424 115.0851 115.2890 115.4253 115.5690 116.2691 116.7834 117.2973
   118.1944 118.4493 118.6349 118.8509 119.9362 120.0974 120.9547 121.4824
   121.8837 122.2535 122.3250 122.9039 123.0503 123.1761 123.3844 124.0396
   124.0850 124.7956 125.6224 125.7525 126.4425 126.7397 127.3765 127.8473
   128.0853 129.4045 129.6756 130.5417 130.6846 130.8228 131.0115 131.7758
   131.8788 132.5951 133.2903 133.3886 134.4753 134.8609 135.2919 135.3221
   135.6737 135.8424 136.2774 137.1505 137.6200 138.5399 138.9396 139.2947
   139.5875 140.1130 140.4795 140.9901 141.5290 141.5319 141.6748 142.1416
   142.8779 143.1098 143.2549 144.8554 144.8947 145.4415 145.7710 146.8820
   147.1685 147.3106 147.4334 147.6596 148.9852 149.0350 149.4602 150.0787
[...]
   182.3812 182.6985 183.5380 183.8052 183.8163 184.1167 184.4768 185.1135
   186.1077 186.5215 186.7213 187.3537 187.9056 188.0781 188.1664 189.1486
   189.1968 189.4607 189.9537 190.1069 190.5034 190.8028 191.6265 191.8370
   192.0630 192.1719 192.5557 192.8138 192.9863 193.4335 193.9051 194.5079
   194.9035 194.9235 195.3400 195.4641 195.7301 196.0925 196.4219 196.5714
   196.8864 197.0218 197.3431 197.5423 197.9038 198.4476 198.5467 198.7718
   199.4996 199.6807 199.7070 200.0037 200.1928 200.3183 200.4027 200.5487
   201.0615 201.0775 201.9028 202.2332 202.7340 202.7896 202.9536 202.9963
   203.6335 203.6774 204.4106 205.5452 205.7340 205.9737 206.4223 206.8246
   207.8700 207.8871 208.5634 209.0668 209.4718 210.1321 210.2429 210.5004
   210.9969 212.7187 212.8623 213.3853 214.3712 214.8621 215.2868 215.5723
   215.6427 216.0305 216.0963 216.2888 216.6166 216.9775 217.1114 217.1486
   217.3800 217.4975 217.6969 218.2462 218.2549 218.6020 218.6639 218.6931
   219.0051 219.0358 219.6122 219.7775 220.0614 220.0998 220.3655 220.5988
   221.0455 221.2873 221.3336 221.4446 221.8058 222.2747 222.3569 223.0749
   224.5227 224.5671 226.3376 227.0133 227.0529 227.3747 227.8135 228.0981
   228.1776 228.3889 228.5758 228.6192 228.8369 229.1823 229.6843 229.7368
   230.1228 230.2490 230.7063 230.8770 231.4442 231.6322 231.8591 232.0367
   232.2308 233.0749 233.2749 233.5931 233.7662 234.1809 235.1567 235.3193
   235.4529 235.5727 236.0211 236.1217 236.2599 236.2964 236.8990 237.0158
   237.1724 237.5283 237.6862 238.8618 238.8889 239.4311 239.8647 240.1252
   240.6366 241.0465 241.0499 241.2056 241.8080 242.0269 242.6391 242.6581
   242.8312 243.4401 243.6576 243.8634 243.8960 244.3577 245.0942 245.1378
   245.6112 245.7580 245.7797 246.0597 246.0881 246.3323 246.6267 246.7254
   247.0734 247.3227 247.5087 247.6846 249.4639 250.0960 250.1784 250.2988
   250.4529 251.4672 251.9614 252.0157 252.5290 252.6964 253.1814 253.4126
   253.7580 253.8685 254.0201 254.0759 254.2933 254.4019 254.9137 255.3381
   255.5338 255.6760 255.8624 256.1186 256.1745 256.8562 257.3066 257.8161
   257.8182 257.9086 258.3540 258.3550 258.7868 259.5839 259.8222 260.5266
   260.8415 261.0029 261.3601 261.3803 261.4655 261.5952 261.6761 261.9078
   262.0864 262.2431 262.3273 262.5759 262.6780 263.0644 263.1060 263.4710
   264.6605 264.9814 265.1968 265.5495 265.7268 265.9333 265.9698 266.6038
   267.9027 267.9288 268.4517 268.5716 268.7358 268.9849 269.1154 269.2752
   269.4003 269.4791 269.7806 270.4638 270.6121 271.4983 271.7534 272.1122
   272.2638 272.4769 272.6235 272.8622 272.8723 273.0805 273.5565 273.6159
   274.0011 274.0486 274.1512 274.1854 274.5073 274.5244 275.1179 275.1535
   276.8874 276.9990 277.3764 277.3824 277.4565 277.7552 278.3263 279.0801
   279.1066 279.4883 279.6631 280.2132 280.4134 280.5320 280.8724 281.4350
   281.4627 281.8241 281.9032 281.9075 282.3249 282.5940 283.0776 283.3378
   283.9917 284.0487 284.2477 285.3921 285.7416 285.7967 286.1047 286.4276
   287.0812 287.3905 287.5982 287.6098 288.1159 288.6750 288.6996 289.3836
   289.5069 289.6911 290.1306 290.2313 290.7173 291.0266 291.2594 291.2898
   291.4839 291.5650 292.1346 292.3632 292.5148 292.5421 292.8842 293.3087
   293.3397 293.8347 294.5740 295.2679 295.4708 295.7280 295.8339 295.9094
   296.0572 296.2619 296.6940 296.8567 297.0614 297.7861 297.8435 297.9790
   298.0026 298.1811 298.8956 298.9588 299.0891 299.1390 299.8696 299.9809
   300.0547 300.3269 300.4406 301.8566 302.4060 302.5892 302.8538 302.9290
   303.0330 303.2001 303.2762 303.4861 303.8882 304.2966 304.7694 304.8954
   304.9850 305.0200 305.0541 305.0642 305.5976 305.7309 305.8880 306.4065
   306.5165 307.0023 307.0603 307.4523 307.5763 307.8007 308.3779 308.7698
   308.8260 309.0666 309.0802 309.4483 309.6567 310.9909 311.2563 311.3367

          k = 0.5000-0.1667 0.8333 (  2442 PWs)   bands (ev):

    -8.5677  -8.5114  -8.4998  -8.4976  -8.4774  -3.8023   0.1452   4.7142
     4.9128   7.5280   9.9576  12.5418  12.9119  15.8418  15.9905  19.6817
    19.6919  21.0181  22.3273  22.9407  23.6760  25.2601  25.6435  26.4497
    27.0237  27.1881  28.6848  28.8174  29.5238  30.2230  30.3656  31.8565
    32.3239  32.9644  34.0236  36.5147  37.0978  38.4317  39.5661  39.9971
    40.2344  40.9838  42.7398  43.1878  43.4976  44.2930  44.4469  45.2455
    46.5235  47.2197  47.5322  48.1998  49.2276  49.8322  50.6634  50.8468
    51.2305  51.7744  51.9747  52.6939  55.1221  55.4258  56.0664  56.1304
    56.5255  56.6553  57.1276  58.5457  59.2700  59.9055  60.1621  60.6849
    61.2254  61.6219  62.9437  63.1240  64.1527  64.3400  65.6898  65.7651
    66.8032  67.1767  67.6786  67.9748  68.1506  68.6770  69.3911  69.4839
    70.6974  71.2860  71.5644  72.5708  72.9400  73.2057  73.6251  73.6684
    74.0600  75.0515  75.8235  75.9134  77.2153  78.0454  78.2249  79.2564
    79.4537  80.5389  80.8080  81.5252  81.9167  82.7682  83.3281  84.3962
    84.7055  85.2777  85.7161  86.5796  86.6401  87.4187  87.8072  88.5642
    88.8726  88.9538  89.9634  90.7169  91.2966  91.4781  93.3171  93.4531
    94.7816  95.0750  95.6053  95.9347  95.9401  96.3873  96.5616  97.1732
    97.3602  97.8354  97.9216  98.3015  98.7505  99.7414  99.8659 100.1909
   101.1720 101.4339 101.6105 102.1760 102.5860 103.0079 103.2451 103.7071
   103.8935 104.7213 105.0773 105.5516 105.8392 106.1838 107.0103 107.6977
   108.2396 108.6388 108.9248 109.0586 110.5094 110.5530 110.6992 111.2720
   111.2877 111.4554 111.9686 112.7702 112.9149 113.4922 113.5007 114.1318
   114.3822 115.2939 115.5490 115.7326 116.3068 117.0407 117.2863 118.1166
   118.4337 118.4836 119.0748 119.7762 120.5431 120.5655 121.6187 121.7226
   122.3796 122.7227 122.9923 123.6630 123.8449 124.1397 124.4680 124.7754
   125.4377 125.6402 126.3675 126.6660 127.4172 127.8319 128.0132 128.5992
   129.3102 129.6813 129.7169 130.2739 130.5575 130.6717 131.2951 131.6171
   132.1652 133.1547 133.4524 133.4549 134.0497 134.3956 134.4909 135.0846
   135.8411 136.0696 136.3790 137.0334 138.0847 138.1873 138.3556 138.4628
   139.4635 139.8183 139.8533 140.7566 140.9237 140.9584 141.9696 141.9987
   142.3780 142.6554 142.9484 143.1492 143.9892 144.2101 144.5400 145.2596
   145.7987 146.0890 146.2582 146.6057 147.9158 148.1380 148.3403 148.5384
   149.3993 150.0370 150.4578 150.7915 151.4627 152.3506 152.4607 152.8995
   153.6544 153.9210 154.0065 154.1663 154.2714 154.4146 154.5001 155.6813
   155.8472 156.0399 156.3975 156.6106 156.8633 157.3611 159.3812 159.4140
   160.1589 160.5163 160.8883 161.5163 162.0259 162.3913 163.1744 163.3254
   163.8336 163.9356 164.1651 164.5127 164.5850 165.0735 165.6232 166.3710
   166.4038 166.9047 166.9145 167.1912 167.4769 167.6416 167.9150 168.1147
   168.4556 168.9831 169.4771 169.8612 170.0527 170.0740 170.2127 170.3864
   170.6422 171.0208 171.5733 171.9599 171.9754 172.2231 172.6197 172.9012
   173.1238 173.5266 174.0583 174.3643 174.8289 175.5478 175.8676 176.1749
   177.3279 177.5506 177.6683 178.0967 179.1244 179.2092 179.5711 179.6846
   179.9615 180.1752 180.4240 180.6451 180.9183 181.0150 181.5708 181.6274
   181.9970 182.0432 182.1981 182.2792 182.7415 182.9419 183.9192 184.3332
   184.4197 184.6026 184.6508 184.6559 185.9988 186.7063 186.7741 187.0035
   187.4438 187.4665 187.5076 187.6589 187.8950 188.6561 188.8327 188.9220
   189.5836 189.7619 190.7770 191.1351 191.7299 192.3719 192.7860 192.9873
   193.0768 193.1716 193.4125 193.6060 194.3053 194.3078 194.7384 194.7989
   195.2944 195.3486 196.3672 196.6997 197.0403 197.2618 199.2888 199.4214
   200.3474 201.3878 201.7347 201.8520 202.1317 202.2579 202.7505 202.8511
   203.2058 203.2240 203.4711 203.6994 203.8247 204.0900 204.4341 204.7795
   205.4262 205.4598 205.7831 206.3291 206.4778 206.6083 207.3098 208.2715
   208.4326 208.5757 209.6100 209.7122 209.8352 209.9092 210.5584 210.5925
   211.1060 211.2496 212.6696 212.8732 213.0988 213.1372 214.1150 214.5094
   214.9797 215.0474 215.2402 215.3326 215.6033 215.9980 216.3901 217.3818
   217.5569 217.7229 218.3826 218.5928 218.6900 218.8549 219.2696 219.7719
   220.0938 220.3232 220.5866 220.6473 221.3479 221.5694 221.6554 221.7063
   222.1726 222.5426 222.9900 223.1574 223.4317 223.4931 223.6899 223.7659
   224.7216 224.7727 225.0661 225.1900 225.2269 225.4610 225.8483 226.0264
   227.4812 227.5891 227.7979 228.0016 228.3522 228.9088 229.2449 229.2656
   230.3573 230.5322 230.7618 230.8303 231.2980 231.4865 232.2507 232.2653
   233.2641 233.5279 233.8031 234.0464 234.3177 234.3728 234.5581 235.4505
   235.7259 235.7269 236.0162 236.0331 236.1961 236.4716 237.0848 237.2384
   238.8160 238.9209 239.3026 239.3700 239.6142 239.6151 239.8401 239.9602
   240.5431 240.7755 241.1467 241.9560 242.3491 242.6917 244.2176 244.3085
   244.4251 244.4699 244.5985 244.6204 244.7310 244.7791 245.3553 245.7633
   245.8454 246.1220 246.4809 247.6383 247.7621 247.7763 248.0090 248.0249
   248.1032 248.4430 248.4781 248.6337 248.6423 248.8259 248.8900 249.1015
   249.2176 249.2416 249.4380 249.6694 250.1251 250.6149 250.9698 251.2198
   252.8237 252.9501 254.5028 254.9144 255.1757 255.2864 255.6652 255.7700
   256.2507 256.7011 257.6339 257.6834 258.6366 258.7016 258.9083 259.0027
   259.4430 259.4925 260.3157 260.3593 260.7486 260.9484 261.0018 261.1257
   261.2125 261.2583 261.4154 261.4533 261.6813 261.9652 262.8362 262.8841
   263.0149 263.1123 263.6210 263.6679 263.8466 263.9824 264.7468 264.7622
   265.0027 265.2142 265.6251 265.7339 266.3776 266.5594 266.9837 267.1909
   267.5676 267.6285 267.9366 268.0254 268.0424 268.1277 268.6848 268.6924
   268.9795 269.0917 269.7236 270.0012 270.5873 270.7605 270.8824 271.0515
   271.2582 271.4828 272.1368 272.3978 272.4046 272.8678 273.2034 273.3350
   274.2780 274.3002 274.6419 274.8473 274.9407 274.9544 275.4343 275.5241
   275.9916 276.0752 276.2735 276.3536 276.4774 276.5823 276.7886 276.8789
   276.8796 277.0078 277.0928 277.3275 277.9638 278.0131 279.4899 279.5969
   280.2893 280.3193 280.9996 281.1472 281.6787 281.7498 282.1170 282.1177
   282.3187 282.3566 283.5593 283.7696 284.4230 284.4243 284.8511 284.9653
   285.4402 285.4453 285.8309 285.9316 286.1141 286.2782 286.7043 286.8052
   287.9325 288.0616 288.2993 288.4310 288.6046 288.6080 289.1407 289.2708
   290.0383 290.0645 290.4050 290.5328 291.2897 291.4019 292.0985 292.1796
   293.0945 293.0981 293.4123 293.5048 294.5054 294.5533 294.7887 294.8103
   294.8728 295.1395 295.2201 295.7031 296.8882 296.9141 297.0988 297.1389
   297.3399 297.5522 297.6476 297.7926 298.2616 298.3734 298.5676 298.9017
   299.4481 299.6633 300.5418 300.7274 300.8654 300.8672 302.3493 302.4546
   302.5278 302.5417 304.2109 304.3108 305.0010 305.0193 305.0289 305.1439
   306.5545 306.5893 306.6289 306.6563 307.3123 307.3825 307.8144 307.8931
   308.0490 308.6114 308.7092 309.4763 309.4869 311.0581 311.1074 311.7189
   311.7399 312.1986 312.2412 313.0831 313.2400 313.2772 313.7807 313.8674

          k =-0.3333-1.0000 0.0000 (  2450 PWs)   bands (ev):

    -8.5912  -8.5148  -8.4998  -8.4870  -8.4726  -3.7163   0.4993   3.8963
     4.7190   6.7559  11.2199  12.7152  13.7038  14.7638  17.5055  19.8533
    20.9904  21.1281  21.4684  22.3625  22.6374  24.7720  24.7790  25.6221
    27.5870  27.6056  27.6176  27.6872  29.5814  31.3262  31.4724  32.0877
    32.3545  33.3477  34.4857  35.7881  37.8470  38.2040  39.7322  40.2895
    40.6111  40.7060  42.1784  42.4270  42.9789  43.6652  45.6027  46.2168
    46.3763  46.5116  47.5282  48.1454  48.4034  49.9397  50.6107  51.6770
    51.8084  52.8493  53.0934  53.1979  54.0765  54.6569  54.9552  55.0816
    55.3372  57.6871  58.5006  58.7528  59.1683  60.4044  60.4801  61.7121
    62.2839  62.5504  62.6079  63.0677  64.0854  64.1808  64.5304  65.2389
    65.6187  66.6430  67.1162  67.3339  68.1064  68.6784  70.0267  70.5661
    70.6460  71.2275  72.2463  72.5871  73.9141  73.9242  74.5038  74.6388
    75.0428  75.2689  75.7862  76.0103  76.0359  76.1134  77.3910  77.9489
    78.9037  79.4225  79.5594  79.5665  81.3342  81.9793  82.7910  82.9306
    83.7323  84.9884  85.5136  86.3894  86.4913  86.9632  88.0487  89.5407
    90.1720  90.5378  90.8168  92.4133  93.0788  93.1498  93.6481  94.1260
    94.3673  94.5495  94.7120  94.9272  96.1925  96.2564  96.6385  96.7498
    97.1955  97.2383  97.5988  98.8270 100.0502 100.1913 100.9688 101.5716
   101.6000 102.1637 103.1969 103.6205 103.8316 103.9015 104.8140 104.9590
   105.0366 105.3639 105.4277 105.8639 105.9945 106.1811 106.6376 106.9956
   107.0510 107.6088 108.2945 108.4650 109.0756 109.6190 109.8462 110.0690
   110.6123 111.1624 112.3858 112.7026 113.1289 113.1721 114.6839 114.7507
   115.2431 115.8411 115.9543 116.0670 117.1374 117.2199 117.5850 118.1270
   118.7975 119.1359 119.3143 119.5896 119.6174 120.3679 120.5275 120.9869
   121.1274 121.3228 121.3835 122.1701 122.8244 123.0252 123.0894 123.3227
   123.7556 123.8958 124.8330 124.9778 125.3192 127.3010 127.3630 127.3833
   129.0651 129.5162 129.6600 129.8124 131.2721 131.5731 131.9050 131.9075
   132.0211 132.6403 133.7630 134.3395 134.3454 134.3639 134.9016 135.5004
   135.7004 137.0392 137.2390 137.6519 138.0298 138.0961 138.2138 138.6843
   140.3907 140.5252 140.9107 141.0379 141.2850 141.3259 141.4006 142.3151
   142.3962 142.7560 143.4553 144.3610 144.6173 144.9326 145.1178 145.8424
   146.4256 146.5618 146.5835 147.2822 147.4908 148.0886 148.4693 149.3162
   149.7175 149.9667 151.5792 152.1192 152.4122 152.5295 152.8134 152.9488
   153.3437 154.1115 154.1474 154.2301 154.9925 155.1429 155.3874 155.5887
   156.2128 156.7566 156.8558 157.5746 157.6606 157.8927 157.9454 159.1107
   159.9305 160.1488 160.3428 160.6784 161.1853 161.4881 162.7898 162.9648
   163.7369 163.9571 164.0730 164.2465 164.3864 164.8134 165.0326 165.8223
   166.4944 166.5016 166.8437 167.2377 167.4665 168.1741 168.4543 168.5122
   169.2044 169.2241 169.2527 169.3893 170.1502 170.2409 170.3673 170.4612
   170.7250 171.4609 171.7629 172.1423 172.8116 172.9502 173.0265 173.0798
   173.4069 173.9277 174.3376 174.3552 175.1201 175.2787 175.3477 176.7786
   177.2583 177.3805 177.7507 177.8167 178.2285 178.4853 178.5972 178.7046
   179.0178 179.2949 179.4250 179.6074 179.6283 179.9463 180.0897 180.7112
   181.1083 181.3284 181.5289 182.4485 183.0743 183.1726 184.2978 184.3093
   184.6883 184.9664 185.2429 185.3426 185.3616 185.3860 185.8121 185.9276
   185.9394 186.1287 186.3280 186.5644 186.7905 188.7043 188.8782 189.1146
   190.3341 190.4380 191.6492 191.9980 193.4978 193.6152 194.0730 194.0761
   194.7728 194.8456 195.1214 195.2449 195.3368 195.9277 196.7364 196.7671
   196.9440 197.2261 197.4949 197.8413 197.8883 198.3081 198.6516 199.0395
   199.4644 199.5520 199.7660 201.0673 201.3481 201.4374 201.7268 201.8056
   202.1701 202.5757 203.0815 203.3816 203.5606 203.6470 203.9885 204.1784
   204.6804 205.1551 205.3973 205.5728 206.0402 206.2031 206.6423 206.8527
   207.3931 207.5332 207.6629 207.9871 208.0551 208.4949 208.7769 209.2028
   209.8555 210.5992 210.6898 213.6280 213.7807 214.2844 214.2915 214.5589
   214.7491 215.9171 216.3230 216.5604 217.0821 217.0881 217.2926 217.3111
   217.3743 217.5947 217.6826 217.8517 217.9178 218.0379 218.9241 219.4761
   219.6017 220.0812 220.2182 220.4700 220.6524 221.2527 221.3893 222.0746
   222.6187 222.7415 223.0662 223.0983 223.2165 223.2572 223.4614 223.9705
   224.9023 224.9361 225.6032 225.9576 225.9712 226.4994 226.6063 226.9019
   226.9938 227.0364 227.0419 229.9275 230.0284 230.1901 230.3147 230.3281
   231.0708 231.1178 231.5277 231.6785 231.7494 231.8844 231.9409 232.0046
   232.0372 233.0889 233.1405 233.3237 233.6115 233.9300 233.9781 234.0607
   234.4249 235.1778 235.2175 235.4741 236.6444 236.9294 236.9582 237.0560
   237.6656 239.3225 239.7108 239.8555 241.1279 241.3707 241.5819 241.6274
   241.7343 241.7625 242.1337 242.4763 242.7772 243.2533 243.2663 244.7264
   244.8847 244.9935 245.1230 245.4347 245.4761 245.5947 246.2956 246.4381
   246.4498 246.9022 247.6470 248.0162 248.1869 248.4334 248.4735 248.8290
   248.9082 249.3715 250.0277 250.4823 250.5022 250.5149 251.0021 251.0736
   251.4546 251.5047 251.7039 251.9643 252.0941 252.2120 253.2241 253.4063
   253.5805 253.7773 255.2056 255.5043 255.9155 255.9842 256.6435 256.6713
   257.4881 257.4921 257.7723 257.9306 258.0958 258.2171 258.2898 258.3612
   258.5182 258.5969 258.6872 258.8610 258.8758 258.9355 259.0805 259.2192
   259.4950 259.5623 259.7602 260.2595 260.8975 261.1455 261.3680 261.3947
   261.7245 261.7555 261.7561 261.7851 261.7884 261.9976 262.5798 264.3451
   264.3477 265.1141 265.1760 265.1843 265.2181 265.3479 265.3898 265.4946
   265.5668 265.6604 266.6638 267.5135 267.5684 267.6453 267.6475 268.1513
   268.3608 268.9705 268.9824 269.3052 269.6698 269.7128 269.9685 269.9710
   270.1725 270.3533 270.4937 270.8322 271.5003 272.5051 272.5060 273.6230
   273.6625 273.7244 273.7631 273.8603 273.9395 274.8226 275.1856 276.6122
   277.1335 277.2090 278.2246 278.5762 278.6871 278.9405 278.9463 279.0412
   279.5849 279.6068 279.6786 279.7267 279.9385 280.0072 280.0499 280.1313
   280.4893 280.5980 281.2512 281.2513 281.6902 281.7061 282.2224 282.6019
   282.6749 282.8896 282.9177 283.0066 283.1629 283.1708 283.2982 283.3437
   283.5201 283.9907 285.6218 285.6475 285.6676 285.7355 286.1196 286.1831
   286.4511 286.5324 286.5685 286.6475 287.0562 289.7310 289.7626 289.7681
   289.7865 290.0858 290.3223 290.3259 290.7345 291.1734 291.3572 292.0943
   292.1444 292.7391 292.7821 292.9570 292.9588 293.3593 293.6244 294.4576
   294.4633 295.2395 295.3759 295.9571 296.0445 296.2145 296.2223 296.2447
   296.2746 298.1736 298.4929 298.5835 298.6578 298.8956 299.9097 299.9156
   300.7247 300.7277 301.0356 301.0658 301.9150 301.9246 302.7014 302.9190
   303.4822 303.7059 303.7185 303.9451 304.1885 304.5370 304.9670 305.1491
   305.2273 305.2721 305.3917 305.4026 305.5429 306.1986 306.5185 306.8382
   306.9045 307.0391 307.1652 307.4811 307.7310 308.3368 309.0870 309.2080
   309.2327 309.3124 309.4925 309.7671 309.7693 309.7796 311.8933 311.9987

     the Fermi energy is     8.3526 ev
     (compare with:     8.3526 eV, computed in scf)

     Writing all to output data dir out/mp-2201.save/
 
     init_run     :      0.19s CPU      0.38s WALL (       1 calls)
     electrons    :     88.45s CPU     96.10s WALL (       1 calls)

     Called by init_run:
     wfcinit      :      0.00s CPU      0.00s WALL (       1 calls)
     potinit      :      0.18s CPU      0.30s WALL (       1 calls)
     hinit0       :      0.00s CPU      0.08s WALL (       1 calls)

     Called by electrons:
     c_bands      :     88.45s CPU     96.10s WALL (       1 calls)
     v_of_rho     :      0.09s CPU      0.09s WALL (       1 calls)

     Called by c_bands:
     init_us_2    :      0.00s CPU      0.00s WALL (      16 calls)
     init_us_2:cp :      0.00s CPU      0.00s WALL (      16 calls)
     cegterg      :     85.19s CPU     92.62s WALL (      16 calls)

     Called by *egterg:
     cdiaghg      :     72.60s CPU     78.91s WALL (     178 calls)
     h_psi        :      6.60s CPU      6.87s WALL (     194 calls)
     g_psi        :      0.02s CPU      0.02s WALL (     162 calls)

     Called by h_psi:
     h_psi:calbec :      0.12s CPU      0.15s WALL (     194 calls)
     vloc_psi     :      6.36s CPU      6.59s WALL (     194 calls)
     add_vuspsi   :      0.09s CPU      0.09s WALL (     194 calls)

     General routines
     calbec       :      0.12s CPU      0.15s WALL (     194 calls)
     fft          :      0.06s CPU      0.14s WALL (      10 calls)
     fftw         :      5.97s CPU      6.18s WALL (  153514 calls)
 
     Parallel routines
 
     PWSCF        :   1m29.53s CPU   1m37.72s WALL

 
   This run was terminated on:  13:25:31   5Apr2024            

=------------------------------------------------------------------------------=
   JOB DONE.
=------------------------------------------------------------------------------=
