
     Program PWSCF v.7.1 starts on 14Nov2023 at 23:24:18 

     This program is part of the open-source Quantum ESPRESSO suite
     for quantum simulation of materials; please cite
         "P. Giannozzi et al., J. Phys.:Condens. Matter 21 395502 (2009);
         "P. Giannozzi et al., J. Phys.:Condens. Matter 29 465901 (2017);
         "P. Giannozzi et al., J. Chem. Phys. 152 154105 (2020);
          URL http://www.quantum-espresso.org", 
     in publications or presentations arising from this work. More details at
     http://www.quantum-espresso.org/quote

     Parallel version (MPI), running on     8 processors

     MPI processes distributed on     1 nodes
     123576 MiB available memory on the printing compute node when the environment starts
 
     Reading input from pw_mp-612118_nscf_k130_E58.in
Warning: card &IONS ignored
Warning: card / ignored
Warning: card &CELL ignored
Warning: card / ignored

     Current dimensions of program PWSCF are:
     Max number of different atomic species (ntypx) = 10
     Max number of k-points (npk) =  40000
     Max angular momentum in pseudopotentials (lmaxx) =  4

     Atomic positions and unit cell read from directory:
     out/mp-612118.save/
 
 
     R & G space division:  proc/nbgrp/npool/nimage =       8
     Subspace diagonalization in iterative solution of the eigenvalue problem:
     one sub-group per band group will be used
     scalapack distributed-memory algorithm (size of sub-group:  2*  2 procs)

 
     Parallelization info
     --------------------
     sticks:   dense  smooth     PW     G-vecs:    dense   smooth      PW
     Min         119     119     35                 2448     2448     392
     Max         120     120     36                 2452     2452     395
     Sum         955     955    283                19603    19603    3143
 
     Using Slab Decomposition
 


     bravais-lattice index     =            2
     lattice parameter (alat)  =      10.9472  a.u.
     unit-cell volume          =     327.9847 (a.u.)^3
     number of atoms/cell      =            1
     number of atomic types    =            1
     number of electrons       =         8.00
     number of Kohn-Sham states=         1200
     kinetic-energy cutoff     =      58.0000  Ry
     charge density cutoff     =     232.0000  Ry
     Exchange-correlation= PBE
                           (   1   4   3   4   0   0   0)

     celldm(1)=  10.947237  celldm(2)=   0.000000  celldm(3)=   0.000000
     celldm(4)=   0.000000  celldm(5)=   0.000000  celldm(6)=   0.000000

     crystal axes: (cart. coord. in units of alat)
               a(1) = (  -0.500000   0.000000   0.500000 )  
               a(2) = (   0.000000   0.500000   0.500000 )  
               a(3) = (  -0.500000   0.500000   0.000000 )  

     reciprocal axes: (cart. coord. in units 2 pi/alat)
               b(1) = ( -1.000000 -1.000000  1.000000 )  
               b(2) = (  1.000000  1.000000  1.000000 )  
               b(3) = ( -1.000000  1.000000 -1.000000 )  


     PseudoPot. # 1 for Kr read from file:
     /usr/scratch4/magr4985/MG/HTDF/pseudo/SG15/Kr.upf
     MD5 check sum: 4a275f71d3bc7366299250ec96e82e35
     Pseudo is Norm-conserving, Zval =  8.0
     Generated using ONCVPSP code by D. R. Hamann
     Using radial grid of  602 points,  6 beta functions with: 
                l(1) =   0
                l(2) =   0
                l(3) =   1
                l(4) =   1
                l(5) =   2
                l(6) =   2

     atomic species   valence    mass     pseudopotential
        Kr             8.00    83.79800     Kr( 1.00)

     48 Sym. Ops., with inversion, found



   Cartesian axes

     site n.     atom                  positions (alat units)
         1           Kr  tau(   1) = (   0.0000000   0.0000000   0.0000000  )

     number of k points=    16  Gaussian smearing, width (Ry)=  0.0005
                       cart. coord. in units 2pi/alat
        k(    1) = (   0.0000000   0.0000000   0.0000000), wk =   0.0092593
        k(    2) = (  -0.1666667   0.1666667  -0.1666667), wk =   0.0740741
        k(    3) = (  -0.3333333   0.3333333  -0.3333333), wk =   0.0740741
        k(    4) = (   0.5000000  -0.5000000   0.5000000), wk =   0.0370370
        k(    5) = (   0.0000000   0.3333333   0.0000000), wk =   0.0555556
        k(    6) = (  -0.1666667   0.5000000  -0.1666667), wk =   0.2222222
        k(    7) = (   0.6666667  -0.3333333   0.6666667), wk =   0.2222222
        k(    8) = (   0.5000000  -0.1666667   0.5000000), wk =   0.2222222
        k(    9) = (   0.3333333   0.0000000   0.3333333), wk =   0.1111111
        k(   10) = (   0.0000000   0.6666667   0.0000000), wk =   0.0555556
        k(   11) = (   0.8333333  -0.1666667   0.8333333), wk =   0.2222222
        k(   12) = (   0.6666667  -0.0000000   0.6666667), wk =   0.1111111
        k(   13) = (   0.0000000  -1.0000000   0.0000000), wk =   0.0277778
        k(   14) = (   0.6666667  -0.3333333   1.0000000), wk =   0.2222222
        k(   15) = (   0.5000000  -0.1666667   0.8333333), wk =   0.2222222
        k(   16) = (  -0.3333333  -1.0000000   0.0000000), wk =   0.1111111

     Dense  grid:    19603 G-vectors     FFT dimensions: (  40,  40,  40)

     Estimated max dynamical RAM per process >     141.26 MB

     Estimated total dynamical RAM >       1.10 GB

     The potential is recalculated from file :
     out/mp-612118.save/charge-density

     Starting wfcs are random

     Band Structure Calculation
     ParO style diagonalization

     ethr =  5.00E-06,  avg # of iterations =  5.7

     total cpu time spent up to now is     1207.0 secs

     End of band structure calculation

          k = 0.0000 0.0000 0.0000 (  2445 PWs)   bands (ev):

   -17.6027  -3.1441  -3.1441  -3.1441   4.0774  10.4512  10.4512  10.4512
    12.8071  12.8071  14.1187  16.5311  16.5311  16.5311  18.3862  26.1964
    26.1964  26.1964  27.3616  27.3616  27.3616  30.2419  30.2419  32.2306
    32.2306  32.2306  32.8301  39.9140  39.9140  41.9702  41.9702  41.9702
    42.7778  42.7778  42.7778  44.4114  44.6554  44.6554  44.6554  46.6611
    46.6611  46.6611  46.9874  46.9874  46.9874  47.1386  48.8428  48.8428
    48.8428  49.4386  49.4386  52.5558  52.5558  52.5558  52.6059  52.9064
    52.9064  52.9064  53.3615  65.7144  65.7144  67.8857  67.8857  67.8857
    69.6901  71.0277  71.0277  71.0277  75.0899  75.0899  75.6959  75.6959
    75.6959  75.7845  75.7845  75.7845  80.9856  82.2743  82.2743  82.2743
    83.0429  83.0429  83.0429  83.7138  83.7138  83.7138  83.9272  83.9272
    84.4191  84.4191  84.5827  85.5081  85.5081  85.5081  86.0047  86.0047
    86.0047  86.8473  86.8473  86.8473  87.6823  88.4927  88.4927  88.4927
    88.5264  88.5264  88.5264  88.9419  88.9419  88.9419  89.0284  89.0284
    90.1792 100.3798 100.3798 100.3798 101.8686 102.8604 102.8604 102.9506
   102.9506 102.9506 104.3325 104.3325 104.3325 104.3459 104.3459 104.3459
   104.3794 104.3794 104.3794 104.4336 104.4336 104.6198 104.6198 104.6198
   107.2940 111.6427 111.6427 113.7257 113.7257 113.7257 115.6550 117.8321
   117.8321 117.8321 118.1573 118.1573 118.1573 118.2254 118.2254 118.2254
   118.2388 118.2388 118.2388 118.3730 118.3730 118.3730 118.4743 118.9190
   118.9190 118.9190 120.3774 121.0571 121.0571 121.1042 121.1042 121.1042
   121.2164 132.2111 132.2111 132.2111 133.9249 133.9249 136.0895 136.0895
   136.0895 137.4041 137.4041 137.4041 140.4641 145.7446 145.7446 146.5679
   146.5679 146.5679 150.0551 150.0902 150.0902 150.0902 150.6082 150.6082
   150.6082 150.6350 150.6350 150.6350 150.7092 150.7092 150.7092 151.6605
   151.6605 151.6605 151.7688 151.7688 151.9592 151.9592 151.9592 152.1585
   152.6079 152.6079 152.7869 152.7869 152.7869 153.1076 153.1461 153.1461
   153.1461 155.4873 155.4873 155.4873 155.6258 155.6258 155.7874 155.7874
   155.7874 156.0425 156.0425 156.0425 156.1476 156.4772 156.4772 156.9137
   157.0648 157.0648 157.0648 158.8254 158.8254 158.8254 158.9109 158.9109
   158.9109 159.0731 159.5595 159.9369 159.9369 159.9369 159.9796 159.9796
   160.2509 160.2509 160.2509 160.3310 160.3310 160.3310 160.3361 160.3361
   160.3361 160.3425 160.3425 170.8549 170.8549 173.9542 173.9542 173.9542
   174.6761 174.6761 174.6761 175.1656 175.5440 175.5440 175.5440 175.5956
   175.5956 175.5956 175.6787 175.6787 175.6787 177.0478 177.1991 177.1991
   177.1991 177.2540 177.2540 181.7421 181.7421 181.7421 186.3558 186.5099
   186.5099 186.5323 186.5323 186.5323 186.9670 188.2939 188.2939 188.2939
   188.3147 188.3147 188.5061 188.5061 188.5061 188.5255 188.5255 188.5255
   188.6327 188.6327 188.6327 193.8670 193.8670 194.5914 194.5914 194.5914
   194.8944 194.9133 194.9133 194.9133 195.0003 195.0003 195.0003 195.0046
   195.0046 195.0046 195.0432 195.0561 195.0561 195.0561 195.1080 195.1080
   195.1512 195.1512 195.1512 205.4540 205.4540 205.4540 207.1264 207.1264
   211.9506 211.9506 211.9506 211.9675 212.0099 213.2670 213.2670 213.2670
   217.6156 217.6156 217.6156 217.7300 217.7300 217.7300 217.7961 218.7549
   218.7549 219.8633 219.8633 219.8633 220.0097 225.1048 225.1048 225.1048
   225.3349 225.3349 225.3349 225.4726 225.4726 225.4726 225.4857 225.4857
   225.4857 226.1472 226.1472 226.1472 226.2067 226.2067 226.2067 226.2126
   226.2126 226.2882 226.2882 226.2882 226.3693 228.4818 228.4818 228.5022
   228.5022 228.5044 228.5044 228.5044 228.5128 229.0357 229.2047 229.2047
   229.2047 229.3204 229.3204 229.3204 229.3307 229.3307 229.3307 231.5109
   231.5109 231.5109 231.6469 231.6469 231.8618 231.8618 231.8618 232.0099
   232.0231 232.0231 232.0231 237.4766 237.4766 237.4766 240.9858 240.9858
   244.6649 244.7056 245.0064 245.0064 245.0064 245.6277 245.6277 245.6277
   245.7130 245.7130 245.7586 245.7586 245.7586 245.8742 245.8742 245.8742
   245.9440 245.9440 245.9440 247.6352 247.6352 247.6352 247.6605 247.6605
   247.6681 247.6681 247.6681 247.6746 247.6746 247.6746 247.6939 247.6939
   247.6939 247.6978 247.6978 248.2823 248.4014 248.4014 248.4014 248.4483
   248.4561 248.4561 248.4561 254.3566 254.3566 257.3909 257.3909 257.3909
   258.4343 258.7210 258.7210 258.7210 259.0658 259.0658 259.0658 259.1402
   259.1402 259.1402 259.1661 259.1661 259.1661 259.4714 259.4714 259.4714
   259.8721 259.9655 259.9655 259.9655 259.9989 259.9989 260.2701 260.5028
   260.7501 260.7501 260.7501 262.1299 262.1299 262.1299 262.1414 262.1414
   262.1872 262.1872 262.1872 262.1886 262.1886 262.2240 262.2240 262.2240
   262.2550 262.2550 262.2550 262.6986 262.6986 262.6986 262.7032 262.7032
   262.7773 263.3022 263.3022 263.3022 263.3116 263.3116 263.3116 263.3658
   263.3658 263.3658 263.3895 263.3895 263.3895 263.6056 263.7352 263.7352
   263.7352 263.7864 263.7864 277.8107 277.8107 282.2465 282.3823 282.3823
   282.3823 285.4278 285.4278 285.4278 289.6999 289.6999 294.7233 294.7397
   295.0671 295.0671 295.0671 295.1895 295.1895 295.1895 295.1913 295.1913
   295.1913 295.2111 295.2111 295.2111 295.2678 295.2678 295.7322 295.7322
   295.7322 298.1993 298.1993 299.8198 300.1177 300.1177 300.1177 300.5171
   300.5171 300.5171 300.7319 300.7319 300.7319 300.7976 300.7976 300.7976
   300.8811 300.8811 300.8811 300.8997 300.8997 300.8997 301.3000 301.3788
   301.7413 301.7413 301.7413 302.4377 302.4953 302.4953 302.4953 302.5128
   302.5128 302.9796 302.9796 302.9796 303.0095 303.0095 303.0111 303.0111
   303.0166 303.0166 303.0166 303.0183 303.0183 303.0183 303.0385 303.0385
   303.0385 308.9835 308.9835 308.9835 311.4154 311.4154 315.0639 315.0639
   315.0639 315.0793 316.2157 316.2157 316.2157 318.3401 318.3401 319.1863
   319.1863 319.1863 319.4573 319.4573 319.4573 319.4656 319.4656 319.4736
   319.4979 319.4979 319.4979 319.5017 319.5017 319.5017 319.5548 319.5548
   319.5548 319.8007 320.1780 320.1780 320.1780 326.2344 326.2344 326.2344
   327.7788 327.7788 329.8293 329.8293 329.8293 329.9677 330.1239 330.1239
   330.2239 330.2677 330.2677 330.2677 330.2772 330.2772 330.2772 330.3160
   330.3160 330.3160 330.7976 330.7976 330.7976 330.7989 330.7989 330.7989
   331.0134 331.0702 331.0702 331.0935 331.0935 331.0935 331.4038 331.4038
   331.4038 332.7636 332.7636 332.7636 332.7667 332.9187 332.9695 332.9695
   332.9695 334.7227 334.8065 334.8065 334.8065 334.8844 334.8844 334.8844
   334.9192 334.9192 334.9192 334.9644 334.9644 338.5424 338.5424 338.5424
   338.5892 338.5892 338.6287 338.6287 338.6287 338.7654 338.8027 338.8027
   338.8027 339.2326 339.2326 339.2326 339.2351 339.2351 339.3234 339.3234
   339.3234 339.3240 339.3240 339.3240 339.4378 349.2497 349.2497 352.3517
   352.3517 352.3517 354.6640 354.7027 354.7027 354.7027 354.7482 354.7482
   354.7482 354.7626 354.7626 354.7626 354.8126 354.8126 354.8474 354.8755
   354.8755 354.8755 355.6066 355.6066 355.6066 359.7047 359.7047 360.0917
   360.0917 360.0917 363.1097 363.4580 363.4580 363.4580 365.0199 365.2389
   365.2659 365.2659 365.8000 365.8000 365.8000 365.8053 365.8053 365.8053
   365.8559 365.8559 365.9260 365.9260 365.9260 365.9827 365.9827 365.9827
   367.4404 367.4404 367.4404 367.8217 367.8217 367.8217 367.8221 367.8221
   367.8954 367.8954 367.8954 367.9217 367.9217 367.9217 367.9563 367.9563
   367.9563 368.0180 368.0180 368.5978 368.6614 368.6614 368.6614 368.7182
   368.7182 368.7182 368.7768 368.8575 368.8575 368.8575 368.8912 368.8912
   368.8912 368.9088 368.9088 368.9088 368.9127 368.9127 368.9127 371.7682
   371.8130 371.8130 371.8130 371.8356 371.8356 373.3141 373.3141 373.5454
   373.5454 373.5454 373.6120 373.6584 373.7232 373.7232 373.7232 373.7759
   373.7759 373.7759 373.8041 373.8041 373.8041 373.8265 373.8265 373.8265
   373.8303 373.8303 374.0614 374.0614 374.0614 374.5953 374.6226 374.6340
   374.6340 374.6340 374.6540 374.6540 374.6540 374.6566 374.6566 374.6566
   374.6715 374.6715 374.6856 374.6856 374.7071 374.7071 374.7071 374.7156
   374.7156 374.7156 374.7201 374.7201 374.7201 388.3371 388.3371 388.3371
   389.7857 389.8149 390.2026 390.2026 390.2026 391.7206 391.7206 391.8373
   391.8373 391.8373 391.8730 391.8730 391.8799 391.8799 391.8799 391.8821
   391.8821 391.8821 391.8891 391.8891 391.8891 397.6454 397.6454 401.0178
   401.0178 401.0178 401.5716 401.9633 401.9633 401.9633 402.0835 402.0835
   402.0835 402.1128 402.1128 402.1128 402.6471 402.6471 402.6471 402.9435
   402.9987 402.9987 402.9987 403.0118 403.0118 405.7661 405.7847 405.7847
   405.7847 405.8147 405.8147 406.4986 406.4986 406.4986 406.5339 406.5339
   406.5339 406.5429 406.5429 406.5429 406.5438 406.5438 406.5438 406.9524
   406.9892 406.9892 406.9892 407.0056 407.0056 421.5729 421.5729 421.5729
   424.0407 424.0407 425.5183 425.5783 425.5783 425.5783 425.5884 425.5943
   425.5943 425.5943 425.5976 425.5976 425.5976 425.6118 425.6118 425.6118
   425.6169 425.6169 426.2420 426.2420 426.2420 429.8989 429.8989 429.8989
   430.7038 430.7038 432.5618 432.6255 432.6255 432.6255 433.7622 433.7622
   433.7622 438.4704 438.4704 438.4704 438.9510 438.9654 439.1210 439.1210
   439.1242 439.1242 439.1242 440.2315 440.2315 440.2315 440.4498 440.4498
   440.4498 440.4566 440.4566 440.4566 440.4606 440.4606 440.4606 440.4901
   440.4901 440.5007 440.5007 440.5007 440.6453 440.6707 441.0401 441.0401
   441.0401 441.1688 441.1688 441.1847 441.1847 441.1941 441.1941 441.1941
   441.2561 441.2561 441.2561 441.2705 441.2705 441.2705 441.3136 441.3136
   441.3136 441.4159 441.4426 441.4426 441.4426 441.4570 441.4570 441.4570
   441.4570 441.4570 441.4669 441.4669 441.4669 442.9114 442.9114 443.4753
   443.6485 443.6485 443.6485 444.1580 444.1580 444.1747 444.1862 444.1862
   444.1862 444.2326 444.2326 444.2326 444.2483 444.2483 444.2483 446.8848
   446.8848 446.8848 446.9251 446.9251 447.0050 447.0050 447.0050 447.0446
   447.1260 447.1260 447.1260 458.4486 458.4486 458.8288 458.8288 458.8288
   460.7671 460.7671 460.7932 460.7932 460.7932 460.7986 460.7986 460.7986
   460.8654 460.8654 460.8654 460.9321 460.9463 461.0139 461.0139 461.0139
   461.0825 461.0825 461.1735 461.1735 461.1735 461.1999 461.9558 461.9558
   461.9558 462.0693 462.0693 462.0693 462.0943 462.0943 462.0943 462.1017
   462.1017 462.1017 462.1090 462.1090 462.1090 462.4931 462.5484 462.5484
   462.5484 462.5887 462.5887 462.5887 462.5947 462.5947 462.5956 462.6936
   462.6936 462.6936 462.7183 462.7183 462.7183 462.7282 462.7282 462.7282
   462.7454 462.7454 462.7454 462.7485 462.7485 463.7677 463.7677 463.7696
   463.7696 463.7696 463.7703 473.4634 473.4634 473.8322 473.8322 473.8322
   474.3039 474.3236 474.3236 474.3236 474.3242 474.3367 474.3367 474.3407
   474.3407 474.3407 474.3468 474.3468 474.3468 474.3599 474.3599 474.3599
   474.5508 474.5508 474.5508 476.1371 476.1371 476.1371 476.6046 476.6154
   476.6154 476.6154 476.6206 476.6206 476.6206 476.6206 476.6297 476.6297
   476.6297 476.6513 476.6513 476.6513 476.7379 476.7479 476.7479 476.7479
   477.0013 477.0013 477.0013 478.1570 478.1984 478.1984 478.1984 478.2515
   478.2515 478.2515 478.2533 478.2533 478.2533 478.2727 478.2727 478.3263

          k =-0.1667 0.1667-0.1667 (  2457 PWs)   bands (ev):

   -17.5677  -3.5083  -3.1813  -3.1813   4.7633   9.6212  10.6655  10.6655
    12.3366  12.3366  14.7467  16.1367  18.0935  18.0935  20.6358  22.6397
    23.5809  23.5809  27.7528  27.7528  29.5322  29.5895  29.5895  32.5104
    34.6124  35.0086  35.0086  37.2305  37.5910  37.5910  40.7218  40.7218
    41.0909  42.2459  42.2459  42.9092  44.0601  44.3629  44.3629  44.9004
    45.4208  45.4208  47.4174  48.7671  48.7671  49.6176  49.6849  49.6849
    51.4552  51.5694  51.6730  51.6730  51.9619  55.2159  55.2159  56.3944
    56.3944  56.4735  61.2350  61.2350  61.6329  63.4678  65.7841  65.9007
    65.9007  71.5433  71.5433  73.8018  73.8018  73.8184  74.9222  74.9222
    75.0297  75.4649  76.2021  76.2021  76.9761  76.9761  77.6439  78.5140
    80.2442  80.2442  80.4697  81.9768  81.9768  82.3175  83.2884  83.2884
    84.0252  84.0252  84.2715  84.8560  85.4636  85.4636  85.6974  85.7193
    85.7193  87.8493  89.9719  89.9719  90.1703  90.9820  91.0985  91.0985
    91.4790  91.9315  92.7586  92.7586  92.9837  92.9837  94.9279  94.9279
    96.2289  96.7545  96.7545  97.7207  98.1749  98.1749  98.5585  98.5585
    98.7636  99.3785 102.8105 102.8105 103.8644 104.3180 104.3180 104.6209
   105.0505 105.0505 105.1656 107.5494 108.9363 108.9363 110.4144 110.4735
   110.4735 110.7004 111.0072 111.0072 111.1857 111.2814 111.3247 111.3247
   114.1802 114.2763 114.2763 115.3471 115.3608 115.3608 115.6873 116.2091
   116.2091 119.4877 119.4877 121.1633 122.7168 122.7168 123.3289 123.9585
   123.9585 125.6369 125.6369 126.0030 126.0209 126.0689 126.1064 126.1064
   130.1791 130.1791 130.1959 131.7590 133.0379 133.0379 134.6275 136.2482
   136.9032 136.9032 137.3276 137.3276 139.1056 139.2783 139.2783 139.8344
   140.5878 140.5878 142.0432 144.0835 144.0835 144.4546 145.0401 145.8576
   145.8576 145.9723 145.9723 146.6148 146.6148 147.1738 148.3997 148.4347
   148.4347 148.5241 149.0283 149.0283 149.5831 149.9248 149.9248 150.2488
   150.9080 150.9080 151.1604 151.7555 151.7555 152.6080 152.8749 152.8749
   152.9786 153.4815 153.4815 153.7362 155.9748 155.9748 156.5534 156.7005
   156.7005 156.9777 158.2494 158.4170 158.4170 158.7266 158.7266 158.9916
   160.5578 160.5578 161.8829 161.8829 162.0128 162.3464 162.7645 162.7645
   163.1261 163.2013 163.2013 163.2773 163.4745 163.5293 163.5293 163.9191
   164.6628 164.6628 164.7059 165.6001 165.6001 166.2627 166.2627 166.5269
   168.3338 168.3338 168.8463 168.9812 169.0011 169.0011 169.6064 169.6064
   169.6858 170.3718 170.7715 170.7715 170.8940 172.6082 172.6082 173.7092
   175.1802 175.1802 177.1782 177.1782 178.9763 178.9763 179.4566 180.3250
   180.3444 180.3444 181.0909 181.1825 181.1825 181.2064 182.4372 182.4372
   182.6084 185.6315 185.8394 185.8394 186.1530 186.1530 186.5244 186.5244
   186.6825 186.7918 187.0445 187.0445 187.7681 187.8061 187.8061 187.9549
   188.6674 188.6946 188.6946 192.4078 192.4078 193.3533 193.5808 194.4095
   194.4095 195.4743 195.9039 195.9039 196.6081 197.4022 197.5514 197.5514
   198.8039 199.2784 199.2784 202.6512 202.6512 202.9731 204.0109 204.0109
   204.0901 204.1623 204.5342 204.5342 205.3405 205.3405 206.2237 206.5426
   206.5426 209.0783 210.2553 210.5450 210.5450 210.6525 210.6525 211.4921
   212.0715 212.0715 212.5821 214.2684 214.4872 214.4872 214.9597 214.9597
   215.4718 215.6793 215.6793 215.6936 217.2651 217.2651 217.5355 217.5764
   217.5764 217.5796 218.1888 218.1888 218.4254 219.6453 219.6453 219.6699
   223.0380 223.0380 224.3190 225.9387 225.9387 226.4664 226.5433 226.5433
   226.6519 228.2284 228.2284 228.3832 228.3944 228.4438 228.4438 228.9669
   228.9669 229.3851 229.3851 229.6134 229.8727 230.2326 230.2326 230.9506
   231.7062 233.3339 233.3339 233.7199 233.7555 233.7555 233.8973 233.8973
   233.9250 234.1059 235.1502 235.1502 235.6919 235.8426 235.8426 235.9687
   236.4069 236.4604 236.4604 239.2410 239.3063 239.3063 240.4154 240.4154
   240.6368 240.9348 240.9348 241.2498 241.2660 241.6194 241.6194 241.6339
   242.3873 242.3873 243.1983 243.1983 243.2869 243.6834 243.6834 244.4211
   244.4614 244.4614 244.6985 244.8631 244.8631 244.9202 246.0572 246.1598
   246.1598 247.1024 247.1024 247.3861 247.6758 247.6758 247.7410 248.0747
   248.0747 248.1166 248.8181 248.8181 249.0356 249.1212 249.1212 249.1550
   250.3814 250.3814 251.3797 251.7266 251.7266 252.1164 252.1164 252.5955
   252.9002 253.0777 253.1414 253.1414 253.5546 253.5957 253.5957 256.7016
   256.7016 256.7820 257.6144 257.6144 257.6940 257.6940 257.8205 258.1998
   258.1998 258.2157 258.3935 258.7140 258.7285 258.7285 259.8315 259.8513
   259.8513 260.0522 262.0642 262.0642 263.6527 263.6527 264.3662 265.3007
   265.3007 265.3833 265.3833 265.4987 265.5306 265.8683 265.8683 266.6084
   267.0058 267.0058 267.0607 268.5721 268.5721 269.8495 269.8495 269.9354
   270.0139 270.1400 270.1400 270.7086 272.3026 272.3192 272.3192 272.7193
   273.0052 273.0052 274.0045 274.0045 274.1990 274.5803 275.7166 275.7166
   278.4773 278.4874 278.4874 279.4663 279.4704 279.5551 279.5551 281.1751
   281.3697 281.3697 281.9749 281.9749 282.5532 282.5532 282.8882 282.8882
   284.9529 285.1852 285.8549 285.9634 285.9634 287.1718 287.1895 287.1895
   289.1580 289.1580 290.2669 291.3474 291.3474 292.2449 293.0494 293.0494
   293.1667 293.3373 293.3373 293.8336 294.0520 294.0520 294.2340 294.2879
   294.2879 294.5974 295.1498 295.5449 295.5449 295.8200 295.8200 296.8449
   301.1761 301.1761 301.2566 301.6636 301.6636 301.8058 302.2482 302.2482
   303.9866 304.2860 304.2860 305.6196 305.6196 305.7672 305.9617 306.7745
   307.1266 307.1266 307.7887 307.7887 307.9439 308.1677 308.9398 308.9398
   309.7904 310.3091 310.3091 310.8676 310.8676 310.9113 311.2064 311.3892
   311.3892 311.6733 311.8993 311.8993 312.2738 312.3612 312.3612 312.6061
   312.6451 312.6451 313.0150 313.4938 313.4938 314.0832 314.2682 314.2682
   314.6781 314.7335 314.7335 315.2353 315.2362 315.9980 315.9980 316.0373
   316.3345 316.3345 317.0474 317.0664 317.0664 317.7185 317.7846 317.7846
   318.9016 318.9016 319.0508 321.9862 323.6010 323.6010 324.0131 324.0767
   324.0767 324.8551 324.8551 325.2874 325.4527 325.4527 325.8855 326.8191
   326.8191 326.9527 327.1186 327.1186 327.3608 329.7691 329.7691 329.9738
   329.9738 330.3850 330.5287 330.6037 330.6037 330.7372 331.1069 331.1069
   331.7237 332.0474 332.1126 332.1126 332.2783 332.4194 332.4194 332.6758
   332.6758 333.2445 335.7637 335.7637 335.9240 335.9240 335.9930 336.0581
   336.6346 336.6346 337.0834 337.0834 337.1343 337.1561 337.7343 337.7343
   337.8825 337.8825 337.9183 337.9552 338.0656 338.0656 338.0829 340.2229
   340.2229 340.4459 341.7725 342.2386 342.2565 342.2565 342.4355 342.4355
   342.4878 343.5269 343.5269 345.6661 345.6661 346.0721 346.0721 346.4954
   346.4954 346.9032 347.2949 348.1222 348.2791 348.2791 348.8921 349.0828
   349.0828 349.2338 349.3046 349.6220 349.6220 350.2414 350.2414 350.3344
   351.6998 351.6998 352.6224 352.9598 352.9598 353.2520 353.5249 353.5375
   353.5375 353.6810 353.6810 353.8128 353.9814 353.9834 353.9834 354.7984
   354.7984 354.8019 355.3113 355.3113 355.3378 355.4875 355.8285 355.8285
   355.8709 358.4405 358.4405 359.0696 359.3284 359.3284 359.5956 359.7592
   359.8678 359.8678 359.8937 359.8937 359.9636 359.9636 360.0590 360.0744
   360.1106 360.1403 360.1403 360.5955 360.5955 360.9033 361.0607 361.2263
   361.2263 364.2829 364.2829 364.3330 365.5638 365.8290 365.8290 365.8452
   365.8612 365.8612 366.1352 366.4334 366.5605 366.5605 367.4371 367.4371
   367.4739 368.3346 368.3346 368.5003 368.5003 368.5678 371.1925 371.1925
   372.4036 372.4036 372.4310 372.7644 372.7644 372.9490 373.1773 373.2027
   373.2027 373.2257 374.1621 374.1621 374.6838 374.6838 374.8496 374.9727
   375.2514 375.2514 375.9476 376.7648 376.7648 376.7803 377.6194 377.6194
   377.6587 378.9595 378.9595 379.3917 380.1013 380.1013 380.5949 381.5797
   381.5797 381.7793 382.0997 382.0997 382.2118 382.4434 382.4434 382.5410
   383.0507 383.0507 383.0847 383.4044 383.4766 383.4766 383.5009 383.5161
   383.5161 384.6398 384.6398 384.7358 384.9999 385.0515 385.0515 386.2814
   386.2814 386.3172 386.4913 386.8194 386.8194 387.0947 388.0612 388.0612
   389.0549 389.0549 389.1967 389.2102 389.2102 389.3415 389.3517 389.3653
   389.3665 389.3665 389.4183 389.4183 390.3523 390.3523 391.1055 392.6191
   392.6191 392.9404 393.3321 393.3321 393.4047 395.1652 395.3780 395.3780
   396.1879 396.1879 396.2452 396.3114 396.3114 396.5675 397.7602 397.7602
   397.7634 398.1973 398.1973 398.2233 398.8557 398.8557 398.8706 401.4921
   401.8658 401.8658 403.4841 403.4841 403.7016 409.0364 409.0364 409.9980
   410.1126 410.1126 411.0595 411.6471 411.7149 411.7149 413.5004 413.5004
   413.6976 413.8936 413.8936 414.0198 414.0203 414.4229 415.9002 415.9002
   416.1079 416.1149 416.1149 416.1860 416.1860 416.2312 416.2587 416.2587
   418.2364 418.2364 418.4025 419.4712 419.4712 420.1196 420.1196 420.2254
   420.2289 420.8361 420.8361 420.9272 423.4865 423.4865 423.6316 424.2532
   424.2532 424.4503 424.6579 424.6579 425.1555 425.7113 425.7441 425.7441
   425.8432 426.0841 426.0841 426.4658 426.4658 426.5883 427.1796 427.1796
   427.4310 427.4310 427.4988 427.5218 428.5283 428.5283 428.9749 428.9884
   428.9884 429.5168 430.6112 430.6112 430.8612 431.1421 431.1994 431.1994
   432.5304 433.3915 433.3915 436.5107 436.5107 436.5125 436.6017 436.6017
   436.7391 436.9439 436.9439 437.2574 437.6596 437.6596 437.8495 437.8495
   437.9148 437.9432 439.1427 439.2471 439.2471 441.5379 441.5379 441.6106
   441.6186 441.6330 441.6330 442.5613 442.5613 443.3682 443.3682 443.4114
   443.4861 443.4861 443.5018 443.5038 443.7204 443.7204 444.1025 444.8770
   444.8770 444.9419 444.9465 445.0097 445.0097 445.2468 445.2864 445.2864
   445.3201 445.3749 445.3749 448.6831 448.7365 448.7365 448.9332 448.9836
   448.9836 449.3953 449.4708 449.4708 449.9553 449.9553 450.0091 450.6524
   450.6524 450.8597 451.4030 451.4030 451.4453 451.4781 451.6393 451.6393
   452.0898 452.0898 452.1114 452.3500 452.3500 452.8517 453.2528 453.2528
   453.2850 453.6091 453.6091 454.0594 454.1763 454.1763 454.2884 454.3186
   454.3749 454.3749 454.5395 455.7791 455.7791 456.0146 456.1963 456.3157
   456.3157 458.2191 458.2191 458.2286 458.2440 458.2440 458.2775 458.4447
   458.4447 458.8086 460.3227 460.3227 460.3718 460.4495 460.4495 460.6146
   461.3586 461.3586 461.5268 461.7901 461.8678 461.8678 462.1017 462.1017
   462.1813 462.1855 462.5236 462.5236 462.6944 462.6966 462.6966 463.2755
   463.2755 463.3147 464.7711 465.4411 465.4411 465.4612 466.0697 466.0697
   466.1206 466.1206 466.1738 466.2938 466.9777 466.9777 467.9120 467.9120
   467.9834 467.9834 468.0327 468.0787 468.3532 468.3532 468.3957 468.3957
   468.4018 468.5044 468.6215 468.7282 468.7282 471.5755 471.5755 471.6135
   471.9795 471.9795 472.0559 472.6800 472.6800 472.7098 473.0280 473.0619
   473.0619 473.3216 473.3216 473.3272 473.5342 473.5349 473.5349 473.6671
   473.6671 473.8957 475.0826 475.0826 475.1352 478.8290 478.8290 479.2663
   479.6208 479.6208 479.7225 479.9409 479.9409 480.1061 480.1186 480.1186
   480.1456 481.0292 481.0464 481.0464 481.2911 481.2911 481.3217 481.3714
   481.3893 481.3893 481.4881 481.5325 481.5325 482.7459 483.5992 483.5992

          k =-0.3333 0.3333-0.3333 (  2448 PWs)   bands (ev):

   -17.4964  -4.1285  -3.2536  -3.2536   6.0149   8.9448  10.3572  10.3572
    13.2114  13.2114  13.7632  17.9639  19.7251  19.7251  19.7802  21.3456
    21.3456  25.3569  27.6070  27.6070  28.8815  29.8219  29.8219  32.1690
    32.1690  32.3128  33.2268  36.2085  37.8934  37.8934  38.5146  39.4144
    39.4144  40.0032  42.6822  42.6822  42.8167  43.7315  44.1806  44.1806
    46.2283  46.2283  47.3740  49.8116  49.8116  50.8903  53.9907  53.9907
    55.0061  55.7664  55.7664  56.5023  56.5023  57.0853  57.9668  58.7376
    58.7376  59.0919  59.5487  60.6382  60.6382  61.8867  63.5017  63.5017
    66.6953  66.6953  67.5711  68.7553  68.7553  70.2957  71.2768  72.1334
    72.7563  72.7563  73.1618  73.1618  75.4121  75.4121  75.7277  76.7948
    80.1599  80.1599  80.9782  81.4854  82.2636  82.2636  82.4576  82.4576
    83.5685  83.5685  83.8082  83.8549  85.0579  85.0579  86.1593  86.8618
    86.8850  86.8850  91.6961  91.6961  92.5583  93.0016  93.0016  93.4410
    93.4410  93.5836  93.6292  93.9627  94.1745  94.1745  94.8756  95.1238
    95.1238  96.7340  96.9104  96.9104  99.5377 100.9746 102.7091 102.7091
   103.2731 103.2731 103.9962 104.7877 104.7877 104.9144 104.9144 105.0258
   105.2277 105.2277 105.4861 105.4861 105.6008 106.1572 106.2735 108.4761
   108.5134 108.5134 111.1136 111.1136 111.5755 111.7984 111.7984 111.8336
   112.9569 112.9569 115.3448 116.1064 116.1064 117.6610 117.6610 117.8438
   118.2710 123.3697 124.4453 124.4453 126.0873 126.0873 126.9935 127.2730
   127.3001 127.3001 128.1090 128.5699 128.5699 129.3364 129.3364 129.4383
   130.8407 130.8407 131.2246 132.5853 132.5853 133.2990 133.2990 133.6613
   134.0192 134.0897 134.0897 134.4166 134.5986 134.6027 134.6027 135.5949
   135.5949 136.8809 137.7337 137.7337 138.3559 139.8663 139.8663 140.9156
   141.2398 141.2398 141.6104 142.4342 142.4342 142.8381 145.8485 145.8485
   145.9851 145.9943 145.9943 146.0463 146.6460 149.1108 149.1108 149.9317
   151.1663 151.2461 151.2461 151.7498 151.7498 152.2173 152.9724 152.9724
   153.6729 153.7000 153.7000 153.9125 153.9861 154.0169 154.0169 155.1949
   156.7977 156.7977 157.7760 157.7760 157.9931 157.9961 157.9961 158.7325
   159.3689 159.3689 161.0800 162.1431 162.1431 162.1675 162.4043 162.4043
   162.7180 164.2108 164.2108 164.8888 165.8764 165.8764 166.0026 166.2776
   166.2776 166.4479 167.0114 167.0114 167.0957 167.8450 167.8950 167.8950
   170.7503 170.7503 172.3877 172.3877 172.8603 173.4935 173.4935 173.6306
   174.2960 174.3776 174.3776 175.1207 175.5223 176.3384 176.3384 176.4861
   177.9536 179.0242 179.0242 179.1805 179.2019 179.2019 179.5032 179.5102
   179.5102 180.4612 180.8549 180.8549 182.5285 182.5285 183.1908 184.3037
   184.3037 184.9602 185.3427 185.3427 187.2084 187.3600 187.3600 188.3273
   188.7054 188.7054 188.9431 189.4266 189.6590 189.6590 189.7426 191.0152
   191.0152 194.2292 194.2292 194.7385 194.8109 194.8109 197.2148 197.2148
   197.7586 198.2043 199.5714 199.5834 199.5834 200.2013 200.2013 200.6516
   200.9038 200.9038 201.3845 201.5405 201.5475 201.5475 201.7583 201.7583
   201.7893 203.0859 203.0859 203.3409 203.8980 203.8980 204.0384 204.2996
   204.2996 204.9347 205.3494 205.3494 205.4384 206.0898 206.0898 206.1952
   207.0799 210.4205 210.4205 211.0139 211.0139 212.5361 212.9508 212.9508
   213.5374 213.5374 213.7115 213.7115 213.9870 214.0190 214.2317 214.2456
   214.3547 214.3547 217.3592 217.4497 217.4497 219.3960 219.5620 219.5620
   222.0470 222.0470 223.0442 223.3154 224.1835 224.1835 224.7871 224.9057
   224.9057 225.0671 225.0671 225.2897 225.9241 225.9241 226.0635 226.1406
   226.1406 226.2924 226.7155 227.0839 227.0839 227.7112 227.7112 228.2993
   229.2543 229.2543 229.4080 229.4080 229.5460 229.5464 229.8958 229.9472
   229.9472 233.3209 233.3209 234.6942 234.6942 235.1915 236.1701 236.5461
   236.5461 236.5558 236.7827 236.7827 236.8376 236.8859 236.8859 237.0483
   237.3948 237.3948 237.4649 238.7968 238.7968 239.8270 240.8107 240.8107
   241.4412 242.2706 243.4130 243.4130 243.8782 243.8782 246.1645 246.6650
   246.6650 246.9931 246.9931 247.0143 247.1548 247.2553 247.2553 247.5831
   247.9070 248.0280 248.0280 248.1610 248.2279 248.2279 248.8792 248.8792
   248.9015 249.1230 249.1411 249.1411 249.2728 253.5692 253.8234 253.8234
   254.0970 254.0970 254.3208 254.4422 254.4422 254.4942 255.0717 255.1889
   255.1889 255.2144 255.4087 255.4113 255.4113 256.1809 256.1809 257.7924
   257.8135 257.8135 258.1959 258.1959 258.5003 258.5003 259.7023 259.8543
   259.9070 259.9070 259.9302 260.5076 260.6091 260.6091 262.1290 263.3155
   263.3155 263.4713 263.4713 263.7510 267.2979 267.2979 267.9149 267.9149
   269.4799 270.6920 271.3398 271.3398 271.4847 271.4866 271.4866 271.5332
   271.9469 271.9469 272.1461 272.5749 272.5749 272.6287 272.8861 272.8861
   273.1697 273.2082 273.2082 273.2172 274.7887 274.7887 274.8904 275.6731
   275.6731 276.2521 276.8231 277.7794 277.7794 278.0165 278.0165 278.1587
   278.2337 279.0714 279.0714 281.8030 281.8212 281.8212 282.9669 282.9669
   283.6982 284.0494 284.0494 284.2696 284.6474 284.6474 284.6980 284.7734
   284.7734 285.1516 285.1516 285.2084 285.2084 285.2345 285.4433 285.4911
   286.2367 286.2367 286.2612 288.3342 288.3342 288.5424 288.8389 288.8389
   289.0498 289.4152 291.9621 292.1982 292.1982 292.4534 292.4534 293.9785
   294.2271 294.2271 294.3971 294.9146 295.0592 295.0592 295.4837 295.4837
   295.6930 296.6472 296.6472 296.7560 296.8769 296.8769 296.9682 296.9682
   297.2049 297.3050 298.2680 298.2680 298.6693 299.7754 300.1703 300.1703
   300.6972 301.7752 301.7752 301.9672 302.1683 302.1683 302.3566 302.4089
   302.4089 305.0017 305.0017 307.2886 307.2886 307.5787 308.2725 308.7997
   308.7997 308.8692 309.8808 309.8808 309.9877 311.0128 311.0128 311.5141
   314.0770 314.0770 315.5334 316.4943 316.4943 316.6801 316.8800 316.8800
   317.0130 318.7151 318.7151 319.0013 319.2887 319.2887 319.8543 319.9532
   320.2813 320.2813 320.3064 320.3064 320.3084 320.9987 320.9987 321.0518
   321.5652 322.2657 322.3032 322.3032 323.0686 323.0686 323.0780 323.1218
   323.1218 324.9012 324.9012 325.0733 325.0733 325.1280 325.1280 325.1975
   325.2235 325.8248 328.8560 328.8560 329.9014 329.9014 330.1915 330.2116
   330.2325 330.2325 330.5936 331.3503 331.3503 332.0517 332.2596 332.3270
   332.3270 332.8583 332.8583 332.8905 332.9759 333.0677 333.0677 333.2003
   333.2003 333.2441 334.0388 334.1193 334.1193 334.5471 334.5471 335.0126
   335.4559 335.8380 335.8380 336.8217 336.8217 337.4392 337.4392 337.5258
   337.5478 338.4418 338.4418 340.2579 340.4042 340.4042 341.0601 341.3536
   341.4777 341.4777 341.6544 341.6678 341.6678 342.1827 342.2805 342.2805
   342.9665 343.1830 343.1830 343.3044 344.1120 344.4123 344.4123 344.6074
   344.6718 344.6718 344.7301 344.9401 344.9401 344.9516 345.0705 345.0705
   345.1629 345.6250 345.6250 345.9603 345.9603 346.3405 346.3596 346.3596
   346.6153 346.6153 346.6774 346.6959 346.7464 346.7464 346.7818 346.7845
   346.7845 348.7759 348.7759 349.2321 349.9963 349.9963 350.0368 350.5468
   350.5468 351.5186 352.4559 352.4559 352.8873 353.0393 353.3267 353.3267
   356.6007 356.6007 356.7696 358.4795 358.4795 358.5167 358.5586 358.5586
   358.5865 362.3054 362.3054 363.0521 363.1325 363.1325 364.6636 365.2656
   365.2656 365.3962 365.9490 365.9490 365.9987 366.1273 366.3159 366.3159
   366.7262 366.7262 366.8253 366.9616 366.9797 366.9797 367.9769 367.9769
   368.0541 368.0828 368.0828 368.1830 368.2333 368.2333 368.3681 368.6887
   368.7561 368.7561 369.8484 370.0407 370.0407 371.9863 372.0408 372.0408
   373.2592 373.2592 373.3993 373.3993 373.5428 373.5789 373.5921 373.6715
   373.6715 373.7071 373.7456 373.7456 374.5540 374.5540 374.5842 377.8199
   378.8754 378.8754 379.3139 379.8164 379.8164 379.9945 379.9945 380.0314
   380.5139 381.3391 381.3391 381.3622 381.6034 381.6034 381.7694 381.7694
   381.8161 381.8533 382.4626 382.4626 382.8054 382.8054 383.5121 383.6163
   384.0769 384.0769 384.2310 384.3524 384.4959 384.4959 387.2414 387.2414
   388.8294 389.3406 389.6859 389.6859 390.6726 390.8917 390.8917 391.1559
   391.7763 391.7763 391.8520 392.0663 392.0663 392.1757 392.1757 392.2094
   392.2094 392.2253 392.8619 393.0219 393.0219 393.0748 393.1635 393.1808
   393.1808 394.8512 394.8512 395.2619 396.2249 396.2249 396.5107 396.6498
   396.6498 396.6809 397.1254 397.1254 397.1966 397.3472 397.3472 397.3563
   400.8564 400.8564 401.3679 402.3978 402.3978 402.8797 402.8797 403.0786
   403.1106 403.5999 403.7442 403.7442 403.8429 403.8536 403.8536 403.8586
   403.9342 403.9342 405.2378 405.2378 405.2660 405.2660 405.2695 405.2983
   405.2983 405.3272 405.3409 406.9382 407.0285 407.0285 409.2060 410.8573
   410.8573 413.3912 413.3912 413.6469 413.6469 414.0877 414.4609 414.4892
   414.4892 415.1322 415.1322 415.1916 415.2461 415.4425 415.4431 415.4431
   416.4885 416.5307 416.5307 416.5867 416.5867 416.7617 417.6117 417.8975
   417.8975 418.6462 418.6462 418.7624 418.7624 418.7751 419.2015 419.6038
   419.6038 420.1674 420.7293 420.7293 420.7426 421.7370 421.7370 421.7731
   425.0343 425.0343 425.4687 425.7058 425.7058 426.4992 426.6424 426.6799
   426.6799 426.8873 426.8873 427.1649 427.2895 427.2895 427.3506 427.3700
   427.4815 427.5334 427.5334 427.6018 427.6018 427.9653 428.0313 428.0313
   428.5210 428.5210 428.5733 428.7136 430.3493 430.3493 430.7546 432.2637
   432.2637 432.3477 432.4313 432.4871 432.4871 432.6650 433.2114 433.2114
   433.7603 433.7603 433.7622 433.8664 433.8791 433.8791 437.3833 437.3833
   437.9807 437.9807 438.0255 438.1309 438.7804 439.0427 439.0427 439.1245
   439.6277 439.6277 439.6356 439.6807 439.6807 439.7125 440.4390 440.4390
   440.4866 440.6183 440.6183 440.7525 441.1065 441.1065 441.2186 441.2186
   441.2299 441.2555 441.2555 441.2618 444.3781 444.3781 444.4557 444.4891
   444.4891 444.6059 444.6698 444.6698 444.7314 445.1173 445.1173 445.2184
   445.9238 445.9611 445.9611 449.5215 449.5215 450.2921 450.4947 450.4947
   450.7274 450.9135 450.9135 450.9695 451.0786 451.0786 451.2016 451.3582
   451.3582 451.3952 451.5741 451.7455 451.7455 452.3705 452.3705 452.4505
   452.4505 452.4652 452.5267 452.5560 452.5560 452.5922 452.6012 452.7471
   452.7471 457.6612 458.7990 458.7990 460.8351 460.8351 461.2107 461.2107
   461.4434 461.6032 461.6251 461.6858 461.6858 462.2143 462.2143 462.4071
   462.6809 462.6836 462.6836 462.8653 463.1651 463.1651 463.4925 463.4925
   463.4956 463.6317 463.6317 463.6624 463.8098 463.8098 463.8296 464.1332
   464.1332 464.1655 464.2987 464.2987 464.3235 465.1632 465.6057 465.6057
   466.5281 466.5281 466.7870 468.6163 468.6163 468.6987 468.6987 468.8226
   468.9235 469.7854 469.7854 469.8127 469.8827 469.9046 469.9046 470.0221
   470.0221 470.0334 470.1235 470.1300 470.1300 473.4370 473.4370 473.9219
   474.3891 474.3891 474.7102 474.8324 474.8324 475.0052 475.0052 475.0706
   475.1516 475.1727 475.1727 475.2646 475.4969 475.4969 475.5176 475.6755
   475.6755 475.8782 478.8394 478.8394 479.1359 479.1359 479.1459 479.2146
   484.7837 484.9089 484.9089 485.2438 485.2438 485.6201 485.7597 485.7597
   485.7938 486.7884 486.7884 486.8935 486.9666 486.9666 487.0771 487.0771
   487.0784 487.0871 487.3226 487.3226 487.3746 487.4412 487.5054 487.5054

          k = 0.5000-0.5000 0.5000 (  2452 PWs)   bands (ev):

   -17.4599  -4.4017  -3.2888  -3.2888   6.4687   9.0431  10.0767  10.0767
    13.8277  14.7034  14.7034  15.9272  17.3784  17.3784  23.8198  24.5799
    24.7025  24.7025  25.4243  25.4243  30.1138  30.1138  30.3287  30.5087
    30.6979  30.6979  32.7438  33.7367  36.9291  36.9291  37.2659  38.4135
    38.4135  38.7619  43.6278  43.8716  43.8716  45.7996  45.7996  45.9700
    48.0716  48.0716  48.1815  51.0311  51.0311  51.1568  53.3063  53.3063
    53.5244  53.5244  54.0861  55.6208  59.5984  59.5984  60.4564  60.5297
    60.5297  61.7514  61.7514  62.2750  62.2750  62.5849  63.2139  63.4878
    65.2121  65.7622  66.1990  66.1990  66.2827  66.2827  69.0548  70.3434
    72.3082  72.3082  72.4754  72.4754  72.9360  72.9360  75.3578  75.3578
    75.5629  79.3122  81.3890  81.8751  81.8751  82.0479  82.0581  83.1548
    83.1548  83.4077  85.3278  85.3278  87.5949  88.1255  88.1255  88.4672
    88.4672  89.2858  89.4428  89.4428  89.6655  89.7402  90.6249  90.6373
    90.6373  90.6714  90.6714  92.5935  97.6588  97.6588  98.3472  98.5815
    98.8081  98.8081  99.0695  99.0695  99.4568  99.6304  99.6603  99.6603
   101.6092 101.6092 103.6173 103.8817 103.8817 104.8829 105.0577 105.0577
   105.7010 105.8662 105.8662 109.5855 110.2321 110.2321 110.3069 110.3138
   110.3138 110.3639 112.7713 113.0579 113.4994 113.4994 114.2379 114.2379
   115.7194 115.7194 115.9470 115.9470 116.7825 116.8492 119.2429 119.5432
   119.6235 119.6235 119.9762 119.9762 122.6817 122.6817 124.4286 124.4286
   124.4325 125.0118 125.0118 125.7688 125.7946 125.9078 125.9260 125.9260
   130.5810 130.5810 133.3858 133.4340 133.4340 133.7866 134.1406 134.1406
   134.9480 135.4729 135.4729 135.4786 135.8904 135.8904 136.1788 136.8816
   137.9916 137.9916 140.7988 140.7988 141.3897 142.1631 142.2708 142.2708
   143.3521 143.7332 143.7528 143.7528 143.8550 143.8550 143.9255 143.9515
   143.9515 144.1139 144.1139 144.1674 145.2947 145.2947 145.3512 145.4007
   145.4136 145.4136 148.9691 148.9691 149.8683 151.3295 151.3295 151.8012
   152.1928 153.0786 153.0786 153.1011 153.1011 153.1564 153.1564 153.4102
   153.4102 153.4808 153.5014 153.5927 159.1439 159.1439 160.1282 160.7644
   160.7644 160.8893 160.9685 160.9685 161.7148 161.8357 161.8456 161.9530
   161.9530 162.0189 163.8494 163.8494 167.0652 167.1369 167.1369 167.3427
   167.4307 167.4307 168.1352 168.1354 168.1394 168.1394 171.4004 171.4004
   171.9637 172.5923 172.5923 172.6117 172.6117 172.6832 172.8342 173.1655
   173.1925 173.2339 173.2339 173.2629 173.2629 174.6921 174.6921 174.9961
   180.8582 180.8582 183.6914 183.6914 185.0189 185.4275 185.4275 185.4425
   185.5589 186.1185 186.1185 186.6433 186.7142 186.7142 186.8046 187.1559
   187.1559 187.3098 187.5309 187.5735 188.0873 188.0873 188.0961 188.0961
   189.7376 191.2403 191.2403 191.3214 191.3248 191.3248 192.3912 194.4895
   194.4895 194.5042 195.0595 195.0595 195.7375 195.7375 196.4918 196.4918
   196.5054 196.5054 196.5280 196.5745 197.5284 197.5834 197.5834 197.5935
   197.5935 197.6393 197.6573 197.7000 197.7000 197.7018 197.7018 197.7721
   197.7721 197.7873 198.3207 198.3232 204.9193 205.0977 205.0977 205.9834
   206.6585 206.8611 206.8611 206.8799 207.0797 207.0797 207.6480 207.6480
   207.7246 207.7246 209.5193 209.5193 211.6817 212.9547 213.0123 213.0142
   213.0142 213.8044 213.8044 214.1864 214.2185 214.5373 214.8103 214.8103
   215.0235 215.0235 215.3287 215.3287 215.6390 215.8310 215.8310 215.8521
   215.8749 215.8749 215.9213 217.3772 217.4336 217.4336 223.6817 223.6817
   224.4968 224.4968 224.7675 224.7997 224.8157 224.8157 224.8842 224.9009
   224.9104 224.9104 225.6655 225.6655 225.7597 225.8227 225.8227 225.9128
   229.4750 229.4750 229.8980 231.5000 231.5275 231.5275 231.6248 231.6248
   231.6667 233.0459 233.0459 233.4711 233.4820 233.4820 233.5532 233.6423
   233.8956 233.8956 234.6077 236.2287 236.2287 238.1129 239.3296 239.3296
   239.3570 239.3570 241.4382 241.6272 241.6272 241.7436 241.9087 241.9087
   241.9504 242.0308 242.1051 242.1051 243.9578 243.9620 244.5618 244.5618
   244.8168 244.8168 245.1269 245.1269 245.6737 246.1232 246.1232 247.3505
   247.3505 247.4148 249.4141 249.4252 249.4404 249.4404 249.4701 249.4701
   249.4846 249.4846 249.5352 249.5399 252.7576 252.7576 253.2072 253.2536
   253.2536 253.2591 253.8961 253.8961 253.9190 253.9483 253.9483 253.9537
   254.2670 254.2670 257.6349 258.4447 258.4447 259.1977 259.1977 259.2911
   260.1788 260.1809 260.2127 260.2561 260.2561 260.9222 260.9222 264.2028
   264.2028 264.6609 265.4365 265.4365 266.6542 267.0573 267.0573 267.6915
   267.6988 267.6988 267.6991 267.7228 267.8904 267.8904 268.5170 269.0272
   269.1431 269.1431 269.4422 269.4873 269.4873 269.6300 273.4067 273.5835
   273.5835 274.5417 274.5417 274.9847 274.9847 275.3969 276.4110 276.4838
   276.4838 276.7900 276.8369 276.8369 277.0849 277.0898 277.1397 277.1397
   277.2281 277.2281 277.4645 277.6912 277.7323 277.7323 277.9101 277.9101
   278.0026 278.0930 278.2318 278.2318 279.0299 279.0299 279.0701 279.0832
   279.0905 279.0905 280.5028 280.5028 280.9221 280.9221 281.0085 281.0261
   283.4399 283.4399 285.1913 285.3948 285.3948 285.4785 285.7514 285.7514
   286.7970 286.8187 286.8679 286.8679 287.2275 287.2275 287.3148 287.4168
   287.4168 287.4443 287.5761 287.5761 287.5901 287.5938 287.6705 287.6705
   291.3077 292.4494 292.4494 294.5240 294.8031 294.8031 296.2749 296.2749
   296.4719 296.7304 296.7304 296.7314 296.8934 298.8918 298.8918 302.5264
   302.5264 302.5742 302.6046 302.6046 303.7948 303.7948 303.9549 303.9580
   304.1212 304.1212 304.6142 304.6142 304.6261 304.7714 304.7714 304.8516
   305.1461 305.1685 305.1685 305.1685 305.1685 305.2997 305.3829 305.3829
   305.6708 305.6752 308.6245 308.6245 311.5916 312.7451 312.7451 313.8003
   313.8170 313.9019 313.9019 314.0252 314.0252 314.0676 314.2252 314.2252
   314.5798 314.9774 314.9778 315.0615 315.0615 315.0807 315.0807 315.7795
   316.8079 316.8079 318.1459 318.1459 320.7306 321.0607 321.2686 321.3526
   321.3526 322.0343 323.2252 323.2252 323.6615 323.6615 323.8181 323.8181
   324.3617 324.3617 324.3679 324.4254 325.0218 325.0218 327.0872 327.0872
   327.8795 328.4681 328.4681 328.5240 328.7476 328.7691 328.9247 328.9247
   329.5559 329.5559 330.1071 330.1720 330.1720 330.1917 330.3745 330.5388
   330.5388 330.9716 331.0435 331.0435 331.4955 331.4955 331.5197 331.8395
   331.9026 331.9026 331.9060 331.9060 331.9440 331.9445 332.5092 332.5092
   333.8205 333.8225 333.8664 333.8664 333.8820 333.8820 334.4592 334.4637
   334.4637 334.4647 334.4792 334.4792 339.0958 339.0958 339.3878 340.1474
   340.1474 340.3528 340.4373 340.4373 340.4593 340.6550 340.8289 340.8289
   341.4012 341.4201 341.4201 341.4369 341.4524 341.4524 344.9425 344.9425
   345.4781 345.5711 345.5711 346.9874 346.9874 346.9919 346.9958 347.0439
   347.3327 347.3327 347.4259 347.4259 347.8508 348.6109 348.6109 348.8872
   349.5395 349.5395 349.6414 349.6432 349.7299 349.7299 352.0790 352.0790
   352.0860 352.0979 352.1005 352.1035 352.1035 352.1275 352.1275 352.1718
   352.1829 352.1829 354.0884 356.3377 356.3377 357.2528 357.2528 357.4236
   357.4236 357.5771 358.2238 358.2238 358.5165 358.6034 358.6857 358.6857
   358.7929 358.7929 358.8486 358.8549 358.8824 358.8824 358.9367 359.1917
   359.1917 359.2738 363.2223 363.2411 363.2411 365.2122 365.8753 365.8753
   366.1661 366.7636 367.1221 367.1221 367.2933 367.2951 367.2951 367.2985
   367.5461 367.5461 368.6332 368.6332 368.7206 368.7206 369.8883 371.8703
   371.8703 372.9139 374.2355 374.2355 375.4472 375.4472 375.5505 375.8473
   375.9437 375.9437 375.9722 375.9915 376.0019 376.0019 376.1448 376.1944
   376.1944 376.4689 376.4689 376.5061 376.6142 376.6142 376.6150 377.0354
   377.0434 377.0434 377.5143 377.5143 377.5693 377.5718 377.5718 377.5727
   381.5658 381.5658 382.5092 382.6914 382.6914 382.8020 384.0907 384.0907
   384.6253 384.6415 384.6990 384.6990 384.9002 384.9002 384.9139 385.2691
   385.4581 385.4581 386.4901 386.4901 386.5034 386.5034 386.5150 386.5274
   388.0703 388.3271 388.3271 388.4727 388.4727 388.5884 390.8615 390.8615
   391.1543 392.0475 392.0475 392.7565 392.7565 392.8549 392.8549 392.9972
   393.0058 393.0058 393.0137 393.0299 393.0360 393.6386 393.6386 393.7737
   394.6170 394.6171 394.6549 394.6549 394.7699 394.7699 399.2291 399.2291
   401.5589 401.8719 401.9299 401.9299 402.3024 403.2020 403.3221 403.3221
   403.6428 403.6428 403.7500 403.7552 403.7816 403.7816 403.8504 403.9471
   403.9816 403.9816 404.1858 404.1858 404.2006 404.2006 404.5958 404.6560
   407.3063 407.3063 409.5697 409.5697 409.7848 410.4117 410.4117 410.5687
   410.5758 410.9935 411.0006 411.0211 411.0211 411.4453 411.4453 411.5146
   411.5146 411.6221 411.6488 411.6824 411.6824 411.8828 411.9214 411.9214
   412.0479 412.0479 412.2416 412.2416 412.3680 412.3868 412.4653 412.6535
   412.6907 412.6907 412.7073 412.7073 412.9242 412.9242 412.9282 412.9282
   412.9287 412.9372 413.2072 413.2072 413.2390 413.2390 413.2395 413.2452
   421.5199 421.5199 421.5721 421.8066 421.8066 421.8552 421.8552 421.8642
   421.9518 421.9518 422.0232 422.0245 422.0373 422.0494 422.0494 422.1396
   422.1396 422.1764 424.4898 424.4898 425.0923 426.8585 427.2627 427.2627
   428.2494 428.2494 428.7284 429.0632 429.1474 429.1474 429.6391 429.6391
   429.9897 430.2635 430.3047 430.3047 430.3210 430.3750 430.3750 430.5761
   430.6191 430.6370 430.6370 431.0133 431.0133 432.2749 432.7063 432.7252
   432.7252 432.7262 432.7380 432.7380 433.1604 433.1604 433.2485 434.3218
   434.3218 435.0537 435.0537 435.4209 437.0124 437.0124 437.0501 437.0501
   437.5872 437.5874 439.1282 439.1282 439.3144 439.3144 439.4705 439.4726
   439.4742 439.4742 439.5178 439.6352 439.6815 439.6815 440.8845 440.9007
   440.9007 440.9063 440.9063 440.9234 440.9272 440.9438 441.2908 441.2908
   441.3256 441.3256 442.1077 442.1077 442.1104 442.1104 442.2907 442.2909
   446.4595 446.4595 446.6516 446.6516 446.6818 446.6821 447.9834 447.9834
   448.2468 448.5600 448.7569 448.7569 455.0957 455.0957 455.4988 455.4988
   455.9662 456.4344 456.4452 456.4724 456.4724 456.5300 456.5300 456.5712
   456.5712 456.6647 456.6753 456.8505 456.9233 456.9233 456.9588 456.9588
   456.9736 456.9930 457.0040 457.0040 457.0137 457.0137 457.0791 457.1419
   457.3906 457.4119 457.4119 457.4237 457.4237 457.4434 457.5083 457.5083
   462.6345 462.6345 462.8587 463.3585 463.3585 463.3598 463.3898 463.3962
   463.3962 463.6277 463.8009 463.8009 463.8809 463.8809 464.3133 464.5530
   464.5530 464.6570 464.6955 464.6955 464.6968 464.7197 464.7296 464.9399
   464.9514 464.9514 465.5614 465.5614 465.6713 465.8565 465.8565 466.0523
   466.8402 466.8402 466.8648 466.8648 467.0676 467.0678 467.0964 467.0964
   467.1140 467.1140 468.6277 468.6277 468.6335 468.6450 468.6450 468.6626
   468.7111 468.7111 468.7133 468.7222 468.7385 468.7385 474.5143 474.5143
   474.8006 474.8537 474.9174 474.9174 476.1393 476.1393 476.1547 476.1547
   476.1666 476.1667 481.9372 481.9372 482.2058 482.2058 482.4441 482.7306
   482.7306 482.7372 482.7531 482.7976 482.9791 482.9791 484.0555 484.0555
   484.2104 484.2104 484.2319 484.2402 484.2473 484.2473 484.2623 484.3303
   484.3303 484.3359 490.0097 490.0097 491.1964 491.2970 491.3282 491.3282

          k = 0.0000 0.3333 0.0000 (  2453 PWs)   bands (ev):

   -17.5562  -3.5014  -3.2547  -3.2547   4.9856   9.3162  10.9393  10.9393
    10.9446  13.1683  16.1813  16.7170  17.3285  17.3285  21.8899  22.7067
    22.7067  23.0868  26.4378  27.5524  29.1764  29.1764  30.7388  34.6018
    34.8201  34.8201  35.7747  36.0249  37.5507  37.5507  38.6662  40.4684
    40.5286  40.5286  42.6744  42.9290  43.7772  43.7772  45.2473  46.2561
    46.9621  46.9621  47.6878  48.5901  48.5901  48.6408  48.7346  48.9919
    50.7086  50.7086  51.7690  51.8431  54.5924  54.5924  56.4309  56.4658
    58.7664  59.3454  59.3454  60.3312  64.6842  64.6842  64.8606  67.1389
    68.3911  68.3911  68.8490  69.9318  70.8456  74.1552  74.1552  74.2226
    74.7885  75.4513  75.5827  75.5827  76.5582  76.5582  77.1298  77.4063
    80.6369  81.0543  81.1181  81.1181  81.8972  82.3475  82.3475  83.3877
    83.3977  84.6384  84.6423  84.6423  86.2837  86.6783  86.6783  86.9961
    88.4051  89.4098  89.4982  89.4982  89.9464  91.4077  91.7590  91.7590
    91.9185  92.4994  92.4994  93.3184  93.3309  94.1782  94.2494  94.2494
    94.4537  97.0324  97.4855  97.6475  97.6475  98.5660  99.0767  99.1228
    99.1228  99.2381  99.5689  99.5689 100.6674 101.2566 104.0180 104.0180
   106.7230 108.1046 108.3642 108.5784 108.5784 109.8849 110.0241 110.0625
   110.0625 110.6690 110.6690 110.7169 111.2258 112.1538 112.8498 112.8498
   113.2133 115.8498 115.8498 116.0217 116.7797 116.8036 116.9694 116.9694
   117.4927 120.1222 120.1222 120.1497 120.5868 123.4765 123.4765 123.5213
   123.5234 123.6563 123.6563 123.9699 126.5583 127.4118 127.5308 127.7873
   127.7873 128.9741 132.1919 133.5231 133.5231 134.1515 135.8675 135.8675
   136.4929 137.0087 137.0087 137.8839 138.0086 138.5594 139.4718 139.4718
   139.8617 139.8681 140.3180 140.8878 140.8878 142.9211 143.9294 144.4286
   144.4286 144.8293 146.4298 146.6697 146.6697 147.5870 148.0585 148.0830
   148.1234 148.1234 148.6898 148.9614 148.9614 149.0968 149.3535 149.3535
   149.4171 149.5495 150.2724 150.2724 150.2768 150.3695 153.1806 153.6007
   153.8268 153.8268 155.1090 155.5803 155.5947 155.9564 155.9564 156.7723
   157.0436 157.0436 157.4611 157.9494 157.9494 157.9831 158.0248 158.0971
   158.0971 159.8277 160.4923 160.4923 160.8710 161.2895 162.1835 162.5478
   162.5478 163.4597 163.7642 164.7345 164.7345 165.5539 165.6133 165.7641
   165.7641 166.6765 167.8051 168.6877 168.9524 168.9524 169.6581 169.9351
   169.9646 169.9646 171.4339 171.4735 171.4735 171.4933 172.1105 172.1105
   172.4887 172.5640 172.9528 173.2985 173.2985 173.3885 174.4311 174.5880
   174.7632 175.9381 175.9959 175.9959 176.2584 176.3723 176.3723 177.7936
   177.7936 177.7988 177.8420 178.8424 178.8424 179.0379 179.6305 180.1913
   180.4969 180.4969 180.5279 181.7726 182.1953 182.1953 182.3505 188.3474
   188.4980 188.7633 188.8909 188.8909 189.2093 189.2109 189.2109 190.7712
   191.3800 191.3800 192.2446 194.3338 194.3338 194.8578 195.5553 195.5892
   196.8749 196.8749 196.9028 197.2057 198.6073 198.6073 199.8700 200.5296
   200.5340 201.2736 201.2736 201.5548 201.8376 201.8827 201.8827 202.4283
   202.4283 202.4315 202.5001 202.9162 203.5055 203.7536 203.7536 203.7549
   205.2417 205.2417 207.8401 208.2187 210.3255 211.2618 211.6605 211.6605
   211.7745 212.1999 212.8528 212.8528 213.0231 213.3542 213.4644 213.4644
   213.8650 214.7522 217.2877 217.2877 217.9265 217.9265 218.3712 219.2760
   219.3703 219.3703 219.5067 220.8376 220.8376 223.6537 224.0517 224.1444
   224.1444 224.2742 224.3626 225.2641 225.2641 225.7537 225.7806 226.6237
   227.2287 227.2287 227.3647 227.5110 227.5110 227.5551 227.7865 228.9261
   229.5357 229.5532 229.5532 229.8927 229.8927 230.0061 230.1455 230.6473
   230.6473 230.7367 230.9420 230.9420 230.9883 231.4002 231.6412 232.3059
   232.8320 232.8407 232.8407 233.8644 234.5165 234.6565 234.7611 234.7611
   235.1595 235.1826 235.1826 236.6647 238.7389 238.7389 238.7702 239.6468
   239.7418 240.4101 240.4101 240.7069 241.5872 241.5872 241.6103 241.6261
   241.8707 242.3795 242.3945 242.3945 242.4141 242.9825 242.9825 243.1315
   243.2783 243.2783 243.3200 243.3613 245.5492 245.5492 245.9697 246.3832
   246.7385 246.7385 247.4862 247.8277 247.8277 247.8400 247.8680 248.4891
   248.8334 248.8385 248.8836 248.8836 249.9036 249.9501 249.9501 250.1902
   251.5303 251.5303 251.5749 252.6079 253.3233 253.3852 253.3852 253.4007
   253.5407 253.5407 253.5732 254.4901 254.5563 254.5792 254.5792 256.5225
   256.7620 257.1338 257.1338 257.4561 258.2416 258.2429 258.2429 258.4454
   258.4454 258.6011 258.7766 258.9166 259.1733 259.1819 259.1819 259.2130
   262.8106 263.0629 263.0629 263.8611 264.5655 265.1637 265.2700 265.2700
   265.2782 265.3578 265.3638 265.3638 266.0732 266.0732 266.0880 266.1121
   268.1024 268.6681 268.6681 268.9744 269.9221 270.3382 270.3382 270.6120
   272.1177 272.7503 272.7560 272.7674 272.7674 273.3456 273.3456 274.6216
   276.2996 276.2996 276.3110 276.4707 276.5864 277.0227 277.6499 277.6499
   277.6669 277.6829 277.6829 278.2653 278.8765 279.1407 279.7207 279.7207
   281.0866 281.3179 282.0657 282.6942 282.6942 283.0735 283.0735 284.0196
   284.2260 284.6750 284.6750 285.0864 285.1587 285.2280 285.5950 285.5950
   285.6009 286.1364 286.1364 286.1857 291.3166 291.3166 291.3255 291.3720
   291.8767 292.1694 292.1694 292.1880 292.9024 293.0016 293.0016 293.9278
   295.7505 295.7505 295.9977 296.0419 296.4361 296.4361 296.7126 297.4424
   297.5908 299.7379 300.2613 301.2427 301.2710 301.2710 301.8132 301.8132
   302.9122 303.6505 303.6505 304.3218 304.3241 305.0267 305.0267 305.0692
   305.9121 307.4705 307.6648 307.6648 307.6734 308.5050 309.0903 309.0903
   309.2718 310.0436 311.6709 311.6709 312.3005 312.3513 312.6155 312.6220
   312.6880 312.6880 313.6549 313.7697 314.0701 314.0701 314.0714 314.1804
   314.1804 314.2864 314.4037 314.8181 314.8181 315.0676 315.1101 315.1101
   315.1131 315.1230 315.3031 315.5509 315.5509 315.9329 316.0417 316.2638
   316.2638 317.6841 317.7940 317.7940 318.0121 318.3864 318.3935 318.3935
   318.5661 321.3962 321.4170 321.4405 321.4405 321.5835 321.6101 321.6101
   321.6767 322.4948 322.5508 322.5508 322.6228 323.0054 324.3662 325.0524
   325.0524 325.2753 325.9354 325.9358 325.9428 325.9428 325.9536 325.9536
   326.7138 326.8705 327.1955 327.5992 327.5992 328.8349 329.3093 329.3093
   329.3417 329.8103 329.8103 330.2381 331.3918 332.1336 332.1412 332.1412
   332.5242 332.9812 333.4032 333.4032 333.9170 334.8761 335.2502 335.4415
   335.4415 336.2729 336.7139 336.8234 336.8234 336.8439 341.2735 341.2735
   341.5467 342.5659 342.6744 342.6744 343.3648 343.4849 343.6344 343.6344
   343.8475 344.0127 344.0127 344.6709 344.7848 344.8610 344.8610 345.1457
   345.2602 345.5378 345.9966 345.9966 346.2895 346.8235 346.8741 346.8741
   346.9040 347.0313 347.7764 347.7764 348.2444 348.3444 348.4837 348.4837
   348.6194 350.1992 350.2329 350.2329 350.3129 350.3291 351.0515 351.0515
   351.2055 351.2320 351.4579 351.7643 351.8032 351.8032 351.9824 352.7053
   352.7053 352.8375 352.8755 352.8755 352.9675 353.7811 353.8880 353.8880
   353.9184 354.1633 354.4059 354.4916 355.1514 355.1514 355.1563 355.7266
   355.7266 357.2426 357.2719 357.2719 357.3688 357.8311 358.2302 358.3248
   358.3248 358.3382 358.4483 358.4483 358.4740 358.7508 359.8190 359.8190
   359.8418 360.1040 360.9745 362.1494 362.1494 362.1969 362.2472 362.2472
   362.2525 362.6904 362.7137 362.9700 362.9700 366.7375 366.9620 366.9620
   367.1697 367.2546 367.4462 367.4695 367.4695 368.3154 368.4158 368.4906
   368.4938 368.4938 368.6070 368.6070 368.6133 370.4745 370.5202 370.7246
   370.7246 371.4214 371.8473 371.8473 373.0451 373.2657 373.4533 374.1625
   374.1625 374.1764 374.3928 374.3958 374.4044 374.4044 374.4761 374.7972
   374.7972 374.9616 375.2518 375.7072 375.7072 375.8991 375.9716 375.9716
   376.6343 378.7685 378.7685 379.0711 379.1088 379.4061 379.7253 379.9160
   379.9160 379.9302 380.1564 380.1564 380.6070 381.0315 381.1069 381.1706
   381.1706 381.2443 381.3089 381.3089 381.5581 381.6182 381.6182 381.6216
   381.6953 381.7334 381.7714 381.7714 382.2135 386.6771 386.6771 386.8369
   386.9359 387.2331 387.3113 387.3182 387.3182 387.7348 387.7348 387.9164
   388.0850 389.6639 389.7865 389.8205 389.8205 389.8505 392.2284 393.4654
   393.8242 393.8242 395.9922 395.9922 397.4456 397.4691 397.4926 397.7721
   397.7721 397.7869 397.8043 397.8043 398.6963 398.7442 398.7493 398.7493
   399.3718 399.9919 400.2654 400.6406 401.2237 401.2237 401.2677 401.2703
   401.2703 401.6044 401.6044 402.0551 402.2711 403.0497 403.3067 403.3067
   403.4669 407.5072 407.6775 407.6775 408.0852 408.1266 408.4114 408.4114
   408.4263 408.6638 408.6638 408.9464 409.1571 410.1157 410.2243 410.2243
   410.3021 410.5692 410.6119 410.6119 411.7321 411.8920 412.2089 412.2241
   412.2241 412.7049 413.0635 413.9308 414.0779 414.0779 414.1269 414.1269
   414.1413 414.2657 414.2657 414.2916 414.3550 414.5767 415.9033 415.9251
   415.9269 415.9269 419.5967 419.6646 419.6646 419.9407 420.8983 420.9271
   420.9271 420.9365 422.3721 422.4649 422.5281 422.5281 425.0700 425.5514
   425.5514 425.6973 426.9002 426.9023 426.9023 426.9199 427.2241 427.8438
   427.9817 427.9817 428.1479 428.5095 429.2806 429.2806 430.3400 430.8867
   431.3532 431.9690 431.9690 432.0183 432.0328 432.0334 432.0334 432.1215
   432.1997 432.6719 432.6719 432.8712 432.8712 433.1620 433.9044 433.9044
   434.3669 434.3812 436.7045 436.7045 437.1419 437.3877 437.9730 437.9730
   437.9883 437.9963 438.1451 438.1757 438.2037 438.2037 438.3277 438.3763
   438.5218 438.5218 441.9539 442.0466 442.1679 442.1679 442.2416 443.4775
   443.9481 443.9481 444.2303 444.2303 444.2694 444.3212 444.3683 444.3733
   444.3733 444.5191 444.6093 444.6363 444.6363 444.6494 447.5817 447.7476
   447.8348 447.8348 447.9587 447.9587 448.0139 448.1860 449.4804 449.4804
   449.7430 449.7602 449.8259 450.0583 450.1035 450.1035 450.1090 450.1646
   450.1646 450.1899 451.1129 451.2921 451.2921 451.6475 451.9215 452.1220
   452.1220 452.2596 452.5954 452.5954 452.9700 454.0402 454.0546 454.9361
   454.9361 455.0829 455.2467 455.3165 455.7188 455.7188 456.0536 456.2014
   456.2014 456.2235 456.2589 456.2943 456.3038 456.3139 456.3139 456.6031
   456.6031 456.6163 456.6260 456.6445 456.8521 456.8521 457.3701 457.4045
   457.4045 457.4211 459.7535 459.8758 459.8758 460.0033 462.0530 462.1240
   462.1240 462.1855 462.2131 462.3301 462.5191 462.5386 462.5471 462.5471
   462.7236 462.7454 462.7454 462.7714 462.9481 462.9481 463.0417 463.1846
   463.1846 463.1968 463.7901 463.8011 463.8016 463.8016 464.2867 464.3105
   464.3480 464.3480 466.4847 466.8894 467.3652 467.3652 467.7560 467.7560
   467.7829 467.8792 468.3914 468.4377 468.4808 468.4808 468.5572 468.7986
   468.7986 468.8120 468.8223 468.8564 468.8825 468.8825 469.9234 469.9267
   469.9267 469.9812 472.8648 472.9268 472.9449 473.2029 473.2029 473.2172
   473.4109 473.4109 473.7208 475.3743 475.3749 475.4004 475.4004 475.4058
   475.5098 475.5919 475.5919 479.5090 479.5090 479.7366 479.9574 480.0810
   480.0819 480.0819 480.1678 480.4250 480.4459 480.4533 480.4823 480.4823
   480.4974 480.5243 480.5243 482.6310 482.6310 482.6976 483.0107 484.9699
   485.0932 485.0932 485.2315 485.8112 485.9082 485.9583 485.9583 486.0921

          k =-0.1667 0.5000-0.1667 (  2451 PWs)   bands (ev):

   -17.4970  -3.9537  -3.3551  -3.3438   6.0947   8.6939   9.6961  11.0733
    12.1268  13.8205  15.6181  18.2711  18.6722  18.7731  20.3839  20.6703
    22.5151  25.1631  25.7927  25.8820  28.6292  29.5459  30.8936  32.6429
    34.0452  34.3316  34.9655  35.1854  36.9286  37.1503  38.4867  38.8001
    40.0729  40.8699  41.3716  41.8345  43.3012  43.3751  45.7451  46.1248
    46.1424  46.3823  47.5471  48.6465  49.3491  49.7428  51.5272  52.0975
    53.4130  53.9070  54.6890  56.0514  57.2061  57.6136  58.2284  58.6118
    59.8188  60.4588  62.3529  62.3917  63.1257  63.7636  64.4106  64.7989
    65.3669  67.1033  67.3645  67.5525  68.4061  68.7880  68.8810  73.0070
    73.3196  73.9242  74.0124  74.4909  74.9626  75.5994  75.6195  76.0538
    76.7563  77.0301  78.1850  81.0279  81.7730  82.2095  83.0909  83.9025
    84.8637  84.8881  85.1401  85.2844  86.1706  86.5950  87.0229  87.2913
    87.3582  88.1597  89.1053  91.0066  91.7144  91.8755  92.1870  92.2802
    92.6071  92.9646  93.4106  93.6529  93.8867  94.6113  94.7979  96.1685
    96.6253  97.2555  97.5505  97.6908  98.9208  99.3090 100.0410 101.5904
   101.8021 102.2305 102.4558 103.0054 103.5846 103.6635 104.1673 104.6907
   104.7607 105.3762 105.8581 105.9462 106.5353 107.0745 108.8080 109.1048
   109.5453 109.9115 110.2562 110.9536 112.8459 113.8023 114.4946 115.0098
   115.5045 116.3818 116.6436 117.5333 118.1344 119.1513 119.2160 119.3012
   120.8199 122.3186 122.9120 122.9739 123.9128 123.9520 124.1780 124.5995
   124.6212 124.8262 126.0643 126.2618 127.9248 128.4770 128.6490 128.9306
   129.7578 129.9740 130.5731 130.9945 133.0255 133.1351 133.4263 133.8395
   133.9097 134.0017 134.6460 134.9858 135.2057 135.6411 135.8304 136.0292
   136.6578 137.4053 137.7060 137.7503 139.0079 139.9011 140.1232 141.1407
   141.4874 141.5994 141.8310 142.1856 143.2956 144.6315 145.3890 146.0089
   146.1392 146.4745 146.5003 147.2448 147.3482 147.6393 147.7717 148.3114
   148.5207 148.9144 149.2236 149.5697 149.6000 150.1719 150.2071 152.5666
   153.0168 153.4461 153.8936 154.1741 154.2617 155.2828 155.5233 156.4708
   156.9261 157.3861 158.6294 158.7053 159.0666 159.4737 159.5770 160.8166
   161.1889 161.2656 161.7828 162.0182 162.0631 162.1996 163.9390 164.1379
   164.5967 164.6380 165.2938 165.5157 165.6785 165.7464 166.2023 167.0790
   167.7333 168.6324 168.8772 169.3099 169.6150 170.4090 170.4977 170.6088
   170.7978 170.9553 171.4945 171.8428 172.5160 172.9070 173.2017 173.2446
   173.2509 173.5337 174.9209 174.9248 175.0962 175.8007 176.2443 176.5600
   177.0460 177.0881 177.2413 177.2927 177.6463 177.8848 178.4231 179.0365
   179.2048 180.6271 181.0744 181.1335 181.2529 182.1280 182.7224 182.7234
   182.9733 183.4171 183.6889 184.0446 185.0861 185.7687 187.2177 187.2518
   187.5108 187.7394 188.3578 188.5381 189.2721 189.2957 189.5860 192.2623
   192.7209 193.6780 193.8506 194.2027 194.4386 194.5875 195.0933 195.1519
   195.5520 195.7735 195.8455 197.2182 197.6753 197.9190 198.5442 198.5957
   199.4007 199.4178 199.7389 199.9681 200.1323 200.8642 201.4345 201.7843
   202.3813 203.2879 203.4212 204.1056 204.8225 205.0472 205.1801 206.5280
   207.1108 207.4730 207.4875 208.3174 210.7208 210.8778 210.9577 211.4597
   211.6243 211.7223 212.1775 212.3262 212.6878 213.1161 213.2059 213.4747
   213.5020 213.5100 214.2397 215.0573 215.9248 216.1049 216.8450 217.1260
   217.1592 217.5588 218.1012 218.1149 218.3741 218.9323 218.9492 219.4565
   220.4466 221.0278 221.6197 222.2197 222.2917 222.9012 223.0487 223.0938
   223.1582 223.4182 223.6430 223.6734 224.2024 224.9464 225.3324 225.9824
   226.0298 226.8664 227.2070 227.3964 228.0661 228.6441 228.8668 229.0238
   229.3925 229.4202 229.4977 230.4346 230.5510 230.8092 230.9466 231.4498
   231.6662 233.2218 233.7695 233.9904 234.0748 234.7124 234.7538 234.8465
   235.0191 235.5235 235.5368 235.8526 236.2646 236.4460 237.4004 237.4177
   238.0336 238.3945 238.6671 238.9677 239.1162 240.8183 240.8747 241.0511
   241.1283 241.3459 241.5522 241.8330 241.8590 242.2165 242.2547 242.9327
   243.0923 243.1459 243.2801 243.4182 243.7859 243.8907 243.9580 244.1781
   245.0643 245.2588 245.6294 246.8582 248.8172 249.0838 249.7074 249.9424
   250.4063 250.4355 251.1925 251.9710 252.3377 252.4505 252.7417 252.9912
   253.0772 253.2141 253.3688 253.7319 253.9962 255.1088 255.3578 255.9734
   256.8365 257.0867 257.3644 257.5348 257.8816 258.4994 258.6266 258.7982
   259.2977 259.4737 259.4862 260.7812 260.9124 261.7594 261.8004 261.9546
   261.9614 262.3158 262.7267 262.8718 263.0634 263.4209 263.6013 263.7426
   264.2755 264.5037 264.5534 264.8726 265.1381 265.2264 266.0723 266.1537
   266.7366 268.0813 268.2634 268.4329 268.6869 269.2849 269.7708 270.4112
   270.8245 271.0628 271.6541 271.6613 271.9771 272.1788 272.5115 272.7264
   273.0807 273.1520 273.4025 273.4637 274.1833 274.2651 274.5608 274.8853
   275.9236 276.2278 276.2328 276.4966 276.7752 277.5811 277.6115 277.8899
   278.8279 279.2023 279.6624 280.8704 281.2330 282.1023 282.1338 282.2123
   282.4680 282.6377 283.0127 283.0476 283.8467 283.9181 284.4226 284.4744
   284.8590 285.0721 285.2533 285.7079 286.5581 286.9298 287.2730 287.7669
   288.3967 288.5399 289.0701 289.1085 290.1385 290.5324 290.5887 290.7082
   291.6800 291.8674 291.9086 292.2502 292.3089 292.3976 293.2019 293.9526
   294.0228 294.6941 295.1084 295.6252 295.6675 295.8030 296.0829 296.1724
   296.2710 296.5296 296.9602 297.0442 297.2375 297.2888 297.5330 297.5971
   297.8811 297.9642 299.3425 299.3969 300.3062 300.8859 300.9472 301.3919
   301.9072 302.5029 302.7089 302.8314 303.2232 303.2329 303.7201 303.9579
   305.0165 305.3375 305.4066 306.9027 307.2480 307.2842 307.5009 307.8834
   307.9067 308.8901 310.2442 310.9363 311.1951 311.2235 311.4319 311.5548
   312.2524 312.8828 313.7783 314.2082 314.3758 314.7223 315.0649 315.1221
   315.5677 316.1377 316.2480 316.3717 316.5877 316.7587 317.7945 317.8538
   318.2310 318.9861 319.6075 319.6813 320.7825 320.8165 321.0355 321.0360
   321.1773 321.2687 322.0017 322.2014 322.2223 322.6809 322.7264 323.4417
   323.4797 324.2525 324.7411 325.1288 325.3955 325.3996 325.7421 325.9031
   325.9497 326.0436 326.1174 326.2849 326.4374 326.5780 326.5913 326.8928
   327.0565 327.1886 328.6787 328.7879 329.3838 329.7380 329.7441 330.3684
   330.6971 330.7910 331.0299 331.4407 331.6777 331.9847 332.0630 332.3967
   332.7158 332.9965 333.3439 333.7938 334.1476 334.3950 334.6660 335.1215
   335.1628 335.8257 336.4505 336.5933 336.6212 336.8710 337.8317 337.8352
   338.2862 338.3739 338.5699 338.6329 338.8351 339.0152 339.7712 339.8083
   340.2653 340.7956 340.9446 341.2195 341.8207 341.9493 342.1201 342.9971
   343.3535 343.4295 344.0517 344.0921 344.1187 344.3706 344.5566 344.8305
   345.8966 346.6465 346.8705 346.9438 347.0361 347.3705 348.1312 348.2169
   348.3623 348.4008 348.5385 348.6188 348.8120 349.3022 349.4416 349.9039
   350.0342 350.5345 350.6606 350.7076 351.1419 351.4815 351.7197 351.8379
   351.9032 352.2406 352.3324 352.5089 352.6058 352.6377 354.0315 354.0430
   354.4034 355.3746 355.4728 356.4017 356.4803 356.7090 356.8182 356.8473
   356.9304 357.4806 357.7609 358.1048 358.4883 358.5170 358.6065 358.7617
   358.8617 359.9503 360.5410 360.5767 360.9685 361.7236 361.8289 361.9534
   361.9709 362.3202 362.3272 362.4721 362.5184 362.5862 362.6518 362.6666
   363.2700 363.3935 363.5965 363.6003 363.9346 364.1830 365.7285 365.8153
   366.1857 366.6477 367.2878 367.3290 367.4771 367.6685 368.2848 368.4207
   368.5640 368.7080 368.9090 370.8935 371.1760 371.2122 371.7989 372.0213
   372.0673 372.2964 372.7850 372.7874 372.9265 372.9878 373.8926 373.9688
   374.0681 374.3893 374.4131 374.7040 374.7980 374.8759 374.9209 374.9864
   375.1582 375.2617 376.2026 376.2984 378.7516 379.1011 379.2321 379.5215
   379.9014 379.9679 380.7419 380.7778 380.8759 381.1137 381.2558 381.3709
   381.4178 381.6324 381.7703 382.4733 382.6223 383.5927 383.5981 384.2183
   384.2379 384.7310 385.0089 385.5742 385.6598 386.4920 386.5210 387.2174
   387.6537 387.7356 389.3256 389.5488 389.6278 390.1416 390.3657 390.4996
   390.6641 390.8168 390.9544 391.2339 391.3699 391.5224 391.7771 392.3695
   392.5445 392.5976 392.6759 392.8674 395.1970 395.7914 395.9469 396.4351
   396.7109 397.4151 397.5820 397.8360 398.1506 399.3535 400.6328 400.7060
   400.8442 400.9098 401.1112 401.4886 401.7404 401.7731 402.0173 402.1651
   402.3696 402.4863 402.5274 402.5680 402.5721 402.6937 402.8114 402.9603
   402.9955 403.3278 403.3901 403.4874 403.5684 403.6327 403.7994 403.9701
   404.1089 404.3264 404.3771 405.2387 407.6038 407.7742 407.9307 407.9444
   408.0622 408.1111 408.2728 408.3103 409.0626 409.2073 409.5583 409.6057
   409.6833 409.7338 410.0642 410.3399 410.3620 410.3993 410.5123 410.6580
   410.6914 410.8878 410.9830 411.1304 411.6017 412.9529 413.8672 413.9554
   414.2597 414.5559 414.7406 415.0910 415.1242 415.3994 416.2757 416.4368
   416.4684 416.5996 416.6369 418.2697 418.5032 419.1437 419.2268 419.5507
   419.6223 419.6855 420.6147 420.7150 420.7916 420.8567 420.9139 421.0632
   421.3023 421.3546 422.0074 422.4536 422.5188 422.5749 422.5989 422.6255
   423.0651 423.0800 424.3768 424.7467 426.2061 426.4654 426.9034 427.0136
   427.0568 427.1657 427.5225 427.5595 427.8426 428.1824 428.2691 428.4775
   429.1356 429.2792 430.0819 430.1010 430.1692 431.3753 431.4625 431.5298
   431.8345 431.8508 432.3157 432.4549 432.5724 432.6288 433.0200 433.2584
   433.7808 434.5153 435.0234 435.1833 435.1988 436.8056 436.9024 436.9769
   437.0640 437.3055 437.3223 437.5953 437.6217 437.8920 438.1521 438.3289
   438.3388 438.5131 438.7794 438.8209 438.9704 439.4533 440.2279 440.2485
   440.5789 440.6707 442.1210 442.3467 442.6702 442.9294 443.4328 443.8293
   444.0317 444.0581 444.2656 444.2676 444.6633 444.8790 444.9963 445.2174
   445.3763 445.5429 445.5655 446.1684 446.3031 446.8018 446.8333 446.9868
   447.5741 447.6223 447.7458 448.0450 449.3653 449.9271 450.2004 450.2387
   450.4571 450.7290 450.7591 451.0383 451.0722 451.2719 451.4754 451.5518
   451.5924 451.9009 452.5022 452.5033 452.5083 452.7937 452.9950 453.1677
   453.4130 453.6061 455.0559 455.0712 455.4671 455.5355 457.1437 457.3201
   457.5638 457.6123 458.0859 458.8855 459.1195 459.4377 460.4802 460.7396
   460.7975 461.3476 461.3586 461.6140 461.6243 461.8221 461.8568 462.3035
   462.4184 462.6111 462.6916 462.6992 462.7087 464.1482 464.2736 464.2911
   464.4401 464.4403 465.0762 465.0850 465.6533 465.7651 466.1856 466.2638
   466.3297 466.3343 466.6843 467.1298 467.1812 467.2558 468.0965 468.4462
   468.5639 468.8219 469.0004 469.4252 469.5620 469.8116 469.8543 470.0773
   470.3598 471.1332 471.1338 472.6051 472.8639 473.0069 473.1988 473.2517
   473.3503 473.4504 473.4822 473.5041 473.5864 474.1365 474.2911 474.2977
   474.6270 474.7628 474.8193 475.0169 475.0276 475.1400 475.3582 475.4460
   475.4602 475.4832 475.5165 475.6589 476.3484 476.4335 476.9995 477.0675
   478.2988 478.4974 478.6745 478.7173 478.9127 479.0878 479.1208 479.1318
   479.9576 479.9655 480.4495 480.5777 481.1057 481.2081 481.2445 481.2889
   481.5177 481.8556 482.0806 482.1044 482.6478 482.8301 482.9224 484.3594
   484.4012 484.4646 484.5000 484.7306 484.7600 484.8293 485.3506 485.3507

          k = 0.6667-0.3333 0.6667 (  2450 PWs)   bands (ev):

   -17.4486  -4.2769  -3.4929  -3.3612   6.9929   8.4103   9.5837  10.6588
    13.5528  14.7845  15.5352  15.6915  17.4307  19.4277  22.5131  22.6610
    23.5653  24.3820  26.1713  26.7538  28.1805  28.8444  29.9548  31.3033
    31.9542  32.3068  32.7766  33.6076  36.1332  36.8637  37.5570  38.1021
    38.5038  41.8179  42.0690  42.6490  43.7486  44.5455  46.9104  47.0884
    48.5595  48.8137  48.8928  49.3009  50.3995  50.9224  51.3720  52.9126
    54.1207  55.0649  55.9575  57.7037  58.1203  58.8655  59.0167  59.5439
    59.7854  60.3182  61.3667  61.5715  62.1499  64.0405  64.1811  65.2442
    65.8328  66.6588  66.8071  67.7547  67.9844  68.4969  69.0364  69.2069
    70.7970  70.8056  72.8147  73.6872  74.0594  74.5932  75.4081  75.4259
    77.0753  77.7968  78.0631  78.8954  78.9112  81.1989  81.8968  82.0442
    82.8213  83.4895  83.8105  84.2805  84.3379  85.6375  86.6623  87.9662
    88.7797  89.7398  89.7936  90.0092  90.7623  90.8436  91.2365  91.8471
    92.4712  92.9605  94.0991  94.5135  94.8346  95.6598  96.0812  96.3414
    96.6833  97.4339  99.0455  99.6720  99.7179 100.1238 101.3247 101.5207
   102.8593 103.1880 103.9819 104.2838 104.8418 104.9186 104.9260 105.5302
   106.2692 107.1094 108.1116 108.6617 109.4831 110.4906 111.0523 111.5452
   112.2678 112.8442 112.8593 113.2952 113.6994 114.3017 114.6373 114.7588
   115.8297 116.6997 116.7793 116.8781 117.4346 117.6244 119.5774 119.7966
   120.6052 120.8656 121.6120 122.0295 122.2175 122.5741 123.3825 123.4904
   123.7287 123.8423 124.6222 125.6856 125.7770 125.8008 125.8815 126.3549
   127.7191 129.2342 130.1278 130.4523 131.8813 132.2064 132.4135 132.7866
   133.5293 133.7524 134.1903 135.2756 135.9059 136.3271 137.2329 137.5858
   137.6910 138.1297 138.2841 138.5925 138.7266 139.0941 139.2340 139.5247
   140.5813 141.2371 141.8695 142.1878 142.6532 142.7662 143.5493 145.4269
   145.5426 145.6416 145.7417 146.9831 147.1254 148.3095 148.3572 148.7903
   149.1411 149.2769 149.6227 149.7159 149.9214 150.1978 150.2435 150.4097
   150.6004 150.7030 151.0838 152.3156 153.7835 154.5253 154.6305 155.3588
   155.5649 156.6403 156.6680 156.8742 157.5067 157.6095 157.6178 158.0088
   158.2958 158.6644 158.7317 160.7224 161.6993 161.9051 161.9650 161.9758
   163.5673 163.8267 164.4814 164.5609 165.5784 166.7762 166.8270 167.1671
   167.2037 167.6313 167.8355 169.6571 170.2444 170.9436 171.7820 171.8028
   172.9469 173.2826 173.4026 173.8465 173.9815 174.2966 174.2994 174.6094
   174.7827 174.9091 176.0218 176.2711 177.1533 177.2840 177.3586 177.9905
   178.6923 179.0344 180.5945 181.4352 182.3409 182.4278 182.5139 182.7394
   183.6943 184.2213 184.5627 184.8270 184.8528 185.0945 185.6021 186.2557
   186.4431 186.4546 186.6754 186.9138 187.7544 188.4907 188.6571 188.8250
   189.7278 189.8305 190.2906 190.7662 191.2163 191.2627 191.5562 191.9879
   192.8387 193.1635 193.2366 193.9852 194.0098 194.5793 195.0138 195.7093
   195.7452 196.3045 196.6376 196.9211 197.3198 197.5594 197.6741 197.7505
   198.5839 199.2363 199.6165 199.9509 201.1252 201.4348 202.0648 202.2617
   202.3104 202.8809 203.5735 203.8063 204.0093 204.5744 204.6269 204.6772
   205.6573 206.0963 206.1328 207.2492 207.6065 207.9622 208.3717 208.8670
   208.8944 209.2453 209.4503 209.4668 209.7396 209.7952 210.0396 210.5759
   210.7169 211.2263 211.5711 211.7306 212.4258 213.9822 214.1964 214.1980
   215.0665 215.1221 215.6494 216.0952 216.4901 216.8020 217.0005 217.0893
   217.2764 217.3763 218.4201 218.7587 219.3337 220.1097 220.5381 220.8014
   221.1814 221.5770 221.6006 221.9603 221.9851 224.3105 224.6707 225.7247
   225.9837 226.6913 226.8686 227.1205 227.5079 227.9477 228.0921 228.3875
   228.5031 228.8752 229.4213 229.5281 230.1527 230.3877 231.4943 231.5343
   231.7479 231.9151 232.0378 232.4016 233.1531 233.2190 233.7133 234.5976
   235.1190 235.4496 235.8163 236.3361 236.4183 236.6137 236.8787 237.6424
   237.9667 238.4082 238.5078 238.6666 239.0987 239.3422 240.5479 240.7312
   240.9869 241.1929 241.8301 241.9216 242.4020 243.0799 243.2531 244.3683
   244.4809 245.0940 245.2484 245.7049 245.8389 246.0772 246.6448 246.7389
   247.4740 248.1329 248.2316 248.4768 248.5881 248.8389 249.6876 249.7803
   249.9719 250.9854 251.3636 252.2561 252.5000 252.8787 253.6572 253.8461
   254.6295 254.7827 255.9421 255.9931 256.6573 256.9021 257.7775 257.9194
   258.1510 258.8805 258.9214 259.3727 259.3866 259.8582 259.9651 260.0477
   260.3516 261.0292 261.1936 261.3341 261.6725 261.9030 262.6894 262.7546
   263.0248 263.0384 263.3493 264.2631 264.3222 264.6360 265.2103 266.0449
   266.1290 266.1385 266.9800 267.4129 267.4161 267.7217 267.8686 268.2131
   268.3999 268.9886 269.0105 269.1148 269.1602 269.6686 269.6877 270.2468
   270.6026 270.6266 271.4591 272.3005 272.4870 273.3061 273.3294 273.8271
   274.2636 274.2821 274.3501 274.7317 275.0236 275.3746 275.3815 275.8847
   276.0740 276.2258 276.8987 276.9837 277.5536 277.5983 278.2939 278.6303
   279.4557 280.2719 280.9070 281.1680 281.2241 281.4331 281.5631 281.7415
   281.8743 282.0927 282.3535 283.1333 283.5593 283.6210 284.2235 284.9105
   284.9422 285.4220 285.7886 286.0466 286.3028 286.4322 287.0423 287.1950
   287.3469 287.3659 288.3958 288.5282 289.0422 290.7446 290.9192 290.9258
   291.2680 291.3535 291.8604 291.9756 292.4934 292.7873 292.9587 293.2256
   293.5170 293.7020 293.8204 294.1402 294.3232 294.9150 295.7811 296.3473
   296.3576 296.8974 297.3107 297.9950 298.2064 299.3334 299.4990 299.5094
   300.2065 300.4150 300.4517 300.4886 300.7338 300.7422 300.9347 302.3316
   303.1684 303.5823 304.1266 304.2765 304.4658 304.9607 305.1233 305.5486
   305.6850 305.8835 306.1269 306.3246 306.5893 306.8869 307.0076 307.3057
   307.3249 308.4059 308.9685 309.0380 309.2626 310.1589 310.8853 310.9850
   311.1106 311.1565 311.1782 311.3348 311.8593 312.0350 312.4273 313.4284
   313.6647 314.3067 314.3261 315.5314 315.7309 316.0456 316.3053 316.4701
   316.7674 316.8295 316.9020 317.0453 317.1876 317.5249 317.5387 317.9593
   318.6584 318.8305 319.2701 319.4351 320.5991 321.3568 321.5172 321.7787
   321.9101 322.0348 322.3508 322.3825 322.7767 322.8281 323.2129 323.2265
   324.2907 324.4263 324.6601 324.7141 325.3240 325.3902 325.9381 326.4423
   326.5975 327.1139 327.4868 327.6492 328.0384 328.3036 328.3291 328.8019
   328.8919 328.9612 329.1435 329.2397 330.4337 330.6361 331.7708 331.8508
[...]
   258.8086 259.3990 259.5983 260.0011 260.4853 260.7780 260.7959 261.9279
   262.1799 262.8377 263.4116 263.8419 264.1266 264.5175 264.7388 265.3603
   265.7401 265.9737 267.9396 268.0693 268.2193 268.7758 269.5404 269.8916
   270.1942 270.1995 270.2425 270.7176 270.8413 270.9532 271.6050 271.6397
   272.0679 272.3354 272.8201 273.1006 273.1470 273.1942 273.4942 273.6007
   274.4757 274.5577 276.1626 276.1662 276.3269 276.5893 276.9202 277.2698
   277.3012 278.0265 278.3173 278.3625 278.4049 278.8445 279.2597 279.3869
   279.9325 280.1531 280.3866 280.8117 281.5659 281.6134 281.6995 283.0221
   283.5699 283.8541 284.2214 284.4464 284.4523 284.7647 284.8205 285.1038
   285.1679 286.0120 286.1973 286.3827 286.6530 288.4324 288.7863 289.1940
   289.4128 290.2188 290.2604 290.7220 291.0428 291.7072 291.9601 292.2255
   292.4538 293.0378 293.1229 293.2720 293.4448 294.1302 295.1492 295.7162
   295.7521 295.8924 296.7033 296.9911 297.6032 297.6090 297.7530 297.9996
   298.1734 298.2814 298.3070 298.3158 298.3865 298.5353 298.5517 298.9541
   299.1933 299.6054 299.9300 300.2567 301.2801 301.4065 302.4503 302.6320
   302.9697 303.0167 304.2606 304.2697 304.5281 304.6016 305.0829 305.1360
   305.3149 305.6166 305.8213 306.3023 306.3024 306.6036 306.7469 306.7707
   307.1157 307.3809 307.5768 307.6283 308.1274 308.3214 308.4580 308.8931
   309.0178 309.1381 309.1526 309.3022 309.3596 310.3129 310.4377 310.7193
   310.7552 310.7701 311.7827 312.0621 312.7441 312.7617 313.6948 314.6692
   314.9183 315.4127 316.0036 316.2228 316.2974 316.8302 316.9364 316.9906
   317.2984 317.3216 317.5898 317.8180 317.8857 317.9634 317.9696 318.0688
   318.4824 318.9836 319.1036 319.7195 320.3353 321.0872 321.3769 321.7672
   321.9832 322.0857 323.1674 323.3753 324.1018 324.3150 324.6223 324.8609
   325.5043 325.6325 326.7465 326.9398 327.0082 327.0886 327.1496 327.4623
   328.3195 328.5293 328.8398 329.2838 329.4834 329.5158 329.7592 330.0860
   330.3494 330.4134 330.5052 330.8395 331.0069 331.4119 331.8674 332.0412
   332.8825 333.4868 333.7674 333.7941 334.1072 334.1664 335.7804 335.9737
   335.9921 336.9279 336.9853 337.3413 337.5512 337.8825 339.3413 339.5706
   340.3311 340.4778 341.4447 341.8022 341.8654 341.9457 342.3810 342.5159
   342.5636 342.9491 343.1890 343.4879 344.1073 344.2866 344.3474 344.6232
   344.9942 345.2070 345.4324 345.5977 346.0626 346.5869 347.4084 348.1077
   348.2796 348.3227 348.6533 348.6896 349.8099 350.4325 350.4937 351.3279
   351.5844 352.1772 352.8297 353.5688 353.9045 355.0204 355.1938 355.5350
   356.0723 356.2199 356.2702 356.6299 356.8615 357.4108 357.5862 357.6040
   357.7109 357.7990 358.4261 358.7258 358.9899 359.3013 359.5322 359.5804
   359.8427 360.3147 360.8276 361.1847 361.2543 361.4615 361.6446 361.8614
   361.9407 362.0036 362.1234 362.7680 363.5702 363.8038 364.4070 364.8594
   365.0000 365.0359 365.1810 365.2227 365.9065 366.6430 366.9519 367.1504
   367.4551 368.0164 368.4061 368.6437 368.8001 368.9712 369.0923 369.2969
   369.3198 369.5817 369.7643 369.9112 369.9879 369.9998 370.4408 371.3768
   371.5268 371.5883 371.7331 371.8644 371.9277 372.1319 372.7697 372.8801
   373.1628 373.5967 374.0140 374.1179 375.1844 375.3242 375.7279 375.8467
   376.0246 376.3839 376.8596 377.1079 377.1926 377.2838 377.6815 377.7296
   377.8056 377.8161 379.9631 380.3933 380.6688 380.8172 381.1216 381.2266
   381.3979 382.1220 382.2633 382.6070 382.9079 382.9679 383.2731 383.4592
   383.7920 383.8104 383.9185 384.0736 385.4090 385.5498 386.0574 386.2468
   387.3649 387.4304 387.7620 388.0091 388.0876 388.3151 388.3972 388.5774
   388.6783 388.7213 388.8257 389.0209 389.1036 389.1644 389.2934 389.4594
   389.6663 389.7148 390.0828 390.6975 390.7265 391.3728 392.1108 392.5214
   392.7370 392.9832 393.1665 393.3789 393.4772 393.6683 393.6895 394.4234
   394.6034 395.3513 395.4968 396.2327 396.8992 397.8164 397.8264 398.4014
   398.6164 399.0670 399.5467 399.8895 400.0547 400.3403 400.4510 400.5882
   400.8939 401.0217 401.0449 401.3568 401.3871 401.5907 401.8111 402.3653
   402.7509 402.9487 403.0242 403.1410 403.7347 404.3759 404.4514 404.5254
   404.7711 405.3886 405.4381 405.7490 405.7904 405.8868 405.8994 405.9548
   406.0760 406.1478 406.2332 407.1859 407.4191 407.5087 407.5353 407.6960
   407.7783 407.8160 407.9631 407.9930 410.3447 410.4524 411.6281 411.6647
   411.8158 411.8189 412.4658 412.5933 413.6054 413.6446 413.7817 413.8624
   415.9194 416.0371 416.0784 416.2832 416.5818 416.5971 416.6899 416.7143
   417.6735 417.9233 417.9608 417.9858 418.2113 418.2816 419.2811 419.6177
   419.8043 420.3712 421.1800 421.4956 421.7755 421.8312 422.0956 422.2127
   422.4762 422.5879 422.7572 422.7807 422.8971 422.9127 423.0402 423.1227
   423.3118 423.6611 423.7041 424.2126 424.5612 424.6242 424.8347 424.8760
   424.9503 425.1014 426.4621 426.9343 427.0292 427.0877 427.7403 427.8532
   427.8709 428.1212 428.5736 428.8398 429.0820 429.0903 429.3924 429.4358
   429.4687 429.6218 429.9460 430.1441 430.5526 431.1103 431.3518 431.4850
   431.6821 431.7249 433.4699 433.5925 433.6734 433.7493 434.5982 434.7702
   434.8858 434.9211 435.0388 435.2129 436.1675 436.1763 436.3303 436.3807
   436.6729 436.6730 436.7345 436.8244 437.6520 437.6527 439.2331 439.4813
   439.6687 439.8115 439.9657 440.0491 440.2034 440.2210 440.5017 440.5208
   441.0331 441.1409 441.3704 441.3944 441.8734 441.9348 442.3335 442.3376
   442.4041 442.4391 442.6111 443.0577 443.1603 443.1712 443.3130 443.4309
   444.0873 444.5311 445.4550 445.7489 447.1827 447.1930 447.5291 447.5579
   448.5012 448.5341 449.1081 449.1395 449.2941 449.4117 449.5331 449.6106
   450.5997 450.8723 451.2005 451.2359 451.5482 451.8728 452.1559 452.3554
   452.5935 452.5959 452.6943 452.7152 452.8325 452.8918 452.9391 452.9461
   453.4941 453.9854 457.3503 457.4365 457.8454 458.2052 458.2652 458.3640
   458.7232 458.9201 458.9761 459.0757 459.3802 459.5579 460.6217 460.9933
   461.0434 461.0898 461.2490 461.3044 461.3869 461.4662 461.6611 461.6872
   462.9206 463.2150 463.5044 463.5673 463.6983 463.8388 464.8883 464.9080
   465.3722 465.3814 465.8524 466.0613 466.4042 466.4491 466.6897 466.7727
   466.9717 467.0867 467.1659 467.2608 467.3440 467.3769 467.5300 467.5716
   468.3588 468.4009 468.6396 468.9154 469.5467 469.5587 470.0929 470.3404
   471.4244 471.4413 472.2187 472.2713 473.1102 473.2602 473.9022 473.9139
   474.0761 474.0834 474.3295 474.7268 475.0294 475.1474 475.3213 475.4281
   475.5867 475.9175 475.9885 476.2707 476.3089 476.7468 476.9409 477.0351
   477.0539 477.9995 478.0308 479.4657 479.4872 479.5486 479.5512 480.5258
   480.8606 481.7282 481.7582 481.9267 481.9564 482.2338 482.3742 483.3380
   483.3764 483.7266 485.0222 485.0614 485.5726 485.6020 485.9579 485.9622
   486.3293 486.4606 486.8381 486.8425 487.9597 487.9980 488.3788 488.6925

          k =-0.3333-1.0000 0.0000 (  2436 PWs)   bands (ev):

   -17.4135  -4.1257  -3.7653  -3.5998   7.0875   8.2537   9.6161  11.1559
    14.5173  15.2565  15.3887  15.5236  18.3998  20.5754  21.3543  22.1089
    23.0834  24.1360  25.3875  25.7554  28.2394  28.6256  28.7420  29.4903
    32.2427  32.5885  32.8721  35.2345  35.7008  36.2715  37.3163  38.9379
    39.6970  39.9566  42.0264  43.6849  44.4106  45.2929  45.8730  46.8211
    47.5501  49.4065  50.1425  50.8024  51.1412  52.3145  52.3301  52.5624
    53.4586  54.4004  55.8285  56.3954  57.8370  58.2619  58.6982  59.4323
    60.6210  61.7760  62.6094  62.6679  62.7491  63.6277  64.8386  65.7945
    66.7779  66.8098  67.3167  67.3818  67.7744  68.9932  69.6096  69.7572
    71.0022  71.6862  72.8683  73.5124  75.2684  75.4437  76.5269  76.6696
    77.1676  77.2744  77.4683  78.4555  78.5858  78.9188  79.5745  79.6176
    81.4238  81.8821  82.0575  82.2013  83.5595  83.8683  84.0684  84.2550
    84.9436  85.2078  85.7311  87.1891  88.5103  88.6652  89.4228  89.5408
    92.1969  93.6337  95.2974  95.8751  96.3275  96.4616  97.4263  99.5816
   100.2666 100.5915 100.6381 102.4315 102.9986 103.2462 103.4853 104.3691
   104.6256 105.4322 105.6003 106.2888 106.4128 106.6277 107.1589 107.4590
   107.4634 108.4266 109.3106 109.7901 111.0515 111.8311 111.8317 112.0594
   112.0851 113.4846 113.8520 113.9283 113.9899 115.8463 116.0444 116.1417
   116.5367 116.6249 116.9824 117.4369 117.6939 117.8602 119.5952 119.7370
   120.2168 120.6203 120.6924 120.7431 121.3794 121.7520 123.0838 123.5223
   123.6581 123.6772 124.6567 125.9507 126.2422 126.9702 127.2216 127.6111
   127.7203 128.0020 128.4681 129.0038 129.2553 130.2864 131.1175 131.2879
   131.4282 132.2222 133.4045 133.5776 134.0726 134.1525 135.3891 135.8295
   136.0983 136.4606 136.4967 136.5862 136.6251 136.8870 136.8942 137.2421
   138.0565 138.1019 138.2133 139.1265 141.1780 141.3328 142.1458 142.3886
   142.4073 142.4246 142.4505 145.2679 145.3801 146.5011 146.6241 148.0242
   148.8510 149.0452 149.1778 149.2412 149.9997 150.9919 151.3354 151.3399
   151.3798 151.7925 154.7926 156.4676 156.9873 157.3018 157.7025 157.8499
   158.5555 158.7300 158.8649 159.1466 159.2807 159.3284 159.5109 159.9890
   160.4027 160.5796 161.3394 161.3629 161.8016 162.3167 163.7177 164.6511
   165.0362 165.0808 165.1848 165.2492 165.4432 166.0023 167.5304 168.7361
   168.8786 168.9582 169.4178 169.5563 170.3074 170.7510 171.4410 171.4753
   171.6179 172.0636 172.5783 172.7130 172.8080 173.3380 174.3553 174.6394
   175.0123 175.1758 175.2013 175.5669 177.0932 177.1019 177.1839 178.8574
   180.5838 180.8450 181.2204 181.3450 181.6190 182.3024 182.8111 182.9130
   183.3913 183.4506 183.7085 184.0779 184.7227 185.2819 185.4831 185.6608
   186.7645 187.4413 187.4430 187.8118 187.9379 188.1020 189.2072 189.2080
   190.2839 191.0124 191.6835 192.2422 192.5285 192.8484 193.0821 193.2539
   193.3034 193.3730 193.8217 194.7535 196.5224 196.5999 196.6562 196.8477
   196.9866 197.0080 197.1265 198.1851 198.4029 198.5844 198.8526 198.8740
   198.8951 199.2301 199.3344 199.3629 199.9642 200.1616 200.6202 201.0623
   201.0742 201.2058 201.3982 202.0858 202.3422 202.5696 202.9196 203.1077
   205.9216 206.0808 206.2232 206.4619 206.8197 207.4236 207.7668 208.0483
   208.2886 208.3424 208.3497 208.4102 208.5001 208.6725 209.6286 209.6738
   212.0592 212.3476 213.1354 213.2489 213.5546 214.0324 214.0788 214.2133
   214.3718 215.2242 215.2973 215.3801 215.3851 215.6540 216.4149 216.5085
   216.5544 216.6722 216.6925 217.0241 217.6782 219.3458 219.5590 220.2741
   220.2981 220.6808 220.7781 221.0011 222.3948 222.4159 224.0456 224.3935
   225.0101 225.4968 225.4984 225.8702 226.6649 226.7562 227.0165 227.1133
   228.9240 229.1659 229.2604 229.6559 230.0053 230.1690 230.7597 231.0738
   231.2095 231.7575 232.1855 232.5493 233.4068 233.6211 234.0631 234.2406
   234.3999 235.0413 235.4884 235.6852 235.6890 235.8273 237.3352 237.6382
   237.8960 237.9972 238.6978 238.7302 239.8031 239.9182 240.3093 240.6350
   241.0160 241.9008 242.2443 242.4884 242.6218 243.0450 243.5363 244.0407
   244.1888 244.7429 245.5558 245.7302 246.3355 246.7642 246.7821 246.9613
   247.0759 247.0941 247.2710 247.3922 247.4036 247.8022 248.3581 248.6549
   249.4787 249.8941 249.9555 250.0578 252.0653 252.2296 253.5081 254.2319
   255.5602 255.6944 255.7898 255.8443 255.9795 256.5090 256.7299 256.7434
   256.8055 256.8285 256.8317 257.6330 258.2192 258.3321 258.3636 258.8793
   259.0253 259.1572 259.3409 260.1566 260.5642 260.8407 261.9986 262.0473
   262.7930 263.3875 264.0010 264.3292 264.5953 264.6033 264.8101 264.9179
   265.5018 265.6618 266.4172 266.6912 266.6941 266.7464 266.9024 267.4195
   269.0020 269.2325 271.5713 272.6684 272.7235 272.8382 272.9571 272.9934
   274.1969 274.2317 274.6060 275.0883 275.1072 275.7367 276.3008 276.9457
   277.1310 277.5717 277.6725 277.8221 277.8334 277.9816 278.1998 278.8708
   279.0852 279.1449 279.4113 280.0038 280.3336 280.9280 281.1723 281.7161
   282.0107 282.0261 282.4458 283.7411 284.4184 284.4328 285.0424 285.5652
   285.6407 285.7769 285.9429 286.1982 286.2880 286.4225 286.8382 287.2065
   287.5052 288.3305 288.4584 288.6284 288.7615 289.2250 289.2973 289.7544
   290.2688 290.3844 290.5689 290.5981 290.6764 290.7647 291.0810 291.1236
   291.2136 291.6152 291.6391 291.7331 292.4324 292.5919 292.7055 292.8941
   294.0117 294.5445 294.7008 295.6784 296.4419 296.5232 296.8438 297.0923
   297.3609 297.4989 297.6856 297.7429 297.8462 297.9440 297.9794 297.9831
   297.9950 298.0314 298.0777 298.0915 298.3985 298.4980 298.6987 298.7498
   299.4484 299.6493 300.6236 300.6737 302.3206 302.3904 303.0947 303.7035
   303.7362 303.7393 303.8546 304.2641 304.9173 304.9472 306.1253 306.1699
   306.3556 306.3620 307.3913 307.4981 307.6544 307.8036 307.9100 307.9448
   308.2371 308.6436 309.0247 309.1670 309.8597 310.1665 310.5163 310.7480
   310.8774 312.2309 312.6531 314.1770 314.2468 314.2713 314.2971 314.3554
   315.8796 316.0780 316.1604 316.1758 316.4925 316.8195 317.2471 317.5714
   317.6908 317.8318 317.9493 318.6039 318.6865 318.7258 318.7325 318.7846
   320.2428 320.3332 320.3823 320.4604 321.5373 321.6563 322.1393 322.8618
   323.0843 323.1321 323.4070 323.9854 323.9866 324.1674 324.4795 324.8979
   324.9585 325.0752 325.0777 325.1201 325.2602 325.4604 326.3862 326.5262
   326.5340 326.5358 327.6274 327.6275 329.3291 329.9548 329.9917 330.2688
   330.7831 331.0147 331.0946 331.0953 331.5151 332.0991 332.1474 332.2459
   332.3153 332.3615 332.6318 332.8523 334.1131 334.7453 335.2052 335.3871
   335.4552 335.6308 336.0449 336.3118 336.3145 336.5342 336.5572 336.7387
   337.0679 338.4533 338.4715 339.4490 339.7948 339.8167 342.2281 342.5634
   342.6230 342.7409 343.0716 343.1574 344.0838 344.3857 344.8395 345.2675
   345.5357 345.8180 346.0154 346.6863 346.7520 347.3705 348.1362 348.1790
   348.2796 348.5352 348.5996 348.6152 348.7284 348.8844 350.2637 350.2864
   350.3027 350.3827 350.7314 352.2328 353.0787 353.3573 353.3957 353.8475
   354.2711 354.3076 355.2317 356.1109 356.2748 356.3148 357.4865 357.5048
   357.5586 358.6695 359.0483 359.1624 359.7133 360.1578 360.2781 360.5665
   360.6332 360.6790 360.7447 360.7449 362.2998 362.3498 362.4789 362.5538
   363.8578 364.7376 365.3641 365.4765 366.1186 366.7661 366.9037 366.9748
   366.9900 367.0391 367.0464 367.2713 367.6249 367.7758 368.1036 368.6987
   368.9654 369.2133 369.5813 370.0564 370.0663 370.4580 370.5223 370.7077
   370.7392 371.2844 371.3160 371.6410 372.3333 372.3897 372.6149 372.7461
   373.2702 373.2912 374.3088 374.3144 374.9008 375.3129 375.3129 375.3217
   376.0537 376.0775 376.9723 376.9991 377.3096 377.4144 377.5313 377.9254
   378.0954 378.1532 378.3022 378.5543 378.6516 378.6523 378.7271 379.3444
   379.7163 379.8150 379.8431 380.0555 380.5479 380.5516 380.5660 380.5709
   381.2464 381.4657 381.5118 381.5897 381.7872 382.2156 383.5041 383.6356
   384.1949 384.2740 384.8349 384.8564 384.9828 385.0534 385.9118 385.9736
   386.0298 386.0995 386.1303 386.2066 387.2364 387.2776 387.3338 387.3469
   387.3724 387.5794 387.8367 387.8433 388.3924 388.6816 388.9183 388.9759
   389.0723 389.4165 389.5059 390.1243 390.2510 390.2666 390.2735 390.7343
   391.0063 391.1467 391.2034 391.6782 391.7282 391.7562 391.9374 393.1472
   395.2838 395.6901 396.0207 396.0826 396.4120 396.6594 397.0575 397.0967
   397.3171 397.4267 397.4525 397.5468 398.1768 398.2021 398.2028 398.2051
   400.0492 400.1773 400.3498 400.3925 401.7172 401.7328 401.8898 402.0150
   402.0489 402.2689 403.7477 403.9885 404.6198 404.8389 404.9999 405.5140
   405.5405 405.5570 405.5748 405.7206 406.0336 406.2783 406.3582 406.3837
   406.5989 406.8909 407.3186 407.7444 408.8561 408.9579 409.4414 409.4842
   409.5128 409.6882 409.9242 410.3169 410.6681 410.9517 411.2467 411.3095
   411.3098 411.3511 411.3691 411.3806 411.4777 411.4804 412.5916 412.6824
   413.6811 413.7199 413.7774 413.9911 415.5280 415.5348 415.5451 415.6340
   416.0004 416.3234 416.3601 417.0693 417.1515 417.3588 417.5078 418.1297
   418.2976 418.4849 418.5378 418.5382 418.6090 418.7839 419.1095 419.7255
   419.7779 419.8043 419.9817 420.4823 420.4835 421.5202 423.1591 423.1650
   423.2071 423.2167 423.4014 423.6350 425.5712 425.8555 425.9121 425.9910
   426.2581 426.3418 426.7359 426.8453 427.1625 427.4337 427.4658 427.4968
   427.8791 427.9022 428.0204 428.0360 428.3856 428.4866 430.8254 431.0098
   431.4088 431.4523 431.5347 431.5611 431.9342 431.9827 432.0051 432.1034
   432.2265 432.4698 432.6824 432.8568 434.9029 434.9459 434.9643 434.9995
   435.1390 435.3043 435.4414 436.0435 436.0800 436.0820 437.7355 437.9131
   437.9563 438.0861 438.1153 438.2600 438.2657 438.2823 439.5807 439.6294
   439.7757 439.8820 439.9623 439.9659 440.6784 440.7506 440.9877 441.0407
   441.1197 441.1429 441.1589 441.1812 442.3778 443.1815 443.3789 443.7748
   443.8106 443.8173 444.0548 444.1645 444.3129 444.4613 444.8486 444.8962
   445.2674 445.3353 445.3383 445.4924 445.6247 446.6141 446.7980 447.0839
   447.0849 447.1023 447.1044 447.7086 449.2808 449.4877 449.4882 449.7853
   450.2028 450.2309 450.2742 450.2848 451.3399 451.3672 451.5917 452.6097
   452.6658 452.7070 453.7666 453.9181 454.2008 454.3709 455.1690 455.2096
   455.3363 455.6366 456.0256 456.0978 456.3826 456.3953 456.5028 456.6484
   458.9849 459.0610 459.1224 459.3076 459.4130 459.4158 459.6652 459.9312
   460.8853 460.9362 461.6535 461.8121 461.8402 461.8927 462.2112 462.2351
   462.2784 462.3272 463.2144 463.2933 463.6856 463.8172 464.1677 464.1844
   464.9015 464.9024 464.9176 464.9364 465.1688 465.2013 465.3211 465.4392
   466.5041 466.5378 466.5769 466.6745 467.6234 467.6738 467.8390 467.9514
   467.9764 467.9901 468.9911 468.9974 469.0027 469.1638 470.0898 470.1775
   470.9418 471.4712 473.2353 473.3528 473.6077 473.6142 473.6788 473.6886
   474.1820 474.5030 475.0597 475.2612 475.2877 475.3397 475.4297 475.4841
   475.8325 475.8576 475.8949 475.8981 476.0766 476.7007 476.7111 476.7124
   476.9659 477.0338 477.0536 477.9266 477.9272 478.3842 478.8431 481.2556
   482.8004 482.8036 482.8816 482.9007 482.9015 482.9030 484.8010 484.9675
   485.1521 485.2352 485.4726 485.5101 485.8672 486.1294 486.3691 486.4313
   486.7197 486.8455 487.2752 487.2894 487.3028 487.3553 487.6080 487.6536

     the Fermi energy is    -1.7572 ev
     (compare with:    -1.7524 eV, computed in scf)

     Writing all to output data dir out/mp-612118.save/
 
     init_run     :      0.04s CPU      0.05s WALL (       1 calls)
     electrons    :   1122.82s CPU   1206.69s WALL (       1 calls)

     Called by init_run:
     wfcinit      :      0.00s CPU      0.00s WALL (       1 calls)
     potinit      :      0.01s CPU      0.01s WALL (       1 calls)
     hinit0       :      0.01s CPU      0.01s WALL (       1 calls)

     Called by electrons:
     c_bands      :   1122.81s CPU   1206.67s WALL (       1 calls)
     v_of_rho     :      0.01s CPU      0.01s WALL (       1 calls)

     Called by c_bands:
     init_us_2    :      0.00s CPU      0.00s WALL (      16 calls)
     init_us_2:cp :      0.00s CPU      0.00s WALL (      16 calls)
     paro_k       :   1086.41s CPU   1167.87s WALL (      16 calls)

     Called by paro_*:
     h_psi        :     19.63s CPU     20.65s WALL (    1600 calls)
     g_psi        :      0.42s CPU      0.48s WALL (  155379 calls)

     Called by h_psi:
     h_psi:calbec :      0.29s CPU      0.32s WALL (    1600 calls)
     vloc_psi     :     19.00s CPU     19.99s WALL (    1600 calls)
     add_vuspsi   :      0.21s CPU      0.22s WALL (    1600 calls)

     General routines
     calbec       :      0.29s CPU      0.31s WALL (    1600 calls)
     fft          :      0.00s CPU      0.01s WALL (      10 calls)
     fftw         :     16.90s CPU     17.76s WALL (  255340 calls)
 
     Parallel routines
 
     PWSCF        :  18m44.02s CPU  20m 8.55s WALL

 
   This run was terminated on:  23:44:26  14Nov2023            

=------------------------------------------------------------------------------=
   JOB DONE.
=------------------------------------------------------------------------------=
