
     Program PWSCF v.7.1 starts on 14Nov2023 at 22:20:32 

     This program is part of the open-source Quantum ESPRESSO suite
     for quantum simulation of materials; please cite
         "P. Giannozzi et al., J. Phys.:Condens. Matter 21 395502 (2009);
         "P. Giannozzi et al., J. Phys.:Condens. Matter 29 465901 (2017);
         "P. Giannozzi et al., J. Chem. Phys. 152 154105 (2020);
          URL http://www.quantum-espresso.org", 
     in publications or presentations arising from this work. More details at
     http://www.quantum-espresso.org/quote

     Parallel version (MPI), running on     8 processors

     MPI processes distributed on     1 nodes
     123698 MiB available memory on the printing compute node when the environment starts
 
     Reading input from pw_mp-612118_nscf_k0_E58.in
Warning: card &IONS ignored
Warning: card / ignored
Warning: card &CELL ignored
Warning: card / ignored

     Current dimensions of program PWSCF are:
     Max number of different atomic species (ntypx) = 10
     Max number of k-points (npk) =  40000
     Max angular momentum in pseudopotentials (lmaxx) =  4

     Atomic positions and unit cell read from directory:
     out/mp-612118.save/
 
 
     R & G space division:  proc/nbgrp/npool/nimage =       8
     Subspace diagonalization in iterative solution of the eigenvalue problem:
     one sub-group per band group will be used
     scalapack distributed-memory algorithm (size of sub-group:  2*  2 procs)

 
     Parallelization info
     --------------------
     sticks:   dense  smooth     PW     G-vecs:    dense   smooth      PW
     Min         119     119     30                 2448     2448     305
     Max         120     120     31                 2452     2452     308
     Sum         955     955    241                19603    19603    2445
 
     Using Slab Decomposition
 


     bravais-lattice index     =            2
     lattice parameter (alat)  =      10.9472  a.u.
     unit-cell volume          =     327.9847 (a.u.)^3
     number of atoms/cell      =            1
     number of atomic types    =            1
     number of electrons       =         8.00
     number of Kohn-Sham states=          912
     kinetic-energy cutoff     =      58.0000  Ry
     charge density cutoff     =     232.0000  Ry
     Exchange-correlation= PBE
                           (   1   4   3   4   0   0   0)

     celldm(1)=  10.947237  celldm(2)=   0.000000  celldm(3)=   0.000000
     celldm(4)=   0.000000  celldm(5)=   0.000000  celldm(6)=   0.000000

     crystal axes: (cart. coord. in units of alat)
               a(1) = (  -0.500000   0.000000   0.500000 )  
               a(2) = (   0.000000   0.500000   0.500000 )  
               a(3) = (  -0.500000   0.500000   0.000000 )  

     reciprocal axes: (cart. coord. in units 2 pi/alat)
               b(1) = ( -1.000000 -1.000000  1.000000 )  
               b(2) = (  1.000000  1.000000  1.000000 )  
               b(3) = ( -1.000000  1.000000 -1.000000 )  


     PseudoPot. # 1 for Kr read from file:
     /usr/scratch4/magr4985/MG/HTDF/pseudo/SG15/Kr.upf
     MD5 check sum: 4a275f71d3bc7366299250ec96e82e35
     Pseudo is Norm-conserving, Zval =  8.0
     Generated using ONCVPSP code by D. R. Hamann
     Using radial grid of  602 points,  6 beta functions with: 
                l(1) =   0
                l(2) =   0
                l(3) =   1
                l(4) =   1
                l(5) =   2
                l(6) =   2

     atomic species   valence    mass     pseudopotential
        Kr             8.00    83.79800     Kr( 1.00)

     48 Sym. Ops., with inversion, found



   Cartesian axes

     site n.     atom                  positions (alat units)
         1           Kr  tau(   1) = (   0.0000000   0.0000000   0.0000000  )

     number of k points=     1  Gaussian smearing, width (Ry)=  0.0005
                       cart. coord. in units 2pi/alat
        k(    1) = (   0.0000000   0.0000000   0.0000000), wk =   2.0000000

     Dense  grid:    19603 G-vectors     FFT dimensions: (  40,  40,  40)

     Estimated max dynamical RAM per process >      61.72 MB

     Estimated total dynamical RAM >     493.80 MB

     The potential is recalculated from file :
     out/mp-612118.save/charge-density

     Starting wfcs are random

     Band Structure Calculation
     Davidson diagonalization with overlap

     ethr =  5.00E-06,  avg # of iterations =  7.0

     total cpu time spent up to now is       42.9 secs

     End of band structure calculation

          k = 0.0000 0.0000 0.0000 (  2445 PWs)   bands (ev):

   -17.6027  -3.1441  -3.1441  -3.1441   4.0774  10.4512  10.4512  10.4512
    12.8071  12.8071  14.1187  16.5311  16.5311  16.5311  18.3862  26.1964
    26.1964  26.1964  27.3616  27.3616  27.3616  30.2419  30.2419  32.2306
    32.2306  32.2306  32.8301  39.9140  39.9140  41.9702  41.9702  41.9702
    42.7778  42.7778  42.7778  44.4114  44.6554  44.6554  44.6554  46.6611
    46.6611  46.6611  46.9874  46.9874  46.9874  47.1386  48.8428  48.8428
    48.8428  49.4386  49.4386  52.5558  52.5558  52.5558  52.6059  52.9064
    52.9064  52.9064  53.3615  65.7144  65.7144  67.8857  67.8857  67.8857
    69.6901  71.0277  71.0277  71.0277  75.0899  75.0899  75.6959  75.6959
    75.6959  75.7845  75.7845  75.7845  80.9856  82.2743  82.2743  82.2743
    83.0429  83.0429  83.0429  83.7138  83.7138  83.7138  83.9272  83.9272
    84.4191  84.4191  84.5827  85.5081  85.5081  85.5081  86.0047  86.0047
    86.0047  86.8473  86.8473  86.8473  87.6823  88.4927  88.4927  88.4927
    88.5264  88.5264  88.5264  88.9419  88.9419  88.9419  89.0284  89.0284
    90.1792 100.3798 100.3798 100.3798 101.8686 102.8604 102.8604 102.9506
   102.9506 102.9506 104.3325 104.3325 104.3325 104.3459 104.3459 104.3459
   104.3794 104.3794 104.3794 104.4336 104.4336 104.6198 104.6198 104.6198
   107.2940 111.6427 111.6427 113.7257 113.7257 113.7257 115.6550 117.8321
   117.8321 117.8321 118.1573 118.1573 118.1573 118.2254 118.2254 118.2254
   118.2388 118.2388 118.2388 118.3730 118.3730 118.3730 118.4743 118.9190
   118.9190 118.9190 120.3774 121.0571 121.0571 121.1042 121.1042 121.1042
   121.2164 132.2111 132.2111 132.2111 133.9249 133.9249 136.0895 136.0895
   136.0895 137.4041 137.4041 137.4041 140.4641 145.7446 145.7446 146.5679
   146.5679 146.5679 150.0551 150.0902 150.0902 150.0902 150.6082 150.6082
   150.6082 150.6350 150.6350 150.6350 150.7092 150.7092 150.7092 151.6605
   151.6605 151.6605 151.7688 151.7688 151.9592 151.9592 151.9592 152.1585
   152.6079 152.6079 152.7869 152.7869 152.7869 153.1076 153.1461 153.1461
   153.1461 155.4873 155.4873 155.4873 155.6258 155.6258 155.7874 155.7874
   155.7874 156.0425 156.0425 156.0425 156.1476 156.4772 156.4772 156.9137
   157.0648 157.0648 157.0648 158.8254 158.8254 158.8254 158.9109 158.9109
   158.9109 159.0731 159.5595 159.9369 159.9369 159.9369 159.9796 159.9796
   160.2509 160.2509 160.2509 160.3310 160.3310 160.3310 160.3361 160.3361
   160.3361 160.3425 160.3425 170.8549 170.8549 173.9542 173.9542 173.9542
   174.6761 174.6761 174.6761 175.1656 175.5440 175.5440 175.5440 175.5956
   175.5956 175.5956 175.6787 175.6787 175.6787 177.0478 177.1991 177.1991
   177.1991 177.2540 177.2540 181.7421 181.7421 181.7421 186.3558 186.5099
   186.5099 186.5323 186.5323 186.5323 186.9670 188.2939 188.2939 188.2939
   188.3147 188.3147 188.5061 188.5061 188.5061 188.5255 188.5255 188.5255
   188.6327 188.6327 188.6327 193.8670 193.8670 194.5914 194.5914 194.5914
   194.8944 194.9133 194.9133 194.9133 195.0003 195.0003 195.0003 195.0046
   195.0046 195.0046 195.0432 195.0561 195.0561 195.0561 195.1080 195.1080
   195.1512 195.1512 195.1512 205.4540 205.4540 205.4540 207.1264 207.1264
   211.9506 211.9506 211.9506 211.9675 212.0099 213.2670 213.2670 213.2670
   217.6156 217.6156 217.6156 217.7300 217.7300 217.7300 217.7961 218.7549
   218.7549 219.8633 219.8633 219.8633 220.0097 225.1048 225.1048 225.1048
   225.3349 225.3349 225.3349 225.4726 225.4726 225.4726 225.4857 225.4857
   225.4857 226.1472 226.1472 226.1472 226.2067 226.2067 226.2067 226.2126
   226.2126 226.2882 226.2882 226.2882 226.3693 228.4818 228.4818 228.5022
   228.5022 228.5044 228.5044 228.5044 228.5128 229.0357 229.2047 229.2047
   229.2047 229.3204 229.3204 229.3204 229.3307 229.3307 229.3307 231.5109
   231.5109 231.5109 231.6469 231.6469 231.8618 231.8618 231.8618 232.0099
   232.0231 232.0231 232.0231 237.4766 237.4766 237.4766 240.9858 240.9858
   244.6649 244.7056 245.0064 245.0064 245.0064 245.6277 245.6277 245.6277
   245.7130 245.7130 245.7586 245.7586 245.7586 245.8742 245.8742 245.8742
   245.9440 245.9440 245.9440 247.6352 247.6352 247.6352 247.6605 247.6605
   247.6681 247.6681 247.6681 247.6746 247.6746 247.6746 247.6939 247.6939
   247.6939 247.6978 247.6978 248.2823 248.4014 248.4014 248.4014 248.4483
   248.4561 248.4561 248.4561 254.3566 254.3566 257.3909 257.3909 257.3909
   258.4343 258.7210 258.7210 258.7210 259.0658 259.0658 259.0658 259.1402
   259.1402 259.1402 259.1661 259.1661 259.1661 259.4714 259.4714 259.4714
   259.8721 259.9655 259.9655 259.9655 259.9989 259.9989 260.2701 260.5028
   260.7501 260.7501 260.7501 262.1299 262.1299 262.1299 262.1414 262.1414
   262.1872 262.1872 262.1872 262.1886 262.1886 262.2240 262.2240 262.2240
   262.2550 262.2550 262.2550 262.6986 262.6986 262.6986 262.7032 262.7032
   262.7773 263.3022 263.3022 263.3022 263.3116 263.3116 263.3116 263.3658
   263.3658 263.3658 263.3895 263.3895 263.3895 263.6056 263.7352 263.7352
   263.7352 263.7864 263.7864 277.8107 277.8107 282.2465 282.3823 282.3823
   282.3823 285.4278 285.4278 285.4278 289.6999 289.6999 294.7233 294.7397
   295.0671 295.0671 295.0671 295.1895 295.1895 295.1895 295.1913 295.1913
   295.1913 295.2111 295.2111 295.2111 295.2678 295.2678 295.7322 295.7322
   295.7322 298.1993 298.1993 299.8198 300.1177 300.1177 300.1177 300.5171
   300.5171 300.5171 300.7319 300.7319 300.7319 300.7976 300.7976 300.7976
   300.8811 300.8811 300.8811 300.8997 300.8997 300.8997 301.3000 301.3788
   301.7413 301.7413 301.7413 302.4377 302.4953 302.4953 302.4953 302.5128
   302.5128 302.9796 302.9796 302.9796 303.0095 303.0095 303.0111 303.0111
   303.0166 303.0166 303.0166 303.0183 303.0183 303.0183 303.0385 303.0385
   303.0385 308.9835 308.9835 308.9835 311.4154 311.4154 315.0639 315.0639
   315.0639 315.0793 316.2157 316.2157 316.2157 318.3401 318.3401 319.1863
   319.1863 319.1863 319.4573 319.4573 319.4573 319.4656 319.4656 319.4736
   319.4979 319.4979 319.4979 319.5017 319.5017 319.5017 319.5548 319.5548
   319.5548 319.8007 320.1780 320.1780 320.1780 326.2344 326.2344 326.2344
   327.7788 327.7788 329.8293 329.8293 329.8293 329.9677 330.1239 330.1239
   330.2239 330.2677 330.2677 330.2677 330.2772 330.2772 330.2772 330.3160
   330.3160 330.3160 330.7976 330.7976 330.7976 330.7989 330.7989 330.7989
   331.0134 331.0702 331.0702 331.0935 331.0935 331.0935 331.4038 331.4038
   331.4038 332.7636 332.7636 332.7636 332.7667 332.9187 332.9695 332.9695
   332.9695 334.7227 334.8065 334.8065 334.8065 334.8844 334.8844 334.8844
   334.9192 334.9192 334.9192 334.9644 334.9644 338.5424 338.5424 338.5424
   338.5892 338.5892 338.6287 338.6287 338.6287 338.7654 338.8027 338.8027
   338.8027 339.2326 339.2326 339.2326 339.2351 339.2351 339.3234 339.3234
   339.3234 339.3240 339.3240 339.3240 339.4378 349.2497 349.2497 352.3517
   352.3517 352.3517 354.6640 354.7027 354.7027 354.7027 354.7482 354.7482
   354.7482 354.7626 354.7626 354.7626 354.8126 354.8126 354.8474 354.8755
   354.8755 354.8755 355.6066 355.6066 355.6066 359.7047 359.7047 360.0917
   360.0917 360.0917 363.1097 363.4580 363.4580 363.4580 365.0199 365.2389
   365.2659 365.2659 365.8000 365.8000 365.8000 365.8053 365.8053 365.8053
   365.8559 365.8559 365.9260 365.9260 365.9260 365.9827 365.9827 365.9827
   367.4404 367.4404 367.4404 367.8217 367.8217 367.8217 367.8221 367.8221
   367.8954 367.8954 367.8954 367.9217 367.9217 367.9217 367.9563 367.9563
   367.9563 368.0180 368.0180 368.5978 368.6614 368.6614 368.6614 368.7182
   368.7182 368.7182 368.7768 368.8575 368.8575 368.8575 368.8912 368.8912
   368.8912 368.9088 368.9088 368.9088 368.9127 368.9127 368.9127 371.7682
   371.8130 371.8130 371.8130 371.8356 371.8356 373.3141 373.3141 373.5454
   373.5454 373.5454 373.6120 373.6584 373.7232 373.7232 373.7232 373.7759
   373.7759 373.7759 373.8041 373.8041 373.8041 373.8265 373.8265 373.8265
   373.8303 373.8303 374.0614 374.0614 374.0614 374.5953 374.6226 374.6340
   374.6340 374.6340 374.6540 374.6540 374.6540 374.6566 374.6566 374.6566
   374.6715 374.6715 374.6856 374.6856 374.7071 374.7071 374.7071 374.7156
   374.7156 374.7156 374.7201 374.7201 374.7201 388.3371 388.3371 388.3371
   389.7857 389.8149 390.2026 390.2026 390.2026 391.7206 391.7206 391.8373
   391.8373 391.8373 391.8730 391.8730 391.8799 391.8799 391.8799 391.8821
   391.8821 391.8821 391.8891 391.8891 391.8891 397.6455 397.6455 401.0178
   401.0178 401.0178 401.5716 401.9633 401.9633 401.9633 402.0835 402.0835
   402.0835 402.1128 402.1128 402.1128 402.6471 402.6471 402.6471 402.9435

     the Fermi energy is     2.0538 ev
     (compare with:     2.0538 eV, computed in scf)

     Writing all to output data dir out/mp-612118.save/
 
     init_run     :      0.04s CPU      0.07s WALL (       1 calls)
     electrons    :     39.50s CPU     42.59s WALL (       1 calls)

     Called by init_run:
     wfcinit      :      0.00s CPU      0.00s WALL (       1 calls)
     potinit      :      0.01s CPU      0.01s WALL (       1 calls)
     hinit0       :      0.01s CPU      0.04s WALL (       1 calls)

     Called by electrons:
     c_bands      :     39.50s CPU     42.59s WALL (       1 calls)
     v_of_rho     :      0.01s CPU      0.01s WALL (       1 calls)

     Called by c_bands:
     init_us_2    :      0.00s CPU      0.00s WALL (       1 calls)
     init_us_2:cp :      0.00s CPU      0.00s WALL (       1 calls)
     cegterg      :     38.18s CPU     41.12s WALL (       1 calls)

     Called by *egterg:
     cdiaghg      :     35.98s CPU     38.90s WALL (       8 calls)
     h_psi        :      0.80s CPU      0.85s WALL (       9 calls)
     g_psi        :      0.01s CPU      0.01s WALL (       7 calls)

     Called by h_psi:
     h_psi:calbec :      0.01s CPU      0.02s WALL (       9 calls)
     vloc_psi     :      0.78s CPU      0.81s WALL (       9 calls)
     add_vuspsi   :      0.01s CPU      0.01s WALL (       9 calls)

     General routines
     calbec       :      0.01s CPU      0.02s WALL (       9 calls)
     fft          :      0.00s CPU      0.03s WALL (      10 calls)
     fftw         :      0.69s CPU      0.72s WALL (   10168 calls)
 
     Parallel routines
 
     PWSCF        :     39.74s CPU     42.96s WALL

 
   This run was terminated on:  22:21:15  14Nov2023            

=------------------------------------------------------------------------------=
   JOB DONE.
=------------------------------------------------------------------------------=
