
     Program PWSCF v.7.1 starts on 14Nov2023 at 22:35:41 

     This program is part of the open-source Quantum ESPRESSO suite
     for quantum simulation of materials; please cite
         "P. Giannozzi et al., J. Phys.:Condens. Matter 21 395502 (2009);
         "P. Giannozzi et al., J. Phys.:Condens. Matter 29 465901 (2017);
         "P. Giannozzi et al., J. Chem. Phys. 152 154105 (2020);
          URL http://www.quantum-espresso.org", 
     in publications or presentations arising from this work. More details at
     http://www.quantum-espresso.org/quote

     Parallel version (MPI), running on     8 processors

     MPI processes distributed on     1 nodes
     123588 MiB available memory on the printing compute node when the environment starts
 
     Reading input from pw_mp-612118_nscf_k30_E58.in
Warning: card &IONS ignored
Warning: card / ignored
Warning: card &CELL ignored
Warning: card / ignored

     Current dimensions of program PWSCF are:
     Max number of different atomic species (ntypx) = 10
     Max number of k-points (npk) =  40000
     Max angular momentum in pseudopotentials (lmaxx) =  4

     Atomic positions and unit cell read from directory:
     out/mp-612118.save/
 
 
     R & G space division:  proc/nbgrp/npool/nimage =       8
     Subspace diagonalization in iterative solution of the eigenvalue problem:
     one sub-group per band group will be used
     scalapack distributed-memory algorithm (size of sub-group:  2*  2 procs)

 
     Parallelization info
     --------------------
     sticks:   dense  smooth     PW     G-vecs:    dense   smooth      PW
     Min         119     119     35                 2448     2448     389
     Max         120     120     36                 2452     2452     391
     Sum         955     955    283                19603    19603    3119
 
     Using Slab Decomposition
 


     bravais-lattice index     =            2
     lattice parameter (alat)  =      10.9472  a.u.
     unit-cell volume          =     327.9847 (a.u.)^3
     number of atoms/cell      =            1
     number of atomic types    =            1
     number of electrons       =         8.00
     number of Kohn-Sham states=         1200
     kinetic-energy cutoff     =      58.0000  Ry
     charge density cutoff     =     232.0000  Ry
     Exchange-correlation= PBE
                           (   1   4   3   4   0   0   0)

     celldm(1)=  10.947237  celldm(2)=   0.000000  celldm(3)=   0.000000
     celldm(4)=   0.000000  celldm(5)=   0.000000  celldm(6)=   0.000000

     crystal axes: (cart. coord. in units of alat)
               a(1) = (  -0.500000   0.000000   0.500000 )  
               a(2) = (   0.000000   0.500000   0.500000 )  
               a(3) = (  -0.500000   0.500000   0.000000 )  

     reciprocal axes: (cart. coord. in units 2 pi/alat)
               b(1) = ( -1.000000 -1.000000  1.000000 )  
               b(2) = (  1.000000  1.000000  1.000000 )  
               b(3) = ( -1.000000  1.000000 -1.000000 )  


     PseudoPot. # 1 for Kr read from file:
     /usr/scratch4/magr4985/MG/HTDF/pseudo/SG15/Kr.upf
     MD5 check sum: 4a275f71d3bc7366299250ec96e82e35
     Pseudo is Norm-conserving, Zval =  8.0
     Generated using ONCVPSP code by D. R. Hamann
     Using radial grid of  602 points,  6 beta functions with: 
                l(1) =   0
                l(2) =   0
                l(3) =   1
                l(4) =   1
                l(5) =   2
                l(6) =   2

     atomic species   valence    mass     pseudopotential
        Kr             8.00    83.79800     Kr( 1.00)

     48 Sym. Ops., with inversion, found



   Cartesian axes

     site n.     atom                  positions (alat units)
         1           Kr  tau(   1) = (   0.0000000   0.0000000   0.0000000  )

     number of k points=     8  Gaussian smearing, width (Ry)=  0.0005
                       cart. coord. in units 2pi/alat
        k(    1) = (   0.0000000   0.0000000   0.0000000), wk =   0.0312500
        k(    2) = (  -0.2500000   0.2500000  -0.2500000), wk =   0.2500000
        k(    3) = (   0.5000000  -0.5000000   0.5000000), wk =   0.1250000
        k(    4) = (   0.0000000   0.5000000   0.0000000), wk =   0.1875000
        k(    5) = (   0.7500000  -0.2500000   0.7500000), wk =   0.7500000
        k(    6) = (   0.5000000   0.0000000   0.5000000), wk =   0.3750000
        k(    7) = (   0.0000000  -1.0000000   0.0000000), wk =   0.0937500
        k(    8) = (  -0.5000000  -1.0000000   0.0000000), wk =   0.1875000

     Dense  grid:    19603 G-vectors     FFT dimensions: (  40,  40,  40)

     Estimated max dynamical RAM per process >      96.58 MB

     Estimated total dynamical RAM >     772.63 MB

     The potential is recalculated from file :
     out/mp-612118.save/charge-density

     Starting wfcs are random

     Band Structure Calculation
     ParO style diagonalization

     ethr =  5.00E-06,  avg # of iterations =  6.0

     total cpu time spent up to now is      589.0 secs

     End of band structure calculation

          k = 0.0000 0.0000 0.0000 (  2445 PWs)   bands (ev):

   -17.6027  -3.1441  -3.1441  -3.1441   4.0774  10.4512  10.4512  10.4512
    12.8071  12.8071  14.1187  16.5311  16.5311  16.5311  18.3862  26.1964
    26.1964  26.1964  27.3616  27.3616  27.3616  30.2419  30.2419  32.2306
    32.2306  32.2306  32.8301  39.9140  39.9140  41.9702  41.9702  41.9702
    42.7778  42.7778  42.7778  44.4114  44.6554  44.6554  44.6554  46.6611
    46.6611  46.6611  46.9874  46.9874  46.9874  47.1386  48.8428  48.8428
    48.8428  49.4386  49.4386  52.5558  52.5558  52.5558  52.6059  52.9064
    52.9064  52.9064  53.3615  65.7144  65.7144  67.8857  67.8857  67.8857
    69.6901  71.0277  71.0277  71.0277  75.0899  75.0899  75.6959  75.6959
    75.6959  75.7845  75.7845  75.7845  80.9856  82.2743  82.2743  82.2743
    83.0429  83.0429  83.0429  83.7138  83.7138  83.7138  83.9272  83.9272
    84.4191  84.4191  84.5827  85.5081  85.5081  85.5081  86.0047  86.0047
    86.0047  86.8473  86.8473  86.8473  87.6823  88.4927  88.4927  88.4927
    88.5264  88.5264  88.5264  88.9419  88.9419  88.9419  89.0284  89.0284
    90.1792 100.3798 100.3798 100.3798 101.8686 102.8604 102.8604 102.9506
   102.9506 102.9506 104.3325 104.3325 104.3325 104.3459 104.3459 104.3459
   104.3794 104.3794 104.3794 104.4336 104.4336 104.6198 104.6198 104.6198
   107.2940 111.6427 111.6427 113.7257 113.7257 113.7257 115.6550 117.8321
   117.8321 117.8321 118.1573 118.1573 118.1573 118.2254 118.2254 118.2254
   118.2388 118.2388 118.2388 118.3730 118.3730 118.3730 118.4743 118.9190
   118.9190 118.9190 120.3774 121.0571 121.0571 121.1042 121.1042 121.1042
   121.2164 132.2111 132.2111 132.2111 133.9249 133.9249 136.0895 136.0895
   136.0895 137.4041 137.4041 137.4041 140.4641 145.7446 145.7446 146.5679
   146.5679 146.5679 150.0551 150.0902 150.0902 150.0902 150.6082 150.6082
   150.6082 150.6350 150.6350 150.6350 150.7092 150.7092 150.7092 151.6605
   151.6605 151.6605 151.7688 151.7688 151.9592 151.9592 151.9592 152.1585
   152.6079 152.6079 152.7869 152.7869 152.7869 153.1076 153.1461 153.1461
   153.1461 155.4873 155.4873 155.4873 155.6258 155.6258 155.7874 155.7874
   155.7874 156.0425 156.0425 156.0425 156.1476 156.4772 156.4772 156.9137
   157.0648 157.0648 157.0648 158.8254 158.8254 158.8254 158.9109 158.9109
   158.9109 159.0731 159.5595 159.9369 159.9369 159.9369 159.9796 159.9796
   160.2509 160.2509 160.2509 160.3310 160.3310 160.3310 160.3361 160.3361
   160.3361 160.3425 160.3425 170.8549 170.8549 173.9542 173.9542 173.9542
   174.6761 174.6761 174.6761 175.1656 175.5440 175.5440 175.5440 175.5956
   175.5956 175.5956 175.6787 175.6787 175.6787 177.0478 177.1991 177.1991
   177.1991 177.2540 177.2540 181.7421 181.7421 181.7421 186.3558 186.5099
   186.5099 186.5323 186.5323 186.5323 186.9670 188.2939 188.2939 188.2939
   188.3147 188.3147 188.5061 188.5061 188.5061 188.5255 188.5255 188.5255
   188.6327 188.6327 188.6327 193.8670 193.8670 194.5914 194.5914 194.5914
   194.8944 194.9133 194.9133 194.9133 195.0003 195.0003 195.0003 195.0046
   195.0046 195.0046 195.0432 195.0561 195.0561 195.0561 195.1080 195.1080
   195.1512 195.1512 195.1512 205.4540 205.4540 205.4540 207.1264 207.1264
   211.9506 211.9506 211.9506 211.9675 212.0099 213.2670 213.2670 213.2670
   217.6156 217.6156 217.6156 217.7300 217.7300 217.7300 217.7961 218.7549
   218.7549 219.8633 219.8633 219.8633 220.0097 225.1048 225.1048 225.1048
   225.3349 225.3349 225.3349 225.4726 225.4726 225.4726 225.4857 225.4857
   225.4857 226.1472 226.1472 226.1472 226.2067 226.2067 226.2067 226.2126
   226.2126 226.2882 226.2882 226.2882 226.3693 228.4818 228.4818 228.5022
   228.5022 228.5044 228.5044 228.5044 228.5128 229.0357 229.2047 229.2047
   229.2047 229.3204 229.3204 229.3204 229.3307 229.3307 229.3307 231.5109
   231.5109 231.5109 231.6469 231.6469 231.8618 231.8618 231.8618 232.0099
   232.0231 232.0231 232.0231 237.4766 237.4766 237.4766 240.9858 240.9858
   244.6649 244.7056 245.0064 245.0064 245.0064 245.6277 245.6277 245.6277
   245.7130 245.7130 245.7586 245.7586 245.7586 245.8742 245.8742 245.8742
   245.9440 245.9440 245.9440 247.6352 247.6352 247.6352 247.6605 247.6605
   247.6681 247.6681 247.6681 247.6746 247.6746 247.6746 247.6939 247.6939
   247.6939 247.6978 247.6978 248.2823 248.4014 248.4014 248.4014 248.4483
   248.4561 248.4561 248.4561 254.3566 254.3566 257.3909 257.3909 257.3909
   258.4343 258.7210 258.7210 258.7210 259.0658 259.0658 259.0658 259.1402
   259.1402 259.1402 259.1661 259.1661 259.1661 259.4714 259.4714 259.4714
   259.8721 259.9655 259.9655 259.9655 259.9989 259.9989 260.2701 260.5028
   260.7501 260.7501 260.7501 262.1299 262.1299 262.1299 262.1414 262.1414
   262.1872 262.1872 262.1872 262.1886 262.1886 262.2240 262.2240 262.2240
   262.2550 262.2550 262.2550 262.6986 262.6986 262.6986 262.7032 262.7032
   262.7773 263.3022 263.3022 263.3022 263.3116 263.3116 263.3116 263.3658
   263.3658 263.3658 263.3895 263.3895 263.3895 263.6056 263.7352 263.7352
   263.7352 263.7864 263.7864 277.8107 277.8107 282.2465 282.3823 282.3823
   282.3823 285.4278 285.4278 285.4278 289.6999 289.6999 294.7233 294.7397
   295.0671 295.0671 295.0671 295.1895 295.1895 295.1895 295.1913 295.1913
   295.1913 295.2111 295.2111 295.2111 295.2678 295.2678 295.7322 295.7322
   295.7322 298.1993 298.1993 299.8198 300.1177 300.1177 300.1177 300.5171
   300.5171 300.5171 300.7319 300.7319 300.7319 300.7976 300.7976 300.7976
   300.8811 300.8811 300.8811 300.8997 300.8997 300.8997 301.3000 301.3788
   301.7413 301.7413 301.7413 302.4377 302.4953 302.4953 302.4953 302.5128
   302.5128 302.9796 302.9796 302.9796 303.0095 303.0095 303.0111 303.0111
   303.0166 303.0166 303.0166 303.0183 303.0183 303.0183 303.0385 303.0385
   303.0385 308.9835 308.9835 308.9835 311.4154 311.4154 315.0639 315.0639
   315.0639 315.0793 316.2157 316.2157 316.2157 318.3401 318.3401 319.1863
   319.1863 319.1863 319.4573 319.4573 319.4573 319.4656 319.4656 319.4736
   319.4979 319.4979 319.4979 319.5017 319.5017 319.5017 319.5548 319.5548
   319.5548 319.8007 320.1780 320.1780 320.1780 326.2344 326.2344 326.2344
   327.7788 327.7788 329.8293 329.8293 329.8293 329.9677 330.1239 330.1239
   330.2239 330.2677 330.2677 330.2677 330.2772 330.2772 330.2772 330.3160
   330.3160 330.3160 330.7976 330.7976 330.7976 330.7989 330.7989 330.7989
   331.0134 331.0702 331.0702 331.0935 331.0935 331.0935 331.4038 331.4038
   331.4038 332.7636 332.7636 332.7636 332.7667 332.9187 332.9695 332.9695
   332.9695 334.7227 334.8065 334.8065 334.8065 334.8844 334.8844 334.8844
   334.9192 334.9192 334.9192 334.9644 334.9644 338.5424 338.5424 338.5424
   338.5892 338.5892 338.6287 338.6287 338.6287 338.7654 338.8027 338.8027
   338.8027 339.2326 339.2326 339.2326 339.2351 339.2351 339.3234 339.3234
   339.3234 339.3240 339.3240 339.3240 339.4378 349.2497 349.2497 352.3517
   352.3517 352.3517 354.6640 354.7027 354.7027 354.7027 354.7482 354.7482
   354.7482 354.7626 354.7626 354.7626 354.8126 354.8126 354.8474 354.8755
   354.8755 354.8755 355.6066 355.6066 355.6066 359.7047 359.7047 360.0917
   360.0917 360.0917 363.1097 363.4580 363.4580 363.4580 365.0199 365.2389
   365.2659 365.2659 365.8000 365.8000 365.8000 365.8053 365.8053 365.8053
   365.8559 365.8559 365.9260 365.9260 365.9260 365.9827 365.9827 365.9827
   367.4404 367.4404 367.4404 367.8217 367.8217 367.8217 367.8221 367.8221
   367.8954 367.8954 367.8954 367.9217 367.9217 367.9217 367.9563 367.9563
   367.9563 368.0180 368.0180 368.5978 368.6614 368.6614 368.6614 368.7182
   368.7182 368.7182 368.7768 368.8575 368.8575 368.8575 368.8912 368.8912
   368.8912 368.9088 368.9088 368.9088 368.9127 368.9127 368.9127 371.7682
   371.8130 371.8130 371.8130 371.8356 371.8356 373.3141 373.3141 373.5454
   373.5454 373.5454 373.6120 373.6584 373.7232 373.7232 373.7232 373.7759
   373.7759 373.7759 373.8041 373.8041 373.8041 373.8265 373.8265 373.8265
   373.8303 373.8303 374.0614 374.0614 374.0614 374.5953 374.6226 374.6340
   374.6340 374.6340 374.6540 374.6540 374.6540 374.6566 374.6566 374.6566
   374.6715 374.6715 374.6856 374.6856 374.7071 374.7071 374.7071 374.7156
   374.7156 374.7156 374.7201 374.7201 374.7201 388.3371 388.3371 388.3371
   389.7857 389.8149 390.2026 390.2026 390.2026 391.7206 391.7206 391.8373
   391.8373 391.8373 391.8730 391.8730 391.8799 391.8799 391.8799 391.8821
   391.8821 391.8821 391.8891 391.8891 391.8891 397.6454 397.6454 401.0178
   401.0178 401.0178 401.5716 401.9633 401.9633 401.9633 402.0835 402.0835
   402.0835 402.1128 402.1128 402.1128 402.6471 402.6471 402.6471 402.9435
   402.9987 402.9987 402.9987 403.0118 403.0118 405.7661 405.7847 405.7847
   405.7847 405.8147 405.8147 406.4986 406.4986 406.4986 406.5339 406.5339
   406.5339 406.5429 406.5429 406.5429 406.5438 406.5438 406.5438 406.9524
   406.9892 406.9892 406.9892 407.0056 407.0056 421.5729 421.5729 421.5729
   424.0407 424.0407 425.5183 425.5783 425.5783 425.5783 425.5884 425.5943
   425.5943 425.5943 425.5976 425.5976 425.5976 425.6118 425.6118 425.6118
   425.6169 425.6169 426.2420 426.2420 426.2420 429.8989 429.8989 429.8989
   430.7038 430.7038 432.5618 432.6255 432.6255 432.6255 433.7622 433.7622
   433.7622 438.4704 438.4704 438.4704 438.9510 438.9654 439.1210 439.1210
   439.1242 439.1242 439.1242 440.2315 440.2315 440.2315 440.4498 440.4498
   440.4498 440.4566 440.4566 440.4566 440.4606 440.4606 440.4606 440.4901
   440.4901 440.5007 440.5007 440.5007 440.6453 440.6707 441.0401 441.0401
   441.0401 441.1688 441.1688 441.1847 441.1847 441.1941 441.1941 441.1941
   441.2561 441.2561 441.2561 441.2705 441.2705 441.2705 441.3136 441.3136
   441.3136 441.4159 441.4426 441.4426 441.4426 441.4570 441.4570 441.4570
   441.4570 441.4570 441.4669 441.4669 441.4669 442.9114 442.9114 443.4753
   443.6485 443.6485 443.6485 444.1580 444.1580 444.1747 444.1862 444.1862
   444.1862 444.2326 444.2326 444.2326 444.2483 444.2483 444.2483 446.8848
   446.8848 446.8848 446.9251 446.9251 447.0050 447.0050 447.0050 447.0446
   447.1260 447.1260 447.1260 458.4486 458.4486 458.8288 458.8288 458.8288
   460.7671 460.7671 460.7932 460.7932 460.7932 460.7986 460.7986 460.7986
   460.8654 460.8654 460.8654 460.9321 460.9463 461.0139 461.0139 461.0139
   461.0825 461.0825 461.1735 461.1735 461.1735 461.1999 461.9558 461.9558
   461.9558 462.0693 462.0693 462.0693 462.0943 462.0943 462.0943 462.1017
   462.1017 462.1017 462.1090 462.1090 462.1090 462.4931 462.5484 462.5484
   462.5484 462.5887 462.5887 462.5887 462.5947 462.5947 462.5956 462.6936
   462.6936 462.6936 462.7183 462.7183 462.7183 462.7282 462.7282 462.7282
   462.7454 462.7454 462.7454 462.7485 462.7485 463.7677 463.7677 463.7696
   463.7696 463.7696 463.7703 473.4634 473.4634 473.8322 473.8322 473.8322
   474.3039 474.3236 474.3236 474.3236 474.3242 474.3367 474.3367 474.3407
   474.3407 474.3407 474.3468 474.3468 474.3468 474.3599 474.3599 474.3599
   474.5508 474.5508 474.5508 476.1371 476.1371 476.1371 476.6046 476.6154
   476.6154 476.6154 476.6206 476.6206 476.6206 476.6206 476.6297 476.6297
   476.6297 476.6513 476.6513 476.6513 476.7379 476.7479 476.7479 476.7479
   477.0013 477.0013 477.0013 478.1570 478.1984 478.1984 478.1984 478.2515
   478.2515 478.2515 478.2533 478.2533 478.2533 478.2727 478.2727 478.3263

          k =-0.2500 0.2500-0.2500 (  2451 PWs)   bands (ev):

   -17.5323  -3.8330  -3.2178  -3.2178   5.4178   9.1605  10.6012  10.6012
    12.5185  12.5185  14.1417  17.6632  19.5588  19.5588  19.9382  21.6574
    21.6574  23.2510  27.8305  27.8305  29.6460  29.6460  29.7745  32.8349
    33.7340  33.8922  33.8922  36.8964  38.5640  38.5640  40.1557  40.1557
    40.2697  40.7785  40.7785  41.3085  42.0262  43.8632  44.3049  44.3049
    46.0428  46.0428  47.6224  48.9610  48.9610  50.0384  51.7111  51.7111
    53.1922  53.4707  53.4707  54.2321  55.3112  58.1004  58.1004  58.6441
    58.6441  58.7718  59.5412  59.5412  61.1133  62.2195  62.2348  62.2348
    66.3949  70.0487  70.0487  70.7627  71.9112  71.9112  73.7947  73.9785
    73.9785  75.3143  75.3996  75.3996  76.1168  76.4097  76.4097  77.1864
    77.2498  77.2498  79.7040  82.2929  82.5699  82.5699  83.9258  83.9258
    84.0162  84.0162  84.2094  85.1771  85.8448  85.8448  85.8690  86.1215
    87.4274  87.4274  88.6526  88.6526  90.5584  91.6184  91.6184  92.7995
    92.8527  92.9559  92.9559  94.5649  94.5649  95.9191  95.9779  95.9779
    96.2765  97.4877  97.8352  97.8352  99.1919  99.7653  99.7653 100.7887
   100.7887 101.0955 102.4434 102.8550 103.2115 103.2115 103.5882 103.5882
   104.2636 104.7004 104.7004 106.3879 107.5151 107.5151 107.8247 108.0410
   108.0410 108.0578 111.8326 111.8326 112.8022 112.9168 112.9168 113.3740
   113.4181 113.4181 113.9933 114.0478 114.0478 114.1742 118.2057 118.2057
   120.2111 121.0984 121.8198 121.8198 123.4395 123.4395 124.3130 125.8423
   125.8423 126.6035 129.2155 129.3747 129.3747 129.9699 129.9699 130.1870
   130.2260 131.2647 131.2647 132.6039 132.6039 133.9270 133.9407 133.9407
   135.4806 135.4847 135.4847 136.2307 136.2307 136.4220 136.4674 137.5161
   137.5161 138.0258 138.9955 139.3475 139.3475 139.4124 139.4124 139.4632
   140.0154 143.2446 143.2446 144.6848 145.7382 145.7382 146.4168 146.9871
   146.9871 147.0686 147.3068 147.3068 147.3719 149.4015 149.4015 150.1098
   151.4207 151.6058 151.6058 152.2232 152.2232 152.3601 152.9420 152.9420
   154.0827 154.0827 154.1186 155.5839 156.4900 156.4900 157.2083 157.4266
   157.4266 157.6306 157.6487 157.6487 158.4246 159.1667 159.1667 159.2508
   159.8758 159.8758 159.9075 160.1661 160.1661 160.4798 162.0482 164.5542
   164.5542 164.6880 164.8954 164.8954 165.5078 165.5156 165.5156 165.8675
   165.8675 166.8439 166.8439 166.9524 167.9670 168.1455 168.1455 168.3410
   168.3410 168.3608 169.1421 169.6856 170.9750 170.9750 171.4370 172.5915
   172.5915 173.1537 173.1537 173.2007 174.3817 174.3817 174.9196 175.0279
   175.0279 175.4664 175.4664 175.9596 176.4846 177.0875 177.0875 177.6172
   181.1655 182.0561 182.0561 182.7205 182.8242 182.8242 182.9948 182.9948
   183.0284 183.4759 183.4759 183.9889 185.4413 185.4413 185.4880 186.0907
   186.7284 186.7284 186.9835 187.5900 187.5900 187.7800 190.0785 190.0785
   192.7257 193.4550 193.4550 193.9152 194.2252 194.2252 194.4526 195.0199
   195.1854 195.1854 198.0478 198.0478 198.9756 198.9756 199.5242 199.7174
   200.1708 200.1708 200.9223 201.5208 201.5208 203.0719 203.0719 203.1786
   203.4703 204.9200 204.9200 205.0811 206.5528 207.4075 207.4075 207.4395
   208.1015 208.1015 208.6574 208.6574 208.9515 209.0418 209.4281 209.4281
   210.0196 210.0196 210.2334 210.7308 210.7975 210.8243 210.8243 212.2280
   212.2280 212.8576 212.8576 213.9419 216.0455 216.0455 216.1202 217.4526
   217.5663 217.5663 218.3313 218.3365 218.3365 218.4733 219.1643 219.1643
   221.2221 221.2221 221.7639 221.7639 221.7729 222.5026 224.7790 224.7790
   225.9004 225.9004 226.3649 226.4453 226.4453 226.5130 228.3502 228.3502
   228.4065 228.6149 228.6518 228.6518 228.8074 229.4434 229.4434 230.2104
   231.3335 231.3407 231.3407 233.8241 234.0004 234.0004 234.3611 234.3611
   234.7501 235.4713 235.5614 235.5614 235.9949 235.9949 236.0902 236.4246
   236.4246 237.2495 237.3467 237.5725 237.5725 238.3370 238.3370 238.7669
   239.0114 239.1357 239.1357 240.1174 241.0510 241.0510 241.5145 242.0512
   242.0929 242.0929 242.4487 242.4487 242.6738 242.6738 242.6821 242.6828
   243.5850 243.5850 244.4559 246.0972 246.2016 246.2016 246.6704 246.6704
   246.8452 247.2574 247.2574 247.3016 247.9142 247.9142 247.9715 248.4140
   248.4140 248.4709 249.3691 249.5499 249.5499 249.9014 249.9014 250.4364
   250.5119 250.5119 250.6112 252.1626 252.1626 252.3122 254.0208 254.0208
   255.2254 255.2388 255.2388 255.4889 255.5367 255.5367 255.8073 255.8305
   255.8305 256.1728 256.2317 256.2317 256.3135 256.5679 256.5679 256.5726
   256.9216 256.9216 256.9380 261.5860 261.5860 262.1081 263.5070 263.5070
   264.7865 265.1687 266.1586 266.1586 266.5005 266.5150 266.5150 266.7973
   266.7973 267.0902 268.1283 268.1283 268.1625 268.3493 268.3493 268.4911
   269.7401 269.7401 269.7765 270.5712 271.6201 271.9007 271.9007 272.9001
   272.9001 273.6283 273.6283 273.8368 273.8368 273.9427 273.9597 275.1835
   275.1835 275.9720 276.5336 276.5336 277.3032 277.3032 278.3059 278.5640
   278.5640 278.8779 279.7351 280.2231 280.3060 280.3060 280.5138 280.5138
   280.9818 281.2202 281.2202 281.4096 281.5393 281.5601 281.5601 285.2980
   285.9352 285.9352 286.2727 286.2727 287.1151 287.3100 287.3100 287.9827
   288.0252 288.0865 288.0865 288.7523 288.7523 288.8193 289.0940 289.0940
   289.1018 290.1102 290.1102 290.1483 290.1906 292.0721 292.0721 292.6758
   292.6758 293.3763 293.5329 293.5329 293.9811 295.1662 295.2693 295.2693
   298.6621 298.6621 299.0719 300.7909 300.7909 300.9579 301.4135 301.6252
   301.6252 301.7073 302.0622 302.0622 302.3800 302.3800 302.4018 302.6728
   303.3645 303.4130 303.4130 304.4680 304.4680 306.5423 306.7315 306.7315
   306.7777 308.1852 308.1852 309.2068 309.2068 309.3229 309.7027 309.7599
   309.7599 310.1033 310.1033 310.1949 311.2821 311.3520 311.5342 311.5342
   312.4012 312.6951 312.6951 314.5533 314.5533 314.8358 315.3729 315.8521
   315.8521 315.9314 316.3335 316.3335 316.7841 316.7841 316.8255 316.9276
   316.9843 316.9843 317.7365 317.7464 317.7464 321.3549 321.3549 321.6623
   322.2554 322.2554 322.7138 324.4251 324.7967 324.7967 324.9123 325.5192
   325.5192 325.5811 325.5811 326.0427 326.1661 326.1725 326.1725 327.5180
   327.5180 328.3240 328.3240 328.6472 328.6711 329.0819 329.0819 329.2698
   330.1912 330.1912 330.3061 330.3241 330.3665 330.3665 330.8197 331.6152
   331.6152 332.4220 332.7655 332.7849 332.7849 333.2383 333.2383 333.2526
   334.9015 334.9015 335.4982 335.4982 335.8529 335.8529 336.1856 336.1856
   336.2720 336.5096 336.5183 337.5345 337.5345 338.0404 338.0404 338.2900
   338.4657 339.1282 339.1282 339.3576 339.4615 339.4615 339.5163 340.0134
   340.0134 341.5845 341.6019 341.6019 342.8229 343.0737 343.0737 343.1629
   343.8272 343.8272 343.8760 343.9667 343.9667 344.1303 344.3108 344.3399
   344.3399 344.8951 344.8951 345.0987 345.5307 345.5307 346.1111 346.1111
   346.3068 346.6485 346.6743 346.8275 346.8275 347.3151 347.3299 347.3299
   347.4716 347.4716 347.4972 348.9638 348.9638 349.0444 349.6395 349.6395
   349.6655 352.9075 352.9075 352.9266 353.2602 353.2602 353.2950 353.9168
   354.5348 354.5348 354.8253 354.8253 354.8884 355.7584 355.7584 355.9195
   356.1234 356.3220 356.5022 356.5022 356.8956 356.8956 357.0340 357.0340
   357.0778 359.5493 360.1798 360.1798 361.6453 361.6453 362.0810 362.1043
   362.1043 362.1184 362.5533 362.5533 363.0126 363.1507 363.1507 363.4135
   363.5258 363.5258 363.6713 364.4126 364.4126 364.4233 365.2567 365.2567
   365.3295 365.7168 366.3606 366.3606 367.0586 367.2320 367.2320 367.2555
   368.3728 368.3728 368.4307 370.6241 370.6241 370.8055 372.1595 372.1595
   372.7696 373.1361 373.1361 373.6063 373.6063 373.6390 373.8013 373.8013
   373.8969 374.7428 375.6946 375.6946 375.8147 377.6308 377.6308 378.1260
   378.4171 378.4171 378.7370 378.7370 379.0366 379.1448 379.5057 379.5057
   379.5595 380.4470 380.4470 381.2345 381.2345 381.3100 381.3244 381.6765
   381.6765 382.1385 382.1385 382.1592 382.3568 382.6097 382.6484 382.6484
   382.7999 382.8234 382.8234 383.8070 383.8070 383.8292 386.8270 386.8270
   387.5126 387.5126 387.7152 387.8602 387.9881 388.1156 388.1156 388.2511
   388.4541 388.4541 388.8064 388.8536 388.8536 389.1741 389.2321 389.2321
   389.2546 389.2705 389.2705 390.0277 390.0277 390.0286 390.0846 390.5200
   390.5200 394.1423 394.1603 394.1603 395.0950 395.1251 395.1251 395.4020
   395.4020 395.4203 396.9080 397.0181 397.0181 397.2033 397.2033 397.2074
   397.2137 398.6457 398.6457 399.7167 399.7167 400.1984 401.1568 401.1568
   401.6411 401.6411 401.6782 401.8149 401.8149 401.9456 402.2874 402.5286
   404.0713 404.0713 406.2913 406.4798 406.4798 407.3214 407.3214 407.3894
   407.5166 407.5166 407.6993 407.7139 407.7139 408.3252 408.3252 408.4965
   408.5962 410.0440 410.0440 410.1291 410.9581 410.9581 411.0659 413.3477
   413.3477 413.6280 414.1547 414.1547 414.7159 416.0393 416.0393 416.1603
   416.6546 416.6546 416.6854 420.1970 420.1970 421.0232 421.0232 421.2734
   421.2778 421.5412 421.5412 421.5757 421.5757 421.6170 421.6500 421.8486
   421.8486 421.9691 423.4209 423.6048 423.6048 425.0562 425.6038 425.6038
   425.7438 425.7438 426.1554 426.2711 426.3415 426.3415 426.3649 426.4727
   426.4727 426.6487 427.7193 427.7531 427.7531 428.4398 428.4398 428.5338
   428.5338 428.9331 428.9331 429.0538 429.1071 430.2895 430.2895 431.0702
   432.4349 433.1707 433.1707 434.1028 434.1028 434.4769 434.6566 434.6566
   434.9304 435.0348 435.0348 435.0413 435.1674 435.1674 435.1921 435.3229
   435.3229 435.6905 435.7281 435.7281 435.7525 436.3760 436.4161 436.4161
   436.8233 436.8233 436.8639 439.2555 439.5025 439.5025 441.3070 441.4334
   441.4334 441.5085 441.5368 441.5476 441.5476 442.3565 442.3565 442.7868
   442.7967 442.7967 442.8323 443.4402 443.4402 443.4998 443.4998 443.6464
   443.6718 444.1060 444.1060 444.1864 444.1864 444.3161 444.4213 444.5540
   444.5540 444.5970 445.8475 445.8475 445.8839 447.6539 447.6539 447.7108
   447.9280 447.9924 447.9924 448.7950 448.8038 448.8038 448.8373 448.8373
   448.8583 450.3200 450.3200 450.4068 450.5230 450.5230 450.6094 450.6313
   450.7107 450.7107 452.6314 452.6314 452.8080 453.3665 453.3665 453.5368
   453.7980 453.8427 453.8427 456.4062 456.4062 456.5073 457.8135 457.8135
   457.8389 459.0020 459.0020 459.1355 459.1355 459.2266 459.3374 460.8604
   461.0445 461.0445 461.2387 461.2387 461.4747 461.6059 461.7282 461.7282
   462.0139 462.0663 462.0663 462.1308 462.1308 462.2465 462.3686 462.3686
   462.4878 462.5588 462.8436 462.8436 463.6572 463.6572 464.2181 465.5090
   465.5090 465.6040 465.6502 465.6528 465.6528 466.3601 466.3601 466.6826
   467.8059 467.8059 467.8064 468.1023 468.1170 468.1170 470.4003 471.0096
   471.0096 471.0749 471.0749 471.1010 471.1553 471.1553 471.2498 471.2662
   471.2662 471.2987 471.3512 471.4331 471.4331 471.6170 471.6170 471.7509
   471.7738 471.8879 471.8879 473.4832 473.4832 473.7103 473.7103 473.7207
   473.8193 474.9560 474.9560 475.0593 476.3624 476.3737 476.3737 477.5866
   477.8860 478.0993 478.0993 479.0914 479.0914 479.3856 479.3896 479.3896
   479.4896 479.8990 479.8990 480.1248 480.1248 480.2967 481.3752 481.3752
   481.4607 482.9524 482.9524 483.0062 483.1319 483.1319 483.1474 484.0126
   484.0126 484.1418 484.1752 484.1752 484.1894 484.8875 484.8875 485.1524

          k = 0.5000-0.5000 0.5000 (  2452 PWs)   bands (ev):

   -17.4599  -4.4017  -3.2888  -3.2888   6.4687   9.0431  10.0767  10.0767
    13.8277  14.7034  14.7034  15.9272  17.3784  17.3784  23.8198  24.5799
    24.7025  24.7025  25.4243  25.4243  30.1138  30.1138  30.3287  30.5087
    30.6979  30.6979  32.7438  33.7367  36.9291  36.9291  37.2659  38.4135
    38.4135  38.7619  43.6278  43.8716  43.8716  45.7996  45.7996  45.9700
    48.0716  48.0716  48.1815  51.0311  51.0311  51.1568  53.3063  53.3063
    53.5244  53.5244  54.0861  55.6208  59.5984  59.5984  60.4564  60.5297
    60.5297  61.7514  61.7514  62.2750  62.2750  62.5849  63.2139  63.4878
    65.2121  65.7622  66.1990  66.1990  66.2827  66.2827  69.0548  70.3434
    72.3082  72.3082  72.4754  72.4754  72.9360  72.9360  75.3578  75.3578
    75.5629  79.3122  81.3890  81.8751  81.8751  82.0479  82.0581  83.1548
    83.1548  83.4077  85.3278  85.3278  87.5949  88.1255  88.1255  88.4672
    88.4672  89.2858  89.4428  89.4428  89.6655  89.7402  90.6249  90.6373
    90.6373  90.6714  90.6714  92.5935  97.6588  97.6588  98.3472  98.5815
    98.8081  98.8081  99.0695  99.0695  99.4568  99.6304  99.6603  99.6603
   101.6092 101.6092 103.6173 103.8817 103.8817 104.8829 105.0577 105.0577
   105.7010 105.8662 105.8662 109.5855 110.2321 110.2321 110.3069 110.3138
   110.3138 110.3639 112.7713 113.0579 113.4994 113.4994 114.2379 114.2379
   115.7194 115.7194 115.9470 115.9470 116.7825 116.8492 119.2429 119.5432
   119.6235 119.6235 119.9762 119.9762 122.6817 122.6817 124.4286 124.4286
   124.4325 125.0118 125.0118 125.7688 125.7946 125.9078 125.9260 125.9260
   130.5810 130.5810 133.3858 133.4340 133.4340 133.7866 134.1406 134.1406
   134.9480 135.4729 135.4729 135.4786 135.8904 135.8904 136.1788 136.8816
   137.9916 137.9916 140.7988 140.7988 141.3897 142.1631 142.2708 142.2708
   143.3521 143.7332 143.7528 143.7528 143.8550 143.8550 143.9255 143.9515
   143.9515 144.1139 144.1139 144.1674 145.2947 145.2947 145.3512 145.4007
   145.4136 145.4136 148.9691 148.9691 149.8683 151.3295 151.3295 151.8012
   152.1928 153.0786 153.0786 153.1011 153.1011 153.1564 153.1564 153.4102
   153.4102 153.4808 153.5014 153.5927 159.1439 159.1439 160.1282 160.7644
   160.7644 160.8893 160.9685 160.9685 161.7148 161.8357 161.8456 161.9530
   161.9530 162.0189 163.8494 163.8494 167.0652 167.1369 167.1369 167.3427
   167.4307 167.4307 168.1352 168.1354 168.1394 168.1394 171.4004 171.4004
   171.9637 172.5923 172.5923 172.6117 172.6117 172.6832 172.8342 173.1655
   173.1925 173.2339 173.2339 173.2629 173.2629 174.6921 174.6921 174.9961
   180.8582 180.8582 183.6914 183.6914 185.0189 185.4275 185.4275 185.4425
   185.5589 186.1185 186.1185 186.6433 186.7142 186.7142 186.8046 187.1559
   187.1559 187.3098 187.5309 187.5735 188.0873 188.0873 188.0961 188.0961
   189.7376 191.2403 191.2403 191.3214 191.3248 191.3248 192.3912 194.4895
   194.4895 194.5042 195.0595 195.0595 195.7375 195.7375 196.4918 196.4918
   196.5054 196.5054 196.5280 196.5745 197.5284 197.5834 197.5834 197.5935
   197.5935 197.6393 197.6573 197.7000 197.7000 197.7018 197.7018 197.7721
   197.7721 197.7873 198.3207 198.3232 204.9193 205.0977 205.0977 205.9834
   206.6585 206.8611 206.8611 206.8799 207.0797 207.0797 207.6480 207.6480
   207.7246 207.7246 209.5193 209.5193 211.6817 212.9547 213.0123 213.0142
   213.0142 213.8044 213.8044 214.1864 214.2185 214.5373 214.8103 214.8103
   215.0235 215.0235 215.3287 215.3287 215.6390 215.8310 215.8310 215.8521
   215.8749 215.8749 215.9213 217.3772 217.4336 217.4336 223.6817 223.6817
   224.4968 224.4968 224.7675 224.7997 224.8157 224.8157 224.8842 224.9009
   224.9104 224.9104 225.6655 225.6655 225.7597 225.8227 225.8227 225.9128
   229.4750 229.4750 229.8980 231.5000 231.5275 231.5275 231.6248 231.6248
   231.6667 233.0459 233.0459 233.4711 233.4820 233.4820 233.5532 233.6423
   233.8956 233.8956 234.6077 236.2287 236.2287 238.1129 239.3296 239.3296
   239.3570 239.3570 241.4382 241.6272 241.6272 241.7436 241.9087 241.9087
   241.9504 242.0308 242.1051 242.1051 243.9578 243.9620 244.5618 244.5618
   244.8168 244.8168 245.1269 245.1269 245.6737 246.1232 246.1232 247.3505
   247.3505 247.4148 249.4141 249.4252 249.4404 249.4404 249.4701 249.4701
   249.4846 249.4846 249.5352 249.5399 252.7576 252.7576 253.2072 253.2536
   253.2536 253.2591 253.8961 253.8961 253.9190 253.9483 253.9483 253.9537
   254.2670 254.2670 257.6349 258.4447 258.4447 259.1977 259.1977 259.2911
   260.1788 260.1809 260.2127 260.2561 260.2561 260.9222 260.9222 264.2028
   264.2028 264.6609 265.4365 265.4365 266.6542 267.0573 267.0573 267.6915
   267.6988 267.6988 267.6991 267.7228 267.8904 267.8904 268.5170 269.0272
   269.1431 269.1431 269.4422 269.4873 269.4873 269.6300 273.4067 273.5835
   273.5835 274.5417 274.5417 274.9847 274.9847 275.3969 276.4110 276.4838
   276.4838 276.7900 276.8369 276.8369 277.0849 277.0898 277.1397 277.1397
   277.2281 277.2281 277.4645 277.6912 277.7323 277.7323 277.9101 277.9101
   278.0026 278.0930 278.2318 278.2318 279.0299 279.0299 279.0701 279.0832
   279.0905 279.0905 280.5028 280.5028 280.9221 280.9221 281.0085 281.0261
   283.4399 283.4399 285.1913 285.3948 285.3948 285.4785 285.7514 285.7514
   286.7970 286.8187 286.8679 286.8679 287.2275 287.2275 287.3148 287.4168
   287.4168 287.4443 287.5761 287.5761 287.5901 287.5938 287.6705 287.6705
   291.3077 292.4494 292.4494 294.5240 294.8031 294.8031 296.2749 296.2749
   296.4719 296.7304 296.7304 296.7314 296.8934 298.8918 298.8918 302.5264
   302.5264 302.5742 302.6046 302.6046 303.7948 303.7948 303.9549 303.9580
   304.1212 304.1212 304.6142 304.6142 304.6261 304.7714 304.7714 304.8516
   305.1461 305.1685 305.1685 305.1685 305.1685 305.2997 305.3829 305.3829
   305.6708 305.6752 308.6245 308.6245 311.5916 312.7451 312.7451 313.8003
   313.8170 313.9019 313.9019 314.0252 314.0252 314.0676 314.2252 314.2252
   314.5798 314.9774 314.9778 315.0615 315.0615 315.0807 315.0807 315.7795
   316.8079 316.8079 318.1459 318.1459 320.7306 321.0607 321.2686 321.3526
   321.3526 322.0343 323.2252 323.2252 323.6615 323.6615 323.8181 323.8181
   324.3617 324.3617 324.3679 324.4254 325.0218 325.0218 327.0872 327.0872
   327.8795 328.4681 328.4681 328.5240 328.7476 328.7691 328.9247 328.9247
   329.5559 329.5559 330.1071 330.1720 330.1720 330.1917 330.3745 330.5388
   330.5388 330.9716 331.0435 331.0435 331.4955 331.4955 331.5197 331.8395
   331.9026 331.9026 331.9060 331.9060 331.9440 331.9445 332.5092 332.5092
   333.8205 333.8225 333.8664 333.8664 333.8820 333.8820 334.4592 334.4637
   334.4637 334.4647 334.4792 334.4792 339.0958 339.0958 339.3878 340.1474
   340.1474 340.3528 340.4373 340.4373 340.4593 340.6550 340.8289 340.8289
   341.4012 341.4201 341.4201 341.4369 341.4524 341.4524 344.9425 344.9425
   345.4781 345.5711 345.5711 346.9874 346.9874 346.9919 346.9958 347.0439
   347.3327 347.3327 347.4259 347.4259 347.8508 348.6109 348.6109 348.8872
   349.5395 349.5395 349.6414 349.6432 349.7299 349.7299 352.0790 352.0790
   352.0860 352.0979 352.1005 352.1035 352.1035 352.1275 352.1275 352.1718
   352.1829 352.1829 354.0884 356.3377 356.3377 357.2528 357.2528 357.4236
   357.4236 357.5771 358.2238 358.2238 358.5165 358.6034 358.6857 358.6857
   358.7929 358.7929 358.8486 358.8549 358.8824 358.8824 358.9367 359.1917
   359.1917 359.2738 363.2223 363.2411 363.2411 365.2122 365.8753 365.8753
   366.1661 366.7636 367.1221 367.1221 367.2933 367.2951 367.2951 367.2985
   367.5461 367.5461 368.6332 368.6332 368.7206 368.7206 369.8883 371.8703
   371.8703 372.9139 374.2355 374.2355 375.4472 375.4472 375.5505 375.8473
   375.9437 375.9437 375.9722 375.9915 376.0019 376.0019 376.1448 376.1944
   376.1944 376.4689 376.4689 376.5061 376.6142 376.6142 376.6150 377.0354
   377.0434 377.0434 377.5143 377.5143 377.5693 377.5718 377.5718 377.5727
   381.5658 381.5658 382.5092 382.6914 382.6914 382.8020 384.0907 384.0907
   384.6253 384.6415 384.6990 384.6990 384.9002 384.9002 384.9139 385.2691
   385.4581 385.4581 386.4901 386.4901 386.5034 386.5034 386.5150 386.5274
   388.0703 388.3271 388.3271 388.4727 388.4727 388.5884 390.8615 390.8615
   391.1543 392.0475 392.0475 392.7565 392.7565 392.8549 392.8549 392.9972
   393.0058 393.0058 393.0137 393.0299 393.0360 393.6386 393.6386 393.7737
   394.6170 394.6171 394.6549 394.6549 394.7699 394.7699 399.2291 399.2291
   401.5589 401.8719 401.9299 401.9299 402.3024 403.2020 403.3221 403.3221
   403.6428 403.6428 403.7500 403.7552 403.7816 403.7816 403.8504 403.9471
   403.9816 403.9816 404.1858 404.1858 404.2006 404.2006 404.5958 404.6560
   407.3063 407.3063 409.5697 409.5697 409.7848 410.4117 410.4117 410.5687
   410.5758 410.9935 411.0006 411.0211 411.0211 411.4453 411.4453 411.5146
   411.5146 411.6221 411.6488 411.6824 411.6824 411.8828 411.9214 411.9214
   412.0479 412.0479 412.2416 412.2416 412.3680 412.3868 412.4653 412.6535
   412.6907 412.6907 412.7073 412.7073 412.9242 412.9242 412.9282 412.9282
   412.9287 412.9372 413.2072 413.2072 413.2390 413.2390 413.2395 413.2452
   421.5199 421.5199 421.5721 421.8066 421.8066 421.8552 421.8552 421.8642
   421.9518 421.9518 422.0232 422.0245 422.0373 422.0494 422.0494 422.1396
   422.1396 422.1764 424.4898 424.4898 425.0923 426.8585 427.2627 427.2627
   428.2494 428.2494 428.7284 429.0632 429.1474 429.1474 429.6391 429.6391
   429.9897 430.2635 430.3047 430.3047 430.3210 430.3750 430.3750 430.5761
   430.6191 430.6370 430.6370 431.0133 431.0133 432.2749 432.7063 432.7252
   432.7252 432.7262 432.7380 432.7380 433.1604 433.1604 433.2485 434.3218
   434.3218 435.0537 435.0537 435.4209 437.0124 437.0124 437.0501 437.0501
   437.5872 437.5874 439.1282 439.1282 439.3144 439.3144 439.4705 439.4726
   439.4742 439.4742 439.5178 439.6352 439.6815 439.6815 440.8845 440.9007
   440.9007 440.9063 440.9063 440.9234 440.9272 440.9438 441.2908 441.2908
   441.3256 441.3256 442.1077 442.1077 442.1104 442.1104 442.2907 442.2909
   446.4595 446.4595 446.6516 446.6516 446.6818 446.6821 447.9834 447.9834
   448.2468 448.5600 448.7569 448.7569 455.0957 455.0957 455.4988 455.4988
   455.9662 456.4344 456.4452 456.4724 456.4724 456.5300 456.5300 456.5712
   456.5712 456.6647 456.6753 456.8505 456.9233 456.9233 456.9588 456.9588
   456.9736 456.9930 457.0040 457.0040 457.0137 457.0137 457.0791 457.1419
   457.3906 457.4119 457.4119 457.4237 457.4237 457.4434 457.5083 457.5083
   462.6345 462.6345 462.8587 463.3585 463.3585 463.3598 463.3898 463.3962
   463.3962 463.6277 463.8009 463.8009 463.8809 463.8809 464.3133 464.5530
   464.5530 464.6570 464.6955 464.6955 464.6968 464.7197 464.7296 464.9399
   464.9514 464.9514 465.5614 465.5614 465.6713 465.8565 465.8565 466.0523
   466.8402 466.8402 466.8648 466.8648 467.0676 467.0678 467.0964 467.0964
   467.1140 467.1140 468.6277 468.6277 468.6335 468.6450 468.6450 468.6626
   468.7111 468.7111 468.7133 468.7222 468.7385 468.7385 474.5143 474.5143
   474.8006 474.8537 474.9174 474.9174 476.1393 476.1393 476.1547 476.1547
   476.1666 476.1667 481.9372 481.9372 482.2058 482.2058 482.4441 482.7306
   482.7306 482.7372 482.7531 482.7976 482.9791 482.9791 484.0555 484.0555
   484.2104 484.2104 484.2319 484.2402 484.2473 484.2473 484.2623 484.3303
   484.3303 484.3359 490.0097 490.0097 491.1964 491.2970 491.3282 491.3282

          k = 0.0000 0.5000 0.0000 (  2429 PWs)   bands (ev):

   -17.5092  -3.8018  -3.3619  -3.3619   5.8115   8.6131   9.9170  11.5371
    11.5371  13.5863  17.3980  17.9840  17.9840  18.0298  20.5903  21.1650
    21.1650  24.4725  25.1431  27.7147  29.3658  29.7217  29.7217  33.6799
    33.6799  33.7512  35.7723  36.5541  37.7572  37.9315  37.9315  39.5600
    39.5600  41.0190  42.3189  42.7395  42.7395  42.8008  44.4670  45.0283
    46.2516  46.2516  46.7881  49.7131  50.0779  50.0779  50.6393  50.6463
    51.9024  52.8299  52.8299  53.8614  55.7991  58.4694  58.4694  60.1060
    60.9751  60.9751  62.2710  62.3034  63.4891  63.4891  64.3639  64.9027
    67.8537  67.9999  68.8047  68.8047  70.1513  70.6663  70.6663  70.9400
    71.5932  71.5932  71.6135  72.3350  72.9214  75.2495  75.2495  77.0020
    78.8119  79.2014  79.2014  79.4276  83.7143  83.7143  84.1656  84.5403
    85.4505  86.2623  86.2623  86.6324  86.8092  87.0491  87.1636  87.1636
    88.3980  88.3980  88.4454  89.6284  90.1365  90.5500  90.6970  90.6970
    92.2641  93.2633  94.5829  95.3145  95.3145  96.4185  96.5294  96.8419
    96.9129  96.9129  97.2121  97.2121  97.3707  97.3707  97.7227  98.3971
    98.5896  98.5896  98.6538  99.0218  99.9279 104.9449 105.7963 105.7963
   106.2298 106.2298 106.2530 106.5040 107.1147 108.8609 111.6616 111.9401
   111.9401 112.1377 112.1377 112.4410 114.1623 114.2235 114.2235 114.3820
   114.7006 116.1067 116.1087 116.1971 116.1971 118.1548 118.1548 118.7142
   121.2544 122.0769 122.1818 122.1818 122.2320 122.3962 122.7291 122.7291
   124.5488 125.5345 125.6036 125.6802 125.6802 128.1367 129.6329 129.6329
   129.9289 131.3730 132.0922 132.3991 132.7141 132.7141 133.0579 133.0871
   133.0871 133.7644 134.0357 135.3740 136.1932 136.8161 136.8161 137.3196
   137.3196 137.8368 139.4706 139.6650 139.6650 139.7764 140.0386 141.6360
   141.6360 142.6330 143.1307 143.1307 143.5582 144.5614 144.6536 144.7707
   144.7707 144.8407 146.9659 147.0445 147.2934 147.2934 147.5443 149.0278
   149.5212 149.5606 149.5606 149.6138 149.6138 151.5096 152.1667 152.1667
   152.7356 152.9805 152.9916 153.3512 153.3512 155.4805 156.0088 156.6005
   157.4022 157.4022 157.4785 157.9922 157.9922 158.2903 159.3667 159.5754
   159.5754 159.7345 163.7132 163.7132 164.5247 164.8536 165.6117 166.0837
   166.0837 166.5524 167.0931 167.1605 167.7274 167.7274 167.7967 168.1581
   168.1581 168.7237 168.9982 169.3000 169.3000 169.4521 169.9465 170.3804
   170.4356 170.4356 171.1460 171.8797 171.8797 172.7447 174.0624 174.5934
   174.6669 174.8588 174.8588 175.3331 175.8765 176.0154 176.0154 176.0813
   176.0813 176.6799 176.9062 177.0014 177.0252 177.0252 177.3906 177.4219
   177.4219 177.4474 178.3545 178.9201 178.9201 179.4314 180.3407 180.6767
   180.6767 180.8236 183.9320 184.6271 185.2332 185.2332 185.9107 186.4284
   186.5063 186.5367 186.7864 186.7864 186.7997 186.8104 186.8104 188.1358
   190.1006 190.1006 193.2194 193.4684 194.9571 195.2910 195.2910 195.6847
   195.8481 195.8481 197.2214 198.2759 199.3601 199.3601 199.4986 199.8521
   201.1267 201.2370 201.2811 201.2811 203.2734 203.2734 204.6252 204.8789
   204.8789 204.9196 205.1094 205.2343 205.3428 205.7083 205.7083 205.9718
   206.0397 206.0397 206.0822 206.5281 206.7687 206.7687 206.7860 208.5905
   210.1674 210.5232 210.7415 210.7415 211.9906 212.8000 213.1166 213.1166
   213.9378 214.8898 216.8602 216.8602 217.1785 217.1785 218.2641 218.5529
   218.5529 219.3340 219.6895 221.6321 221.7070 221.7070 221.8745 222.2517
   222.3425 222.3425 222.4644 223.2005 223.2903 223.3685 223.3685 225.8243
   225.8243 226.3312 226.3919 226.6564 228.0818 228.4408 228.4408 228.8720
   229.1514 229.1533 229.1533 229.3035 229.3957 229.3957 229.5829 229.6074
   229.6074 229.9532 230.0620 230.2299 230.3134 230.3134 230.4491 230.8030
   230.8030 230.9356 231.0212 232.6145 232.7662 232.9262 232.9262 232.9569
   233.2102 233.2102 233.5731 233.7908 233.8183 233.9016 233.9016 235.8321
   235.8321 236.4453 237.3490 237.7537 238.6340 238.6340 239.3624 239.8724
   239.9537 239.9537 240.1367 240.1367 240.1534 240.2079 240.2271 241.0403
   241.0666 241.0700 241.0700 244.7126 245.1607 246.5483 246.5483 247.1044
   248.3262 249.0770 249.4227 249.4227 249.6679 249.7132 249.7342 249.7342
   249.7354 250.3052 250.4623 250.4623 250.5021 250.7267 250.7504 250.7504
   251.2360 252.2238 253.8603 254.2002 254.2002 254.7127 256.5129 256.5129
   256.5467 257.0138 257.0138 257.3027 257.5464 257.6711 257.6711 257.9592
   258.0123 258.0123 258.0458 258.1546 258.1946 258.7798 258.7798 260.9691
   261.5490 261.5490 262.4103 263.5066 264.4701 265.3620 265.3620 265.4831
   265.6692 265.6953 265.6977 265.6977 266.2014 266.6365 266.6365 267.1650
   267.2195 267.3362 267.4634 267.4634 267.4669 267.4763 267.4763 267.7902
   271.4233 271.4233 272.1847 272.3922 272.4259 274.0089 274.0089 274.5183
   274.6004 275.2968 275.2968 275.4649 275.5695 275.7658 275.7658 275.8040
   275.9302 276.0229 276.0282 276.0282 277.7793 277.8878 277.9057 277.9340
   277.9340 278.9526 279.6034 280.0342 280.0342 281.7176 281.7176 281.8075
   282.3757 282.5612 283.3336 283.3336 283.8791 283.8791 284.4921 284.5420
   284.7440 284.8281 284.8543 284.8543 285.7189 285.7792 285.7792 285.7956
   286.7181 286.7567 286.7567 286.7805 286.9355 286.9355 287.2278 287.3836
   287.3836 287.3870 287.8358 288.2294 290.4011 291.3243 291.3243 292.2638
   292.6190 293.1631 293.3929 293.3929 295.0083 295.7245 295.7245 296.1482
   297.8370 299.2251 299.5355 299.7653 299.7653 300.7297 301.5587 301.8081
   301.8396 301.8396 302.3235 302.3235 302.7164 302.7164 302.7239 302.8513
   305.0041 305.3806 305.3806 306.0608 307.6110 308.8646 309.0374 309.2970
   309.2970 309.9459 309.9648 310.0591 310.0591 310.1682 310.1682 310.2017
   311.0122 311.2317 311.4199 311.4199 311.4410 311.4423 311.4880 311.4880
   311.5106 311.5902 311.6789 311.8492 311.8583 311.8583 312.1742 312.1742
   312.9290 313.2057 313.4183 313.4929 313.4929 313.6158 314.9854 315.0428
   315.0428 315.1088 316.2446 316.2446 317.8584 318.7073 318.7073 319.8096
   319.8202 320.1589 320.2922 320.2922 320.3819 321.5532 321.5874 321.5874
   321.6022 323.0482 324.8319 324.8319 325.3234 326.1126 326.3121 326.4729
   326.7065 326.7065 326.7352 328.6259 328.6352 328.6352 329.2062 329.2062
   329.2726 329.3253 329.5006 329.6114 329.6118 329.6118 329.8232 329.8232
   331.6415 331.8155 331.8155 331.8620 332.0243 332.0243 332.1772 332.3399
   332.5570 332.6983 332.6983 333.4364 333.6265 335.6391 335.7036 336.2716
   336.2716 336.2925 336.4133 336.8498 336.8771 336.8771 337.0739 337.5045
   337.5045 337.9641 338.0035 338.0035 338.6376 338.7078 338.7078 338.7202
   339.4263 340.2732 340.2732 340.3406 340.3548 340.9142 340.9142 341.0641
   341.2033 341.2191 341.2191 341.3762 343.1979 344.5031 345.3552 345.9381
   345.9381 345.9889 346.0444 346.0444 346.1884 348.0296 348.2095 348.2141
   348.2141 351.5144 351.6454 352.1476 353.2498 353.2498 354.5850 354.6185
   354.7616 354.7616 355.0793 355.1689 355.1689 355.4594 355.7846 355.8643
   355.8643 356.1375 356.2777 356.2777 356.3333 356.3772 356.4052 356.4052
   356.5761 356.5827 356.5830 356.5830 356.5892 356.6718 356.6903 356.7915
   356.7915 356.8096 356.8612 356.8612 356.8748 356.9049 356.9280 357.0774
   357.0774 359.8234 359.9053 360.6170 360.6170 361.3856 361.8067 362.1693
   362.1693 362.8483 362.8483 362.9130 363.6956 363.7141 363.7141 363.7317
   363.8334 364.3234 364.4743 364.4743 364.8869 365.6505 365.9073 365.9242
   365.9242 365.9590 366.0498 366.1014 366.1014 366.1377 366.1435 366.1435
   366.1557 366.6197 366.9594 366.9644 366.9648 366.9648 367.1381 367.1904
   367.1904 367.2305 367.3444 367.3444 367.7915 368.7384 368.8083 368.8083
   368.8682 371.0492 371.9929 372.1818 372.1818 374.0314 374.0489 374.0489
   374.1675 374.3185 374.5795 374.6436 374.6436 375.9703 376.2135 376.2135
   376.2199 377.6508 379.0020 379.0020 379.0619 379.5245 380.2280 380.2280
   380.2799 385.2619 385.3270 385.3270 385.3271 385.8962 385.9683 385.9683
   385.9762 387.2094 387.2094 387.5842 388.5122 388.6552 389.1280 389.1505
   389.1505 389.5266 389.5912 390.2012 390.2012 390.3229 390.5955 390.5955
   390.6418 391.5715 391.5715 391.6192 391.8187 393.8379 393.9935 393.9958
   393.9958 394.5218 394.5335 394.5601 394.5601 394.5701 394.5701 394.5822
   394.5941 397.4413 397.4691 397.4691 398.3905 398.8076 399.7647 399.8253
   400.2275 400.4049 400.4049 400.5049 400.5112 400.5112 400.8763 400.8763
   400.8802 401.0039 401.2792 401.2792 401.2841 401.5720 401.5800 401.6305
   401.6305 402.1733 404.3716 406.6814 407.9242 407.9242 408.2358 408.4872
   408.6922 408.6922 408.7216 409.5415 409.5415 409.6845 409.7198 409.8895
   409.9587 409.9587 409.9600 410.0866 410.1503 410.1861 410.1861 410.2086
   410.3243 410.3806 410.3806 410.3884 410.5532 410.6633 410.6633 410.7991
   410.7991 411.0601 411.0885 411.0885 411.1142 411.1669 411.2326 411.2912
   411.2912 411.7490 411.7696 411.8003 411.8003 413.3918 416.2346 416.7227
   416.7870 416.7870 417.0930 418.1142 418.1142 418.1745 418.5159 418.5159
   418.7629 418.7764 418.9743 418.9774 418.9774 419.3183 419.5116 419.5116
   419.5500 419.8591 419.8824 419.8824 419.8920 420.0776 420.1438 420.1438
   420.1463 420.1572 420.9863 421.0203 421.0203 421.0213 426.2609 426.2609
   426.4804 426.5216 426.6627 426.9033 426.9407 426.9407 427.5219 427.6271
   428.0433 428.1252 428.1252 428.1310 428.2307 428.2307 429.4475 430.9389
   432.5502 432.5502 434.9065 435.2730 435.2730 435.2844 435.6079 435.6079
   435.7568 435.8012 435.9023 435.9206 435.9206 436.3501 436.9192 437.1692
   437.1692 437.4457 439.1712 439.2817 439.2817 439.3954 441.8985 442.0979
   442.3113 442.9512 442.9512 443.1339 443.3173 443.3173 444.1780 444.2311
   444.2311 444.2474 444.4023 444.4565 444.4752 444.4752 444.4800 444.6335
   444.6335 444.6820 445.1782 445.1863 445.1863 445.2061 446.4218 446.4218
   446.4560 446.4952 446.5203 446.5279 446.5279 446.5818 447.2175 447.9667
   447.9667 448.4307 448.8242 448.9106 449.0014 449.0014 451.9129 452.4057
   452.5062 452.5062 452.6359 453.0322 453.2502 453.2502 454.6488 454.7055
   454.7055 454.7679 454.7765 454.8470 454.8470 454.8835 455.0438 455.1706
   455.1706 455.1974 455.2039 455.2416 455.2434 455.3058 455.3058 455.3074
   455.4359 455.4359 456.9099 456.9296 456.9296 456.9313 461.3151 461.3151
   461.8475 462.0695 462.3211 462.8491 463.0160 463.0760 463.0855 463.0855
   463.2078 463.2078 463.2149 463.3059 463.5708 463.5708 463.7532 463.7532
   464.1194 464.6242 464.6733 464.6733 464.6752 464.6857 464.7120 464.7409
   464.7961 464.7961 469.4449 469.6310 469.7673 469.7673 470.4730 470.6045
   470.9190 470.9190 471.1880 471.6406 471.6406 471.6548 471.6949 472.0075
   472.0075 472.1879 472.2651 472.2651 472.2915 472.3615 472.4109 472.4973
   472.6671 472.7098 472.7098 472.8757 472.9000 472.9546 472.9546 472.9728
   472.9728 473.0958 473.2443 473.2549 473.2549 473.2981 473.3438 473.3541
   473.3541 473.3983 473.4154 473.4462 473.5021 473.5021 473.7797 473.8110
   473.8110 473.8365 474.5157 474.5232 474.5355 474.5355 481.3264 481.3264
   481.4451 481.4812 481.7231 481.7840 481.7840 481.9062 482.2043 482.3306
   482.3306 482.4260 482.4315 482.4513 482.4954 482.5289 482.5289 482.5429
   482.5719 482.5719 482.7388 482.7522 482.7522 482.7663 486.8499 486.8547

          k = 0.7500-0.2500 0.7500 (  2437 PWs)   bands (ev):

   -17.4371  -4.1842  -3.6391  -3.4316   7.1188   8.1971   9.3200  11.3482
    13.1880  14.8900  15.6205  17.1453  17.2306  19.6702  21.8491  21.9747
    23.4429  24.4404  25.1463  25.8011  29.3828  29.3909  30.1058  30.5226
    31.1178  31.9525  32.8283  34.5862  35.5372  37.9324  38.2352  38.8070
    39.3207  40.6000  41.4340  41.6534  44.7026  45.1875  46.0979  47.1145
    48.0654  48.0814  49.6495  50.0806  50.7857  51.2012  51.5674  52.2345
    52.4112  53.9657  57.0312  57.7219  58.3205  59.6858  59.6971  60.1028
    60.6095  60.7325  61.6394  62.5927  62.7314  62.9665  63.2115  64.8834
    65.4204  66.5051  67.4523  68.0173  68.3028  69.3968  70.0802  70.2762
    71.1936  71.2102  72.0739  73.4621  73.7151  74.1545  74.5946  75.4852
    76.0166  77.8475  78.0231  78.7213  79.4636  79.5649  80.8123  81.3111
    81.3806  82.0849  83.9331  84.5726  85.6687  85.7058  86.7274  87.4688
    87.8715  88.2285  88.3577  88.7048  88.7163  89.1369  89.6079  91.0685
    92.2944  93.8618  94.7079  94.8440  95.7233  97.2697  97.5071  97.5451
    97.5632  98.2801  99.6734 100.3171 100.3901 101.2533 101.3720 102.1332
   102.5369 102.9002 103.0207 104.1825 104.6886 105.3741 105.6420 106.1077
   107.1890 107.6827 108.0672 108.3667 111.1643 111.8795 112.0368 112.5033
   112.7594 113.1503 113.6616 114.1741 114.3760 115.0952 115.2261 115.4187
   115.4349 116.3499 117.2932 118.9513 119.1394 119.4050 119.8435 119.9946
   120.4252 120.5779 120.8008 120.9511 121.3883 121.8931 122.7993 123.4619
   123.8208 124.0925 124.6018 125.4714 126.5517 126.8586 127.6137 127.8085
   128.3156 128.5815 128.7193 129.3333 130.4968 131.3110 131.3869 131.4358
   131.9591 132.7053 132.7344 132.9028 133.4719 133.8015 134.3361 134.8070
   136.2454 136.3976 136.5130 137.2482 137.8919 138.2765 141.2185 141.5258
   141.7628 142.0486 142.1056 142.3737 143.0489 143.2250 143.8542 144.0794
   144.8349 145.0511 145.5874 145.5942 146.1914 146.2402 146.3238 147.1920
   147.4798 148.1438 148.2806 149.2293 151.0507 151.4825 151.7113 151.8587
   152.6089 152.7197 153.4862 154.1883 154.2137 154.4665 154.5771 154.6319
   154.8749 155.3150 155.3924 155.7670 157.2303 157.7687 158.0431 160.0467
   160.1823 160.3502 160.3699 160.6188 163.3383 163.4673 163.9870 164.2034
   164.5080 165.5520 166.4424 166.5668 166.6507 166.7342 166.8621 167.3948
   167.5201 168.9203 169.5583 169.5589 170.0434 170.3468 170.8963 171.5395
   171.8753 173.0020 173.3015 174.0797 174.6123 174.7256 174.8784 175.1550
   175.1974 175.4847 175.5758 175.8500 175.9403 177.9964 178.4128 178.9678
   179.2769 179.3274 179.8440 180.0165 180.8123 181.2208 181.5327 182.2896
   182.7569 183.6614 183.8430 184.3795 184.5303 185.6986 185.9007 186.0760
   186.7419 186.9225 187.0784 187.5585 187.6319 187.8294 187.8954 188.7102
   189.0249 189.2960 189.5456 190.3615 190.5187 190.8475 191.5790 192.2852
   192.7493 192.7775 193.1661 193.3360 193.8167 193.9321 194.1446 195.1316
   195.6225 195.8243 195.8654 196.3385 196.7832 197.0071 197.5348 198.8619
   198.8674 199.1339 199.7592 200.1603 201.3566 202.1790 202.2882 202.7967
   203.0172 203.4182 203.6102 203.9098 203.9822 204.3007 204.7223 204.9071
   205.3939 205.7619 206.4652 207.0355 207.8452 208.0150 208.0490 208.1345
   208.4224 208.5364 208.5653 209.1629 209.5089 210.7717 211.9350 212.1943
   212.9372 213.1791 213.3519 213.7993 213.9886 214.1316 214.2442 214.2830
   214.5087 214.9702 215.3088 215.4281 215.5781 215.7316 216.2855 216.9955
   218.3595 218.5035 219.0573 220.7640 220.7643 221.0039 221.2808 222.0908
   222.2532 222.5378 222.6267 222.6684 223.5253 223.5347 223.8705 224.0258
   224.7838 225.1164 225.3575 225.9232 226.0732 226.1735 227.0309 227.2424
   227.4439 228.3626 228.4893 228.9178 229.4157 230.1086 230.2683 231.0606
   231.4237 231.7313 231.9736 232.2346 232.2516 232.6345 232.6635 234.0443
   234.0697 234.4159 234.6181 235.7221 236.4464 236.8287 236.8786 237.3297
   237.7853 238.0633 238.2083 238.2650 238.4159 239.2488 239.7932 240.0347
   240.5711 240.6277 240.7582 240.9362 241.0935 241.6288 241.9363 244.1792
   245.0481 245.7386 245.9205 246.0204 246.4731 246.7819 247.0368 247.7597
   248.1339 248.1712 248.7452 249.0195 249.2080 249.2431 249.7314 249.8283
   249.9256 251.5143 252.0262 252.4798 252.5716 252.7360 253.4523 253.4948
   253.8408 254.2764 254.5203 255.0081 255.6520 255.9758 256.1583 256.9911
   257.7311 257.8537 258.6190 258.7801 259.1860 259.2842 259.6259 260.2040
   260.3666 261.0062 261.6641 262.2204 262.2865 262.6655 262.9229 263.4509
   263.8367 263.8621 264.1946 264.2959 264.6426 264.6879 264.7936 265.2540
   265.6599 265.8710 266.2583 266.6282 267.2337 267.5633 267.5669 267.6723
   267.7766 267.8555 268.3339 268.5923 268.9249 269.0506 272.3526 272.7748
   272.8115 272.9538 273.2687 273.4389 273.4499 273.9903 274.3119 274.5639
   274.6193 274.8060 275.3516 275.6522 275.7697 276.4709 276.6062 277.8930
   277.9541 278.4137 278.9753 279.2826 279.3148 279.8858 279.9049 280.3486
   280.5002 280.5295 280.8860 281.0445 281.1271 281.2194 281.8552 281.9548
   282.3490 282.5035 283.0094 283.0395 284.0933 284.5701 284.8362 285.0006
   285.0859 285.5715 285.7457 285.8681 286.7524 286.9688 287.3400 287.3786
   287.7745 288.1309 288.3051 288.8004 289.5043 289.8122 289.9923 292.5454
   292.7000 292.8055 293.0021 293.4228 293.5457 293.9182 294.3978 294.3982
   294.5510 294.9944 295.1741 295.1932 295.7080 296.1997 296.2039 297.0425
   297.2172 297.2744 297.9214 298.1355 298.3934 298.6742 298.9368 299.2550
   299.7999 300.5852 301.1276 301.5438 301.6235 301.8694 301.9385 302.0842
   302.2031 302.5309 303.0242 303.0432 303.2391 303.4727 303.6293 303.6889
   303.7526 304.0226 304.4193 304.5858 305.7047 306.4399 306.7325 307.2403
   307.4311 307.5443 307.9291 308.9603 308.9604 309.2310 309.6129 310.0077
   310.0146 310.1223 310.9452 311.0588 311.4143 311.6500 312.2967 312.6702
   313.1884 313.4925 313.5398 314.2309 314.3226 314.3241 314.5576 314.6210
   314.8524 314.8945 315.2176 315.5324 315.8619 315.8621 316.6070 316.8050
   316.8068 316.9483 316.9590 317.0843 317.2537 320.3501 321.3886 321.4819
   321.5739 321.7047 321.9071 322.1100 322.3014 322.6791 323.0675 323.1259
   323.4284 323.8636 324.2042 324.6429 324.7969 324.9699 325.2761 325.3614
   325.7850 326.2030 326.4437 327.0005 327.1535 327.2738 327.3558 327.3769
   327.4293 327.5800 327.9213 328.0354 330.2178 330.2914 330.4125 330.7161
   330.7513 331.9260 331.9615 332.0977 332.2935 333.7513 333.9761 334.2053
   334.6989 335.0683 335.3345 335.4117 335.9461 336.0228 336.5373 336.5500
   336.6848 336.7630 337.0278 337.2242 337.7169 338.3689 338.7407 339.4675
   340.0731 340.5316 340.9909 341.2965 341.3295 342.2441 342.7341 342.8548
   343.0256 343.2754 343.2999 343.8241 344.3888 345.1274 345.4207 345.8131
   345.8641 346.4003 346.8652 347.0958 347.1145 348.3995 348.5159 348.6387
   348.7712 348.9618 349.1590 349.2903 349.3452 349.5747 349.6422 350.2144
   350.6792 351.7254 352.1256 352.3879 352.6449 352.7780 353.8648 354.1726
   354.3358 354.5741 354.5855 354.7881 354.8930 354.9043 355.0142 355.2574
   355.5045 355.7392 355.7649 355.9872 356.2392 357.3545 357.6270 358.0416
   358.0562 358.4215 358.4459 358.6156 358.6740 359.0767 360.1644 360.3897
   361.0743 361.1066 361.4482 361.5836 361.6612 362.3149 362.8382 362.9815
   363.2752 363.8569 364.3310 365.9289 365.9482 366.0576 366.4212 366.6643
   366.9444 366.9957 367.1732 367.3334 367.6876 367.9449 368.4697 368.5672
   368.7103 369.3655 369.4838 369.7378 369.9989 370.0649 370.2177 370.8157
   370.9522 371.7168 371.8203 372.1150 372.4749 372.5440 372.5603 372.9732
   373.1644 373.7396 374.3381 374.5142 374.8222 374.9472 375.0105 375.6833
   375.7207 376.4003 376.4548 376.7500 376.9729 377.9146 378.1670 378.3914
   378.7754 378.9241 378.9556 380.3277 380.7797 381.0079 381.0542 381.2419
   381.8677 382.1301 382.8290 383.1425 383.1731 383.4803 383.5361 384.1963
   384.2516 384.2970 384.4525 384.4688 385.1250 386.1473 386.2904 386.5179
   386.6114 387.2209 387.4239 387.5641 387.5796 387.6829 387.7369 388.1976
   388.2188 388.4283 388.5966 389.9876 389.9935 390.5473 390.5874 390.9119
   391.3321 392.1471 392.2079 392.4840 392.5748 392.9161 393.1487 393.2382
   393.6917 393.9235 394.0542 394.3100 394.5175 395.2263 395.2763 395.4032
   395.4831 395.9105 396.1486 396.3974 396.5304 397.0103 397.0566 397.4796
   397.9939 399.2486 399.7361 400.1034 400.1293 400.3502 400.3908 400.5852
   400.6942 400.9254 400.9990 401.3198 401.5482 401.5826 401.6595 401.8576
   401.9307 402.1053 402.6657 402.8528 402.8709 403.0419 403.3082 403.7487
   404.0123 404.5797 404.6421 404.9564 405.1027 405.4689 405.5395 407.8689
   408.9175 409.2740 409.4357 409.7798 410.2945 410.3032 410.5037 410.5628
   410.5800 410.5995 410.6079 410.6125 410.8513 410.8524 411.0320 411.2265
   411.6537 412.0721 412.1058 412.4573 412.7553 412.9942 413.3299 413.6479
   413.6490 413.6918 413.9990 414.1864 414.2280 415.2890 415.8372 415.8635
   415.9306 416.3834 416.6111 416.6888 417.5124 418.0778 418.0858 418.4414
   418.5768 419.6648 419.7324 419.8205 420.2018 420.2375 420.7495 420.7822
   420.8825 421.4382 421.6212 421.7896 422.1794 422.3547 422.3918 422.9866
   423.2098 423.2327 423.4124 423.6924 423.7209 424.3463 425.3156 425.4296
   425.4573 425.7766 425.9775 426.3256 426.6464 426.8967 426.9242 427.7456
   427.8165 427.9540 428.2850 428.4995 428.5295 428.5757 428.7513 428.8839
   429.0609 429.1047 429.1927 429.2040 429.8550 430.0280 430.1854 430.1923
   430.2875 431.6653 432.3957 432.4653 433.2764 434.0839 434.1707 434.4505
   434.9680 435.0362 435.9558 436.2021 436.3343 436.4417 436.5861 437.0427
   437.1139 437.1574 437.2131 437.7372 437.9708 438.0728 438.1307 439.1159
   439.2089 440.6184 440.7495 441.1877 441.3511 442.2167 442.3292 442.5949
   442.6891 442.7194 442.7940 443.3253 443.4036 443.4222 443.6856 444.0159
   444.0878 444.4131 444.5857 444.6652 444.6726 445.1303 445.1526 445.4867
   446.3469 446.5229 446.6846 446.6917 446.9545 446.9906 447.3540 447.6375
   448.5212 448.5727 448.6841 449.2231 449.3165 449.7377 449.8043 450.2355
   450.3143 450.8381 450.8808 450.9364 451.6189 451.6289 452.9248 452.9405
   453.0339 453.0980 455.2051 455.2676 455.3790 455.4338 455.8163 455.9308
   456.0628 456.1124 456.1410 456.2385 456.3093 456.4626 456.8915 457.5256
   457.6588 457.7865 457.8925 458.4298 458.6610 459.7257 460.6243 460.8159
   460.8756 460.8972 461.3826 461.5375 462.1528 462.4896 462.7074 463.2189
   463.3171 463.3425 463.5802 463.8925 464.1091 464.1822 464.2492 464.4523
   465.0079 465.3333 465.4890 465.5420 465.9486 465.9967 467.8264 468.0555
   468.2623 468.8177 468.8186 469.5060 469.5454 469.6680 469.7404 469.8742
   470.3567 470.4416 470.4712 470.5987 470.6560 471.3418 471.5554 471.8241
   471.8472 471.9631 472.1066 472.3453 472.8805 472.9799 473.2287 473.2414
   474.9356 474.9615 475.0637 475.0919 475.9698 476.4829 476.6103 476.6932
   476.7748 477.0553 477.1657 477.2129 477.3787 477.7675 478.0072 478.2678
   478.4756 478.5039 479.3736 479.3804 480.3253 480.6704 481.1569 481.1583
   481.4660 481.8744 482.0264 482.1904 482.2230 482.3732 482.7670 482.8088
   482.9178 482.9408 483.1180 483.1369 483.5822 483.7146 483.7772 483.8639
   483.8664 484.2055 484.4905 484.7348 486.1186 486.3281 486.4734 487.1399

          k = 0.5000 0.0000 0.5000 (  2437 PWs)   bands (ev):

   -17.4609  -4.0724  -3.6700  -3.2917   7.0553   8.7403   8.9048  10.9662
    12.2912  14.9972  15.7343  16.8097  17.8061  19.3007  21.1366  23.2466
    23.5711  24.3215  24.3439  27.6735  28.3806  29.1306  29.7050  30.3697
    31.2383  32.9248  35.4487  35.5526  36.3703  37.9397  38.7663  38.9106
    39.3783  40.2773  40.7234  40.8618  41.7708  42.1395  46.3655  48.3332
    48.3335  48.6870  50.1927  50.2771  50.7854  52.4832  52.5396  52.7999
    52.8785  53.4094  55.8501  56.0623  56.6590  57.7135  57.8225  59.5342
    59.6378  60.8192  61.1306  61.2397  63.1357  63.2797  64.1177  64.4804
    65.1557  65.2190  68.4063  68.5523  69.7441  70.5567  70.5905  70.6786
    71.5736  72.2665  72.7410  74.2603  74.5819  74.6439  74.8562  75.0504
    75.4910  78.2120  79.6294  79.8586  80.0851  80.0983  80.9769  81.0291
    81.1315  82.9074  83.8596  84.1657  84.9829  86.5652  86.8872  87.6941
    87.8468  88.0805  88.9333  89.1221  90.0076  90.4693  93.3400  94.2940
    94.5122  94.5997  94.7915  95.5869  96.3127  96.3502  96.4436  96.9812
    97.1875  97.9038  98.2256  98.2273  98.4834 100.4772 100.8736 101.6913
   101.7915 101.8296 101.8460 103.1174 104.6607 104.6814 104.7698 105.3013
   106.3239 106.4622 106.9953 107.1604 107.1657 107.2797 108.1839 110.1040
   110.2014 112.0817 113.9671 114.4095 114.4958 114.7656 114.9244 116.5045
   117.0972 117.1114 117.5591 117.7523 119.1180 119.2493 119.5053 120.2591
   120.6193 120.6583 121.1665 121.2550 121.2980 121.3031 122.1390 122.5535
   123.2748 123.8253 125.6186 126.2923 128.1508 128.5601 128.8177 128.9429
   129.9323 130.2253 130.2974 130.9545 131.1874 131.8064 132.0462 132.8642
   133.1813 133.2646 133.7036 133.8687 134.8793 135.1428 136.0750 136.1981
   137.2549 137.3328 137.8830 138.0370 138.2290 138.3297 138.8808 139.0369
   139.4816 139.5019 141.9823 142.3301 144.2425 144.9134 145.1885 145.8394
   145.9457 145.9905 146.2480 146.2666 146.7489 147.4881 147.6241 147.7320
   148.7942 148.9625 150.0643 150.2383 150.6237 151.2858 151.6664 152.1177
   152.2430 152.4840 152.5577 153.3650 153.6588 154.1066 154.6618 155.1617
   155.2990 155.3394 157.0764 158.2571 158.3572 158.8889 158.9950 159.3038
   160.2428 160.4662 161.3663 161.4308 161.4401 161.5669 163.2113 163.6065
   163.9757 164.1114 164.1290 164.3856 164.5716 164.7090 167.1444 167.1841
   167.7088 168.0608 168.2741 168.3613 168.5938 168.6961 169.4748 169.7480
   170.5101 170.7949 172.1711 172.8524 173.7007 174.2181 174.2424 174.3926
   174.4130 174.7674 175.3815 176.0971 176.1341 176.5012 177.8456 178.4895
   178.7781 178.8974 179.9802 180.4359 180.8584 181.3369 182.6068 183.2373
   183.3777 183.6646 183.6835 183.8382 183.8512 185.7572 185.8262 185.9163
   186.0795 187.1312 187.2391 187.3596 187.7359 187.7565 188.4677 188.5443
   188.9244 188.9897 189.4077 189.4923 190.0068 190.0298 190.2475 190.3598
   191.4802 192.5876 193.3808 193.5856 193.6259 193.7258 193.8154 195.6028
   195.7109 197.0388 197.2665 197.2696 197.3450 197.3468 198.0769 198.1298
   198.5450 198.8097 199.3401 199.4147 199.5785 201.3866 202.3028 202.5407
   202.6356 203.3790 204.2703 204.3000 204.4728 204.7225 204.7565 204.8599
   204.9166 204.9248 204.9707 207.1395 208.1826 208.4176 208.8036 208.8875
   209.5031 211.9318 212.2716 212.6027 212.8754 212.8816 213.6450 213.6937
   213.9088 214.0797 214.1616 214.1734 214.4164 214.4224 214.4257 214.4490
   214.6880 214.7535 214.7599 215.5704 216.0127 216.2873 216.9174 217.1230
   217.3627 218.0372 218.7945 219.1833 219.3360 220.2433 220.5452 220.7103
   220.8214 222.6419 222.8422 223.6704 223.8030 223.8178 224.0461 225.4308
   226.4701 226.5519 226.7271 226.8292 226.9229 227.0478 227.0534 227.5457
   227.7918 228.0251 228.0624 228.2371 228.2933 229.0898 229.1035 229.5328
   229.7481 230.1242 230.4634 232.5817 232.6740 232.8584 233.0359 234.4944
   235.1976 235.2563 235.6572 237.0248 237.4081 237.5081 237.5672 237.7059
   238.1314 238.1780 239.4812 239.8320 239.8764 239.9786 240.0087 240.2092
   240.2740 240.5313 240.9257 243.0356 244.0734 244.1507 244.8002 245.6033
   245.6836 246.2121 246.8918 247.8184 248.0039 248.0417 248.0550 249.2598
   249.5281 249.5386 249.6147 250.1151 250.4875 250.8192 251.2340 251.3770
   252.4241 253.0191 253.4655 253.4793 253.5557 253.5940 253.8970 254.4361
   254.4736 254.5049 254.6338 255.0235 255.1441 255.6588 255.6645 255.9187
   256.7930 256.8143 257.1216 257.5974 258.0354 258.0738 258.1530 258.4962
   258.5607 258.8843 258.9020 259.3106 259.4934 259.5243 259.5871 260.2813
   260.4262 260.4681 261.2350 262.2106 263.9339 263.9617 264.2289 264.3598
   264.4138 264.4383 265.1657 265.3711 265.4476 265.5780 266.0549 266.7293
   266.8009 267.0831 267.0834 267.1571 267.2550 269.6865 270.1112 271.2759
   271.8697 272.8765 273.1048 273.1054 273.2937 273.3296 273.4824 273.5106
   273.7690 273.7722 274.5231 275.3388 276.1534 276.2326 276.2823 276.4070
   276.6302 276.9847 277.0085 277.8220 278.1411 278.3420 278.5301 278.9630
   278.9952 279.2349 279.8396 280.0190 280.3113 280.9774 281.7972 282.1481
   282.8135 282.8842 282.9039 282.9747 283.2197 283.3521 283.6097 283.7558
   284.1218 284.3492 285.4096 286.9771 287.0032 287.2568 287.8161 288.7167
   289.6880 289.8083 289.8436 289.9099 289.9474 290.3218 291.3005 292.5339
   292.6751 293.5014 293.9348 294.1300 294.3133 294.6180 294.6522 294.6621
   294.7617 294.8279 294.8844 295.0092 295.2210 295.2746 296.7968 296.8590
   297.4739 297.5360 298.0028 298.4323 298.5219 298.8810 298.9239 298.9828
   299.4202 299.6186 299.6601 299.6900 300.1730 300.2364 301.8614 302.5484
   302.6816 302.7244 302.8482 302.8695 303.9777 304.1214 304.2213 304.3922
   304.6469 304.6582 305.6480 305.8723 306.5554 306.9077 307.1630 307.2433
   307.5738 308.2923 308.5642 308.6677 308.7754 308.8534 309.0894 310.0295
   310.2586 310.2694 310.3513 310.6334 310.8114 311.2494 312.5945 312.6190
   312.7418 313.5768 314.2915 314.3166 315.1425 315.8300 315.8793 316.0152
   316.1082 316.4784 316.9476 317.9859 318.0471 318.0643 318.6992 319.6033
   319.9613 320.4770 320.8139 321.0220 321.5475 321.8033 321.9217 322.0715
   322.1623 322.2627 322.4712 322.4726 322.6794 322.7104 322.7342 322.8528
   322.9458 323.0769 323.2781 324.2878 324.6745 324.7041 324.9123 325.0759
   325.4086 325.4936 326.6339 326.8847 327.6009 327.6084 329.7607 329.8992
   330.9821 331.4183 331.6337 331.6861 331.8086 331.9893 332.6540 332.7235
   333.2729 333.9727 334.8524 334.9235 335.1050 335.2328 336.4986 336.8627
   336.9487 336.9567 337.2794 337.3106 337.6522 337.9969 338.5030 338.6146
   338.9086 338.9135 338.9218 339.1162 339.1601 339.2924 339.3841 339.4376
   339.6728 339.8712 340.0587 340.0723 340.5828 341.4527 341.4739 341.4928
   342.4104 342.7018 342.7451 343.1978 343.4667 343.5733 345.8965 345.9999
   346.4922 346.5510 346.6606 346.7712 347.5737 347.9239 347.9637 348.0275
   348.3679 348.3774 348.7082 348.7399 348.8210 348.8334 348.9239 349.0080
   349.2904 349.2937 349.7278 349.7531 350.0329 350.0591 350.4329 350.5487
   352.1495 352.3747 352.7371 352.7748 353.5193 353.5850 353.8923 353.9269
   354.7547 354.7844 354.9241 355.6385 355.8946 356.0413 356.3790 356.6546
   356.7044 356.7895 357.4557 358.8485 359.9241 360.0894 360.1331 360.2820
   360.3402 360.8360 361.1110 361.3511 361.3620 361.4606 361.5096 361.7129
   362.5013 362.5222 362.5281 362.6071 362.7230 362.9398 363.0061 363.0212
   365.5105 366.2037 366.3336 366.4064 367.0665 367.1687 367.3180 367.4665
   368.1752 369.1794 369.2490 369.5527 369.6921 369.9577 370.0674 370.8672
   370.9082 371.0405 371.1488 371.1783 371.2154 372.4456 373.0742 373.5397
   373.8257 373.8498 374.2446 374.4691 374.8090 374.8244 374.9734 375.1235
   376.3309 376.4139 376.5027 376.5152 377.0295 377.2777 377.4541 378.0854
   378.4341 378.5055 378.6059 378.6085 378.6267 379.0687 379.5921 379.8783
   380.2891 380.3744 380.8479 381.8268 381.8366 383.5847 383.6447 383.9720
   384.3766 384.4287 384.9818 385.4657 385.4832 385.5003 385.5517 386.0307
   386.2462 386.3248 386.6222 387.1562 387.1827 387.2936 387.7570 387.7913
   388.0083 388.1139 388.7794 388.8032 388.8751 388.9519 388.9634 389.2160
   389.7114 389.7625 390.8848 391.1881 391.4110 391.9052 392.5863 392.6463
   392.7808 393.1386 393.2357 393.2650 393.3750 393.4484 393.6591 393.8779
   393.9498 394.6634 395.2935 397.2093 397.3397 397.6270 398.0617 398.2463
   398.6833 398.7572 398.8700 398.9767 399.3320 399.6942 400.3611 400.5161
   400.9812 401.3190 401.5953 401.6229 401.7396 402.0956 402.1950 402.3770
   402.3802 402.4022 402.4631 402.8033 402.8468 403.0242 403.1040 403.2938
   403.3507 407.0466 407.1330 408.1072 408.1233 408.2477 408.2542 408.4084
   408.7002 409.2630 409.3211 409.9143 410.2468 410.7935 410.8770 410.9775
   410.9829 410.9864 411.0902 413.0351 413.1381 413.3599 413.6874 413.9768
   413.9876 414.0995 414.1693 414.2780 414.6187 414.8997 414.9310 414.9447
   415.0087 415.0920 415.1697 415.6919 415.9071 416.1371 416.1935 416.5104
   416.5602 416.5673 416.5760 417.6373 417.6553 417.7690 417.8485 419.0763
   419.0975 419.1770 419.5577 419.5748 419.6116 419.7806 419.7904 420.7267
   420.7651 420.8187 420.8335 421.0877 421.1219 421.1647 421.1910 422.0785
   422.2491 423.6639 423.8291 424.0999 424.3244 425.6580 425.6636 426.7029
   427.3334 427.4801 427.5123 427.8479 427.9268 428.0039 428.2327 428.4130
   428.5815 429.0425 429.0605 429.1585 429.3382 429.3433 429.5467 429.7942
   430.1238 430.2333 430.2713 430.3029 431.0949 431.5609 432.4360 432.6376
   433.0284 433.1831 433.2490 433.4229 433.4317 433.5655 433.7544 434.7561
   434.7645 434.7757 434.9265 435.3956 435.4108 436.4597 436.6420 436.6974
   436.7180 437.1800 437.3297 438.8650 438.8661 441.4347 441.4613 441.4720
   441.8160 441.9196 442.0678 442.2889 442.3051 442.4779 442.4955 442.5175
   442.5226 443.0531 443.1951 443.3442 443.3568 443.7055 443.7377 443.7510
   443.7593 444.5567 445.0141 445.0877 445.1917 445.2222 445.4706 445.8595
   445.9829 446.1679 446.1785 447.0718 447.0927 447.0967 447.2005 447.2133
   447.2243 448.9796 449.0099 449.4097 449.6736 450.6864 450.9149 450.9590
   450.9990 451.5927 451.7662 451.7878 451.8018 452.4563 452.4744 452.5553
   452.5795 453.6114 454.2711 454.8849 454.8933 454.9602 455.2656 455.3887
   455.4343 455.8538 456.2059 456.2592 456.2705 456.3044 456.4860 457.4921
   457.5111 458.0707 458.1865 458.3503 458.8079 458.8183 458.9731 459.9906
   460.0035 460.5250 460.6401 460.6616 460.6902 460.9537 461.1569 461.2209
   461.2539 462.3972 462.4416 462.5473 462.8961 463.0156 463.0950 463.1171
   463.6625 463.6956 464.0569 465.4037 465.5049 465.9001 465.9021 465.9376
   465.9377 469.2498 469.3299 469.4132 469.4562 470.0818 470.2073 470.8246
   470.8855 472.0830 472.2418 472.3331 472.4043 472.4941 472.8187 473.0477
   473.1166 473.1938 473.2945 473.3220 473.3252 473.6089 473.6517 473.7155
   473.7257 473.9911 473.9981 474.0098 474.0333 474.1001 474.1529 477.5222
   477.5693 477.6302 477.6524 478.9057 478.9607 479.2751 479.3503 479.4411
   479.4625 479.9167 479.9225 481.2257 481.3142 481.3943 481.4301 481.7797
   482.2150 482.3207 482.3617 482.7479 482.8053 482.8734 482.9171 483.0578
   483.1443 483.1708 483.1960 483.2706 483.3028 483.3057 483.3320 483.5271
   483.5357 483.5713 483.5833 485.8006 485.8034 485.9728 486.0178 487.0114

          k = 0.0000-1.0000 0.0000 (  2450 PWs)   bands (ev):

   -17.4139  -4.2909  -3.5668  -3.5668   6.3774   7.6337  10.4265  14.0978
    14.0978  14.7404  15.3720  15.3720  16.2451  20.4686  21.2841  23.7346
    23.8515  24.7547  24.7547  25.4358  25.4358  26.0704  30.4307  30.7862
    30.7862  32.7390  36.4205  36.9014  37.5561  37.5561  38.2106  38.2975
    38.5257  40.3658  40.3658  42.5713  43.4163  44.5166  44.5166  44.9758
    47.2491  47.2491  49.3955  50.6516  50.6516  51.4417  52.2074  53.5599
    57.8915  58.5525  59.0518  59.0832  59.0832  59.1860  59.1860  59.3476
    59.7345  60.3295  60.6622  60.6622  60.7424  60.7424  61.5295  61.6508
    68.1544  69.3929  70.6391  70.7381  70.7381  71.2502  71.3516  71.3516
    72.4093  72.4935  72.4935  73.3792  73.4448  74.5681  74.5681  74.8193
    74.8193  74.9154  75.0511  75.5470  75.6041  78.7771  78.7771  78.8578
    78.8578  78.9120  81.1063  81.1146  86.8856  87.4232  88.4328  88.4328
    88.4476  88.4476  88.4961  89.3009  89.3009  89.4396  89.8298  90.7633
    92.8384  92.8384  92.8556  92.9510  96.6755  96.7557  96.7557  96.9582
    97.0438  97.0438  97.3001  97.4116 100.7685 100.7685 101.7601 103.7950
   104.5657 104.5657 105.3410 105.9303 107.9646 107.9875 109.3892 110.6670
   110.6670 111.5345 112.0961 112.0961 112.3925 112.8176 112.8176 112.8519
   113.1613 113.4581 113.5905 114.4921 114.4921 114.5101 114.5101 114.7080
   114.8505 114.9741 115.0427 115.0547 115.0547 115.2361 123.0065 123.0065
   123.0139 123.9164 124.2511 124.4383 125.0262 125.3483 125.4463 125.4463
   125.9704 125.9704 126.0936 126.0936 126.2894 126.4086 126.5660 126.5660
   126.7019 127.0006 127.0006 128.1171 128.1606 128.5636 130.4725 130.5514
   130.7812 130.7812 130.9617 130.9617 131.0334 131.1836 132.7564 133.6736
   133.7181 133.7181 133.7186 133.7343 133.7343 133.7964 134.9095 137.4687
   138.1109 138.1109 141.7806 141.7806 142.9125 143.1041 143.3985 143.3985
   143.9950 144.2694 145.4942 145.4942 145.6530 145.6795 147.0289 148.5430
   148.5959 148.5959 149.8166 149.8166 149.9456 150.1577 150.1577 150.1857
   150.1929 150.2654 151.0473 151.1228 151.2838 151.2838 155.5436 157.0395
   159.6680 159.6680 160.9561 160.9561 161.1278 161.6906 162.1127 163.9775
   164.0087 164.5886 164.5886 165.1737 165.4870 165.5910 165.5910 165.7932
   165.8539 166.6753 166.6753 166.8359 166.8863 166.9752 166.9752 167.0528
   167.1178 167.1178 167.3978 167.3978 170.2701 170.2701 170.2792 170.2900
   171.9145 174.3707 174.8232 175.0340 175.0340 175.1937 177.4347 177.7194
   178.3373 178.6142 178.6389 178.6389 178.9478 178.9478 179.7535 180.4837
   180.4837 180.8057 180.8995 180.9259 180.9643 180.9643 182.3118 182.3118
   182.4135 182.5006 182.5006 182.5020 182.5289 182.5550 183.9495 184.2441
   184.4278 184.4278 184.4983 184.4983 184.5474 184.6688 185.4591 185.6557
   185.6557 185.7985 185.8051 185.8403 185.8403 185.9114 190.9926 192.4311
   192.4311 194.7563 195.4783 195.7624 195.8148 195.8148 196.2752 197.5979
   197.6151 198.0120 198.0120 198.0431 198.0431 198.0560 198.0560 198.3699
   198.3717 198.4861 198.4898 198.4960 198.4960 198.5081 200.4302 201.8285
   202.2308 202.2308 202.2691 202.2691 202.8530 202.8552 203.0841 205.0474
   205.0717 205.5087 205.5087 205.5119 205.5119 205.7995 205.8000 207.8042
   209.4824 210.7582 210.7582 214.2282 214.2282 214.4199 214.6340 214.6879
   214.7079 214.7186 214.7186 214.7438 214.7438 214.7481 214.9483 215.1516
   215.9048 216.2280 216.7896 216.7896 216.9454 217.4977 217.7293 217.7293
   220.4507 220.4507 220.9390 221.1612 221.2225 221.2252 221.2252 221.2627
   222.2042 222.3047 222.3047 222.3344 222.3475 222.3711 222.3852 222.3852
   222.3905 222.5163 222.5163 222.5526 227.0267 228.2864 229.4166 229.9248
   229.9248 231.3981 231.3981 231.7177 231.7823 231.7823 231.7931 232.5860
   232.6331 232.6589 233.0209 233.0209 233.5949 233.5949 234.3873 235.3369
   235.3855 235.4413 235.4413 236.1052 236.2814 236.3043 236.3043 236.3831
   236.6151 236.7876 237.0207 237.0207 237.0320 237.0320 237.1495 237.5409
   237.5518 237.7660 237.7660 237.8827 239.8632 240.0677 240.0702 240.0702
   240.4910 240.6246 240.6246 240.6373 240.6589 240.6589 240.6617 240.7072
   240.7072 240.7373 240.7599 240.7599 248.2684 248.2684 250.1846 250.4773
   251.8944 252.1101 252.1794 252.1794 252.2243 252.2535 252.2535 252.3022
   252.4084 252.7149 252.7149 252.7366 252.9983 254.5874 255.4532 256.2323
   256.2460 256.2460 256.2730 256.2730 256.4852 256.4852 259.4748 262.5682
   262.5703 264.2107 264.5949 264.5949 264.9226 266.2298 267.1051 267.1051
   267.6080 267.7353 268.0491 268.1021 268.1021 268.8698 268.8805 268.8805
   268.9260 269.1009 269.1210 269.1210 271.8958 273.6383 273.6383 273.8439
   273.9496 274.0202 274.0202 274.0809 274.2155 274.7568 275.1105 275.1105
   275.1737 275.3026 275.3037 275.4058 275.4058 275.4422 275.4894 275.4894
   275.4979 275.5193 275.5557 275.6065 275.6065 275.6151 275.6151 275.6253
   275.6698 275.6981 275.7081 275.7081 279.8587 279.8827 282.3720 282.3720
   284.9755 284.9755 285.0632 285.1461 285.9290 286.0798 286.1275 286.2783
   286.4282 286.4282 286.8232 286.8232 286.9249 286.9405 286.9422 286.9922
   286.9922 287.4377 287.5068 287.5068 287.9099 287.9874 288.0620 288.0620
   288.5734 288.6628 289.4789 289.4809 289.4809 289.4907 291.0613 291.6498
   291.7936 291.9370 291.9370 291.9927 291.9927 291.9983 292.0866 292.1045
   292.1045 292.6019 292.6232 292.7871 292.7871 292.8075 292.8241 292.8241
   292.8515 292.8515 295.0014 295.0031 295.0048 295.0419 295.0419 295.0421
   295.0421 295.0805 295.6720 295.6815 299.6483 299.7886 300.3244 300.3244
   301.0551 303.1222 303.3342 303.3887 303.3887 303.5958 303.6468 303.6468
   303.8659 304.3305 304.4756 304.4756 305.3127 305.3127 305.3466 305.3487
   305.4482 305.4778 305.4778 305.5107 307.7383 307.7383 307.8017 307.8041
   307.8041 307.8118 307.8579 307.8695 308.2830 310.4657 310.4657 310.9148
   311.0023 311.0075 311.0155 311.0155 311.5470 311.7585 311.8622 311.8979
   311.8979 311.9040 311.9098 311.9128 311.9128 313.5068 316.9078 316.9078
   319.4094 320.8780 320.8780 321.7795 323.2639 323.3950 323.6550 323.6550
   323.7782 324.2985 324.2985 324.7647 324.7971 325.0679 325.3276 325.3276
   326.0078 326.1189 326.1189 326.1912 326.5936 326.5936 326.9346 326.9376
   326.9614 326.9957 326.9957 327.0644 327.0961 327.0961 327.1357 327.1797
   327.2753 327.7800 327.8043 327.8043 327.8404 327.8554 327.8554 327.8736
   329.6775 329.7095 330.2999 330.3770 330.3974 330.3974 330.4127 330.4127
   330.5665 330.5665 330.8428 330.8430 338.1085 338.9479 338.9479 339.3733
   340.8437 341.0495 341.1671 341.1844 341.1844 341.2353 341.4674 341.7094
   341.7094 341.8746 341.9159 341.9409 341.9409 341.9414 341.9414 342.0539
   342.0558 342.3966 342.5792 342.6375 342.6375 342.7040 342.7040 342.7402
   342.7513 342.7583 342.8549 342.8549 343.6340 343.8350 344.3996 344.3996
   344.4949 344.5223 345.1891 345.1891 345.8303 346.1909 346.2049 346.2049
   346.2266 346.2266 346.2553 346.2558 353.3306 354.3940 355.0823 355.0823
   356.3543 357.7439 357.7612 357.7612 357.7957 357.8434 357.8434 357.8635
   357.8640 358.2096 358.2144 358.2556 358.2556 358.8846 359.6801 359.6835
   360.0095 360.0095 360.0608 360.1553 360.2032 360.4672 360.4672 360.7550
   361.3535 361.3535 361.7286 361.7286 361.7724 361.7744 361.7898 361.7898
   361.8552 361.8693 364.6821 364.6821 364.6871 365.1015 365.1015 365.1393
   365.1408 365.2872 365.7543 365.7932 365.8008 365.8008 366.6988 366.6988
   369.0747 370.7067 371.7118 372.5181 372.5181 373.1375 374.4080 376.6591
   376.8902 376.8902 377.0350 377.0350 377.8124 378.6381 378.6398 379.2340
   379.2340 379.5853 379.6968 379.7646 380.4110 380.5581 380.5581 380.9506
   380.9506 381.5041 381.5705 381.5733 381.6677 381.6792 381.6792 381.7845
   381.7845 381.9916 382.0533 382.2768 382.2768 382.3042 382.8533 382.8673
   382.8728 382.8936 382.8936 382.9396 382.9396 382.9809 383.8324 383.9447
   383.9457 383.9457 383.9521 383.9983 384.0040 384.0040 389.6731 390.4676
   390.4676 390.8235 391.5604 393.5092 393.5195 393.5643 393.5689 393.6014
   393.6014 393.6023 393.6023 393.6596 393.7463 393.7463 393.7514 393.7817
   393.7817 393.7821 393.7954 394.3412 394.3412 394.3717 394.3717 394.3799
   394.3885 394.4590 394.5181 394.6269 394.6966 394.6966 395.3191 395.3622
   395.3622 395.4888 395.6079 395.6088 395.6224 395.6810 395.6810 395.7156
   395.7156 395.7528 395.8651 395.9357 395.9357 396.4566 398.9923 399.1755
   399.3241 399.4750 399.4769 399.4962 399.4962 399.5265 399.5326 399.5326
   399.5422 399.5422 399.5445 399.6565 399.6565 399.6733 400.1567 400.2835
   400.2835 400.4276 400.5006 400.5262 400.7745 400.7745 401.5472 401.5472
   401.5517 401.5727 401.5909 401.5974 401.5974 401.5995 402.5318 402.5327
   402.6053 402.6053 402.6112 402.6112 402.6882 402.6906 410.5388 410.5388
   410.5983 411.0430 411.7957 411.8038 411.8075 411.8146 411.8146 411.8267
   411.8267 412.0049 412.0413 412.4361 412.5119 412.5119 417.2699 417.4543
   417.5287 417.9076 417.9076 417.9546 417.9683 417.9683 417.9798 418.0041
   418.0198 418.1651 418.1651 418.1739 418.3911 418.3911 418.6602 418.6602
   418.8095 418.8953 418.9246 418.9518 418.9518 418.9629 418.9655 418.9655
   418.9804 418.9809 419.0633 419.1186 419.1613 419.1613 427.5346 427.5458
   429.2116 429.2116 430.6381 430.7343 430.7920 430.7920 431.1271 431.1271
   431.1437 431.1872 431.3014 431.3893 431.4028 431.4028 431.4029 431.5495
   432.0009 432.0009 432.2839 432.8997 432.8997 433.3956 433.5357 433.6523
   433.7344 433.7344 433.7465 433.7465 433.7470 433.7541 433.8145 434.2772
   434.2772 434.5520 435.6406 435.6408 435.6998 435.6998 435.7464 435.7464
   435.7717 435.8126 437.7879 437.8362 437.8362 437.8379 437.8395 437.8428
   437.8449 437.8449 444.2421 444.2967 444.7260 446.0862 446.0862 446.1538
   446.6748 446.7050 446.7050 446.7853 446.8732 446.8732 446.9977 447.3545
   447.3545 447.5798 447.5898 448.2223 448.4388 448.4388 448.4633 448.5317
   448.6042 448.6042 448.6961 448.6961 448.7980 448.9986 449.1799 449.3376
   449.4522 449.4522 449.5483 449.8887 449.9686 449.9761 449.9875 449.9875
   449.9881 449.9881 450.0067 450.0120 450.4065 450.4128 450.4180 450.4329
   450.4329 450.4546 450.4769 450.4769 450.8804 450.8804 450.8898 450.9084
   451.3734 451.3734 451.3921 451.3921 454.1236 454.1236 454.1393 454.1393
   455.0726 455.1628 455.2103 455.2103 455.7998 455.7998 455.8132 455.8175
   457.0531 457.0534 462.7679 463.3216 464.1825 464.1825 464.3898 464.6860
   464.7040 464.7040 465.1442 465.3100 465.3100 465.3267 465.3320 465.3328
   465.3459 465.3459 465.3851 465.4369 465.4369 465.4599 465.4882 465.5377
   465.8333 465.8333 469.0341 469.0460 469.0460 469.0582 469.0823 469.0823
   469.0931 469.1219 470.9776 471.1364 471.2175 471.3290 471.3290 471.3471
   471.6044 471.6044 472.5012 472.6301 472.6301 472.6483 472.6755 472.6755
   472.6793 472.6840 472.6938 472.7000 472.7334 472.7334 472.7349 472.7440
   472.7495 472.7495 481.4016 482.2608 482.2608 482.2965 482.7126 482.7602
   483.1363 483.1363 483.7134 484.0416 484.0416 484.0801 484.0803 484.2791
   484.2791 484.3059 484.4190 484.4276 484.4978 484.4978 484.6576 484.6625
   484.7847 484.7847 485.5831 486.8231 486.8231 486.9517 487.2006 487.2006
   488.0662 488.0738 488.4126 488.4126 488.5900 488.8707 488.8765 488.9539

          k =-0.5000-1.0000 0.0000 (  2468 PWs)   bands (ev):

   -17.4133  -3.9510  -3.9510  -3.6106   7.4444   8.9068   8.9068  10.4523
    14.9256  14.9256  15.3944  15.5787  18.6524  21.2137  21.5191  21.5191
    23.9330  24.0795  24.0795  25.1718  29.3878  30.1748  30.3402  30.3402
    30.5488  30.7924  32.5446  32.5446  36.2756  37.3918  37.3918  38.4326
    39.8125  39.8125  41.1656  44.1129  45.0848  47.3536  47.5877  47.5877
    48.3476  48.5805  49.2660  49.2660  50.1350  51.2379  51.2379  52.4733
    54.7494  56.4692  56.6471  57.2443  57.2443  58.0653  58.3981  58.3981
    60.4566  60.4566  61.8920  63.3201  63.6369  63.9871  63.9871  64.0639
    65.0522  65.7822  65.7822  67.6851  70.6427  70.8840  71.8334  71.8334
    72.5070  72.5070  72.9420  74.4005  74.5501  74.5501  74.5694  75.5735
    75.8191  76.0914  76.0914  76.1880  79.6265  79.6265  79.7481  81.0069
    81.2136  81.7990  81.8508  81.8508  84.9758  85.0178  85.0178  85.0298
    86.3050  86.3050  86.5073  86.5986  87.6496  87.6496  88.3545  89.2845
    90.0209  91.1288  93.7597  93.7597  98.3665  98.4712  99.0295  99.0295
   100.2159 101.2601 101.2601 101.3103 102.9389 103.3903 104.6148 104.6148
   105.4856 105.4856 106.9807 107.4204 107.9082 108.1799 108.1799 108.3039
   108.3927 109.1400 109.1400 111.3312 111.4534 111.4752 111.4752 111.6617
   112.0462 112.0462 112.0953 112.1167 113.3630 113.3682 113.3862 113.3862
   116.5697 116.5697 117.0412 117.4203 118.4332 118.5293 118.5293 118.6923
   118.7011 119.5936 119.5936 119.6189 120.0751 120.0751 120.6046 123.8038
   127.0947 127.1307 127.5569 127.7062 127.7355 127.7355 128.2243 128.2243
   128.8057 128.8057 128.8144 128.9076 129.5774 129.6052 129.6468 129.6468
   132.8702 133.0733 133.4639 133.4639 133.9703 134.1971 134.5103 134.5189
   134.5189 136.0909 136.9965 137.3214 137.3214 137.7823 138.2760 138.2760
   139.1294 139.2414 139.2414 139.2494 139.2883 139.3151 139.3151 139.3583
   143.2601 143.2601 144.3914 144.7910 144.9174 144.9174 144.9607 145.2188
   150.8096 151.4864 151.8375 151.8375 152.1646 153.1997 153.1997 153.5974
   153.6699 153.7177 153.7177 154.4354 154.7913 154.7913 155.2133 156.5440
   156.9126 156.9294 157.0589 157.0589 158.8474 159.8761 160.5428 160.5428
   161.6862 163.3974 163.3974 163.9195 164.2189 164.2189 164.2538 164.4179
   164.7606 164.9741 164.9745 164.9745 165.0185 165.1576 165.2532 165.2532
   165.3200 165.4691 165.4756 165.4756 169.0745 170.1503 170.2048 170.7998
   170.7998 171.8854 172.8667 172.8667 173.0907 174.1364 174.5364 174.5364
   174.7188 174.8908 175.1914 175.1914 177.7630 177.7630 178.6088 180.1682
   180.4470 180.5667 180.5667 180.5896 182.9806 183.2175 183.2175 183.2519
   183.3189 185.9956 185.9956 186.8773 187.1993 188.4661 188.8354 188.8794
   188.8794 189.1356 189.2280 189.2280 189.3782 189.3923 189.5747 189.5747
   189.8261 189.9245 189.9721 190.8201 190.9367 190.9367 192.1007 192.1007
   192.7854 192.8001 192.8031 192.8031 192.9130 192.9226 192.9226 194.8670
   197.3962 198.0884 198.5021 199.1299 199.1299 199.3613 199.5380 199.5380
   199.5920 199.5920 199.8146 199.9606 200.0110 200.0110 200.0202 200.0453
   203.0000 203.6997 204.2513 204.2513 204.6527 205.6773 205.6773 205.7137
   205.9646 206.1814 206.1814 206.3298 206.5278 206.5278 207.0657 207.1006
   208.8233 208.9020 208.9237 208.9237 209.1935 210.5090 210.5105 210.5362
   210.5362 210.8954 210.9477 210.9477 210.9704 210.9704 210.9832 211.0261
   211.6287 212.5168 212.5168 213.4594 215.1849 215.2845 215.5623 215.9048
   215.9048 216.0443 216.1144 216.1144 219.3022 219.3022 219.3537 219.3550
   220.8707 220.8707 220.8768 220.9187 221.8104 222.3613 222.3613 222.5146
   222.7323 225.0800 225.0800 225.1301 225.4616 225.9803 225.9803 226.2125
   226.4163 226.5295 226.5343 226.5343 231.4350 231.4350 232.2634 232.4186
   232.6415 234.7449 234.7449 234.7879 235.0471 235.1327 235.1327 235.7097
   235.7282 235.7796 235.7796 235.7840 236.7787 236.7787 237.1575 238.3108
   240.2387 240.5733 240.9374 240.9374 241.1364 241.2896 241.2896 241.3815
   242.9346 243.7215 243.7293 243.7293 243.9552 244.3019 244.4021 244.7108
   244.7108 244.7420 244.8756 244.8756 245.8916 246.3608 246.5697 246.6950
   246.6950 246.7195 246.7323 246.7323 248.2630 248.4273 250.0956 250.0956
   250.1794 250.2927 251.4863 251.7835 251.7835 251.9781 252.0058 252.0328
   252.1675 252.1675 253.3803 253.5748 253.5748 253.6696 254.6511 254.6511
   256.6645 256.8136 257.3609 257.3609 258.3603 260.6036 260.6036 260.7675
   260.8979 261.2164 261.2662 262.6738 262.6738 262.7248 262.7401 262.7401
   262.8472 263.2232 264.0624 264.0624 264.0941 264.1190 264.6213 264.6213
   265.7120 265.7120 265.7125 265.7184 267.8088 267.8088 267.8312 268.5532
   269.5809 269.7037 269.7037 270.6901 270.8991 271.1080 271.1080 271.2923
   271.3114 271.3973 271.4134 271.4134 272.5288 272.8542 272.8542 272.8841
   273.1032 273.1054 273.1054 273.1105 276.5411 277.9545 277.9545 278.3259
   278.7055 279.2228 279.3802 280.6289 280.6289 281.1359 281.1359 282.5189
   283.8338 285.7666 285.7857 285.7857 285.9516 285.9516 286.1665 286.3289
   287.3860 287.6564 287.6564 288.0082 288.5739 288.8097 288.8381 288.8381
   288.9529 288.9742 288.9742 289.0649 289.3112 289.3112 289.5917 289.8908
   290.7683 290.7722 290.7722 290.7765 291.4973 291.5126 291.5144 291.5166
   291.5166 291.5666 291.5686 291.5686 293.8122 294.4981 294.9066 294.9066
   295.2735 295.5527 295.6697 295.6697 295.6933 295.9247 296.0046 296.0046
   296.4954 296.4954 296.5422 296.6422 296.7438 297.0173 297.0173 297.3149
   298.9307 299.0475 299.0475 299.0689 299.6253 299.7245 299.7866 299.7866
   300.0152 300.0903 300.0903 300.1046 300.5373 300.6038 300.6122 300.6122
   300.6233 300.6321 300.6321 300.6502 305.8496 306.6927 306.6927 306.8893
   307.4506 307.4698 307.4950 307.5373 307.5373 307.6136 307.6136 307.7964
   310.5368 310.8606 310.8606 310.8612 312.1875 314.0612 314.0612 314.1787
   314.4658 314.4973 314.5271 314.8557 314.8557 314.9632 314.9632 314.9749
   314.9772 315.1222 315.1222 315.2592 316.1735 316.1735 316.1918 316.2230
   316.2257 316.2571 316.2868 316.2868 317.7613 317.8554 317.8668 317.8668
   318.9509 321.9292 322.0834 322.7135 322.7851 322.7851 323.2890 323.2890
   323.4016 323.5952 323.8645 323.9522 323.9522 324.0521 324.0662 324.2317
   324.4493 324.4493 324.4750 324.4959 324.7069 324.7069 325.2047 325.4518
   325.4518 325.4858 325.5355 325.5549 325.6599 325.6599 326.6843 326.6843
   327.2018 327.2018 327.2092 327.2170 333.1903 333.4943 333.4943 333.7177
   333.7522 334.3030 334.3030 334.3097 334.3420 334.3420 334.4132 334.5309
   334.5493 334.5968 334.6643 334.6643 338.0621 338.0621 338.2120 338.6740
   339.5626 340.6769 340.6769 340.9679 341.1279 341.3034 341.3034 341.4675
   341.5366 341.7650 341.9827 341.9827 342.6630 342.6630 343.2992 343.6085
   344.7452 344.7501 344.7986 344.7986 344.8814 344.9272 344.9272 344.9312
   351.2412 351.5629 351.6080 352.1701 352.1701 352.2984 352.3398 352.3398
   352.6980 352.7499 352.7499 352.7982 353.3321 353.5264 353.5264 353.5787
   356.1502 356.7182 356.7182 357.0647 357.3139 359.2172 359.2570 359.2570
   359.3662 359.7138 359.7138 359.9457 360.1267 360.5119 360.5439 360.5439
   360.6431 360.7744 360.7744 360.8734 360.8794 360.9304 361.0270 361.0270
   361.2127 361.2595 361.2595 361.5285 365.3177 366.9044 367.1851 367.1851
   368.5393 368.6931 368.7527 368.8047 368.8047 368.9605 369.3739 369.5398
   369.5398 369.9662 369.9662 370.0501 370.1853 370.2417 370.2417 370.2878
   370.3079 370.3201 372.5304 372.5304 373.8992 374.5404 374.5404 374.9522
   375.0320 375.4411 375.7435 375.7435 376.4282 376.8746 377.0961 377.0961
   377.1979 377.1979 377.4456 377.4740 377.5325 377.6229 377.7786 377.7786
   377.8647 377.9836 377.9860 377.9860 378.1373 378.4009 378.6783 378.6783
   378.9014 378.9573 378.9575 379.0004 379.0004 379.1449 379.1449 379.3936
   380.4252 380.4348 380.4348 380.4390 380.9581 380.9809 380.9816 380.9816
   381.1399 381.1711 381.1711 381.1744 381.1812 381.1867 381.1867 381.1954
   385.8922 385.9328 385.9328 386.1828 386.6872 386.8677 387.1106 387.1241
   387.1241 387.4158 387.7486 387.9298 387.9298 387.9789 388.0076 388.0076
   388.0440 388.2155 388.2155 388.2425 388.2430 388.2430 388.2745 388.2779
   388.3129 388.3170 388.5574 388.5574 393.3696 394.1715 394.1715 394.8568
   395.7110 396.0662 396.3786 396.5003 396.5130 396.5130 396.8446 396.8446
   398.5884 398.5884 398.6752 398.6823 399.0644 399.0644 400.2159 400.4783
   401.2629 401.3962 402.6728 402.7061 402.7061 402.7915 402.8731 402.9391
   403.2551 403.2551 405.1160 405.1160 405.1898 405.2906 405.5334 405.5408
   405.5903 405.5903 405.6242 405.6635 405.6635 405.6957 405.7372 405.7804
   406.0001 406.0001 407.2122 407.2122 408.2059 408.2061 408.2143 408.2143
   408.2145 408.2238 408.2238 408.2403 411.5844 411.6188 411.6188 412.1378
   412.3720 412.7756 412.9234 412.9234 413.0714 413.1041 413.3391 413.3391
   414.4172 414.4434 414.4538 414.4538 414.8468 414.8882 414.8882 414.9356
   419.1149 419.1149 419.1845 419.6495 420.0021 420.8798 420.9952 420.9952
   421.8370 422.0035 422.0035 422.0486 422.0622 422.1550 422.1550 422.1901
   422.2760 422.3249 422.6318 422.6318 423.7224 423.7224 423.9078 423.9206
   423.9519 424.0070 424.0070 424.0602 425.3583 425.3592 425.3592 425.3636
   425.4234 425.4386 425.4386 425.4498 427.0533 427.0533 427.0567 427.0654
   428.3097 428.3352 428.3352 428.9935 429.2648 429.3570 429.3570 429.7728
   430.6342 431.1742 431.3390 431.8735 431.8735 431.8977 432.0428 432.0428
   432.1677 432.1677 432.2111 432.4164 432.6339 432.6339 432.6342 432.6384
   432.7383 432.7469 432.7617 432.7617 432.7945 432.9756 432.9756 433.0035
   433.0670 433.0903 433.2472 433.2472 434.8541 434.9060 434.9137 434.9137
   434.9231 434.9350 434.9353 434.9353 440.4318 440.8990 440.8990 441.1599
   441.5121 441.7086 441.8171 441.8956 441.8956 441.9363 441.9860 441.9860
   444.8835 446.1177 446.3403 446.3403 446.8727 447.0320 447.0320 447.2786
   447.3150 447.4760 447.4760 447.8487 448.1497 448.6835 448.6835 448.7391
   448.7808 448.9670 449.2343 449.2343 449.7834 449.8739 449.8739 449.9165
   451.9053 451.9359 451.9421 451.9421 452.7832 452.8223 452.8225 452.8251
   452.8251 452.8453 452.8461 452.8461 456.9826 457.3158 457.3158 457.3680
   457.7545 457.8141 457.8141 458.1440 458.2312 458.2358 458.2358 458.3149
   458.9860 459.0656 459.0656 459.1400 459.2888 459.3023 459.3249 459.3323
   459.3323 459.3806 459.3867 459.4130 459.4130 459.5917 459.5917 459.7077
   459.8178 459.8228 459.8352 459.8352 459.9404 459.9453 460.0029 460.0029
   461.4775 461.4982 461.4982 461.5161 462.9932 462.9932 463.5084 463.5985
   468.0721 468.3029 468.3029 468.4474 468.4721 468.4963 468.5121 468.5121
   468.8587 468.8628 468.8882 468.8882 468.8961 468.9945 469.0174 469.0174
   474.0318 474.2230 474.6550 474.6550 474.9952 475.1463 475.1463 475.2757
   475.4721 475.4721 475.5317 475.5546 477.3053 477.3502 477.3502 477.5343
   477.5493 477.5604 477.5742 477.5742 477.6101 477.6489 477.6489 477.6495
   479.0031 479.0807 479.0891 479.0891 479.2515 479.2515 479.2567 479.2605
   481.9495 481.9495 482.0100 482.0515 482.4111 482.6716 482.7559 482.8278
   482.8278 482.9716 483.0845 483.0845 484.7327 484.7606 484.7606 484.7836
   485.2756 485.4044 485.4703 485.6423 485.6423 485.6455 485.7283 485.7283

     the Fermi energy is    -1.7572 ev
     (compare with:    -1.7524 eV, computed in scf)

     Writing all to output data dir out/mp-612118.save/
 
     init_run     :      0.04s CPU      0.05s WALL (       1 calls)
     electrons    :    548.27s CPU    588.65s WALL (       1 calls)

     Called by init_run:
     wfcinit      :      0.00s CPU      0.00s WALL (       1 calls)
     potinit      :      0.01s CPU      0.01s WALL (       1 calls)
     hinit0       :      0.01s CPU      0.01s WALL (       1 calls)

     Called by electrons:
     c_bands      :    548.27s CPU    588.65s WALL (       1 calls)
     v_of_rho     :      0.01s CPU      0.01s WALL (       1 calls)

     Called by c_bands:
     init_us_2    :      0.00s CPU      0.00s WALL (       8 calls)
     init_us_2:cp :      0.00s CPU      0.00s WALL (       8 calls)
     paro_k       :    530.14s CPU    569.33s WALL (       8 calls)

     Called by paro_*:
     h_psi        :     10.21s CPU     10.70s WALL (     833 calls)
     g_psi        :      0.22s CPU      0.25s WALL (   79871 calls)

     Called by h_psi:
     h_psi:calbec :      0.16s CPU      0.17s WALL (     833 calls)
     vloc_psi     :      9.87s CPU     10.35s WALL (     833 calls)
     add_vuspsi   :      0.11s CPU      0.12s WALL (     833 calls)

     General routines
     calbec       :      0.16s CPU      0.16s WALL (     833 calls)
     fft          :      0.00s CPU      0.01s WALL (      10 calls)
     fftw         :      8.80s CPU      9.23s WALL (  132756 calls)
 
     Parallel routines
 
     PWSCF        :   9m 9.05s CPU   9m49.75s WALL

 
   This run was terminated on:  22:45:30  14Nov2023            

=------------------------------------------------------------------------------=
   JOB DONE.
=------------------------------------------------------------------------------=
