
     Program PWSCF v.7.1 starts on 15Nov2023 at  1:54:37 

     This program is part of the open-source Quantum ESPRESSO suite
     for quantum simulation of materials; please cite
         "P. Giannozzi et al., J. Phys.:Condens. Matter 21 395502 (2009);
         "P. Giannozzi et al., J. Phys.:Condens. Matter 29 465901 (2017);
         "P. Giannozzi et al., J. Chem. Phys. 152 154105 (2020);
          URL http://www.quantum-espresso.org", 
     in publications or presentations arising from this work. More details at
     http://www.quantum-espresso.org/quote

     Parallel version (MPI), running on    24 processors

     MPI processes distributed on     1 nodes
     123464 MiB available memory on the printing compute node when the environment starts
 
     Reading input from pw_mp-612118_scf_k3000_E58.in
Warning: card &CELL ignored
Warning: card / ignored

     Current dimensions of program PWSCF are:
     Max number of different atomic species (ntypx) = 10
     Max number of k-points (npk) =  40000
     Max angular momentum in pseudopotentials (lmaxx) =  4
 
     K-points division:     npool     =       2
     R & G space division:  proc/nbgrp/npool/nimage =      12
     Subspace diagonalization in iterative solution of the eigenvalue problem:
     a serial algorithm will be used

 
     Parallelization info
     --------------------
     sticks:   dense  smooth     PW     G-vecs:    dense   smooth      PW
     Min          79      79     24                 1632     1632     273
     Max          80      80     25                 1635     1635     275
     Sum         955     955    295                19603    19603    3287
 
     Using Slab Decomposition
 


     bravais-lattice index     =            2
     lattice parameter (alat)  =      10.9472  a.u.
     unit-cell volume          =     327.9847 (a.u.)^3
     number of atoms/cell      =            1
     number of atomic types    =            1
     number of electrons       =         8.00
     number of Kohn-Sham states=            8
     kinetic-energy cutoff     =      58.0000  Ry
     charge density cutoff     =     232.0000  Ry
     scf convergence threshold =      1.0E-10
     mixing beta               =       0.7000
     number of iterations used =            8  plain     mixing
     Exchange-correlation= PBE
                           (   1   4   3   4   0   0   0)

     celldm(1)=  10.947237  celldm(2)=   0.000000  celldm(3)=   0.000000
     celldm(4)=   0.000000  celldm(5)=   0.000000  celldm(6)=   0.000000

     crystal axes: (cart. coord. in units of alat)
               a(1) = (  -0.500000   0.000000   0.500000 )  
               a(2) = (   0.000000   0.500000   0.500000 )  
               a(3) = (  -0.500000   0.500000   0.000000 )  

     reciprocal axes: (cart. coord. in units 2 pi/alat)
               b(1) = ( -1.000000 -1.000000  1.000000 )  
               b(2) = (  1.000000  1.000000  1.000000 )  
               b(3) = ( -1.000000  1.000000 -1.000000 )  


     PseudoPot. # 1 for Kr read from file:
     /usr/scratch4/magr4985/MG/HTDF/pseudo/SG15/Kr.upf
     MD5 check sum: 4a275f71d3bc7366299250ec96e82e35
     Pseudo is Norm-conserving, Zval =  8.0
     Generated using ONCVPSP code by D. R. Hamann
     Using radial grid of  602 points,  6 beta functions with: 
                l(1) =   0
                l(2) =   0
                l(3) =   1
                l(4) =   1
                l(5) =   2
                l(6) =   2

     atomic species   valence    mass     pseudopotential
        Kr             8.00    83.79800     Kr( 1.00)

     48 Sym. Ops., with inversion, found



   Cartesian axes

     site n.     atom                  positions (alat units)
         1           Kr  tau(   1) = (   0.0000000   0.0000000   0.0000000  )

     number of k points=   104  Gaussian smearing, width (Ry)=  0.0005

     Number of k-points >= 100: set verbosity='high' to print them.

     Dense  grid:    19603 G-vectors     FFT dimensions: (  40,  40,  40)

     Estimated max dynamical RAM per process >       2.54 MB

     Estimated total dynamical RAM >      56.08 MB

     Initial potential from superposition of free atoms

     starting charge       7.9946, renormalised to       8.0000
     Starting wfcs are random

     total cpu time spent up to now is        0.5 secs

     Self-consistent Calculation

     iteration #  1     ecut=    58.00 Ry     beta= 0.70
     Davidson diagonalization with overlap
     ethr =  1.00E-02,  avg # of iterations =  7.4

     Threshold (ethr) on eigenvalues was too large:
     Diagonalizing with lowered threshold

     Davidson diagonalization with overlap
     ethr =  6.40E-07,  avg # of iterations =  8.5

     total cpu time spent up to now is        1.6 secs

     total energy              =     -37.17791068 Ry
     estimated scf accuracy    <       0.00000079 Ry

     iteration #  2     ecut=    58.00 Ry     beta= 0.70
     Davidson diagonalization with overlap
     ethr =  9.83E-09,  avg # of iterations =  2.0

     total cpu time spent up to now is        1.9 secs

     total energy              =     -37.17791149 Ry
     estimated scf accuracy    <       0.00000006 Ry

     iteration #  3     ecut=    58.00 Ry     beta= 0.70
     Davidson diagonalization with overlap
     ethr =  8.07E-10,  avg # of iterations =  2.0

     total cpu time spent up to now is        2.2 secs

     total energy              =     -37.17791162 Ry
     estimated scf accuracy    <          4.1E-09 Ry

     iteration #  4     ecut=    58.00 Ry     beta= 0.70
     Davidson diagonalization with overlap
     ethr =  5.07E-11,  avg # of iterations =  2.0

     total cpu time spent up to now is        2.4 secs

     End of self-consistent calculation

     Number of k-points >= 100: set verbosity='high' to print the bands.

     the Fermi energy is    -1.7523 ev

!    total energy              =     -37.17791163 Ry
     estimated scf accuracy    <          4.8E-11 Ry
     smearing contrib. (-TS)   =      -0.00000000 Ry
     internal energy E=F+TS    =     -37.17791163 Ry

     The total energy is F=E-TS. E is the sum of the following terms:
     one-electron contribution =     -12.09017236 Ry
     hartree contribution      =       8.07790472 Ry
     xc contribution           =      -6.36151386 Ry
     ewald contribution        =     -26.80413012 Ry

     convergence has been achieved in   4 iterations

     Writing all to output data dir out/mp-612118.save/
 
     init_run     :      0.20s CPU      0.30s WALL (       1 calls)
     electrons    :      1.71s CPU      2.01s WALL (       1 calls)

     Called by init_run:
     wfcinit      :      0.18s CPU      0.24s WALL (       1 calls)
     potinit      :      0.00s CPU      0.01s WALL (       1 calls)
     hinit0       :      0.01s CPU      0.04s WALL (       1 calls)

     Called by electrons:
     c_bands      :      1.51s CPU      1.72s WALL (       5 calls)
     sum_band     :      0.18s CPU      0.21s WALL (       5 calls)
     v_of_rho     :      0.01s CPU      0.02s WALL (       5 calls)
     mix_rho      :      0.00s CPU      0.00s WALL (       5 calls)

     Called by c_bands:
     init_us_2    :      0.03s CPU      0.03s WALL (     572 calls)
     init_us_2:cp :      0.03s CPU      0.03s WALL (     572 calls)
     cegterg      :      1.32s CPU      1.42s WALL (     260 calls)

     Called by *egterg:
     cdiaghg      :      0.13s CPU      0.14s WALL (    1360 calls)
     h_psi        :      1.23s CPU      1.34s WALL (    1464 calls)
     g_psi        :      0.01s CPU      0.01s WALL (    1152 calls)

     Called by h_psi:
     h_psi:calbec :      0.04s CPU      0.04s WALL (    1464 calls)
     vloc_psi     :      1.16s CPU      1.26s WALL (    1464 calls)
     add_vuspsi   :      0.02s CPU      0.02s WALL (    1464 calls)

     General routines
     calbec       :      0.03s CPU      0.04s WALL (    1464 calls)
     fft          :      0.01s CPU      0.04s WALL (      50 calls)
     ffts         :      0.00s CPU      0.00s WALL (       5 calls)
     fftw         :      1.18s CPU      1.29s WALL (   19264 calls)
     davcio       :      0.02s CPU      0.13s WALL (     900 calls)
 
     Parallel routines
 
     PWSCF        :      2.14s CPU      3.69s WALL

 
   This run was terminated on:   1:54:40  15Nov2023            

=------------------------------------------------------------------------------=
   JOB DONE.
=------------------------------------------------------------------------------=
