
     Program PWSCF v.7.1 starts on 30Nov2023 at 11:13:27 

     This program is part of the open-source Quantum ESPRESSO suite
     for quantum simulation of materials; please cite
         "P. Giannozzi et al., J. Phys.:Condens. Matter 21 395502 (2009);
         "P. Giannozzi et al., J. Phys.:Condens. Matter 29 465901 (2017);
         "P. Giannozzi et al., J. Chem. Phys. 152 154105 (2020);
          URL http://www.quantum-espresso.org", 
     in publications or presentations arising from this work. More details at
     http://www.quantum-espresso.org/quote

     Parallel version (MPI), running on    24 processors

     MPI processes distributed on     1 nodes
     122406 MiB available memory on the printing compute node when the environment starts
 
     Reading input from pw_mp-2542_scf_k3000_E69.in
Warning: card &CELL ignored
Warning: card / ignored

     Current dimensions of program PWSCF are:
     Max number of different atomic species (ntypx) = 10
     Max number of k-points (npk) =  40000
     Max angular momentum in pseudopotentials (lmaxx) =  4
 
     R & G space division:  proc/nbgrp/npool/nimage =      24
     Subspace diagonalization in iterative solution of the eigenvalue problem:
     a serial algorithm will be used

 
     Parallelization info
     --------------------
     sticks:   dense  smooth     PW     G-vecs:    dense   smooth      PW
     Min          20      20      6                  598      598      98
     Max          21      21      7                  605      605     103
     Sum         499     499    151                14449    14449    2383
 
     Using Slab Decomposition
 


     bravais-lattice index     =            4
     lattice parameter (alat)  =       5.0914  a.u.
     unit-cell volume          =     185.6482 (a.u.)^3
     number of atoms/cell      =            4
     number of atomic types    =            2
     number of electrons       =        20.00
     number of Kohn-Sham states=           20
     kinetic-energy cutoff     =      69.0000  Ry
     charge density cutoff     =     276.0000  Ry
     scf convergence threshold =      1.0E-10
     mixing beta               =       0.7000
     number of iterations used =            8  plain     mixing
     Exchange-correlation= PBE
                           (   1   4   3   4   0   0   0)

     celldm(1)=   5.091445  celldm(2)=   0.000000  celldm(3)=   1.624191
     celldm(4)=   0.000000  celldm(5)=   0.000000  celldm(6)=   0.000000

     crystal axes: (cart. coord. in units of alat)
               a(1) = (   1.000000   0.000000   0.000000 )  
               a(2) = (  -0.500000   0.866025   0.000000 )  
               a(3) = (   0.000000   0.000000   1.624191 )  

     reciprocal axes: (cart. coord. in units 2 pi/alat)
               b(1) = (  1.000000  0.577350  0.000000 )  
               b(2) = (  0.000000  1.154701  0.000000 )  
               b(3) = (  0.000000  0.000000  0.615691 )  


     PseudoPot. # 1 for Be read from file:
     /usr/scratch4/magr4985/MG/HTDF/pseudo/SG15/Be.upf
     MD5 check sum: dc1f98d164da9dc61a6fd2fad64b4ce2
     Pseudo is Norm-conserving, Zval =  4.0
     Generated using ONCVPSP code by D. R. Hamann
     Using radial grid of  602 points,  4 beta functions with: 
                l(1) =   0
                l(2) =   0
                l(3) =   1
                l(4) =   1

     PseudoPot. # 2 for O  read from file:
     /usr/scratch4/magr4985/MG/HTDF/pseudo/SG15/O.upf
     MD5 check sum: e36c48deb68f4e355fffe4602be2c42c
     Pseudo is Norm-conserving, Zval =  6.0
     Generated using ONCVPSP code by D. R. Hamann
     Using radial grid of  602 points,  4 beta functions with: 
                l(1) =   0
                l(2) =   0
                l(3) =   1
                l(4) =   1

     atomic species   valence    mass     pseudopotential
        Be             4.00     9.01220     Be( 1.00)
        O              6.00    15.99940     O ( 1.00)

     12 Sym. Ops. (no inversion) found ( 6 have fractional translation)



   Cartesian axes

     site n.     atom                  positions (alat units)
         1           Be  tau(   1) = (   0.5000000   0.2886752   0.0002601  )
         2           Be  tau(   2) = (   0.0000000   0.5773502   0.8123555  )
         3           O   tau(   3) = (   0.5000000   0.2886752   0.6128719  )
         4           O   tau(   4) = (   0.0000000   0.5773502   1.4249672  )

     number of k points=    56  Gaussian smearing, width (Ry)=  0.0005
                       cart. coord. in units 2pi/alat
        k(    1) = (   0.0000000   0.0000000   0.0000000), wk =   0.0033333
        k(    2) = (   0.0000000   0.0000000   0.1026152), wk =   0.0066667
        k(    3) = (   0.0000000   0.0000000   0.2052304), wk =   0.0066667
        k(    4) = (   0.0000000   0.0000000  -0.3078456), wk =   0.0033333
        k(    5) = (   0.0000000   0.1154701   0.0000000), wk =   0.0200000
        k(    6) = (   0.0000000   0.1154701   0.1026152), wk =   0.0400000
        k(    7) = (   0.0000000   0.1154701   0.2052304), wk =   0.0400000
        k(    8) = (   0.0000000   0.1154701  -0.3078456), wk =   0.0200000
        k(    9) = (   0.0000000   0.2309401   0.0000000), wk =   0.0200000
        k(   10) = (   0.0000000   0.2309401   0.1026152), wk =   0.0400000
        k(   11) = (   0.0000000   0.2309401   0.2052304), wk =   0.0400000
        k(   12) = (   0.0000000   0.2309401  -0.3078456), wk =   0.0200000
        k(   13) = (   0.0000000   0.3464102   0.0000000), wk =   0.0200000
        k(   14) = (   0.0000000   0.3464102   0.1026152), wk =   0.0400000
        k(   15) = (   0.0000000   0.3464102   0.2052304), wk =   0.0400000
        k(   16) = (   0.0000000   0.3464102  -0.3078456), wk =   0.0200000
        k(   17) = (   0.0000000   0.4618802   0.0000000), wk =   0.0200000
        k(   18) = (   0.0000000   0.4618802   0.1026152), wk =   0.0400000
        k(   19) = (   0.0000000   0.4618802   0.2052304), wk =   0.0400000
        k(   20) = (   0.0000000   0.4618802  -0.3078456), wk =   0.0200000
        k(   21) = (   0.0000000  -0.5773503   0.0000000), wk =   0.0100000
        k(   22) = (   0.0000000  -0.5773503   0.1026152), wk =   0.0200000
        k(   23) = (   0.0000000  -0.5773503   0.2052304), wk =   0.0200000
        k(   24) = (   0.0000000  -0.5773503  -0.3078456), wk =   0.0100000
        k(   25) = (   0.1000000   0.1732051   0.0000000), wk =   0.0200000
        k(   26) = (   0.1000000   0.1732051   0.1026152), wk =   0.0400000
        k(   27) = (   0.1000000   0.1732051   0.2052304), wk =   0.0400000
        k(   28) = (   0.1000000   0.1732051  -0.3078456), wk =   0.0200000
        k(   29) = (   0.1000000   0.2886751   0.0000000), wk =   0.0400000
        k(   30) = (   0.1000000   0.2886751   0.1026152), wk =   0.0800000
        k(   31) = (   0.1000000   0.2886751   0.2052304), wk =   0.0800000
        k(   32) = (   0.1000000   0.2886751  -0.3078456), wk =   0.0400000
        k(   33) = (   0.1000000   0.4041452   0.0000000), wk =   0.0400000
        k(   34) = (   0.1000000   0.4041452   0.1026152), wk =   0.0800000
        k(   35) = (   0.1000000   0.4041452   0.2052304), wk =   0.0800000
        k(   36) = (   0.1000000   0.4041452  -0.3078456), wk =   0.0400000
        k(   37) = (   0.1000000   0.5196152   0.0000000), wk =   0.0400000
        k(   38) = (   0.1000000   0.5196152   0.1026152), wk =   0.0800000
        k(   39) = (   0.1000000   0.5196152   0.2052304), wk =   0.0800000
        k(   40) = (   0.1000000   0.5196152  -0.3078456), wk =   0.0400000
        k(   41) = (   0.2000000   0.3464102   0.0000000), wk =   0.0200000
        k(   42) = (   0.2000000   0.3464102   0.1026152), wk =   0.0400000
        k(   43) = (   0.2000000   0.3464102   0.2052304), wk =   0.0400000
        k(   44) = (   0.2000000   0.3464102  -0.3078456), wk =   0.0200000
        k(   45) = (   0.2000000   0.4618802   0.0000000), wk =   0.0400000
        k(   46) = (   0.2000000   0.4618802   0.1026152), wk =   0.0800000
        k(   47) = (   0.2000000   0.4618802   0.2052304), wk =   0.0800000
        k(   48) = (   0.2000000   0.4618802  -0.3078456), wk =   0.0400000
        k(   49) = (   0.2000000   0.5773503   0.0000000), wk =   0.0200000
        k(   50) = (   0.2000000   0.5773503   0.1026152), wk =   0.0400000
        k(   51) = (   0.2000000   0.5773503   0.2052304), wk =   0.0400000
        k(   52) = (   0.2000000   0.5773503  -0.3078456), wk =   0.0200000
        k(   53) = (   0.3000000   0.5196152   0.0000000), wk =   0.0200000
        k(   54) = (   0.3000000   0.5196152   0.1026152), wk =   0.0400000
        k(   55) = (   0.3000000   0.5196152   0.2052304), wk =   0.0400000
        k(   56) = (   0.3000000   0.5196152  -0.3078456), wk =   0.0200000

     Dense  grid:    14449 G-vectors     FFT dimensions: (  27,  27,  48)

     Estimated max dynamical RAM per process >       2.63 MB

     Estimated total dynamical RAM >      63.10 MB

     Initial potential from superposition of free atoms

     starting charge      19.9483, renormalised to      20.0000
     Starting wfcs are random

     total cpu time spent up to now is        0.3 secs

     Self-consistent Calculation

     iteration #  1     ecut=    69.00 Ry     beta= 0.70
     Davidson diagonalization with overlap
     ethr =  1.00E-02,  avg # of iterations =  8.0

     total cpu time spent up to now is        1.3 secs

     total energy              =    -117.45747121 Ry
     estimated scf accuracy    <       0.49070442 Ry

     iteration #  2     ecut=    69.00 Ry     beta= 0.70
     Davidson diagonalization with overlap
     ethr =  2.45E-03,  avg # of iterations =  2.0

     total cpu time spent up to now is        1.7 secs

     total energy              =    -117.57886332 Ry
     estimated scf accuracy    <       0.25092062 Ry

     iteration #  3     ecut=    69.00 Ry     beta= 0.70
     Davidson diagonalization with overlap
     ethr =  1.25E-03,  avg # of iterations =  1.8

     total cpu time spent up to now is        2.0 secs

     total energy              =    -117.63105857 Ry
     estimated scf accuracy    <       0.00267746 Ry

     iteration #  4     ecut=    69.00 Ry     beta= 0.70
     Davidson diagonalization with overlap
     ethr =  1.34E-05,  avg # of iterations =  2.8

     total cpu time spent up to now is        2.4 secs

     total energy              =    -117.63158233 Ry
     estimated scf accuracy    <       0.00003399 Ry

     iteration #  5     ecut=    69.00 Ry     beta= 0.70
     Davidson diagonalization with overlap
     ethr =  1.70E-07,  avg # of iterations =  2.3

     total cpu time spent up to now is        2.7 secs

     total energy              =    -117.63158900 Ry
     estimated scf accuracy    <       0.00000218 Ry

     iteration #  6     ecut=    69.00 Ry     beta= 0.70
     Davidson diagonalization with overlap
     ethr =  1.09E-08,  avg # of iterations =  2.0

     total cpu time spent up to now is        3.1 secs

     total energy              =    -117.63158948 Ry
     estimated scf accuracy    <       0.00000009 Ry

     iteration #  7     ecut=    69.00 Ry     beta= 0.70
     Davidson diagonalization with overlap
     ethr =  4.62E-10,  avg # of iterations =  1.0

     total cpu time spent up to now is        3.4 secs

     total energy              =    -117.63158949 Ry
     estimated scf accuracy    <          7.7E-10 Ry

     iteration #  8     ecut=    69.00 Ry     beta= 0.70
     Davidson diagonalization with overlap
     ethr =  3.84E-12,  avg # of iterations =  2.0

     total cpu time spent up to now is        3.7 secs

     total energy              =    -117.63158949 Ry
     estimated scf accuracy    <          2.2E-10 Ry

     iteration #  9     ecut=    69.00 Ry     beta= 0.70
     Davidson diagonalization with overlap
     ethr =  1.11E-12,  avg # of iterations =  1.0

     total cpu time spent up to now is        4.0 secs

     End of self-consistent calculation

          k = 0.0000 0.0000 0.0000 (  1785 PWs)   bands (ev):

   -90.2006 -90.1979 -12.1428 -10.3336   0.2617   5.5145   5.5145   6.4912
     6.4912   6.5135  14.2184  18.2345  20.8979  20.8979  21.4304  21.8101
    23.0400  23.0400  30.1940  30.2823

          k = 0.0000 0.0000 0.1026 (  1798 PWs)   bands (ev):

   -90.2004 -90.1981 -12.0479 -10.4937   0.6443   5.5757   5.5757   5.9850
     6.4218   6.4218  14.5865  17.9994  20.9641  20.9641  21.3789  21.6410
    22.7935  22.7935  30.7611  30.7611

          k = 0.0000 0.0000 0.2052 (  1804 PWs)   bands (ev):

   -90.1999 -90.1986 -11.7745 -10.8912   1.6835   4.6952   5.7467   5.7467
     6.2375   6.2375  15.4517  17.3597  21.1958  21.1958  21.2655  21.3549
    22.2259  22.2259  32.0915  32.0915

          k = 0.0000 0.0000-0.3078 (  1822 PWs)   bands (ev):

   -90.1993 -90.1993 -11.3628 -11.3628   3.1346   3.1346   5.9870   5.9870
     5.9870   5.9870  16.4539  16.4539  21.2198  21.2198  21.6318  21.6318
    21.6319  21.6319  33.9396  33.9532

          k = 0.0000 0.1155 0.0000 (  1787 PWs)   bands (ev):

   -90.2004 -90.1978 -12.0246 -10.2700   0.4072   5.0300   5.3115   5.9707
     6.4168   6.4241  14.6145  18.6292  20.7399  21.0396  21.1768  21.9814
    23.3201  23.3241  27.6631  29.7769

          k = 0.0000 0.1155 0.1026 (  1794 PWs)   bands (ev):

   -90.2002 -90.1980 -11.9319 -10.4238   0.7721   5.0959   5.3798   5.6354
     6.2267   6.3367  14.9003  18.3250  20.7358  21.0125  21.2509  21.8323
    23.0866  23.2125  28.3732  30.2912

          k = 0.0000 0.1155 0.2052 (  1810 PWs)   bands (ev):

   -90.1997 -90.1984 -11.6657 -10.8072   1.7599   4.5361   5.3187   5.5704
     5.9252   6.1224  15.6302  17.5546  20.6858  20.8658  21.4989  21.8860
    22.5347  22.8582  30.0194  31.7114

          k = 0.0000 0.1155-0.3078 (  1808 PWs)   bands (ev):

   -90.1991 -90.1991 -11.2645 -11.2645   3.1217   3.1217   5.6051   5.6051
     5.8403   5.8403  16.5822  16.5822  20.7010  20.7010  21.9457  21.9457
    22.3357  22.3357  31.7939  31.7939

          k = 0.0000 0.2309 0.0000 (  1790 PWs)   bands (ev):

   -90.1998 -90.1975 -11.6891 -10.1066   0.8208   3.8319   4.8433   4.8447
     6.1474   6.1965  15.4259  19.1903  19.7001  21.2560  21.7344  22.4045
    23.7317  24.0269  25.9201  29.6115

          k = 0.0000 0.2309 0.1026 (  1801 PWs)   bands (ev):

   -90.1996 -90.1977 -11.6038 -10.2414   1.1184   3.9167   4.6197   4.9250
     5.9830   6.0942  15.5148  18.5501  20.0674  21.1598  21.8476  22.2808
    23.7983  23.8147  26.6213  30.1084

          k = 0.0000 0.2309 0.2052 (  1793 PWs)   bands (ev):

   -90.1992 -90.1981 -11.3588 -10.5811   1.9028   3.7784   4.4284   5.1521
     5.5054   5.8257  15.8818  17.5645  20.3423  20.8388  22.1806  22.5349
    23.2973  23.6533  28.1854  31.0772

          k = 0.0000 0.2309-0.3078 (  1804 PWs)   bands (ev):

   -90.1987 -90.1987 -10.9931 -10.9931   2.9023   2.9023   4.8941   4.8942
     5.4785   5.4785  16.6024  16.6024  20.5412  20.5412  22.6955  22.6955
    23.1352  23.1352  29.9463  29.9463

          k = 0.0000 0.3464 0.0000 (  1784 PWs)   bands (ev):

   -90.1990 -90.1972 -11.1984  -9.9273   1.3367   2.6205   3.6626   4.3479
     5.6652   5.9101  16.0909  18.2947  19.3959  21.9847  22.0050  23.0722
    23.8993  24.9036  25.5386  30.7422

          k = 0.0000 0.3464 0.1026 (  1788 PWs)   bands (ev):

   -90.1989 -90.1974 -11.1267 -10.0298   1.4294   2.7996   3.5114   4.4388
     5.6304   5.7890  15.9395  17.7710  19.9374  21.9304  22.2035  22.5426
    24.3106  24.7002  26.0054  30.8001

          k = 0.0000 0.3464 0.2052 (  1796 PWs)   bands (ev):

   -90.1986 -90.1977 -10.9231 -10.2942   1.7105   2.6697   3.8126   4.6960
     5.3275   5.4716  15.8539  16.9744  20.4529  21.4107  22.7344  22.8560
    24.1604  24.2126  27.2884  30.3254

          k = 0.0000 0.3464-0.3078 (  1792 PWs)   bands (ev):

   -90.1981 -90.1981 -10.6234 -10.6234   2.1571   2.1571   4.6348   4.6348
     5.0693   5.0693  16.2341  16.2341  20.8614  20.8614  23.4457  23.4457
    23.6284  23.6284  28.9286  28.9286

          k = 0.0000 0.4619 0.0000 (  1802 PWs)   bands (ev):

   -90.1983 -90.1971 -10.6802  -9.8521   1.0801   2.6424   2.7968   3.9901
     5.0052   5.6792  16.3327  17.2170  19.7443  21.8954  21.9445  23.8190
    24.7804  25.3450  25.6600  30.8672

          k = 0.0000 0.4619 0.1026 (  1798 PWs)   bands (ev):

   -90.1982 -90.1972 -10.6300  -9.9138   1.0296   2.3665   3.1446   4.0867
     5.1352   5.5458  16.0008  16.9491  20.2982  21.7990  22.2171  23.1750
    24.6603  25.4278  26.1822  30.8792

          k = 0.0000 0.4619 0.2052 (  1797 PWs)   bands (ev):

   -90.1980 -90.1974 -10.4897 -10.0771   1.0640   1.8172   3.9262   4.3616
     5.1595   5.1996  15.6170  16.3941  20.7644  21.7635  22.8780  22.9406
    24.3811  24.7865  27.4476  30.2983

          k = 0.0000 0.4619-0.3078 (  1798 PWs)   bands (ev):

   -90.1977 -90.1977 -10.2892 -10.2892   1.3340   1.3340   4.7184   4.7184
     4.7630   4.7630  15.7980  15.7980  21.1478  21.1478  23.7524  23.7524
    23.8843  23.8843  28.8921  28.8921

          k = 0.0000-0.5774 0.0000 (  1814 PWs)   bands (ev):

   -90.1980 -90.1971 -10.4004  -9.8912   0.7685   2.4348   3.1267   3.8598
     4.5412   5.5937  16.3606  16.8086  20.0363  21.6783  21.8806  24.4923
    24.7104  25.4285  25.9515  30.9367

          k = 0.0000-0.5774 0.1026 (  1796 PWs)   bands (ev):

   -90.1979 -90.1971 -10.3676  -9.9260   0.7269   2.0942   3.4364   3.9599
     4.7905   5.4556  15.9405  16.6586  20.7268  21.3737  22.1785  23.6570
    24.5189  25.7024  26.4864  31.0077

          k = 0.0000-0.5774 0.2052 (  1796 PWs)   bands (ev):

   -90.1978 -90.1973 -10.2770 -10.0221   0.7499   1.4872   4.1283   4.2403
     5.0296   5.0991  15.4758  16.1848  21.0337  21.5978  22.9719  22.9904
    24.3579  25.0030  27.7201  30.4408

          k = 0.0000-0.5774-0.3078 (  1800 PWs)   bands (ev):

   -90.1975 -90.1975 -10.1511 -10.1511   0.9984   0.9984   4.6507   4.6507
     4.7842   4.7842  15.6155  15.6155  21.2199  21.2199  23.7632  23.7632
    24.0107  24.0107  29.0683  29.0683

          k = 0.1000 0.1732 0.0000 (  1805 PWs)   bands (ev):

   -90.2000 -90.1976 -11.7978 -10.1563   0.6889   4.3872   4.5509   5.4849
     6.1578   6.2421  15.2331  19.1632  20.0474  20.9295  21.8830  22.0144
    23.5333  23.8777  26.8150  28.2316

          k = 0.1000 0.1732 0.1026 (  1793 PWs)   bands (ev):

   -90.1998 -90.1978 -11.7097 -10.2972   1.0130   4.4779   4.5272   5.2962
     6.0626   6.0890  15.3892  18.6617  20.1840  20.8984  21.9294  21.9753
    23.5810  23.6452  27.5669  28.5999

          k = 0.1000 0.1732 0.2052 (  1803 PWs)   bands (ev):

   -90.1994 -90.1982 -11.4575 -10.6519   1.8777   4.0650   4.7319   5.1459
     5.7187   5.8147  15.8820  17.6936  20.3131  20.6641  22.1270  22.2930
    23.1191  23.4282  29.1893  29.6793

          k = 0.1000 0.1732-0.3078 (  1800 PWs)   bands (ev):

   -90.1988 -90.1988 -11.0794 -11.0793   3.0172   3.0172   5.0757   5.0757
     5.5554   5.5554  16.6934  16.6934  20.4374  20.4374  22.5265  22.5265
    22.9289  22.9289  30.4588  30.4588

          k = 0.1000 0.2887 0.0000 (  1793 PWs)   bands (ev):

   -90.1993 -90.1973 -11.3825  -9.9822   1.1976   3.1401   3.7229   4.7926
     5.7892   5.8707  16.0848  18.5990  19.8841  21.3547  21.9564  22.5791
    23.6868  24.7790  26.2352  28.2185

          k = 0.1000 0.2887 0.1026 (  1795 PWs)   bands (ev):

   -90.1992 -90.1975 -11.3050 -10.0978   1.4030   3.2049   3.7578   4.6846
     5.6438   5.8424  16.0398  18.2110  20.0533  21.1465  22.2057  22.5401
    23.9344  24.4915  26.7400  28.5398

          k = 0.1000 0.2887 0.2052 (  1797 PWs)   bands (ev):

   -90.1988 -90.1978 -11.0840 -10.3929   1.9213   3.0693   4.0353   4.6544
     5.3151   5.5677  16.1350  17.4179  20.2715  20.7816  22.6756  22.8886
    23.8622  24.0463  27.8714  29.3460

          k = 0.1000 0.2887-0.3078 (  1794 PWs)   bands (ev):

   -90.1983 -90.1983 -10.7565 -10.7565   2.5464   2.5464   4.5669   4.5669
     5.1706   5.1706  16.6258  16.6258  20.4864  20.4864  23.1893  23.1893
    23.5989  23.5989  29.1936  29.1937

          k = 0.1000 0.4041 0.0000 (  1797 PWs)   bands (ev):

   -90.1985 -90.1971 -10.8693  -9.8515   1.4430   2.3708   3.0694   4.0959
     5.2882   5.4933  16.5944  17.6580  19.6542  21.8481  22.2014  23.4069
    23.9203  25.4487  26.0247  29.4574

          k = 0.1000 0.4041 0.1026 (  1792 PWs)   bands (ev):

   -90.1984 -90.1972 -10.8097  -9.9300   1.4049   2.4301   3.1881   4.0970
     5.2396   5.4847  16.3528  17.4540  19.9016  21.7352  22.4756  22.9010
    24.4293  25.0637  26.4870  29.6368

          k = 0.1000 0.4041 0.2052 (  1798 PWs)   bands (ev):

   -90.1982 -90.1975 -10.6417 -10.1359   1.4746   2.1595   3.7214   4.3201
     4.9131   5.4103  16.0967  16.9115  20.3197  21.3296  22.7458  23.3238
    24.3388  24.6224  27.4429  29.6810

          k = 0.1000 0.4041-0.3078 (  1796 PWs)   bands (ev):

   -90.1978 -90.1978 -10.3981 -10.3981   1.7533   1.7533   4.2815   4.2815
     5.0008   5.0008  16.3181  16.3181  20.7797  20.7797  23.3941  23.3942
    24.2121  24.2121  28.7138  28.7138

          k = 0.1000 0.5196 0.0000 (  1805 PWs)   bands (ev):

   -90.1980 -90.1971 -10.4313  -9.8589   0.9130   2.5561   2.9629   3.7576
     4.6379   5.3135  16.3952  17.3459  19.8421  21.6630  22.2472  24.3146
    24.8347  25.2791  25.8402  30.7046

          k = 0.1000 0.5196 0.1026 (  1802 PWs)   bands (ev):

   -90.1979 -90.1971 -10.3950  -9.8996   0.8863   2.2223   3.2020   3.9224
     4.7955   5.2295  16.1487  17.1793  20.1437  21.3945  22.5891  23.7934
    24.5910  25.3690  26.5021  30.7045

          k = 0.1000 0.5196 0.2052 (  1795 PWs)   bands (ev):

   -90.1978 -90.1973 -10.2946 -10.0086   0.9300   1.6532   3.6215   4.4054
     4.6408   5.2457  15.8607  16.6621  20.6376  21.1342  22.8767  23.7531
    24.2207  25.1079  27.6000  30.1151

          k = 0.1000 0.5196-0.3078 (  1800 PWs)   bands (ev):

   -90.1975 -90.1975 -10.1540 -10.1540   1.1829   1.1829   4.1019   4.1019
     5.0225   5.0225  16.0593  16.0593  20.9297  20.9297  23.3698  23.3698
    24.5830  24.5830  28.8465  28.8465

          k = 0.2000 0.3464 0.0000 (  1789 PWs)   bands (ev):

   -90.1986 -90.1971 -10.9391  -9.8522   1.7342   2.2013   3.0691   4.3512
     5.1205   5.4253  17.1289  17.4076  20.5985  21.2501  22.2173  22.4643
    24.1155  25.4678  27.0217  27.7162

          k = 0.2000 0.3464 0.1026 (  1793 PWs)   bands (ev):

   -90.1985 -90.1972 -10.8763  -9.9373   1.7412   2.2244   3.3427   4.1430
     4.9848   5.5275  16.9408  17.3888  20.3861  20.9907  22.5141  22.7061
    24.3133  25.1342  27.1608  28.1796

          k = 0.2000 0.3464 0.2052 (  1796 PWs)   bands (ev):

   -90.1982 -90.1975 -10.6985 -10.1590   1.8393   2.2092   3.8968   3.9128
     4.7502   5.4748  16.6955  17.1772  20.2489  20.5887  22.8209  23.4468
    24.4550  24.4646  27.7091  28.8852

          k = 0.2000 0.3464-0.3078 (  1796 PWs)   bands (ev):

   -90.1979 -90.1979 -10.4395 -10.4395   2.0426   2.0426   3.9767   3.9767
     5.0499   5.0499  16.8108  16.8108  20.3380  20.3380  23.4384  23.4384
    24.2476  24.2476  28.6079  28.6079

          k = 0.2000 0.4619 0.0000 (  1791 PWs)   bands (ev):

   -90.1980 -90.1971 -10.4744  -9.8136   1.2760   2.2900   3.0887   3.6915
     4.6196   4.8976  16.4154  18.1322  20.2426  21.6026  22.6005  23.3594
    24.3196  25.6317  26.4241  29.3477

          k = 0.2000 0.4619 0.1026 (  1791 PWs)   bands (ev):

   -90.1979 -90.1971 -10.4336  -9.8617   1.3079   2.1078   3.2272   3.7055
     4.4848   5.1165  16.5474  17.8924  20.0040  21.1744  22.9733  23.3771
    24.6274  25.3308  26.7649  29.4891

          k = 0.2000 0.4619 0.2052 (  1793 PWs)   bands (ev):

   -90.1978 -90.1973 -10.3199  -9.9900   1.4046   1.8534   3.1708   3.7936
     4.5888   5.3236  16.7236  17.3877  19.9055  20.5314  23.1910  23.8277
    24.7322  25.0467  27.4402  29.2855

          k = 0.2000 0.4619-0.3078 (  1804 PWs)   bands (ev):

   -90.1975 -90.1975 -10.1588 -10.1588   1.5942   1.5942   3.4002   3.4003
     5.1208   5.1208  16.9401  16.9401  20.1352  20.1352  23.5894  23.5894
    24.8748  24.8748  28.3585  28.3585

          k = 0.2000 0.5774 0.0000 (  1800 PWs)   bands (ev):

   -90.1977 -90.1971 -10.2146  -9.8704   0.9312   2.7309   2.8156   3.7390
     4.2067   4.6776  16.0360  18.4978  20.2256  21.4894  22.7408  24.1964
    24.8579  25.1257  25.9484  31.0512

          k = 0.2000 0.5774 0.1026 (  1807 PWs)   bands (ev):

   -90.1976 -90.1972 -10.1922  -9.8940   0.9780   2.4088   2.7413   4.0848
     4.1230   4.8574  16.2193  18.2982  19.8739  21.0267  23.1838  24.1484
    24.7544  25.1375  26.4915  30.7424

          k = 0.2000 0.5774 0.2052 (  1794 PWs)   bands (ev):

   -90.1975 -90.1973 -10.1300  -9.9579   1.1262   1.8605   2.8230   3.6933
     4.7101   5.1920  16.5526  17.6786  19.6956  20.4157  23.5366  23.9401
    24.7813  25.3840  27.3194  29.6215

          k = 0.2000 0.5774-0.3078 (  1794 PWs)   bands (ev):

   -90.1974 -90.1974 -10.0444 -10.0444   1.4106   1.4106   3.1823   3.1823
     5.1673   5.1673  16.9794  16.9794  20.0066  20.0066  23.6614  23.6614
    25.2034  25.2034  28.3256  28.3256

          k = 0.3000 0.5196 0.0000 (  1793 PWs)   bands (ev):

   -90.1975 -90.1972 -10.1263  -9.8778   0.9893   2.5617   3.1387   3.5859
     4.0160   4.3876  15.8043  19.2036  20.7464  21.3628  23.0919  23.4835
    24.5793  25.2766  26.2805  30.6001

          k = 0.3000 0.5196 0.1026 (  1795 PWs)   bands (ev):

   -90.1975 -90.1972 -10.1097  -9.8947   1.1108   2.3170   2.8634   3.5160
     4.2429   4.7102  16.1806  18.9906  20.1510  20.5711  23.6399  23.7598
    24.8634  25.2847  26.4286  30.4589

          k = 0.3000 0.5196 0.2052 (  1804 PWs)   bands (ev):

   -90.1974 -90.1973 -10.0649  -9.9405   1.4360   2.0049   2.5160   3.0211
     4.8296   5.1409  17.0458  18.3480  19.4883  19.5366  23.9140  24.0710
    25.3490  25.4424  26.9024  29.1893

          k = 0.3000 0.5196-0.3078 (  1812 PWs)   bands (ev):

   -90.1973 -90.1973 -10.0030 -10.0030   1.7807   1.7808   2.5357   2.5357
     5.2114   5.2114  17.7790  17.7790  19.1652  19.1652  24.0319  24.0319
    25.5637  25.5637  27.7752  27.7752

     the Fermi energy is    10.7134 ev

!    total energy              =    -117.63158949 Ry
     estimated scf accuracy    <          2.6E-12 Ry
     smearing contrib. (-TS)   =      -0.00000000 Ry
     internal energy E=F+TS    =    -117.63158949 Ry

     The total energy is F=E-TS. E is the sum of the following terms:
     one-electron contribution =     -39.04549396 Ry
     hartree contribution      =      21.22829218 Ry
     xc contribution           =     -22.87351021 Ry
     ewald contribution        =     -76.94087750 Ry

     convergence has been achieved in   9 iterations

     Writing all to output data dir out/mp-2542.save/
 
     init_run     :      0.13s CPU      0.18s WALL (       1 calls)
     electrons    :      3.38s CPU      3.67s WALL (       1 calls)

     Called by init_run:
     wfcinit      :      0.11s CPU      0.13s WALL (       1 calls)
     potinit      :      0.01s CPU      0.01s WALL (       1 calls)
     hinit0       :      0.01s CPU      0.03s WALL (       1 calls)

     Called by electrons:
     c_bands      :      2.99s CPU      3.24s WALL (       9 calls)
     sum_band     :      0.37s CPU      0.41s WALL (       9 calls)
     v_of_rho     :      0.01s CPU      0.01s WALL (      10 calls)
     mix_rho      :      0.00s CPU      0.00s WALL (       9 calls)

     Called by c_bands:
     init_us_2    :      0.02s CPU      0.02s WALL (    1064 calls)
     init_us_2:cp :      0.02s CPU      0.02s WALL (    1064 calls)
     cegterg      :      2.92s CPU      3.14s WALL (     504 calls)

     Called by *egterg:
     cdiaghg      :      0.73s CPU      0.77s WALL (    1785 calls)
     h_psi        :      2.05s CPU      2.23s WALL (    1841 calls)
     g_psi        :      0.01s CPU      0.01s WALL (    1281 calls)

     Called by h_psi:
     h_psi:calbec :      0.07s CPU      0.07s WALL (    1841 calls)
     vloc_psi     :      1.94s CPU      2.10s WALL (    1841 calls)
     add_vuspsi   :      0.03s CPU      0.03s WALL (    1841 calls)

     General routines
     calbec       :      0.06s CPU      0.07s WALL (    1841 calls)
     fft          :      0.01s CPU      0.03s WALL (      99 calls)
     ffts         :      0.00s CPU      0.00s WALL (       9 calls)
     fftw         :      2.13s CPU      2.32s WALL (   67148 calls)
 
     Parallel routines
 
     PWSCF        :      3.63s CPU      4.16s WALL

 
   This run was terminated on:  11:13:31  30Nov2023            

=------------------------------------------------------------------------------=
   JOB DONE.
=------------------------------------------------------------------------------=
