
     Program PWSCF v.7.1 starts on 15Nov2023 at 15:34:50 

     This program is part of the open-source Quantum ESPRESSO suite
     for quantum simulation of materials; please cite
         "P. Giannozzi et al., J. Phys.:Condens. Matter 21 395502 (2009);
         "P. Giannozzi et al., J. Phys.:Condens. Matter 29 465901 (2017);
         "P. Giannozzi et al., J. Chem. Phys. 152 154105 (2020);
          URL http://www.quantum-espresso.org", 
     in publications or presentations arising from this work. More details at
     http://www.quantum-espresso.org/quote

     Parallel version (MPI), running on     8 processors

     MPI processes distributed on     1 nodes
     123479 MiB available memory on the printing compute node when the environment starts
 
     Reading input from pw_mp-1138_nscf_k60_E143.in
Warning: card &IONS ignored
Warning: card / ignored
Warning: card &CELL ignored
Warning: card / ignored

     Current dimensions of program PWSCF are:
     Max number of different atomic species (ntypx) = 10
     Max number of k-points (npk) =  40000
     Max angular momentum in pseudopotentials (lmaxx) =  4

     Atomic positions and unit cell read from directory:
     out/mp-1138.save/
     Atomic positions from file used, from input discarded
 
 
     R & G space division:  proc/nbgrp/npool/nimage =       8
     Subspace diagonalization in iterative solution of the eigenvalue problem:
     one sub-group per band group will be used
     scalapack distributed-memory algorithm (size of sub-group:  2*  2 procs)

 
     Parallelization info
     --------------------
     sticks:   dense  smooth     PW     G-vecs:    dense   smooth      PW
     Min         144     144     43                 3305     3305     513
     Max         145     145     44                 3310     3310     514
     Sum        1159    1159    349                26469    26469    4111
 
     Using Slab Decomposition
 


     bravais-lattice index     =            2
     lattice parameter (alat)  =       7.7166  a.u.
     unit-cell volume          =     114.8711 (a.u.)^3
     number of atoms/cell      =            2
     number of atomic types    =            2
     number of electrons       =        10.00
     number of Kohn-Sham states=         1200
     kinetic-energy cutoff     =     143.0000  Ry
     charge density cutoff     =     572.0000  Ry
     Exchange-correlation= PBE
                           (   1   4   3   4   0   0   0)

     celldm(1)=   7.716558  celldm(2)=   0.000000  celldm(3)=   0.000000
     celldm(4)=   0.000000  celldm(5)=   0.000000  celldm(6)=   0.000000

     crystal axes: (cart. coord. in units of alat)
               a(1) = (  -0.500000   0.000000   0.500000 )  
               a(2) = (   0.000000   0.500000   0.500000 )  
               a(3) = (  -0.500000   0.500000   0.000000 )  

     reciprocal axes: (cart. coord. in units 2 pi/alat)
               b(1) = ( -1.000000 -1.000000  1.000000 )  
               b(2) = (  1.000000  1.000000  1.000000 )  
               b(3) = ( -1.000000  1.000000 -1.000000 )  


     PseudoPot. # 1 for F  read from file:
     /usr/scratch4/magr4985/MG/HTDF/pseudo/SG15/F.upf
     MD5 check sum: 1d8275f47d602dd53cad6bcdc0eda7dc
     Pseudo is Norm-conserving, Zval =  7.0
     Generated using ONCVPSP code by D. R. Hamann
     Using radial grid of  602 points,  4 beta functions with: 
                l(1) =   0
                l(2) =   0
                l(3) =   1
                l(4) =   1

     PseudoPot. # 2 for Li read from file:
     /usr/scratch4/magr4985/MG/HTDF/pseudo/SG15/Li.upf
     MD5 check sum: c91dd4cee9943b136ac3b62641658f95
     Pseudo is Norm-conserving, Zval =  3.0
     Generated using ONCVPSP code by D. R. Hamann
     Using radial grid of  602 points,  4 beta functions with: 
                l(1) =   0
                l(2) =   0
                l(3) =   1
                l(4) =   1

     atomic species   valence    mass     pseudopotential
        F              7.00    18.99840     F ( 1.00)
        Li             3.00     6.94100     Li( 1.00)

     48 Sym. Ops., with inversion, found



   Cartesian axes

     site n.     atom                  positions (alat units)
         1           Li  tau(   1) = (   0.0000000   0.0000000   0.0000000  )
         2           F   tau(   2) = (  -0.5000000   0.5000000   0.5000000  )

     number of k points=     8  Gaussian smearing, width (Ry)=  0.0005
                       cart. coord. in units 2pi/alat
        k(    1) = (   0.0000000   0.0000000   0.0000000), wk =   0.0312500
        k(    2) = (  -0.2500000   0.2500000  -0.2500000), wk =   0.2500000
        k(    3) = (   0.5000000  -0.5000000   0.5000000), wk =   0.1250000
        k(    4) = (   0.0000000   0.5000000   0.0000000), wk =   0.1875000
        k(    5) = (   0.7500000  -0.2500000   0.7500000), wk =   0.7500000
        k(    6) = (   0.5000000   0.0000000   0.5000000), wk =   0.3750000
        k(    7) = (   0.0000000  -1.0000000   0.0000000), wk =   0.0937500
        k(    8) = (  -0.5000000  -1.0000000   0.0000000), wk =   0.1875000

     Dense  grid:    26469 G-vectors     FFT dimensions: (  45,  45,  45)

     Estimated max dynamical RAM per process >     167.32 MB

     Estimated total dynamical RAM >       1.31 GB

     The potential is recalculated from file :
     out/mp-1138.save/charge-density

     Starting wfcs are random

     Band Structure Calculation
     Davidson diagonalization with overlap

     ethr =  5.00E-06,  avg # of iterations =  7.4

     total cpu time spent up to now is     1053.6 secs

     End of band structure calculation

          k = 0.0000 0.0000 0.0000 (  3287 PWs)   bands (ev):

   -40.3275 -19.1536   0.6160   0.6160   0.6160   9.3851  24.0783  24.0783
    24.0783  24.6575  24.6575  24.6575  27.5086  31.6753  31.6753  44.3774
    44.3774  44.3774  47.8758  64.4514  64.4514  64.4514  65.9095  67.8025
    67.8025  68.4154  68.4154  68.4154  68.4916  68.4916  68.4916  84.1516
    84.1516  89.9397  89.9397  89.9397  93.5906  93.5906  93.5906  95.1453
    95.1453  95.1453  96.0719  96.0719  96.0719  96.5440  97.6680  97.6680
    97.6680  98.5334  98.5334  98.5334  99.0793  99.0793  99.1951 101.9229
   101.9229 101.9229 102.9543 121.0075 121.0075 121.0075 125.8866 133.5356
   133.5356 141.2980 141.2980 141.2980 147.0624 155.0380 155.0380 155.0380
   160.8740 160.8740 161.2301 161.2301 161.2301 161.8639 161.8639 161.8639
   165.0354 167.4511 167.9725 167.9725 167.9725 168.9583 168.9583 168.9583
   169.1041 169.1041 169.7521 169.7521 169.7521 169.7942 169.7942 169.9125
   169.9125 169.9125 172.6850 172.6850 172.6850 174.0698 174.0698 174.0698
   175.6067 175.6067 175.6067 176.6368 176.6368 177.4010 177.4010 177.4010
   177.9166 195.9498 195.9498 195.9498 199.0675 204.5904 204.5904 204.5904
   205.6423 210.1155 210.1155 210.1155 210.2853 210.2853 211.4057 211.4057
   211.4057 211.9421 211.9421 211.9421 211.9751 211.9751 211.9751 212.4222
   212.4222 213.4485 213.4485 213.4485 221.8806 221.8806 224.1443 233.5530
   233.5530 233.5530 233.9121 233.9121 233.9121 235.7155 236.6375 237.9155
   237.9155 237.9155 238.2745 238.2745 238.2745 239.0160 239.0160 239.0160
   239.3108 239.3108 239.3108 242.7917 242.8334 242.8334 242.8334 242.8434
   242.8434 261.2109 261.2109 261.2109 270.0417 278.0041 278.0041 278.0041
   279.2621 279.2621 279.5946 279.5946 279.5946 286.1340 286.1340 286.1340
   290.6516 297.1020 297.1020 297.1020 298.6920 298.6920 300.6320 300.6320
   300.6320 304.0886 304.0886 304.0886 305.3549 305.3549 305.3549 306.6415
   306.6415 306.6415 307.1717 307.2579 307.2579 309.0242 309.0242 309.0242
   309.5281 309.5281 309.5281 310.1421 311.7143 311.7143 312.1123 312.1123
   312.1123 312.9058 312.9058 312.9058 313.0645 313.0645 313.0645 313.1152
   313.1152 313.7468 313.7468 313.7468 313.9486 314.0290 314.0290 314.0290
   314.0556 314.0556 314.4391 314.4391 314.4391 314.6813 314.8076 314.8076
   314.8076 315.6924 319.1525 319.3994 319.3994 319.3994 319.6406 319.6406
   319.7479 319.7479 319.7479 320.2690 320.2690 320.2690 320.5064 320.5064
   320.5744 320.5744 320.5744 341.8995 341.8995 341.8995 346.0327 346.7264
   346.7264 352.5554 352.5554 352.5554 352.7607 352.7607 352.7607 353.0265
   353.0265 353.0265 353.2262 353.2262 353.2262 356.9839 356.9839 357.1018
   357.1018 357.1018 357.2895 366.9061 366.9061 366.9061 374.1738 374.1738
   374.1738 374.5492 374.5755 381.8518 381.8518 381.8518 382.0338 382.0338
   382.4469 382.4469 382.4469 382.5786 382.5786 382.5786 382.5952 382.5952
   382.5952 382.7516 382.7516 385.5770 385.5770 385.5770 389.2741 389.2741
   389.4701 389.4701 389.4701 389.6443 389.8709 389.8709 389.8709 390.2125
   390.2125 390.2125 390.2807 390.2807 390.2807 390.5166 390.9497 390.9497
   390.9497 391.0997 391.0997 417.8187 417.8187 417.8187 420.6025 424.7238
   424.7238 424.7238 424.8999 426.5078 426.5078 426.5078 435.3934 435.9136
   435.9136 443.4028 443.4028 443.4028 443.7176 443.7176 443.7176 444.6735
   444.6735 444.6735 445.8344 445.8344 447.1838 452.8728 452.8728 452.8728
   454.2533 454.2533 454.2533 454.4160 454.4160 454.4160 454.5425 454.5425
   454.5425 454.6591 454.6591 454.6591 456.1077 456.5671 456.5671 456.5671
   456.8663 456.8663 456.8663 457.0771 457.0771 457.1399 457.1399 457.1399
   457.6839 457.6839 457.6839 458.1409 458.1409 458.1464 458.2142 458.2142
   458.2142 459.2056 459.2600 459.2600 459.2600 459.2765 459.2765 462.9845
   462.9845 462.9845 463.0840 463.0840 463.3727 463.3727 463.3727 463.6035
   463.6035 463.6035 463.8483 485.1103 485.1103 485.1103 490.1791 491.0875
   491.0875 491.0875 491.4544 495.0330 495.0330 495.3192 495.3192 495.3192
   495.5874 495.5874 495.5874 495.9014 495.9014 495.9014 496.3151 496.3151
   496.3151 496.5664 496.5664 499.9411 499.9411 500.2343 500.2343 500.2343
   500.3477 500.3477 500.3477 500.5902 500.5902 500.5902 500.6133 500.6133
   500.6133 500.8827 500.8827 501.6493 501.7941 501.7941 501.7941 501.9801
   501.9801 501.9801 502.2047 505.2572 505.2572 505.2572 511.6892 515.0928
   515.0928 515.4848 515.4848 515.4848 517.3962 517.3962 517.3962 518.0551
   518.4702 518.4702 518.4702 519.3604 519.3604 519.3604 521.3206 521.3206
   521.3206 521.8314 522.3186 522.3186 522.3186 523.0975 523.0975 523.3687
   523.3687 523.3687 523.8899 526.3412 526.3412 526.9701 526.9701 526.9701
   527.0241 527.0241 527.0241 527.0862 527.0862 527.0862 527.7993 527.7993
   527.8317 527.8317 527.8317 528.3826 528.5275 528.5275 528.5275 528.5616
   528.5616 529.7780 529.7780 529.7780 529.7867 529.7867 529.7867 529.9979
   529.9979 529.9979 530.0009 530.0009 530.0009 530.6602 530.6602 530.7045
   530.7045 530.7045 530.7651 561.7667 561.7667 561.7667 564.5867 565.0830
   565.0830 587.1501 587.1501 587.1501 594.2863 594.4277 594.4277 594.4277
   594.8161 595.4382 595.4382 595.8394 595.8394 595.8394 596.1407 596.4202
   596.4202 596.4202 596.4334 596.4334 596.4334 596.5724 596.5724 596.5724
   596.7368 596.7368 596.7368 596.9808 596.9808 599.4938 599.4938 600.6230
   600.6230 600.6230 600.6602 600.6602 600.6602 600.8034 601.1216 605.1197
   605.1197 605.1197 605.3376 605.3376 605.3376 605.3983 605.3983 605.3983
   605.5207 605.5207 605.5207 608.3378 608.3378 608.3486 608.3486 608.3486
   608.3565 608.3565 608.4233 608.4233 608.4233 608.4807 608.4807 608.4807
   608.5667 608.5667 608.5667 609.5225 609.5225 609.5962 609.5962 609.5962
   609.7141 634.3600 634.3600 634.3600 637.8014 638.2683 638.2683 638.2683
   638.4564 638.4564 638.5393 638.5393 638.5393 641.6498 641.6498 641.6498
   641.7616 641.7616 642.3224 642.3224 642.3224 642.3867 642.7181 642.7181
   642.7181 642.7321 642.7321 642.7321 642.9257 642.9257 642.9257 643.2357
   643.3607 643.3607 643.3607 643.4365 643.4365 652.7393 652.7393 652.7393
   655.9394 658.2556 658.2556 658.2556 658.8561 658.8561 658.8561 658.8595
   658.8595 666.7842 667.5160 667.5160 667.5160 667.6074 667.6074 667.6074
   667.6337 667.6337 667.8242 667.8242 667.8242 668.0102 668.0102 668.0102
   668.1755 668.1755 668.1755 668.1989 668.9062 672.0326 672.0326 672.1006
   672.1006 672.1006 672.2330 672.2330 672.2330 672.3840 672.3840 672.3840
   672.4972 674.3465 674.3465 674.3465 674.3511 674.3511 674.4811 674.4811
   674.4811 674.6019 674.6019 674.6019 674.7286 675.6895 675.6895 675.6895
   676.2729 677.5332 677.5332 677.5332 677.9299 677.9299 677.9299 677.9361
   677.9361 678.5930 678.8799 678.8799 678.8799 679.0925 679.0925 679.0925
   679.2538 679.2538 679.2796 679.2796 679.2796 709.2972 709.2972 709.2972
   711.2945 711.5623 711.5623 712.5730 712.5730 712.5730 712.6361 712.6361
   712.6361 712.6966 712.6966 712.6966 712.9283 712.9283 712.9283 713.4899
   713.4899 713.6672 713.6672 713.6672 713.8278 722.1261 722.1261 722.1261
   724.4743 725.4143 725.4143 732.1009 732.1009 732.1009 733.4205 733.4205
   733.4205 733.4313 733.7930 738.2301 738.2301 738.2301 738.4606 738.4606
   738.4606 738.5075 738.5075 738.5075 738.6053 738.6053 738.6053 738.6432
   738.6432 738.7785 738.7785 742.7533 742.7533 742.7533 742.7742 742.7742
   742.7742 742.9055 742.9055 742.9055 742.9988 742.9988 742.9988 743.5772
   743.5772 743.7332 743.7332 743.7332 743.7523 743.7523 743.8004 743.8004
   743.8004 743.8596 743.8596 743.8596 743.9874 743.9874 743.9874 745.2333
   745.2333 745.2333 745.2624 745.2632 745.2632 745.2632 745.3506 745.4291
   745.4291 745.4291 746.5148 747.7339 747.7493 747.7493 747.7493 747.9124
   747.9124 747.9124 747.9152 747.9152 747.9446 747.9446 748.2226 748.2226
   748.2226 748.2419 748.3794 748.3794 748.3794 748.4753 748.4753 748.4753
   748.7830 748.7830 748.7830 748.9922 748.9922 752.3982 752.3982 752.5281
   752.5281 752.5281 752.7938 752.9291 752.9291 752.9291 752.9325 752.9325
   752.9325 753.1290 753.1290 753.1290 753.1302 753.1302 753.1302 753.4012
   753.4012 753.4968 753.4968 753.4968 753.6546 779.5797 779.5797 779.5797
   780.3415 780.3981 780.4840 780.4840 780.4840 788.6056 788.6056 788.6424
   788.6424 788.6424 788.6502 788.6502 788.6502 788.6763 788.6763 788.6763
   788.7039 788.7039 788.7589 788.7589 788.7589 801.7672 801.7672 801.7672
   803.3558 803.6420 803.6420 807.2126 807.2126 807.2126 807.3011 807.3011
   807.3011 807.3718 807.3718 807.3718 807.3749 807.3749 807.3749 812.0076
   812.0076 812.1088 812.1088 812.1088 812.2854 816.2689 816.2936 816.2936
   816.2936 816.3138 816.3138 818.2885 818.2885 818.2885 818.3003 818.3003
   818.3003 818.3588 818.3588 818.3588 818.3875 818.3875 818.3875 819.2460
   819.2460 819.2851 819.2851 819.2851 819.3723 855.6344 855.6344 855.6344
   856.5499 856.8965 856.8965 856.8965 857.0264 857.8518 857.8518 857.9129
   857.9129 857.9129 858.0043 858.0043 858.0043 858.0946 858.0946 858.0946
   858.1110 858.1110 858.1110 858.2158 858.2158 873.0813 873.0813 873.0813
   874.5685 875.6015 875.6015 875.6015 876.6312 876.6312 876.6673 876.6673
   876.6673 878.1159 879.4905 879.4905 879.4905 880.2185 880.2185 880.2185
   881.1725 884.1443 884.1443 884.1443 884.3299 884.3299 884.4628 884.4628
   884.4628 884.7648 884.7648 884.9330 884.9330 884.9330 885.0073 885.0073
   885.0073 885.5307 885.8138 885.8138 885.8138 886.0909 886.0909 886.0909
   886.1699 887.8228 887.8228 887.8228 888.3588 888.3588 888.3978 888.3978
   888.4419 888.4419 888.4419 888.4994 888.4994 888.4994 888.5285 888.5285
   888.5285 888.5994 888.5994 888.5994 889.2795 889.7238 889.7238 889.9568
   890.0229 890.0229 890.0229 890.0570 890.0570 890.0570 890.0741 890.0741
   890.0784 890.0784 890.0784 890.4627 890.4627 890.4627 890.5121 890.5121
   890.5121 890.7069 890.7069 890.8174 890.8174 890.8174 891.1509 896.1700
   896.1700 896.1700 896.1775 896.1775 896.1775 896.2170 896.2170 896.2320
   896.2320 896.2320 896.3050 922.4106 922.4106 922.4106 923.0968 923.2696
   923.2696 926.6983 926.6983 926.6983 926.8717 926.8717 926.8717 927.3012
   927.3012 927.3012 927.3158 927.6149 927.6149 928.1476 928.5745 928.5745
   928.5745 928.8068 928.8068 928.8068 928.9526 928.9526 928.9526 929.0737
   929.0737 929.7937 929.7937 929.7937 930.0775 930.0775 930.0775 930.1109
   930.1109 930.1109 930.4421 930.4421 930.4421 932.6092 932.6092 932.7655
   932.7655 932.7655 932.8030 932.8588 932.8588 932.8588 932.9512 932.9512
   932.9512 933.3084 933.3084 933.3084 933.3233 933.3233 933.4157 933.4157
   933.4157 933.5127 933.5127 933.5127 933.6069 934.4075 934.4075 934.4840
   934.4840 934.4840 934.6359 949.3136 949.3136 949.3136 950.3460 950.7289
   950.7289 950.7289 950.9246 950.9246 950.9480 950.9480 950.9480 952.3847
   952.3847 952.3847 952.5439 952.5439 952.5439 952.5982 952.5982 952.9077
   952.9077 952.9077 953.2538 956.1838 956.5832 956.5832 956.5832 956.9427
   956.9427 956.9427 957.4024 957.4024 957.4313 957.4313 957.4313 958.2504
   958.5572 958.5572 958.5572 958.7653 958.7653 958.7653 958.9410 958.9410
   958.9427 958.9427 958.9427 962.0265 962.0265 962.0403 962.0403 962.0403
   962.1919 962.1919 962.1919 962.2968 962.2968 962.2968 962.3307 962.4556

          k =-0.2500 0.2500-0.2500 (  3329 PWs)   bands (ev):

   -40.3031 -18.9596  -0.6801   0.5067   0.5067  10.6762  18.2474  20.8532
    20.8532  27.1227  27.7372  27.7372  35.1319  35.1319  36.9370  39.9123
    45.5743  45.5743  47.8163  53.6349  53.6349  61.8889  65.9976  65.9976
    66.2602  67.7573  67.7573  70.1605  74.8819  76.2530  76.2530  78.4115
    81.3016  81.3016  82.3727  83.8048  84.5232  84.5232  88.8846  88.8846
    91.9243  91.9243  92.3598  94.3537  94.3579  94.3579 102.0281 104.3730
   104.3730 108.1072 108.8821 108.8821 109.7377 109.7377 110.8059 112.9760
   115.7168 115.7168 115.9067 119.4834 119.9476 119.9476 128.0597 128.0597
   129.3396 134.4013 137.3021 137.3021 141.3472 144.9600 144.9600 146.6547
   146.6547 148.4299 149.3837 149.3837 151.2235 154.2508 154.2508 157.6706
   158.0234 158.0234 160.2909 161.3647 162.5535 162.5535 165.2951 166.9704
   166.9704 167.7548 168.9220 168.9220 170.3393 173.5383 173.5383 173.6672
   174.4621 176.9412 176.9412 177.9762 177.9789 177.9789 184.1549 184.1549
   185.7407 186.2408 186.2408 188.6389 188.6389 188.9405 190.1730 193.8452
   193.8452 195.4644 195.5329 196.5199 196.5199 196.8752 198.0132 198.0132
   201.0787 201.0787 201.5504 203.7892 203.7892 205.4992 208.2569 208.2569
   210.3277 211.2340 211.2340 211.8115 213.6514 213.6514 214.5572 216.0544
   216.0544 217.2812 222.7050 222.7050 223.0967 223.7959 225.8550 225.8550
   226.4326 226.8848 226.8848 228.9946 230.9661 230.9661 231.3955 237.4540
   237.4540 239.1380 243.7167 243.7167 247.4211 249.2974 249.2974 249.9893
   249.9893 251.4696 252.7871 258.0556 259.0508 259.0508 260.2850 260.2850
   262.2579 262.3043 262.3043 266.4350 268.2124 268.2124 270.1539 270.1539
   270.1942 272.0345 272.0345 272.4005 276.3537 276.3537 276.6094 277.6054
   278.3311 278.3311 279.8218 279.8218 280.5533 281.6101 281.6101 281.9032
   281.9960 284.2101 286.9314 286.9314 289.5450 289.5450 290.5655 291.1503
   291.1503 292.0275 294.2275 294.2275 294.8630 303.2686 303.2686 303.8964
   305.6036 305.6036 305.8988 308.1978 308.3290 308.3290 308.6417 309.0077
   310.5720 310.5720 311.6108 311.6108 312.3204 313.5535 313.5535 314.8559
   314.8559 315.5411 316.1339 316.1339 317.8822 320.4208 320.4208 320.7815
   321.9738 322.0599 322.0599 322.3318 324.7878 324.7878 325.0874 325.2365
   325.2365 326.7321 330.3848 330.3848 330.6877 331.3119 333.4499 333.4499
   334.5069 334.5069 334.9558 334.9558 335.4973 338.4962 338.6943 338.6943
   338.9156 339.8615 339.8615 342.9457 342.9457 343.3803 345.2651 346.3310
   346.7793 346.7793 346.9622 346.9622 347.8436 350.9926 350.9926 352.3330
   352.3330 354.1204 354.1204 355.0237 355.1902 358.6155 361.0640 361.0640
   361.4034 363.3151 363.3151 363.6566 365.1178 365.1178 365.2863 366.4105
   366.4105 367.7051 367.7051 368.1793 371.7762 374.3482 374.3482 374.6245
   376.7981 376.7981 377.8213 379.7016 379.7016 381.9731 383.7140 384.7730
   384.7730 384.8091 387.4177 387.4177 392.5873 392.5873 393.0524 394.1795
   395.4454 395.4454 398.5307 399.9197 399.9197 401.4844 401.4844 402.7025
   404.2874 404.2874 404.5536 406.6769 406.6769 406.8199 407.5535 407.5535
   408.7040 410.9363 413.3026 413.3026 415.1080 415.9076 415.9076 417.2655
   417.2655 417.7392 418.7511 418.7511 418.8986 419.7534 419.7534 420.1456
   421.0707 421.0707 421.6110 424.1030 424.2685 424.2685 424.3821 432.5982
   432.5982 433.6259 433.6259 433.9676 434.6231 436.4636 436.4636 437.3101
   437.3920 437.3920 442.9177 443.4130 443.4130 443.7007 443.7007 444.7681
   445.4358 445.4358 447.3602 448.1102 448.1102 449.4965 449.9140 451.1486
   451.1486 453.2165 453.2165 453.4260 455.7987 458.5561 459.2472 459.2472
   459.5263 459.5263 460.4448 460.4448 460.5633 460.8168 464.8113 464.8113
   465.4434 465.5253 465.5253 466.7781 468.8872 468.8872 469.0317 470.1732
   470.1732 471.5330 471.5330 471.6351 472.3544 472.3544 472.6482 476.6528
   476.6528 477.2780 478.9081 480.5007 480.5007 481.2381 481.8221 481.8221
   481.9535 483.5854 484.0255 484.0255 485.8143 485.8208 485.8208 486.7399
   486.7399 487.2538 487.2538 487.5006 487.5672 490.0046 490.2236 490.2236
   493.1658 493.1658 493.4085 494.3241 494.3241 496.4913 497.0911 497.1352
   497.1352 497.4158 497.4158 497.5154 498.9329 499.8687 499.8687 501.3215
   501.3355 501.3355 502.1004 502.1752 502.1752 502.2991 502.7606 502.7606
   502.8349 502.9735 502.9735 504.9589 506.2308 506.2308 509.7754 509.7754
   510.2240 510.4238 510.4238 510.6340 512.6291 512.6291 512.7897 515.4413
   515.4413 515.4872 516.2339 516.2339 516.4783 516.4783 516.5193 516.6813
   517.4921 517.4921 517.5965 525.5850 528.8542 528.8542 531.5287 531.5287
   532.9117 533.5290 533.8311 533.8311 535.7731 536.1081 536.1081 536.8192
   538.0355 538.0573 538.0573 539.5905 539.5905 539.7734 539.9648 540.3631
   540.3631 542.3941 542.3941 542.6689 545.0177 546.8791 546.8791 549.5640
   549.9335 549.9335 550.5289 550.5289 550.6543 551.3053 551.3053 555.8324
   556.1397 556.1397 557.1805 557.1805 557.6315 557.8139 557.8139 558.0281
   562.2494 562.8730 562.8730 563.7392 563.7551 563.7551 565.4301 565.4301
   565.6876 566.0905 566.0905 566.0916 566.8843 566.8843 567.0548 573.6156
   573.8695 573.8695 575.2050 576.0461 576.0461 576.9657 576.9657 577.3082
   579.4872 579.4872 579.7417 580.8974 581.8212 582.1574 582.1574 583.0347
   583.0347 583.2891 584.5322 586.2306 586.2306 587.6668 587.6668 590.3487
   590.3487 590.6202 592.8691 592.8691 593.4515 596.7311 596.7311 597.0009
   598.4815 601.6303 601.6303 601.6704 603.0143 603.0143 603.1405 604.5165
   604.5165 605.2923 607.6191 607.6191 607.6882 607.9953 608.0136 608.0136
   613.0015 613.0015 613.4189 613.4976 613.4976 614.3979 615.7040 617.2246
   617.2246 620.8425 620.8656 620.8656 624.2880 624.2880 624.4141 625.3968
   625.3968 625.7911 626.6583 626.6583 627.5370 628.8500 628.8500 629.4455
   629.8070 630.5287 630.5287 632.8372 632.8372 632.8580 634.2847 634.5114
   634.5114 635.5170 635.9085 635.9085 637.0915 637.0915 637.4066 639.2685
   639.2685 640.6074 640.6074 640.6749 640.7130 646.1773 646.1773 646.2141
   647.5212 648.6669 648.6669 652.0676 652.0676 653.2773 653.6771 653.7697
   653.7697 654.2725 654.2725 654.4546 654.6295 657.0436 657.0436 658.2449
   659.2954 659.2954 660.7248 660.7248 661.0108 661.9856 661.9856 662.0975
   664.0530 666.4568 666.5371 666.5371 666.8814 667.5386 667.5386 667.6198
   669.6755 669.6755 670.1435 670.5929 670.5929 670.6829 672.6405 672.6405
   672.9921 672.9921 673.2535 673.2535 673.2841 674.0892 674.0892 674.1321
   677.7864 677.7864 679.3520 679.3779 679.5261 679.5261 680.0640 680.0640
   680.1024 682.7140 682.8435 682.8435 685.0999 685.0999 685.2086 685.3763
   685.6100 685.6100 685.6844 687.1150 687.1150 688.0720 688.0720 688.3742
   689.2256 689.2256 689.2918 691.5064 691.5064 691.7789 692.0898 692.2233
   692.2233 693.4657 694.3712 694.3712 695.7075 695.7075 695.9978 696.5470
   696.5470 696.8215 697.9877 698.0102 698.0102 698.1504 698.1504 698.4733
   701.3796 701.3796 701.5127 702.9180 703.4410 703.4410 704.3475 704.3475
   704.7244 706.2863 706.5795 706.5795 707.4992 707.4992 707.5571 709.8258
   711.0778 712.6295 712.6295 713.8111 713.8221 713.8221 718.2485 718.2485
   718.9130 718.9130 719.2997 720.0509 720.0509 720.1053 721.2107 721.2107
   721.3984 724.7021 724.9483 724.9483 725.5476 725.5476 725.5805 725.8780
   725.8780 725.9347 728.1757 729.4202 729.4202 730.7530 730.7530 731.3020
   732.4525 732.4525 732.7813 732.8140 732.8140 732.8784 735.6904 735.6904
   735.8905 737.8390 738.5918 738.5918 739.0492 740.9566 740.9566 741.0225
   741.9319 743.1035 743.1035 744.4706 744.4706 744.8252 745.1859 745.1859
   745.2595 749.7078 749.7203 749.7203 749.8091 750.1688 750.1688 750.2993
   750.5986 750.5986 756.3523 756.3523 756.5501 758.0581 758.0581 758.3580
   762.4569 762.6385 762.6385 763.6222 763.6222 763.6929 764.5091 764.5091
   765.0801 765.6364 766.0299 766.0299 766.5076 766.5669 766.5669 766.8456
   766.8456 766.9100 767.4603 767.8758 767.8758 768.2057 768.3699 768.3699
   768.7625 768.7625 768.9923 772.3476 772.3476 772.4085 778.3065 778.3065
   778.4374 778.8410 778.8410 778.8620 779.5650 779.5650 779.8653 780.8008
   781.0408 781.0408 782.1141 782.1141 782.1764 782.6013 782.6013 782.6591
   784.9618 785.1918 785.1918 785.8839 786.0819 786.0819 786.2603 787.6104
   787.6104 792.4962 792.4962 792.5359 794.8117 794.9769 794.9769 796.0631
   796.0631 796.1196 796.9666 797.0811 797.0811 797.9199 797.9199 797.9703
   801.6330 802.0955 802.0955 802.3078 803.1189 807.4768 807.4768 808.4115
   808.4115 808.4762 811.8386 811.8386 812.1270 812.4356 812.4356 813.8899
   813.8899 813.8940 814.4382 814.4382 814.4467 817.7807 817.7807 818.0732
   819.7788 819.7788 819.9007 822.3435 822.3672 822.3672 823.5980 823.5980
   823.6749 824.3746 824.4268 824.4268 827.6152 827.9970 827.9970 830.4556
   830.6415 830.6415 831.4691 831.4691 831.7984 834.6379 834.6379 834.7825
   837.5250 837.5250 837.5935 844.8299 844.8512 844.8512 845.5977 845.5977
   846.1707 846.2275 846.5908 846.5908 847.6945 847.7292 847.7292 848.0036
   848.0036 848.0431 851.8266 851.8266 851.9791 853.8852 857.0250 858.0680
   858.0680 858.1172 858.1172 858.1349 858.9378 858.9378 859.2098 859.4004
   859.4004 859.4323 860.6318 861.0080 861.0080 862.4923 862.4923 862.5020
   862.5020 862.8875 863.2219 863.2219 863.3654 872.5172 872.5172 872.8695
   873.4403 873.4403 873.4936 873.6002 873.6585 873.7049 873.7049 873.8201
   873.8201 875.4775 875.4775 875.8358 876.6910 876.8900 876.8900 877.0994
   877.0994 877.2285 877.2285 877.3185 877.5720 879.2435 879.5944 879.5944
   880.6402 880.6942 880.6942 880.8966 882.0758 882.0758 885.1621 885.1621
   885.7098 885.8281 885.8281 885.8490 886.4962 889.1605 889.1605 889.1793
   889.7493 889.7493 889.8229 892.4648 892.4648 892.4849 892.8713 892.8713
   892.9474 893.1409 893.1409 893.1728 894.9221 894.9221 894.9568 895.8092
   895.8092 895.8668 897.9196 897.9196 897.9737 899.5198 899.5198 899.6052
   900.5224 900.5224 900.5656 901.8345 901.9498 901.9498 902.5665 902.5665
   902.6303 903.7835 903.7835 904.0336 904.0620 904.0620 904.0816 905.8400
   905.9229 905.9229 910.0661 910.1025 910.1025 914.0277 914.0277 914.1104
   914.2705 914.2705 914.2963 915.8979 915.8979 915.9081 920.7274 920.7274
   920.7902 923.6627 923.6627 923.6674 923.7141 923.7141 923.7247 927.5431
   927.6213 927.6213 927.8319 927.8319 927.9170 930.2326 930.8715 930.8715
   930.9944 931.6386 931.6386 931.7111 931.7111 931.7722 932.1109 932.1325
   932.1325 932.9676 932.9676 933.0309 933.9234 933.9234 934.2717 934.4785
   934.4785 934.5158 936.0791 936.1992 936.1992 940.4005 940.5024 940.5024
   940.5215 940.5788 940.5788 941.5713 941.5713 941.5806 945.6072 945.6072
   945.6714 946.1192 946.1192 946.1631 947.3512 947.3512 947.3878 947.7729
   947.7729 947.7966 948.5720 950.3763 950.3763 950.4222 950.5082 950.5082
   950.5300 951.1704 951.1704 952.2031 953.5952 953.5952 953.9050 954.5582
   954.5582 954.6921 956.6521 956.6521 956.9457 957.1903 957.1903 957.3874
   958.1871 958.1871 959.3105 960.9036 960.9036 960.9843 962.2194 962.2194
   963.6484 964.2121 964.2121 964.2162 966.4127 966.4127 969.3286 969.3286
   969.3827 969.6318 969.6318 969.8031 970.5767 970.5767 970.6814 972.7247
   972.8262 972.8262 973.3069 973.3069 973.4056 974.9795 975.1992 975.1992

          k = 0.5000-0.5000 0.5000 (  3316 PWs)   bands (ev):

   -40.2787 -18.7520  -1.7622   0.4035   0.4035  11.2455  16.8812  19.2628
    19.2628  30.4358  30.9862  30.9862  33.4447  36.9768  36.9768  44.9211
    44.9211  46.5773  52.1832  52.4558  52.4558  54.9483  60.6328  60.6328
    64.9150  67.8014  70.0833  70.0833  71.3180  71.3180  74.3288  74.3774
    74.6349  74.6349  76.2142  85.9365  85.9365  89.0662  89.9909  89.9909
    91.3061  95.9818  97.9956  97.9956 101.9750 102.6353 102.6353 107.0547
   107.9496 107.9496 108.8332 108.8332 115.4696 118.6546 118.6546 120.6213
   122.4586 122.4586 122.9453 125.8618 125.8618 126.5942 126.5942 127.3422
   128.0398 128.0398 128.0476 128.0476 129.3247 129.3943 138.6926 141.0732
   141.0732 141.1159 146.1259 146.7786 146.7786 147.1102 147.1102 157.1300
   157.1300 157.4615 157.8189 160.5773 160.5773 161.3115 162.7733 163.7410
   163.7410 164.8313 167.9108 170.4442 170.4442 172.8126 173.4834 173.4834
   177.0846 177.0846 177.6221 178.4429 178.4429 181.2960 182.5753 182.5753
   182.5780 182.5780 182.6234 182.6338 191.6949 192.7483 192.7483 194.8765
   194.8765 196.5500 197.2125 198.8112 198.8112 198.9323 198.9323 199.8502
   199.8648 208.6709 208.6709 210.8175 212.9587 213.0336 213.0336 214.7789
   214.7789 215.0525 215.0525 216.1348 217.3709 217.3709 217.7022 218.0390
   218.0390 218.0822 220.2399 227.3438 227.9205 227.9205 228.0945 229.4195
   229.4195 230.2669 235.5397 235.5397 235.5577 235.5577 236.9405 236.9405
   237.0705 237.0705 237.4187 237.4266 243.6527 243.6527 248.3124 248.8208
   250.0638 250.0638 252.1843 253.6777 253.6777 254.2812 254.2812 254.4593
   254.6432 257.2099 257.2099 261.9066 261.9066 268.5566 268.5566 268.7837
   268.8695 268.8695 269.4704 270.8557 274.9371 277.6412 277.6412 281.0620
   281.4065 282.8272 282.8272 283.6086 284.1572 285.0331 285.0331 285.4609
   285.4609 286.4018 286.8948 286.8948 288.7201 288.7201 289.0411 289.6626
   289.6626 289.8682 289.8682 289.8937 290.1402 290.4154 290.4154 290.4234
   290.4234 291.5208 301.9287 301.9287 302.2065 303.7018 303.7018 304.7675
   305.2688 307.3797 307.3797 307.5067 307.5067 308.0913 308.6194 308.6194
   308.6536 308.6536 308.7454 308.9100 316.1137 316.7853 316.7853 318.8213
   318.8213 321.4840 322.3975 324.3826 325.1664 325.1664 325.3262 325.3262
   325.4292 325.6142 327.5505 333.6743 333.6743 337.0194 337.0194 339.6296
   341.2992 341.9531 341.9531 342.0762 342.0762 342.0765 342.3446 342.3446
   342.5157 343.1061 343.1061 343.7265 345.1652 345.1652 345.1913 345.1913
   345.2428 345.3646 345.9656 355.0053 355.0053 356.9353 356.9353 358.6321
   362.6948 365.7316 365.7316 367.3573 370.1938 370.8857 370.8857 372.3848
   372.3848 373.3537 373.3537 376.4942 377.2180 377.3269 377.3269 377.5134
   377.5134 379.0847 379.2324 379.2324 379.3731 379.3731 379.3792 379.8654
   379.8654 379.9165 379.9165 380.1284 380.1603 380.9007 388.9513 390.0740
   390.0740 390.4048 390.9593 391.9738 391.9738 395.2564 395.2564 395.2984
   395.2984 395.2991 395.5614 395.7398 395.7398 395.8238 395.8238 397.7540
   397.7540 397.7555 397.7896 397.8004 397.8004 397.9183 399.2975 399.2975
   399.3022 399.3022 400.5719 400.5724 404.7800 408.0491 414.3488 414.3488
   415.2290 415.4306 415.4306 415.9963 416.3847 416.3847 416.4552 416.4552
   423.0422 423.0422 423.9586 426.3581 427.9681 427.9681 428.2623 428.6443
   428.6443 428.9444 428.9444 431.9917 433.1309 433.1309 433.2038 433.3619
   433.4663 433.4663 434.2076 434.2076 434.3921 434.3921 434.7093 434.8612
   439.0180 439.0180 444.1309 444.1309 444.6561 445.3018 447.7407 448.1516
   448.1516 450.1109 450.3920 450.3920 450.8661 450.9300 450.9300 450.9663
   450.9663 451.3285 451.3285 451.4108 451.4108 451.4139 451.4166 451.4870
   465.0424 465.0424 465.9406 466.6956 467.1631 467.1631 468.1006 468.1006
   468.1550 468.7849 468.7849 468.9505 468.9505 468.9618 469.1201 469.1201
   469.2211 469.4254 472.8692 479.6260 481.3150 481.3150 481.6871 483.4255
   483.4255 485.4417 485.4417 485.4804 485.4804 485.5540 485.5806 485.6170
   485.6172 485.6172 485.6843 485.6843 485.8158 486.3210 489.2768 489.2768
   489.3510 489.3510 492.5238 494.9054 494.9054 496.4189 496.4189 499.7311
   500.2441 500.8805 500.8805 500.9345 500.9345 501.8187 503.2980 503.7031
   503.7031 504.4688 504.4980 504.4980 506.0109 506.0338 506.0338 506.2234
   506.2234 506.4510 508.1159 508.1696 508.1696 508.2247 508.2247 508.2595
   515.5537 518.5281 518.5281 519.2443 519.2443 519.6786 523.5459 523.5459
   523.7660 523.7660 524.0554 524.1462 529.6370 533.5043 533.5043 536.1865
   536.1865 537.2291 537.4977 538.9089 539.4511 539.4511 539.4547 539.4547
   539.5953 540.2912 540.3310 540.3310 540.3420 540.3420 540.4130 540.4810
   541.8845 541.8845 541.9086 541.9086 542.0196 542.1278 549.4778 550.8600
   550.8600 551.2406 551.3491 551.9801 551.9801 553.0990 553.0990 553.2608
   553.2608 554.6924 554.6924 555.1711 555.2102 555.2102 555.5784 555.8622
   558.4831 558.6077 559.2277 559.3291 559.6592 559.6592 559.7727 559.7727
   559.8212 559.8212 559.9169 559.9169 559.9812 559.9812 560.0192 560.0192
   560.3829 560.3985 561.0090 561.0090 561.0541 561.0541 561.2783 561.2948
   574.1973 574.4465 574.4465 575.0176 575.0176 575.3211 576.7080 577.0100
   577.0100 577.0930 577.0930 577.2660 577.2665 577.2865 577.2865 577.3749
   577.3768 577.3768 579.3956 579.3956 579.4104 579.4104 579.5171 579.5248
   592.7255 592.7255 592.9827 593.5549 593.5549 594.2822 594.3983 594.4054
   594.7131 594.7131 594.7704 594.7704 601.1923 605.1302 608.1309 608.1309
   608.8793 609.1470 609.1470 609.7013 611.2628 611.2628 611.4122 611.4122
   611.5860 611.5860 611.6089 611.6089 611.8951 611.9188 612.0487 612.0487
   612.2142 612.2549 612.2549 612.6707 615.4040 615.4040 615.4063 615.4063
   616.8328 616.8340 627.2285 627.6448 627.8398 627.8398 628.8559 629.1137
   629.1137 629.3562 629.3562 629.4450 629.4450 629.8648 633.6614 633.6614
   633.6657 633.6657 633.9248 633.9272 637.5292 637.5292 639.3776 640.6808
   640.6808 641.2398 642.0352 642.5680 642.5680 643.0008 643.2870 643.6124
   643.6124 643.9956 648.3075 648.3075 648.4819 649.0346 649.0346 649.0487
   651.2298 651.2298 651.2335 651.2335 660.2466 660.2466 660.6752 662.0342
   662.0342 662.4527 663.2208 663.2208 663.5151 663.5151 663.5399 664.2077
   665.2246 665.2246 665.2563 665.3382 665.7987 665.7987 665.9341 666.2254
   666.3117 666.3117 666.5202 666.5202 667.4802 667.5195 667.5216 667.5216
   667.6006 667.6350 667.6350 667.7026 667.7026 667.7063 667.7063 667.7416
   668.6853 668.6853 668.7201 668.7433 668.7433 668.8034 669.7090 669.7090
   669.7264 669.7264 669.7709 669.8687 682.1896 682.1896 682.2125 682.2156
   682.2156 683.1462 683.5927 683.5927 683.6590 683.6590 683.6785 683.6816
   686.1445 686.1445 686.1447 686.2066 686.2559 686.2559 696.2566 697.6608
   697.8270 697.8270 698.0943 698.0943 700.7479 700.7479 701.3305 701.3305
   701.3335 701.5740 701.7625 701.8676 701.8676 701.8850 701.8850 701.8885
   703.9711 703.9711 704.0059 704.0059 704.1262 704.1262 704.1721 704.1982
   704.2030 704.6323 704.7150 704.7150 704.8673 704.8673 704.8741 704.9582
   704.9582 705.0346 717.7755 719.0300 719.4920 719.4920 719.7260 719.7260
   719.8680 719.9462 720.6054 720.6054 720.6251 720.6251 721.1818 721.3722
   721.3722 721.4156 721.4504 721.4504 721.5821 721.5821 721.5880 721.5880
   721.6009 721.6288 731.6514 731.8215 735.2159 735.2159 735.6377 735.6377
   735.6958 735.9983 741.0493 741.0493 741.0574 741.0574 741.3916 741.3916
   741.4230 741.4230 741.4367 741.5111 751.1333 751.5442 751.5442 751.9468
   751.9468 752.6177 752.7030 753.0113 753.0113 753.0370 753.0370 753.0511
   755.3651 755.5023 755.5023 755.6413 755.6413 755.6549 755.8061 755.8061
   755.8114 755.8114 755.8206 755.8679 757.2015 757.2015 757.2075 757.2075
   757.4866 757.5155 759.3506 759.3506 759.3708 759.3708 759.3928 759.4399
   767.4875 767.7367 768.4851 768.4851 768.6195 768.6195 773.6593 773.6593
   773.7022 773.7022 773.7721 773.8129 775.5862 775.8605 775.8605 775.8795
   776.0366 776.0366 776.3438 776.3438 776.3681 776.3681 776.4880 776.4986
   778.0638 778.0638 778.0794 778.0794 778.1157 778.1423 790.2059 790.5322
   791.6686 791.6686 791.6793 791.6793 791.6994 791.6994 791.8521 791.9358
   791.9358 792.0063 792.6613 792.6613 792.7024 792.7024 792.7456 792.8128
   795.6084 795.6084 795.6114 795.6114 795.9996 796.0006 804.1193 804.2423
   804.2423 804.3606 804.3606 804.4188 808.9093 809.1797 810.0006 810.0006
   810.1325 810.2034 810.2034 810.3899 810.7570 810.7854 810.7854 810.8058
   810.8058 810.8098 811.1410 811.1469 811.1469 811.1553 811.1553 811.2811
   823.7946 823.9692 823.9692 824.4865 824.4865 824.5116 825.4043 825.4043
   825.4475 825.5243 825.5243 825.5260 826.5803 826.5803 826.7901 826.7901
   827.1463 827.3823 827.3956 827.7000 827.7000 827.7260 827.7483 827.7999
   827.9359 827.9359 828.1232 828.1232 828.1927 828.1927 830.6930 830.7052
   830.8276 830.8276 830.8531 830.8531 831.3783 831.3783 831.4000 831.4000
   831.4899 831.5060 831.8632 831.8632 831.8698 831.8698 832.0079 832.0176
   847.6027 847.6305 847.7254 847.7254 847.7650 847.7650 848.1939 848.1939
   848.2160 848.2160 848.3027 848.3148 848.3398 848.3883 848.4917 848.4917
   848.5230 848.5230 858.9255 858.9255 859.4911 859.4911 859.5109 859.7453
   863.5199 863.5457 863.5457 863.5607 863.5607 863.6072 865.2456 865.2456
   865.3246 865.3282 865.3866 865.3866 866.1621 866.1621 866.1959 866.2250
   866.2250 866.3234 866.4673 866.4673 866.6355 866.6700 866.6824 866.6824
   873.7642 874.3497 876.5452 876.5452 876.6582 876.7312 876.7312 877.0911
   878.5664 878.5664 878.6102 878.6102 880.6779 881.4180 882.5040 882.5040
   882.6725 882.6725 882.8150 882.8150 883.2109 883.2109 883.2149 883.2249
   883.9179 883.9312 883.9406 883.9406 883.9429 883.9429 884.1893 884.2364
   884.2364 884.2577 884.2577 884.2708 885.0524 885.0524 885.0648 885.0648
   885.5314 885.5321 886.8263 886.8263 886.8267 886.8267 887.8670 887.8671
   901.2356 901.2356 901.2420 901.2420 901.3526 901.4225 901.5465 901.5465
   901.5625 901.6426 901.6426 901.6942 916.4077 916.4781 916.5470 916.5470
   916.6168 916.6168 916.9609 916.9609 917.1189 917.1189 917.1764 917.2413
   917.5216 917.5216 917.5292 917.6001 917.6001 917.7623 918.1050 918.1050
   918.1483 918.1483 918.2823 918.2856 918.3016 918.4575 918.4575 918.5028
   918.5574 918.5574 919.2534 919.2534 919.3919 919.4815 919.4815 919.4841
   931.0509 931.1578 935.2696 935.2696 935.2836 935.3277 935.3277 935.4508
   935.8768 935.9043 935.9449 935.9449 935.9596 935.9596 936.0618 936.0618
   936.1180 936.1260 936.1260 936.2020 936.5643 936.6704 936.6704 936.6961
   936.6961 936.7118 937.2992 937.2992 937.3017 937.3937 937.3937 937.4610
   938.9123 938.9123 939.1100 939.1591 939.1591 939.1653 939.3690 939.4430
   939.4430 939.5539 939.5539 939.5949 939.7073 939.7073 939.7120 939.7120
   940.3948 940.3948 940.3993 940.3993 940.4914 940.4935 952.1426 952.1426
   952.1985 952.2858 952.2957 952.2957 957.5229 957.5229 957.5303 957.5303
   957.5875 957.5896 972.4400 972.4430 972.4430 972.5270 972.5270 972.5807
   972.6069 972.6069 972.6139 972.6726 972.6726 972.6859 973.7326 973.7326
   973.7907 973.9395 973.9407 973.9407 974.0302 974.0302 974.0522 974.0522
   974.0778 974.0914 984.8683 984.9148 984.9249 984.9249 984.9840 984.9840

          k = 0.0000 0.5000 0.0000 (  3327 PWs)   bands (ev):

   -40.2959 -18.8714  -0.7338   0.1425   0.1425  11.6833  19.2046  20.0059
    20.8356  20.8356  33.0554  33.0554  33.8007  34.5850  37.4575  42.9334
    43.1757  43.1757  49.8599  52.6172  55.3535  55.3535  63.7869  66.3276
    66.8784  66.8784  67.0457  73.0290  73.0290  73.3055  73.3881  80.9985
    83.7101  83.8623  83.8623  85.2764  85.2764  85.3513  88.2765  88.4786
    89.6300  89.6300  90.4463  90.6761  96.8714  96.8714  99.9594 102.5383
   105.7890 107.6122 107.8824 107.8824 108.9808 111.3867 113.3061 113.3061
   122.0912 122.9608 122.9608 123.8453 123.8453 125.8088 127.2075 127.8746
   134.1925 134.2160 134.2160 137.2231 137.9800 139.3876 139.3876 140.9669
   143.1603 143.7234 143.7234 144.9825 149.3919 149.3919 152.4165 154.8013
   155.2128 156.4525 156.4525 157.2611 160.2810 165.1802 165.1802 166.4620
   169.8420 171.4395 173.7188 173.7188 175.5414 175.5414 175.6969 175.9674
   176.0897 176.7927 176.7927 176.8309 177.7249 178.5427 184.0234 184.0234
   184.5463 189.1555 189.5314 190.6834 190.6834 192.6871 192.9458 192.9458
   193.6460 194.5461 194.6754 194.6754 195.4994 196.0629 196.0629 196.2565
   196.6000 198.1310 198.1310 199.0834 199.8507 201.4335 205.0902 205.0902
   210.6519 210.6612 210.6612 211.1152 215.1081 215.5123 215.5123 218.2827
   219.4008 223.8399 224.8226 224.8226 226.4723 231.3484 231.8212 231.8212
   232.3644 233.0005 233.1317 233.1317 233.1697 233.5450 240.6660 240.6660
   243.3978 243.3978 243.7426 244.3891 245.8776 246.8893 247.8281 247.8281
   248.9134 251.4241 251.5894 251.5894 251.7405 252.1354 256.3505 256.3705
   256.3705 262.2746 263.3467 263.3859 263.3859 265.1588 267.7886 268.6457
   268.6457 269.0803 270.3303 270.3303 271.1953 275.4152 277.5833 278.5986
   278.7003 278.7752 278.7752 282.0090 282.0090 282.6539 283.7164 285.1005
   285.1005 285.5712 285.5712 285.7304 286.0683 287.3725 287.7910 287.7910
   288.4119 290.1075 293.0705 293.1852 293.1852 294.9984 296.5381 301.0653
   301.0653 301.7453 302.0218 302.0218 302.8808 302.8808 303.0021 303.0239
   303.2939 305.2691 306.8943 306.8943 311.4431 312.9765 313.3598 316.2877
   316.2877 317.7985 318.0372 318.0616 318.0616 318.2808 321.8618 321.8824
   321.8824 322.2238 326.3537 329.8671 329.8671 330.5800 332.5779 333.1006
   333.1006 335.1166 335.1166 335.8654 335.9349 336.0774 336.7019 336.9095
   336.9095 337.1485 338.8113 338.8113 339.6088 339.8194 341.6866 341.8455
   341.8455 342.1443 345.0692 348.4821 348.5154 348.5154 350.6104 350.6104
   352.6830 352.6830 352.9439 353.5839 353.7129 354.0770 354.5738 354.5738
   354.6092 355.0098 355.2617 355.2617 355.3960 356.9968 357.6819 357.8023
   357.8023 358.0911 358.1359 358.1791 358.1791 358.6098 359.0020 360.8221
   360.8221 361.7109 367.3395 371.2316 371.5548 371.5548 372.5616 373.3548
   373.4188 373.4188 374.2144 374.5600 374.9566 374.9566 375.2059 376.2884
   387.5241 388.5486 388.5486 391.2281 392.7454 392.7454 396.1610 396.7840
   396.7840 398.3232 400.4092 401.7185 402.7923 402.7923 404.0911 404.8306
   408.1121 408.1121 408.2707 408.6693 409.0895 409.0895 409.3314 409.3314
   409.8814 409.9722 410.1843 410.1843 410.2964 410.8348 412.6732 412.7228
   412.7228 412.8328 413.4505 413.7041 413.9392 413.9392 414.2679 423.7487
   423.7487 424.4660 426.6667 427.2331 427.4315 427.4315 428.1096 429.3270
   429.3270 433.4263 435.2203 438.9664 440.3537 440.3537 441.2210 442.7573
   442.7573 443.1546 443.3954 445.7536 445.7536 446.1737 447.0669 447.7048
   448.2089 448.2089 448.6982 449.5641 449.6776 449.7857 449.7857 449.8799
   453.4910 453.4910 456.8518 457.1945 457.5553 457.5553 459.6725 459.6725
   460.2609 460.7121 461.6627 462.7064 462.7214 462.7214 463.2299 463.2423
   463.3343 463.3343 464.0207 464.0298 464.1412 464.1412 464.2142 464.8769
   464.8769 465.1529 465.4687 465.8078 465.8948 465.8948 465.9732 466.6005
   468.4606 468.4777 468.4777 468.5003 468.7338 468.7338 469.7540 475.7700
   476.3267 476.3267 478.1261 480.3226 480.6832 480.6832 481.1315 483.8488
   483.9138 483.9138 484.2578 484.7900 484.7900 484.8088 484.8615 486.7963
   488.6829 488.6829 491.3443 492.7972 493.5742 493.5742 494.5506 494.7331
   497.3555 498.6205 498.6205 499.5817 499.8375 499.8478 499.8478 500.4199
   502.5507 503.8090 504.0592 504.0592 504.1183 504.2297 504.2297 504.3026
   504.4358 511.8763 511.8763 512.9653 514.0982 515.4727 515.8542 515.8542
   516.5493 516.5493 516.6935 516.7918 516.7928 516.9011 516.9011 517.0338
   517.5984 519.8200 519.8200 520.1175 520.1175 520.1417 520.1889 524.6068
   526.2394 532.5101 532.5101 533.5263 534.3671 534.3671 534.8089 535.0377
   535.5672 535.6327 535.7174 535.7174 535.8205 536.1506 536.1506 536.4776
   536.5201 536.5201 536.7112 536.8542 537.1747 537.1747 537.3619 539.6928
   546.9576 548.1860 548.1860 549.4404 549.5359 550.6207 550.6207 551.6203
   551.6203 551.6701 552.1173 552.5035 553.2338 553.2338 553.3090 553.3651
   556.3106 556.8018 556.8018 557.2563 558.6197 558.6529 558.6529 558.6682
   562.1718 562.1718 564.8314 566.3088 567.7107 568.2219 568.2219 568.3120
   569.1714 569.3787 569.3787 570.0211 570.4276 571.1338 571.1338 571.2444
   571.5300 571.9119 572.2018 572.2018 572.4428 572.4428 572.8683 573.5490
   574.4593 574.4883 574.4883 574.6021 574.8927 574.9727 574.9727 575.1062
   579.8979 584.5967 584.5967 585.5465 585.5465 586.1596 586.4761 589.0333
   589.4413 589.5678 589.5678 589.8003 593.1950 595.1195 595.1195 596.0434
   597.7749 600.6075 600.6075 602.0901 604.1781 604.1781 605.8423 606.1075
   607.0724 607.1259 607.1259 607.3386 611.8566 612.1923 612.1923 612.5864
   619.1939 619.1939 619.6629 620.8577 622.9620 622.9620 622.9689 624.3201
   624.6461 624.6461 624.6575 624.6577 624.8820 624.8820 625.1631 625.5131
   625.6519 625.6519 625.8079 625.9395 626.1958 626.4008 626.4226 626.4226
   626.6950 626.6950 626.7117 626.7129 626.9014 626.9602 626.9602 627.2300
   627.7471 627.8516 627.8516 627.9354 630.9867 631.0091 631.0091 631.0191
   635.9501 636.9019 636.9019 638.6774 639.2066 640.8167 641.8219 641.8913
   641.8913 641.9685 643.0445 643.0445 643.9110 645.7632 646.4307 646.4413
   646.4413 646.5412 654.5530 654.5530 655.9407 656.1900 658.8604 659.9548
   659.9548 660.6007 661.3672 661.3672 661.5935 661.9102 662.8317 662.8317
   662.8805 662.9264 663.0784 663.1111 663.1111 663.2450 663.3262 663.7852
   663.7852 663.8016 663.8589 663.8589 663.8783 663.8783 663.9534 664.0136
   668.8792 672.0569 674.0953 674.4268 674.4268 675.2621 677.8370 678.3090
   678.3090 678.4733 678.4733 678.6654 678.8120 678.8347 679.0371 679.5209
   679.5209 679.7070 679.7070 680.0780 681.2815 681.6715 681.6715 681.9656
   683.0093 683.0093 683.0390 683.0466 683.6476 683.8086 683.8086 683.9429
   684.0869 694.0923 694.3320 694.3320 695.0375 696.6056 696.6056 696.9698
   697.4775 697.7111 697.7111 697.9799 698.0225 698.0832 698.1352 698.1352
   698.3320 707.2053 708.0344 708.0344 709.6461 711.2182 711.2182 712.4556
   712.7668 713.5164 713.7091 713.7091 714.0973 714.5565 714.5823 714.5823
   715.0071 715.1001 715.2020 715.4805 715.4805 715.9701 716.3442 716.5476
   716.5476 716.6739 716.6739 716.6792 717.2850 717.3536 717.3536 717.4673
   717.7474 718.9438 718.9438 718.9661 719.0534 720.6092 720.7016 720.7016
   720.7771 722.6148 722.6148 723.3513 723.7335 724.0698 728.4333 728.4333
   728.4504 729.1754 729.1754 729.5885 729.8956 730.0291 730.0291 730.4871
   733.1222 733.2093 733.8036 733.8036 734.3803 734.4727 734.7806 734.7806
   735.0170 735.3376 735.3376 735.3878 735.4206 735.4890 735.4890 735.5253
   735.5358 737.0038 737.0128 737.0128 737.0550 737.4103 738.2900 738.3135
   738.3135 738.3605 739.0105 739.1713 739.1713 739.3673 739.4143 739.4143
   740.3601 748.3177 748.3177 748.5756 748.6618 751.3046 751.3046 751.3705
   751.6044 752.8822 752.8822 752.9114 752.9646 756.8769 756.8974 756.8974
   756.9626 765.1256 765.1256 765.5940 765.6712 769.4397 769.4408 769.4408
   769.5810 770.5093 770.5093 770.7011 770.9589 773.2819 773.3086 773.3086
   773.3787 781.9803 781.9803 782.4730 782.7296 784.5132 786.0348 786.0348
   786.5148 786.8075 787.0261 787.0842 787.2086 787.2086 787.3989 787.3989
   787.6642 787.6865 787.6865 787.9707 788.0136 789.3791 789.6782 789.6782
   790.1344 790.3479 790.5392 790.5392 790.6756 792.5547 792.5622 792.5622
   792.6059 800.9887 802.2622 803.6698 803.6698 803.9257 804.4749 804.4749
   805.0028 805.0663 805.1812 805.1839 805.1839 805.2480 805.2585 805.9335
   805.9335 806.5023 809.0578 809.0697 809.1279 809.1279 809.2289 814.5275
   814.7029 814.7029 815.0687 820.4862 821.2755 821.2755 822.0111 822.0719
   822.3018 822.3018 822.7819 823.0267 823.1038 823.1038 823.5096 823.5637
   823.5637 823.7754 823.9483 824.3030 824.3030 824.3259 824.3677 824.4178
   824.4178 824.5007 824.5345 824.5645 824.5645 824.6438 824.7054 825.3129
   825.3233 825.3233 825.3515 826.4753 826.4753 826.8372 827.3632 827.3632
   827.8334 828.9497 829.0271 829.0271 829.0858 831.3227 835.3352 837.8029
   837.8029 837.9073 838.0342 839.9414 839.9414 840.0705 840.1731 840.3834
   840.5093 840.5093 840.6019 841.4007 841.4128 841.4128 841.5269 842.1118
   842.1118 844.8848 844.8848 844.9026 844.9063 844.9998 845.0192 845.0192
   845.0813 846.3940 847.2038 847.2332 847.2332 847.2770 859.1632 859.5737
   859.5737 860.1306 860.1642 860.1642 860.3497 860.5156 860.5653 860.7315
   860.7315 860.7811 860.7862 861.0874 861.0874 861.3392 872.4157 873.2386
   873.2386 873.9144 874.5501 874.5501 874.8358 874.8524 878.1326 878.2524
   878.2524 878.2995 878.5229 879.2199 879.2199 879.4678 879.4891 879.4891
   879.5694 880.0975 882.9199 883.1389 883.1389 883.3785 886.3743 888.5380
   888.5380 889.5600 890.1539 890.6595 890.6595 891.0310 891.3819 891.3819
   891.7219 895.5035 895.9505 896.0029 896.0672 896.0672 896.1023 896.1219
   896.1219 896.1390 896.1390 896.1524 896.1981 896.4370 896.7128 896.9104
   896.9104 897.1005 897.6121 897.6121 897.7926 897.8029 898.5078 898.5078
   898.5190 898.5203 899.7083 901.7662 901.7662 902.7243 909.4716 909.4716
   909.5800 909.6593 911.9637 911.9637 912.1116 912.2368 913.8748 913.8748
   913.9116 913.9845 913.9845 914.0339 914.1613 914.3579 914.4499 914.5659
   914.5659 914.6196 914.9657 914.9872 914.9987 914.9987 917.4882 917.5102
   917.5102 917.5456 919.2951 919.3265 919.3265 919.3664 928.1897 928.3065
   928.3065 928.5692 930.5663 930.5663 930.7724 930.8744 931.8102 931.9671
   931.9759 931.9759 931.9946 932.1671 932.1671 932.3926 932.3926 932.3981
   932.5026 932.5204 935.0758 935.1513 935.1513 935.2488 941.5447 941.6136
   941.6136 941.6456 945.9328 946.8648 946.8648 947.5103 947.5103 947.5621
   947.6360 947.7035 948.8166 948.9520 948.9520 949.0818 949.1065 949.1065
   949.1765 949.4387 949.4611 949.5583 949.5583 949.6543 949.6556 949.8893
   949.8893 950.0559 950.7312 950.9572 950.9572 950.9777 951.2301 951.2448
   951.2448 951.3388 951.4337 951.4337 951.4432 951.5638 952.2945 952.3073
   952.3073 952.3150 953.3581 953.3581 953.3675 953.3737 953.3833 953.3833
   953.4115 953.4159 955.2572 955.3171 955.3171 955.3557 965.2048 965.3879
   965.3879 965.4066 967.0998 967.5027 967.5027 967.7918 968.7514 969.0663
   969.0663 969.1359 969.3761 969.3761 969.4604 969.4824 969.9579 969.9661
   969.9661 970.0037 971.0034 971.0293 971.0293 971.0966 982.0887 983.7042

          k = 0.7500-0.2500 0.7500 (  3307 PWs)   bands (ev):

   -40.2724 -18.6356  -1.6070  -0.4690   0.0318  13.3184  16.1551  18.9408
    19.8619  24.2285  32.8692  33.6663  36.5880  38.1963  38.3449  43.3435
    45.2378  49.3000  50.2549  51.9015  54.7799  56.0318  56.5245  58.7921
    61.3480  62.1034  67.1544  67.4051  69.7189  71.8619  74.9657  75.1999
    75.9356  80.8883  82.7013  83.9562  85.4733  88.7395  89.1646  89.6242
    94.5926  95.4237  98.1600 100.8775 101.7801 103.1240 105.2114 105.4917
   106.5832 107.8015 108.5133 109.9553 114.8455 115.1716 118.1890 118.8878
   119.9151 121.3844 121.6623 121.6873 126.0533 128.7447 129.1425 130.2324
   131.8243 132.9052 133.0915 133.8927 135.1556 136.3593 137.6985 138.1611
   140.5958 140.9203 144.0605 145.6355 146.1712 147.2561 149.9375 151.0451
   153.1966 153.7195 153.8980 155.7028 155.7634 158.1783 160.0261 160.5321
   161.3928 164.3613 165.7232 166.6434 168.7259 171.2352 172.2700 172.7495
   175.6006 176.4265 178.0145 178.0383 179.3168 180.3760 181.1260 183.5779
   183.9687 186.0074 186.3507 186.9004 188.5798 189.2548 191.3197 194.2088
   194.3758 197.5161 198.2973 199.3033 199.7670 201.2757 201.5063 202.7960
   205.0384 206.6998 207.9174 210.5356 211.2962 211.7533 212.8064 213.9547
   214.9838 216.0024 217.6391 218.1334 218.3078 221.9059 222.6766 223.0059
   223.4602 225.6716 226.2402 226.5219 227.8939 228.5802 231.2872 231.7781
   232.1291 232.9223 234.7814 235.1166 237.4152 238.6124 239.2963 239.6277
   239.9532 242.0165 243.4903 244.0411 244.3770 245.5365 246.2048 247.2947
   248.5629 250.6504 250.8325 251.6111 252.8517 254.1582 254.7469 255.0957
   255.8244 256.7759 257.4642 258.8834 259.2810 259.8803 262.6552 263.9166
   264.8631 265.3276 266.3169 267.5796 268.2679 269.2345 270.4041 270.7832
   271.0729 271.9711 274.3994 275.5471 279.5112 279.6353 280.9816 282.7845
   283.2453 283.8937 284.4985 284.8924 286.1353 288.0205 288.3795 288.9433
   289.0476 289.4451 290.3443 290.6579 291.1721 292.1144 294.4334 295.6824
   297.2561 297.9964 298.1662 298.6258 301.7496 303.0213 304.4216 305.6914
   306.4386 306.9213 307.2745 308.1014 309.5765 310.4733 311.2586 312.1983
   313.2163 313.5033 315.0113 315.8783 316.7122 318.4605 319.0940 320.1678
   320.4805 321.4155 322.5527 322.5914 324.3502 326.6067 329.7845 330.8445
   331.3045 331.9777 333.4288 334.4890 334.7059 336.7370 336.9894 337.6582
   337.7759 338.1842 338.4961 338.7831 339.2900 341.0744 342.0112 343.3464
   345.6106 348.3976 349.2382 349.3475 350.9666 351.5036 352.7168 353.4025
   354.1980 354.8970 356.4305 356.4952 358.2512 358.3124 358.6966 358.9329
   359.7386 360.0519 362.2882 363.3113 363.9084 364.9695 365.7500 365.8775
   367.2840 368.0636 368.2938 369.0603 369.8681 373.3971 373.4062 374.4467
   374.6644 374.9769 375.1026 375.1695 376.8035 377.1402 377.5126 380.2455
   382.8058 383.6452 384.0108 384.0296 385.0064 385.3604 385.5670 386.4862
   386.7218 387.3837 388.2881 388.7295 388.8141 390.6934 391.6789 392.8075
   393.0240 393.5246 395.0322 395.5321 397.0193 398.2978 399.5072 399.9642
   400.6384 402.9740 403.5447 403.5966 404.0165 404.2480 405.4092 406.2626
   406.4129 407.1000 407.1482 410.0948 410.4222 411.8555 412.7819 413.0364
   413.2562 413.3829 414.0371 415.1305 416.1385 417.5905 418.4553 418.8974
   418.9933 419.3425 419.8820 423.2399 423.8802 424.7801 426.6049 427.7959
   427.9787 428.3366 429.1924 429.7022 430.6249 431.4802 431.8651 431.9325
   432.7282 433.2527 434.0585 434.6796 435.0585 435.4414 438.7633 438.8245
   439.8279 440.2741 441.1905 441.3469 442.2087 444.0881 444.6701 445.8268
   446.6010 447.0761 447.0806 447.7015 450.1189 450.2552 451.2036 452.2092
   452.6218 453.2498 453.3724 453.8844 453.9915 454.2310 454.5460 456.6258
   457.9680 458.3147 459.0827 459.3736 461.6761 462.5028 463.6678 464.9721
   464.9769 465.8043 466.6831 466.9894 469.3979 469.4048 470.6659 471.4015
   471.8674 471.9359 472.3016 472.3763 475.2118 475.3146 475.9462 476.5982
   478.4887 479.8443 480.9697 481.7956 482.1571 484.1102 484.2508 484.8532
   485.8883 486.8583 487.0419 487.4023 487.4111 487.7869 489.9391 490.1272
   490.7710 491.3051 493.2819 494.2500 494.7994 496.0255 496.0439 496.7372
   497.0530 497.6374 498.2029 498.4990 499.3293 500.0177 501.6533 503.7886
   506.8283 507.5304 508.4528 509.0692 509.5661 509.6996 510.0608 510.0820
   513.5293 514.0665 514.0996 514.4993 514.5465 516.5033 517.5657 517.9945
   518.4792 519.5948 520.3255 520.7326 521.7488 521.9163 522.1535 524.5300
   525.1066 525.9455 526.3117 526.4570 527.1711 527.5909 528.0771 529.1483
   530.1066 530.3547 531.5602 532.2119 533.5069 533.7549 533.7774 534.5065
   534.9808 535.7883 535.9737 536.5975 537.4297 538.5184 539.9898 540.0649
   540.2911 540.4023 540.4618 540.6672 543.1572 543.5233 546.1593 546.4299
   546.7478 547.5204 547.5284 548.5596 549.0931 549.7543 549.8564 550.1797
   552.3357 554.2417 554.6536 554.9965 555.3818 557.2540 559.5723 560.1506
   560.5364 560.9853 561.3475 561.8291 562.1627 563.1956 563.5506 563.5897
   564.3713 564.7934 565.1140 565.2104 565.7269 565.8959 566.2754 566.4908
   566.6534 566.9189 569.8426 569.9124 570.3611 570.4127 571.8349 574.7978
   574.9674 576.5725 576.6440 577.5391 577.7982 577.8869 579.6597 579.9237
   581.0075 581.4774 582.2190 582.2244 584.5764 585.1372 585.9813 587.3507
   588.2240 588.7857 588.9805 589.4334 589.5318 591.7094 592.8277 593.4921
   593.8607 594.4814 594.6906 594.7872 595.5925 595.6048 596.1144 596.2211
   596.5923 596.6201 598.1238 598.9303 601.2947 601.4778 601.8838 602.2743
   603.4402 604.3368 605.1377 605.3863 605.8428 606.2320 606.6711 606.8967
   607.3976 607.9285 608.1427 608.2459 608.9130 609.1168 609.2262 609.3848
   609.4622 609.5485 612.5132 614.7607 615.3571 616.3075 617.7589 618.1380
   618.5656 619.1071 619.9394 619.9887 621.9757 622.0464 623.1769 624.0848
   624.3982 624.4092 624.9638 627.0707 627.8256 628.1236 628.2591 629.3189
   629.3208 630.2122 630.5656 631.7537 631.9700 632.4496 633.3113 633.4653
   633.6085 634.6105 635.3636 636.6885 637.1332 637.1471 637.2430 637.9386
   638.0803 638.5581 639.3736 641.1290 642.5506 642.9379 643.2155 643.9524
   645.2504 645.6734 647.2955 647.6956 647.8261 649.7468 649.8895 649.9486
   650.4355 650.9798 651.7293 653.2513 654.3538 654.9027 655.1398 655.5206
   655.9817 656.4011 656.9854 657.1155 657.2368 657.3002 658.5551 658.6624
   660.4490 660.7111 661.2121 661.2609 662.0656 662.2417 662.6851 664.3412
   664.3732 667.6188 667.7946 668.7439 669.1411 669.4894 670.0637 671.8790
   672.9484 673.2199 673.7170 674.7771 674.8903 675.2399 675.3216 676.6735
   677.2286 677.7778 678.1412 679.0454 679.3550 679.8382 680.9812 681.5630
   684.9291 685.3143 687.0131 688.4994 689.8353 690.1980 691.1019 691.4696
   691.6436 694.5636 694.8841 695.8618 696.3534 697.0495 697.3808 697.4882
   697.6195 698.0521 698.0539 698.1642 698.2040 698.7753 698.8015 699.2483
   699.8902 700.6621 700.9204 701.2471 701.3756 702.4401 702.5048 703.0901
   704.2388 704.6709 705.5306 706.4155 707.4474 709.7583 711.4014 711.5020
   712.8167 713.0540 713.1181 713.3091 713.3327 713.9227 713.9890 715.8914
   715.9680 716.0964 717.1139 717.1740 717.2977 719.3057 719.4198 719.5229
   719.6057 720.4066 720.6247 722.7382 723.7680 724.6483 725.8169 726.0383
   726.5647 726.6010 727.9373 728.9733 729.1619 729.2603 729.9749 729.9814
   730.4171 730.7255 730.9469 731.6989 735.6607 735.9918 736.3268 736.9903
   737.1051 738.5315 738.8014 738.8031 739.8726 740.2556 740.4021 741.6147
   741.8200 741.9436 744.3188 744.3472 745.3639 745.8652 746.9914 747.1376
   747.2744 749.0561 749.3782 749.3971 750.8115 750.8286 751.9605 752.4832
   752.8264 753.7532 753.7559 753.8698 753.9217 755.3616 755.9042 756.4908
   756.7604 756.9604 757.0401 758.1132 758.9067 759.8775 761.6762 762.0477
   763.5278 763.8599 764.0896 764.3745 764.3765 764.5173 765.0913 765.3725
   765.8443 766.2582 767.5550 769.2298 769.4558 769.7781 770.4980 771.5310
   771.5380 772.1579 772.2526 772.3319 774.4409 776.3405 776.8272 778.5772
   778.6357 779.0089 779.2819 779.3496 779.6186 779.7918 780.1485 781.7475
   781.8894 782.8489 782.8928 783.6343 783.6792 784.7002 785.3880 786.0726
   786.6345 787.3602 787.8858 790.9097 791.3486 791.6342 791.7916 792.3425
   792.6778 792.9918 794.0786 794.2715 794.4755 795.4884 795.5373 796.5462
   796.6095 796.7492 796.9411 796.9999 797.0358 797.0695 797.9794 798.4900
   800.9670 801.2805 801.7679 801.9671 802.4812 805.7872 805.8731 806.4390
   807.6359 807.7145 808.2874 808.3367 809.4904 809.5451 809.6424 809.6755
   809.7149 810.7891 810.9932 811.0282 811.0609 811.6744 811.9538 811.9580
   812.8472 812.8800 812.9590 814.1353 814.2428 814.9894 815.2031 820.2486
   821.9438 822.2004 823.6728 823.9648 824.1203 824.4373 825.0052 825.5319
   825.5879 825.7335 825.8396 825.9502 825.9748 827.2555 827.3959 828.7830
   828.8243 829.4359 830.8176 830.9331 830.9921 831.9577 831.9959 833.1605
   833.2114 833.6417 833.6536 834.1159 834.5442 834.8975 835.9712 836.6299
   836.8693 837.8373 837.9058 838.2743 838.2872 838.4507 839.7656 840.4633
   841.1462 842.2892 843.8258 844.3942 844.8203 845.3825 845.4952 846.1134
   846.1983 846.5149 847.4997 847.5159 848.7683 848.8043 849.8734 850.2189
   851.3790 851.3843 851.4542 851.8736 853.9777 854.1731 855.1870 855.2326
   855.2536 855.3246 855.4373 857.6239 857.6996 858.3617 858.6914 859.7854
   860.0361 860.2063 860.3218 860.6931 862.0087 862.0353 863.0697 863.5473
   864.0725 864.2097 864.4501 864.4871 864.7947 865.2616 865.3044 865.3211
   868.1779 870.8328 870.8485 871.2843 873.9882 874.1612 874.2780 874.3520
   874.5551 875.1618 875.1872 877.3137 877.6224 878.1109 878.1161 880.4343
   880.5651 880.6945 880.8221 880.8720 880.9515 882.4722 882.4796 883.0012
   883.0188 885.6724 886.1110 886.8425 886.9039 886.9933 887.3854 887.4369
   887.4599 887.5527 889.1368 890.1416 890.4498 890.8807 890.9272 893.4052
   893.4163 893.9573 893.9801 893.9921 894.3695 897.5773 897.6161 897.6966
   899.1955 899.9342 899.9624 900.5032 900.6192 901.3906 901.9146 901.9642
   903.0590 904.2436 904.3011 904.4533 904.4653 905.0309 905.1946 905.6055
   905.6289 907.0993 907.1384 907.5812 908.1065 908.2215 908.3609 908.9552
   911.2990 911.3002 913.7190 914.1057 914.3805 914.4388 914.6065 915.0713
   916.4958 916.8239 917.2812 917.6744 917.7255 919.9103 919.9307 921.1032
   921.5891 922.8017 922.9345 923.1357 923.2268 923.3406 924.9349 925.5362
   926.2472 926.7373 927.0590 929.6487 929.6889 929.7782 931.0596 931.1450
   932.6910 933.3853 933.3998 933.6606 935.2801 935.8011 935.8677 936.7621
   936.9362 937.7384 938.6573 938.7307 940.1027 940.1052 940.4173 940.5923
   940.9713 941.2747 941.9641 943.0996 943.1412 944.3691 944.4045 944.5067
   945.6246 945.6522 946.0460 946.0745 946.3820 946.3882 946.5957 947.3093
   948.1321 948.2014 948.8681 949.0801 949.0907 952.7701 953.9461 954.0107
   955.1710 955.4046 955.4925 955.6743 955.7205 956.1064 958.4506 958.4998
   958.5428 959.3458 960.1140 960.1718 960.7243 960.7747 961.0969 961.6986
   962.9431 963.9340 963.9433 964.6582 966.6460 966.7108 968.0757 968.0787
   968.4492 969.5973 971.0871 971.1113 971.1402 971.7474 971.8279 971.9099
   972.4124 972.4289 972.5548 972.5822 972.6007 972.8700 973.3141 973.3181
   975.4591 976.0548 976.7619 976.7872 977.6596 979.5094 979.6085 979.7265

          k = 0.5000 0.0000 0.5000 (  3318 PWs)   bands (ev):

   -40.2796 -18.7306  -1.1425  -0.6200   0.3882  12.4377  16.1410  19.6267
    19.7909  29.1073  29.1314  29.1429  36.7700  36.9437  39.9073  42.7825
    46.7610  47.7796  48.9003  52.4655  52.9602  55.1847  57.7703  63.8462
    64.2095  65.2267  66.9547  67.8973  71.2387  72.0529  73.0595  76.0504
    78.1606  80.6206  82.2241  83.1399  84.7319  85.1260  88.5451  92.0026
    93.7226  96.7652  97.8463  98.2554 100.6407 103.9085 104.6624 105.1255
   105.2639 106.3171 107.5647 108.7249 112.1416 115.4728 115.8047 118.4635
   118.7624 118.8507 120.7926 123.3222 123.5015 126.5267 127.9840 131.4885
   132.4408 132.5739 134.8512 135.6297 136.7650 137.1633 137.8662 140.6097
   140.9410 141.2215 142.9497 145.1658 148.9188 149.2707 150.6326 152.5736
   153.9007 154.2840 156.3569 158.2411 159.8028 160.9474 161.1313 161.9750
   162.0324 162.5304 162.8389 164.8691 169.7816 170.4900 172.4482 174.6981
   175.1644 175.5145 177.9632 179.1040 182.2200 183.2230 184.5423 185.2096
   186.6565 188.7743 188.9445 190.4099 190.7637 190.9186 192.7122 194.5039
   195.6315 195.7409 196.6886 197.0483 197.3723 198.8636 200.6741 201.2252
   201.2985 206.6108 206.9010 207.4024 207.5498 209.0868 209.6316 209.9634
   210.5792 212.4038 212.7147 213.9864 214.6795 215.2380 215.8028 216.4486
   218.8004 225.7332 226.8575 227.0234 228.8347 230.9505 231.7431 232.8227
   232.9058 233.7515 233.8271 234.6072 239.0698 239.1921 239.4564 240.1917
   241.1991 242.9260 243.1154 243.2378 244.1666 244.6272 245.5455 247.5002
   247.9743 248.1218 249.6758 250.7296 254.1719 254.4029 255.3462 257.4562
   257.5225 259.6329 259.6594 260.3773 262.9326 264.1654 265.0135 265.6828
   266.4295 268.3153 269.9772 270.3713 270.5247 270.6120 270.6971 273.0458
   273.3315 276.0674 276.9984 277.3089 278.4986 279.1931 280.2018 280.2134
   280.5197 282.7879 282.9463 285.0529 288.3520 288.7720 289.0751 289.3103
   291.5152 294.0023 294.3672 295.0127 295.3153 295.7016 297.6873 297.8217
   299.0295 299.2721 299.2839 299.6547 300.1934 300.8925 301.4063 304.1182
   304.2202 304.7550 306.0577 307.2304 309.6840 312.9282 314.8593 315.1141
   315.1644 317.5863 318.1249 318.7039 318.8349 319.7868 320.8187 322.5274
   322.5826 322.6124 322.7086 322.8828 323.1152 323.4388 324.4307 325.4939
   326.5188 328.2885 329.1972 329.4032 330.5212 331.2272 335.0122 335.0724
   335.4907 336.7125 339.2493 339.7084 340.2729 340.5195 341.7721 341.8753
   341.9135 344.5557 346.1564 347.4380 347.6806 348.8293 349.0436 352.0305
   352.0571 353.5267 354.8720 354.9422 356.6443 357.8885 358.1936 358.7840
   359.9357 360.1603 362.2030 362.5200 364.1355 364.7369 365.9759 366.1640
   366.2350 367.7862 368.2384 368.5362 369.5902 370.9656 371.1219 371.1786
   372.6414 374.5093 374.5698 374.8822 376.5416 376.7199 377.5954 377.9022
   378.8206 378.9075 381.3461 383.2318 384.1944 384.3078 384.8270 387.9303
   388.2523 388.5895 390.4177 390.8220 391.5723 392.0412 393.5245 394.2661
   394.3042 394.5875 395.2718 396.1760 396.8689 399.3247 399.4607 399.6062
   400.4050 401.5843 402.0406 402.8303 403.0662 405.4620 406.9342 407.4135
   407.5070 407.5828 409.7396 409.8419 409.9271 410.3728 410.8556 411.2728
   411.2866 414.1002 414.7469 418.9536 420.7106 421.1561 421.5671 423.8045
   424.3426 424.8433 425.5292 428.0073 428.0993 428.1239 428.4821 428.9803
   429.1689 429.2319 429.6394 430.4692 430.8864 431.1160 431.2151 431.3379
   431.5865 431.7617 431.8018 432.2421 432.3020 433.7311 434.3902 437.1169
   437.3069 437.6524 439.3933 440.5420 443.1859 443.6683 445.0293 446.0381
   446.1779 450.0268 451.0444 451.0714 451.1683 451.6090 451.7484 454.0966
   454.1687 454.3907 454.5108 454.7397 455.3621 457.0095 457.0792 458.3176
   458.5854 458.8371 459.1608 460.0531 460.0803 461.1320 461.2590 463.2143
   463.9014 464.2796 465.2194 465.6211 466.0879 466.4581 467.0964 473.7478
   474.6361 475.0303 475.9482 476.0207 476.1045 478.1247 480.4510 480.7568
   483.1701 483.5687 483.6007 484.2999 484.8710 484.9252 485.1419 486.3599
   486.5066 486.7195 488.1426 488.9962 489.1468 489.1813 489.1937 494.3337
   494.3997 494.5014 495.6873 495.8909 496.8603 497.6638 497.7126 499.0362
   500.0030 500.0067 500.3298 502.2002 502.3302 507.4122 508.0442 508.1756
   509.1278 509.1878 509.8169 510.7541 511.1005 511.1162 511.2149 511.8002
   511.9569 512.7716 512.8094 512.8255 512.8441 513.9409 514.8563 514.9979
   515.4559 515.8058 517.0064 517.2344 517.6340 519.0446 519.5598 520.2259
   520.2655 521.0858 521.1440 521.4041 521.4642 521.5185 521.5878 522.5934
   522.8324 524.5828 525.7728 527.9415 528.7125 528.9627 529.2251 533.6908
   533.7844 534.2844 535.1172 535.8467 536.5965 537.4107 537.6694 537.6733
   538.9158 538.9418 539.0087 539.2200 539.2300 541.7645 543.8156 544.7453
   545.3198 546.8672 547.0561 548.0104 548.1825 548.5127 548.6794 549.8894
   551.2067 551.8650 552.7162 553.7483 554.7854 555.5054 556.3608 556.4419
   557.4021 557.6381 557.7452 558.4671 558.5236 558.6286 559.5593 563.1437
   563.7681 563.8016 564.3298 564.5318 564.6730 565.0098 565.5961 567.9647
   568.0976 568.4211 568.4293 569.3649 569.4242 570.7511 572.3947 573.2043
   573.7848 574.0092 574.2818 575.3033 580.3692 580.7794 581.2864 581.9920
   582.0716 582.1064 583.7404 584.0637 586.0688 586.8862 588.9964 589.6938
   589.8864 590.2050 590.8800 590.9529 591.0984 591.3231 593.2372 593.3018
   593.9139 594.0138 594.1418 594.2519 594.4740 595.1006 595.2805 596.0670
   597.9523 597.9800 598.0395 598.9849 600.5911 600.6006 600.8279 600.8965
   600.9171 601.4180 602.1025 602.7447 604.4811 604.5471 607.9750 609.0588
   609.0630 609.6813 609.8075 609.9480 609.9675 610.1891 611.1558 611.1675
   612.2498 612.2643 612.9736 615.1233 616.3268 616.6938 617.2204 617.6852
   619.4441 620.5051 620.5425 620.5462 620.7600 620.7879 622.9106 623.8341
   624.0762 624.3846 625.8186 627.3252 627.8731 628.0689 629.6073 629.6672
   631.7250 633.5767 634.8397 636.6883 637.3335 637.6463 637.9018 637.9646
   638.0928 638.1797 638.3166 639.2288 639.5477 639.5986 641.4654 641.7169
   642.4490 642.6491 642.9446 643.5417 643.7702 644.3991 645.8362 646.1588
   646.4474 646.5719 647.0165 647.1161 647.1784 647.5386 648.1714 648.2158
   648.2332 648.3324 650.0249 650.4067 654.0358 654.3920 654.8531 654.9027
   655.5023 655.6002 659.3665 659.4171 659.6639 659.6946 663.1702 663.2845
   665.2196 665.4447 665.6644 665.7437 669.6102 669.9499 670.0219 670.5709
   671.8734 672.1564 672.4557 672.5829 676.1187 676.1277 677.1495 677.4072
   677.5029 678.0203 678.0542 678.8535 679.7917 679.8216 680.0467 680.4787
   681.2611 681.3651 681.4519 681.5177 681.5204 681.6166 682.9649 683.0111
   683.3495 683.3960 683.6444 683.6487 686.7141 687.0341 689.2658 690.3125
   690.8227 691.2677 695.3247 695.5890 695.7153 696.0655 696.0783 696.3893
   696.5632 696.5907 697.8336 698.7849 699.3054 699.5641 699.7129 699.7379
   699.9240 700.4253 700.9557 700.9816 700.9929 701.0656 701.9926 702.0233
   702.5065 702.5290 702.9533 703.1186 703.2735 703.7107 704.1458 704.1462
   705.3823 706.5397 706.6287 707.2504 708.5627 708.7656 708.7880 708.9485
   713.6421 713.7064 717.8594 718.2949 718.7101 718.9059 718.9422 719.0507
   719.4164 719.4588 719.5597 721.2575 724.7586 724.8698 725.1162 725.6121
   725.9023 726.0138 726.2062 726.2871 726.9379 727.1009 727.1098 727.2112
   727.7144 727.8091 728.0176 728.0240 728.5709 728.6023 729.0725 729.0727
   735.5345 735.9474 736.1161 736.4558 736.4671 736.5808 737.2876 737.3887
   742.4445 742.8602 745.4208 745.5386 746.0471 746.1748 746.4073 746.4148
   746.4398 746.4667 747.2909 747.3122 750.4418 750.8409 751.5381 751.9464
   752.2650 752.5898 752.8294 753.1165 753.6308 754.2774 754.4997 755.5471
   755.5891 755.8968 755.9492 755.9767 758.7990 759.1036 761.5331 761.7792
   761.9479 762.1858 762.4179 762.8416 764.0255 764.0381 764.0815 764.1509
   765.0066 765.0661 767.7877 768.3118 768.3255 768.4324 770.6655 770.8424
   770.8666 771.2778 771.3852 773.9440 773.9872 774.0356 774.0386 774.3751
   775.5118 775.6752 777.4082 777.4522 780.4115 780.6275 781.0812 781.7716
   781.8488 781.8569 781.9542 782.2378 782.5589 782.8893 782.9132 784.5606
   784.7991 784.8285 786.5859 787.1210 787.2089 787.7599 788.0491 789.5906
   789.8318 789.8895 789.9963 790.0708 790.0871 790.2482 791.7259 792.1642
   792.1701 792.7683 792.7882 799.8109 799.9750 800.2555 800.3440 800.3935
   800.4297 802.3505 802.6687 805.0081 805.1800 805.6290 806.3046 806.3617
   807.0978 807.9561 807.9710 808.0846 808.1396 810.8459 810.8804 810.8917
   810.9005 810.9400 811.2325 811.2474 811.6389 813.1422 813.2706 813.4573
   813.5492 814.5669 814.5808 820.0446 820.0543 821.6910 821.7163 823.2061
   823.3093 823.3316 823.8627 824.8397 825.3501 825.8208 825.9062 826.5152
   826.5916 826.7137 826.7370 828.7257 831.1101 831.9605 832.2584 832.9471
   833.4954 834.4480 834.5306 834.7746 834.9503 834.9541 835.1542 835.2488
   835.3589 835.3595 835.4490 835.7591 835.7827 835.8144 836.6378 836.6443
   836.7503 836.7526 837.0091 840.4196 840.4573 840.4867 840.7867 842.0760
   842.1969 842.3926 842.8075 842.9682 843.0126 844.0121 844.0295 844.4632
   844.5643 844.7988 844.8319 846.0414 846.1205 846.1866 846.2624 851.0851
   851.5521 852.4715 852.5800 856.1802 856.4065 856.9882 856.9969 861.1253
   861.1718 861.9743 861.9875 862.1639 862.2263 862.2393 862.2755 862.5889
   863.2472 863.2835 863.3717 863.8195 863.8766 863.8968 864.0191 864.1205
   864.2479 864.2614 864.2911 865.2991 865.7785 868.7741 868.8280 868.9288
   869.2543 870.3110 870.4950 870.5502 870.6590 872.8101 872.8336 873.1942
   873.1959 875.9815 875.9984 876.3825 876.6424 876.8536 876.9102 880.3411
   880.3483 880.4316 880.4924 883.3596 883.3743 884.7578 885.1191 887.2180
   887.5211 887.6737 887.7955 888.3751 888.4965 888.4969 888.5272 890.8531
   890.9259 890.9264 890.9920 891.0164 891.0955 891.3855 891.4006 892.4815
   893.0281 894.1829 894.1921 897.8197 898.1004 898.2676 898.3441 898.6019
   898.6255 899.1508 899.1543 899.1973 899.2215 899.2880 899.3877 899.7385
   899.7668 905.7097 905.7578 905.9894 906.4639 906.7019 906.7181 907.1193
   907.5765 907.8281 907.9283 908.1188 908.2110 908.2453 908.2741 908.7009
   908.7183 913.2008 913.4007 913.6922 914.0362 914.2557 914.3609 915.6106
   916.2329 917.4414 917.4654 917.8375 917.8566 918.7179 918.7204 919.2134
   919.4366 921.1899 921.3279 921.4789 921.6146 924.8813 925.0004 925.0473
   925.1036 925.9462 925.9885 926.0887 926.0982 928.0109 928.0279 928.0391
   928.0497 930.5684 930.5755 930.6360 930.6855 933.6276 933.7065 934.4256
   934.4724 935.3186 935.3212 936.3519 936.3820 939.4705 939.4714 939.5836
   939.6113 943.7372 943.7981 943.8470 944.0698 944.2711 944.3180 947.8687
   948.2765 950.0200 950.0348 950.1648 950.3070 950.4513 950.4895 950.7659
   950.8161 951.4218 951.4626 952.4441 952.5510 953.3209 953.3838 953.6040
   953.6269 954.1917 954.2669 954.6278 954.6336 955.6049 955.6158 959.6673
   959.7873 961.8125 962.0002 962.1474 962.1699 962.3157 962.3179 962.5435
   962.5552 964.8198 964.8290 968.0606 968.0750 968.0757 968.4061 969.6290
   969.7439 969.9700 970.0133 970.8011 970.8615 971.1776 971.2446 971.6031
   971.6502 971.6538 971.6823 972.1990 972.2438 972.2507 972.2769 972.9525
   972.9620 972.9956 973.0165 978.4886 978.6349 978.7566 978.7683 979.1162

          k = 0.0000-1.0000 0.0000 (  3306 PWs)   bands (ev):

   -40.2660 -18.5149  -2.1933  -0.3142  -0.3142  15.0603  16.9889  17.6357
    20.3988  20.3988  33.0697  38.3012  39.6142  41.3890  41.3890  43.6383
    43.7019  43.7019  48.9695  48.9695  52.9584  53.3304  57.5757  57.5757
    59.6960  60.2664  69.8200  71.4285  73.0471  73.0471  75.0427  77.8174
    77.8174  78.1652  78.5263  79.2993  85.1350  87.3949  87.3949  87.7030
    88.4622  98.0063  98.0063  99.2759 107.4966 107.4966 108.3063 110.0645
   111.8845 111.8845 112.2472 112.9486 114.7838 114.7838 117.4978 118.5684
   120.3975 122.0457 123.3718 123.3718 123.8427 123.8427 124.6840 124.7303
   127.1883 127.1883 130.1937 132.4207 138.4155 143.5888 145.0339 145.0755
   145.0755 146.0975 146.2642 146.2642 146.3924 147.0218 150.1040 150.4657
   150.4657 150.5267 150.5267 150.6823 153.1501 154.6604 156.8545 156.8545
   156.8578 156.8578 161.5705 161.6111 166.9827 166.9827 171.5198 173.3579
   177.2824 180.0519 180.8864 180.8864 182.2177 184.4932 184.4932 185.1324
   185.3841 185.3841 187.0478 187.3710 187.3710 187.6132 187.9451 188.0074
   190.5601 191.4636 191.4636 191.8445 195.6758 203.3637 203.3637 204.5323
   214.1601 214.1601 214.2418 215.2045 216.4401 217.0254 217.0254 217.0264
   218.2486 219.4973 220.3363 222.2176 222.2176 222.7578 222.7578 223.3028
   225.8275 226.4592 229.4438 229.8358 230.6662 230.6662 231.0480 231.2684
   231.8862 231.8862 232.0798 232.0798 232.8930 232.9427 239.0485 241.2209
   241.2209 244.0802 249.4312 249.4312 250.6435 251.7034 252.3483 252.3958
   253.8882 253.8882 254.7431 255.1421 255.1421 255.3188 255.3373 255.3373
   256.6182 256.6182 257.0837 257.2598 257.2620 257.2620 257.9659 258.2061
   258.2329 259.2950 259.8733 259.8733 260.1750 261.5824 266.5620 266.8081
   266.8081 267.5536 267.6337 267.8498 267.8498 268.0707 276.6016 276.6016
   282.1603 282.4396 282.7191 287.7358 289.6790 289.6790 290.2122 290.2122
   291.3056 291.4310 292.0099 292.0099 293.9109 294.5531 294.5859 294.5859
   294.8606 295.1037 295.9776 298.8030 298.8030 299.0025 299.1090 299.5577
   299.5577 299.8248 300.8172 300.8172 300.9691 301.1601 309.8862 309.8862
   312.4746 312.8507 316.5280 324.3306 327.6990 327.6990 328.8140 330.0155
   330.0155 330.1470 332.0981 332.2171 332.3088 333.4563 333.4563 333.7068
   336.6145 336.6145 336.9394 336.9394 337.0500 337.2746 337.2746 337.4680
   337.7360 337.9249 337.9249 338.0956 341.9534 341.9620 344.7389 346.1757
   346.1757 352.1483 356.0196 356.4106 356.7758 356.7758 357.8731 357.8731
   358.8041 358.8990 358.8990 359.0968 359.6408 360.3908 361.2407 362.3073
   362.4088 362.4088 363.3102 363.4034 363.4034 363.7406 363.9094 364.8429
   364.8429 366.4935 366.5088 366.5088 366.8944 366.9356 366.9356 366.9705
   367.1114 367.3296 367.3318 367.3318 367.4555 369.6455 375.4035 375.4136
   375.5992 375.5992 375.6666 375.6666 375.9456 375.9574 385.6400 390.2874
   390.2874 391.3424 394.1318 394.1318 395.1731 396.2951 396.2964 396.3976
   396.5011 397.7642 397.8827 397.8827 398.1174 398.1174 399.4006 400.9477
   400.9477 401.1200 401.1200 401.3074 401.3119 401.4399 401.4724 401.6754
   402.0677 402.0677 402.7439 402.7439 406.6482 406.6627 410.4498 410.4544
   412.3995 412.3995 412.4722 412.4722 413.4042 413.4151 417.7827 417.7827
   425.1216 426.3322 431.7142 431.8967 431.9587 432.4703 433.0197 433.0197
   433.5122 433.5122 434.2387 434.2500 434.2961 434.2961 435.0271 435.0271
   435.0586 435.3798 435.6970 437.3370 438.2659 438.5477 438.5477 438.5776
   440.4835 440.4835 440.6553 440.7970 442.7102 442.7403 442.7403 442.8181
   445.8802 445.8867 445.9449 445.9449 445.9998 445.9998 446.1072 446.1314
   447.7426 447.7438 447.7448 447.7448 457.3934 457.3934 458.7562 460.6145
   460.6577 463.2512 469.0020 469.0020 469.3429 469.6292 469.7741 469.7741
   469.9474 469.9474 471.2773 471.2773 472.4751 473.3453 473.3453 473.3871
   474.2491 474.2951 474.3253 474.5948 474.6887 475.4030 475.4962 475.4962
   476.0599 476.1475 476.1475 476.2375 477.5855 478.4663 478.4663 478.8526
   479.1375 479.4149 479.4149 479.5318 479.6980 479.6980 479.8346 479.8598
   480.6823 480.8225 480.8225 480.9025 483.6831 483.7953 483.7953 483.8996
   484.3777 484.3911 484.3948 484.3948 499.0786 502.1892 502.1892 503.5481
   504.4360 504.4360 504.9476 505.0261 507.5652 507.5906 508.1611 508.1611
   508.2305 508.2305 508.8868 508.9081 512.4848 512.4848 514.4574 514.6959
   514.7754 514.7754 514.8190 514.9030 529.2498 530.1192 530.1192 536.8065
   537.0812 537.0812 537.7437 537.7638 539.1651 539.5799 539.9040 539.9040
   540.1653 540.5646 540.5646 540.8533 543.0404 544.4050 544.4050 544.5633
   544.6763 544.8499 544.8499 544.8901 544.9201 545.0231 545.0231 545.2005
   546.6357 546.6357 547.1088 547.1851 550.0269 550.0269 550.8471 551.2227
   551.6169 551.7540 551.7540 551.9611 552.0778 552.2549 552.2708 552.2708
   552.6532 552.7222 552.7222 552.8365 555.7470 555.7985 556.0316 556.0316
   556.0539 556.0539 556.3186 556.3453 565.3546 565.3546 566.7671 567.7815
   568.8761 572.4760 572.4941 574.3802 574.6342 574.6342 575.2484 575.2484
   576.0444 576.4073 578.8296 578.8513 578.8801 579.0998 579.0998 579.2566
   579.2566 579.4731 579.4731 579.4781 579.4781 579.5910 579.6667 579.7542
   579.8862 580.2086 581.9315 581.9315 582.5776 582.6239 582.8772 582.8772
   582.9299 582.9870 583.6272 583.6754 583.6754 583.7676 586.7223 586.7223
   586.8137 586.9255 587.2707 587.2707 587.3302 587.4140 589.5599 589.5599
   589.5953 589.5953 592.4267 592.4536 592.4724 592.4724 592.4728 592.4805
   592.4805 592.5140 594.5068 594.5077 606.7737 606.7737 608.6977 608.9338
   609.3983 610.4978 610.5525 610.5525 610.8291 611.5920 611.5920 611.6357
   611.9622 611.9622 612.5148 612.5149 616.9950 616.9952 617.5315 617.5315
   617.5435 617.5435 618.0073 618.0401 618.7499 618.8756 618.8756 618.9033
   619.1639 619.5633 619.5881 619.5881 619.6225 620.4717 620.4717 620.6082
   621.4665 621.4665 621.5985 621.6160 626.3185 626.3185 626.3251 626.3390
   626.3686 626.3686 626.4285 626.4611 639.8435 639.8435 642.4263 642.8101
   647.5736 648.9393 648.9393 649.1871 649.2434 649.6694 649.6775 649.6775
   649.7241 650.7216 652.5080 652.5080 654.2909 654.2909 654.3292 654.3705
   654.3705 655.0462 655.0836 655.1145 655.1145 655.2123 658.6759 658.7837
   658.8244 659.0224 659.0224 659.2657 659.2887 659.2887 659.3433 659.3669
   659.8479 659.9394 659.9394 659.9672 659.9672 660.0795 660.1072 660.1362
   662.2114 662.2114 662.2245 662.2301 663.0132 663.0260 665.0030 665.0030
   665.0084 665.0084 665.9453 665.9456 679.5836 679.5836 680.0957 681.5472
   682.3030 682.3239 682.3239 682.3853 685.6546 685.7506 685.7506 686.0588
   686.4423 686.4423 686.5842 687.1118 687.2298 687.6004 687.7520 687.7520
   688.1585 688.1585 688.1832 688.4555 690.0430 690.0456 690.1372 690.1372
   690.1660 690.1660 690.2260 690.2890 692.0488 692.0488 692.8856 693.1553
   694.4696 694.5930 694.6322 694.6322 698.1497 698.1497 698.1932 698.2348
   698.9408 698.9408 698.9529 698.9533 714.8955 714.8955 715.0984 716.1875
   716.6051 717.7382 717.9309 718.0077 718.0077 718.4660 720.8912 720.8912
   721.8190 721.8844 722.0510 722.0510 722.2060 722.2060 722.3016 722.5276
   722.6921 722.8229 722.9587 722.9587 722.9594 723.0288 724.4138 724.4420
   724.4420 724.5423 727.7150 727.7150 727.7159 727.7340 728.0557 728.0641
   728.0678 728.0678 730.3357 731.5510 731.8342 731.8342 732.0613 732.0613
   732.3640 732.4077 736.1199 736.1350 736.1350 736.1773 748.8676 751.4598
   752.7530 752.7530 754.0775 754.0775 754.1795 754.2403 754.3229 755.1985
   758.5988 758.5988 758.9683 758.9683 760.1038 760.1038 760.5289 760.9246
   761.4659 762.0250 762.0250 762.0803 763.0985 763.1118 764.0950 764.2192
   764.2192 764.4544 764.9024 765.1062 765.1062 765.2417 766.7753 766.7890
   767.1414 767.1414 767.3582 767.3582 767.6593 767.8501 771.9577 771.9968
   771.9968 772.0435 772.3759 772.4563 772.4563 772.5270 772.7226 772.7675
   772.7675 772.7875 773.0509 773.0850 773.0850 773.1280 788.7057 788.9642
   788.9642 790.3347 790.8435 790.8435 791.1456 791.1519 793.1410 793.4493
   793.4882 793.4882 793.5007 793.5115 794.0238 794.0238 794.1204 794.1204
   794.2866 794.2866 794.3385 794.7349 795.1161 795.1978 795.2279 795.2604
   795.3517 795.4609 795.5543 795.5543 795.8320 795.8320 796.2192 796.2192
   796.3054 796.3208 796.3208 796.3753 796.4557 796.5774 796.6198 796.6734
   796.9353 796.9353 796.9587 796.9587 797.2195 797.2409 798.3549 799.2213
   799.2213 799.4413 799.9218 799.9218 800.2402 800.2982 800.5074 800.5074
   801.1428 801.1936 801.7167 801.8448 801.8693 801.8693 803.0612 803.0612
   803.0984 803.1961 803.6949 803.7133 803.7133 803.7340 806.6380 806.6636
   806.6636 806.7032 806.8512 806.8512 806.8588 806.8771 808.6006 808.6077
   808.8183 808.8183 808.8355 808.8355 809.0519 809.0594 830.3311 830.3311
   830.3717 830.6963 830.7562 830.7562 830.8151 830.8535 831.8361 831.8446
   831.8694 831.8694 831.8848 831.8848 831.9647 831.9779 838.0473 838.0473
   838.8564 838.9892 839.2964 839.4287 839.6021 839.6021 839.6200 839.6200
   839.6956 839.8500 839.8931 840.1730 840.1730 840.3447 840.6506 840.7224
   840.7224 840.7751 841.1110 841.1946 841.1946 841.2991 841.3280 841.4349
   841.4349 841.5024 841.5935 841.6753 841.6753 841.7495 863.4580 864.5567
   865.2241 865.2241 865.6214 865.6214 866.2179 866.2466 866.2466 866.3638
   866.3788 866.3902 866.5059 866.5059 866.7807 866.7922 870.7897 870.7897
   871.0882 871.2925 871.3161 871.3893 871.3893 871.4258 872.7644 873.1284
   873.1284 873.2995 873.3019 873.4667 873.4667 873.5216 873.5781 873.5988
   873.5988 873.6104 878.8999 878.9067 878.9457 878.9457 878.9615 878.9615
   879.0367 879.0492 880.9589 880.9636 880.9875 880.9875 880.9890 880.9890
   881.0163 881.0342 890.9604 890.9604 892.1521 892.9121 893.4963 893.9773
   893.9773 894.2990 895.6408 896.2332 897.4739 898.3019 898.3019 898.5942
   898.5942 898.7553 898.7615 898.7689 902.1606 902.2340 902.2340 902.3383
   903.2425 903.2791 903.2791 903.2906 903.2934 903.2934 903.6681 903.6936
   904.9417 904.9745 905.2268 905.2268 905.2323 905.2323 905.4294 905.4405
   906.2321 906.2652 906.2696 906.2696 906.5798 906.6156 906.8949 906.8949
   906.9089 906.9089 907.2284 907.2298 907.4934 907.5007 907.5007 907.5139
   908.9746 908.9848 908.9848 908.9989 911.7071 911.7071 912.0198 912.0389
   913.4242 913.4483 913.4590 913.4590 914.3193 914.3193 914.3220 914.3220
   919.2620 919.2653 933.2001 933.2001 933.6227 933.6986 934.9650 934.9855
   934.9855 935.0493 938.0382 938.3230 938.3230 938.4051 938.6028 938.6028
   938.6950 938.8023 938.8403 938.9500 938.9500 939.0817 939.2357 939.2927
   939.2927 939.3978 943.6274 943.6633 943.6633 943.6975 944.3616 944.3685
   944.3685 944.3692 945.5826 945.5826 946.2464 946.3303 946.5207 946.5207
   946.5213 946.5465 948.0751 948.3358 948.3358 948.4458 948.6059 948.7179
   948.7179 948.7452 949.3020 949.3109 949.3109 949.4644 949.4785 949.5621
   949.5621 949.6131 972.2228 972.2228 972.4624 972.4877 972.6202 972.7143
   972.7143 972.7254 973.9976 974.3832 974.3832 974.4783 974.4814 974.4929
   974.4929 974.5295 974.5328 974.7676 977.7718 977.7758 977.7758 977.7988
   978.0167 978.0273 978.0273 978.0555 978.3866 978.3866 978.5044 978.5044
   980.3477 980.3477 980.4347 980.6369 980.6831 980.6932 980.7608 980.7608

          k =-0.5000-1.0000 0.0000 (  3316 PWs)   bands (ev):

   -40.2651 -18.5378  -1.3189  -1.3189  -0.1351  15.3755  15.3755  17.7249
    19.3794  27.5843  27.5843  33.8104  37.8360  41.9075  41.9075  42.5033
    45.2283  50.2694  51.3613  51.3613  52.2826  55.6764  58.6732  58.6732
    62.2730  62.2730  62.5136  62.6683  67.7548  67.7548  68.5466  75.4704
    75.5519  82.7342  82.7342  86.1817  90.6801  93.2681  93.2681  94.3037
    96.5234  96.5234  97.8429  98.4763  99.3194 102.5409 102.5409 104.4834
   108.5756 108.8406 111.9384 112.2558 112.2558 113.4201 116.0528 116.0528
   121.7914 122.2947 122.2947 125.2141 129.1454 129.1454 129.6037 130.2944
   130.2944 130.9486 131.1343 132.4553 133.7789 136.0548 136.0548 139.2045
   142.5277 144.6224 144.6224 145.1258 150.9856 150.9856 151.6816 152.0517
   152.3298 152.3298 152.7678 152.9129 153.9518 159.7757 159.7757 162.2346
   163.6280 165.0240 165.0240 165.6909 165.6909 166.1158 166.7156 167.2597
   170.9243 170.9243 170.9992 171.0538 171.4071 176.6828 178.0549 178.0549
   178.1591 184.2659 188.0455 188.0455 190.2760 190.2760 191.9417 198.6712
   201.1034 201.1034 202.4915 205.4606 206.2608 207.2529 207.2529 208.5443
   213.9488 214.3588 215.9884 215.9884 216.3120 216.3120 217.8031 218.6078
   219.3872 219.3872 219.5642 219.9062 220.6439 220.6439 221.0734 221.1026
   221.1479 221.1479 221.4392 223.0742 224.6290 224.6290 225.2126 225.2629
   233.4365 234.2566 234.2566 237.2037 237.2037 237.8264 238.5923 238.7852
   239.0244 239.4717 239.4717 240.3211 242.0419 246.2655 246.2655 248.5378
   251.8334 253.1314 253.1314 255.1531 255.1531 255.6710 255.7154 255.7969
   255.9307 256.5049 256.5049 257.2506 260.7242 260.7242 260.7950 260.8244
   261.5202 265.6726 267.8330 268.3357 268.3357 271.9995 271.9995 272.9448
   273.2047 273.6601 274.1372 274.5582 274.5582 275.3202 275.4288 275.4288
   276.0129 276.4894 276.6180 276.6180 276.6239 277.3928 278.3208 278.3208
   287.1755 290.5473 290.5473 292.2135 292.2135 292.9052 293.0429 293.1015
   297.0440 301.1159 301.1159 304.9280 306.9184 306.9184 307.7600 310.7301
   310.7301 310.9936 311.1072 311.2822 311.6499 312.3183 312.3183 314.0838
   314.0838 315.0665 315.1111 316.7002 320.8697 320.8697 321.2760 324.0619
   324.6229 325.9335 325.9335 327.2881 327.2881 327.6823 327.9664 328.2047
   329.1955 329.2423 329.2423 330.6430 332.1581 332.1581 332.2439 332.3242
   333.0392 333.0409 333.0409 333.0620 341.9919 341.9919 342.0682 343.9623
   344.1885 345.4398 345.4398 346.1849 350.1138 350.1138 350.8584 351.1556
   352.7885 352.7885 356.6606 358.0568 359.7615 361.8980 362.3195 362.3195
   363.9946 364.4708 364.5524 364.5524 365.3024 365.3024 365.3571 365.5742
   366.8010 373.9680 374.5904 374.5904 375.3808 378.0938 379.1468 380.8164
   380.8164 382.1500 382.1500 382.7594 382.8549 382.9901 383.0241 383.0241
   383.1948 383.3363 383.3363 383.5748 383.7471 384.8458 386.2931 386.2931
   386.6153 386.7310 386.7310 386.8400 390.5180 392.4707 392.4707 397.0758
   397.0758 397.4667 398.6981 398.7834 398.9958 399.2311 399.2311 400.3220
   400.3220 400.4300 400.6284 400.8989 401.1418 401.3514 401.3514 401.8981
   407.5480 410.6319 410.6319 411.7244 412.3053 414.1222 414.7539 414.7539
   415.4126 415.4126 416.6176 417.2010 417.2010 417.2161 417.3458 419.3047
   419.6499 419.6499 419.7611 420.3309 420.4595 420.6209 420.6209 420.6928
   422.7481 422.7481 422.9261 422.9439 423.0314 423.0314 423.5365 423.5417
   427.4929 427.4929 429.1472 431.6862 432.6028 432.6028 433.0324 433.8801
   435.8548 436.7678 436.7678 436.8300 437.3249 437.3249 437.4124 437.4257
   441.5749 441.5749 441.6121 441.6249 449.9738 449.9738 450.7923 452.5033
   453.4169 453.9339 453.9339 454.2643 454.5148 454.5148 454.6234 454.6234
   454.6455 454.6555 455.0289 455.6163 465.0384 466.8172 466.8172 470.0973
   470.0973 470.2759 470.8038 471.0526 471.5423 471.8216 471.8216 472.5820
   472.8070 472.8118 472.8118 473.0292 478.9669 484.3352 484.3352 487.5010
   487.7597 487.9436 487.9436 489.4054 489.4141 489.5320 489.9219 489.9219
   490.1849 490.2068 490.2068 490.7179 490.7820 490.9598 491.5700 491.5700
   491.6902 491.8036 491.8036 492.2764 492.2797 492.2797 492.2931 492.3210
   492.3981 492.3981 492.7089 492.7863 498.0682 498.8422 500.5572 500.9683
   500.9683 503.2693 507.3983 507.3983 507.8580 508.6979 508.6979 508.8235
   508.8865 509.3985 512.8153 512.8153 513.0423 513.0423 513.0945 513.1005
   520.1520 521.4053 521.4053 522.2398 524.1036 524.1036 524.5802 525.7746
   526.2080 526.7049 526.7049 527.0032 527.0032 527.1817 527.2946 527.3923
   527.3923 527.4588 527.4903 527.5334 531.6948 531.6948 531.7064 531.7336
   534.9783 534.9783 537.5281 538.4277 538.5923 540.5981 540.7772 540.7772
   541.3337 542.6331 542.6331 543.5909 543.6219 543.6219 543.8356 543.9355
   544.6122 544.6122 544.7459 545.0038 545.4275 545.5234 545.5234 545.7668
   548.9934 548.9934 549.7012 549.7153 560.9447 560.9447 562.3269 562.9306
   562.9306 563.2672 563.3918 563.5760 566.9803 566.9803 568.6322 571.1851
   575.3419 576.2867 576.2867 577.5270 577.8443 577.8443 578.0045 578.1101
   578.6558 579.0518 579.0518 579.5584 579.7410 579.8319 579.9358 579.9358
   580.2136 580.4806 580.4806 580.6147 581.8656 582.1437 582.1437 582.1484
   582.7696 582.8853 582.8853 582.9753 584.9772 585.0211 585.0211 585.1175
   586.6881 587.9423 587.9423 590.3736 594.5681 595.3232 595.4841 595.4841
   596.9479 597.1623 597.2669 597.2669 597.8620 597.8620 598.1550 598.2630
   598.2875 598.2875 598.3368 598.5260 598.7382 598.7382 599.0416 599.0555
   599.8255 600.0170 600.0191 600.0191 600.7562 600.7562 600.7924 601.1061
   601.2169 601.2577 601.2577 601.2861 603.1316 603.1316 603.1850 603.1851
   603.8321 603.8321 603.8346 603.8436 614.5389 615.2561 615.2561 615.2638
   615.3615 616.4704 616.6363 616.6363 617.2514 617.2514 617.7983 617.8025
   628.0786 628.0786 628.7898 629.7194 631.2244 631.7483 631.7483 633.0686
   633.0686 633.1036 633.1373 633.6703 633.7791 633.8407 634.3317 634.3317
   634.9930 634.9930 635.0178 635.0297 635.1690 635.2578 635.2686 635.2686
   636.1349 636.1349 636.1681 636.1914 639.2655 639.2655 639.2980 639.3130
   642.0101 642.9975 647.6048 647.8327 647.8651 647.8651 649.8261 649.8261
   650.8080 650.8791 650.8791 651.2606 651.3463 651.4379 652.7582 652.9426
   652.9426 653.1312 653.1470 653.1557 653.1557 653.3930 653.4727 653.6238
   653.6238 653.6488 654.4471 654.4471 654.4598 654.4723 657.2594 657.2594
   657.6873 657.6956 657.6956 657.7064 669.6072 669.6072 669.7354 670.2514
   671.0635 671.0635 671.1893 671.2002 672.3263 672.3481 672.3568 672.3568
   672.5238 672.5444 672.5496 672.5496 681.8024 682.8953 684.3490 684.3490
   684.7835 684.9001 684.9001 684.9712 687.3449 687.3449 687.8386 688.5075
   688.6857 688.6857 688.8228 688.8268 693.2328 693.2328 693.9298 693.9298
   693.9381 693.9393 693.9890 694.0053 696.9558 697.4771 697.4771 698.3389
   706.2019 706.2130 706.2130 706.3049 706.5906 706.5906 706.9988 707.1011
   707.1011 707.1286 707.1989 707.2068 711.5646 711.5646 711.5828 711.5942
   718.1632 718.1632 719.5701 720.1180 720.3475 722.1523 722.3071 722.3071
   722.8098 722.8098 723.3995 723.7882 723.8163 723.8256 723.9692 723.9692
   724.3832 724.3832 724.4930 724.5361 725.3733 725.3875 725.5817 725.5817
   726.2098 726.2536 726.2536 726.3112 740.5751 740.5751 741.1408 741.4938
   742.2855 742.5364 742.5985 742.5985 742.7232 742.7232 742.8173 742.8391
   743.5306 743.6396 743.6398 743.6398 743.8532 743.8532 743.8772 743.8840
   751.9628 751.9628 753.6971 753.8334 755.8846 755.8846 756.0244 756.1477
   757.3326 757.4794 757.4794 758.4331 759.2922 759.5113 759.6667 759.6667
   759.9864 759.9864 760.0392 760.2119 760.2632 760.6441 760.7166 760.7166
   760.8212 761.0241 761.0241 761.0331 761.0331 761.2767 761.3152 761.6260
   761.8320 761.8362 761.8362 761.8373 761.8861 762.1719 762.4055 762.4055
   762.5037 762.5037 762.8155 762.8304 762.8433 762.9356 762.9356 763.0972
   763.2057 763.2800 763.2800 763.3830 765.8761 765.8761 765.8863 765.8890
   778.5661 778.5661 778.7779 778.8054 778.8534 778.8534 779.0444 779.0604
   779.0604 779.0887 779.1724 779.2318 779.3447 779.3536 779.3536 779.3891
   779.6908 779.6908 779.7166 779.7333 780.5365 780.5533 780.5533 780.6061
   781.1783 781.1925 781.1925 781.2206 792.1535 792.3697 792.6827 792.6827
   795.4130 795.4130 795.7773 795.7854 795.7854 795.8592 796.0335 796.0621
   802.0900 802.0933 802.0933 802.0956 804.9636 805.0268 810.7144 810.7144
   810.7580 811.4312 812.9956 812.9956 813.0884 813.2643 813.4427 813.4427
   813.4814 813.5475 814.4917 814.4917 814.7071 814.8285 815.1929 815.1929
   815.2495 815.3091 816.2314 816.2755 816.2755 816.3415 816.6961 816.7587
   816.7587 816.7920 817.2914 817.2914 817.4187 817.4771 817.5773 817.5814
   817.5920 817.5920 819.5608 819.5608 826.5783 826.6246 826.6362 826.6362
   830.8566 830.8566 831.0344 831.1891 832.9204 832.9204 832.9693 832.9915
   833.4191 833.4191 833.5861 833.6368 837.7695 837.7695 837.7834 837.7881
   845.6784 845.6932 846.1404 846.1404 846.2315 846.4027 847.4501 847.4501
   849.9847 849.9847 850.2050 850.2727 850.2727 850.2776 850.3038 850.3457
   851.0044 851.1481 851.1481 851.3090 851.8586 851.8640 851.8640 851.8685
   851.9405 851.9405 852.0292 852.0588 852.0941 852.0941 852.1329 852.1453
   855.5501 855.5501 856.3316 856.3361 856.4173 856.4173 856.4264 856.4351
   865.9908 865.9908 866.1359 866.3964 866.6969 866.7672 866.7672 866.8098
   866.8573 866.8573 866.9784 867.0008 867.3648 867.3648 867.6782 867.6883
   869.0007 869.2286 869.2664 869.2664 869.7178 869.7489 869.7489 869.8642
   869.9348 870.0720 870.0720 870.1339 870.2169 870.2169 870.2266 870.2870
   870.9282 870.9750 870.9750 871.0191 871.0832 871.0832 871.1845 871.3605
   871.3640 871.3741 871.4657 871.4657 886.4933 886.5393 886.6057 886.6057
   888.7502 888.7502 888.8115 888.8440 888.8810 888.8810 888.8935 888.8959
   894.0489 894.0489 894.8733 894.8849 902.6083 902.7548 902.7548 902.9635
   903.5727 903.5727 903.6385 903.6462 904.1865 904.1865 904.2719 904.2868
   905.1552 905.1552 905.1605 905.3444 905.4254 905.4503 905.4503 905.4858
   907.0260 907.2188 907.2188 907.2708 907.7118 907.7373 907.7373 907.7405
   909.6342 909.6679 909.6679 909.6941 920.0612 920.0612 920.1476 920.1775
   921.7834 921.7834 921.9922 922.0435 922.0435 922.0446 922.0783 922.0889
   922.8757 922.9428 923.3076 923.3076 923.4766 923.4789 923.5686 923.5686
   923.6771 923.6771 923.7173 923.7547 924.2218 924.2218 924.3249 924.3249
   924.3400 924.4151 924.5549 924.5586 924.5586 924.5662 924.6323 924.6539
   928.4312 928.4415 928.4415 928.4466 938.3009 938.3486 938.3486 938.4041
   940.8070 940.8070 940.9256 940.9649 941.1968 941.1968 941.2801 941.2812
   942.4505 942.4505 942.4592 942.4677 943.1967 943.2027 943.2027 943.2286
   951.4545 951.4545 951.6334 951.7706 954.5313 954.5497 954.7123 954.7123
   955.4067 955.4154 955.4586 955.4586 960.0523 960.0523 960.0559 960.0883
   960.1402 960.1402 960.1402 960.1582 963.5540 963.5540 963.5570 963.5610
   964.3190 964.3259 964.3259 964.3350 964.4108 964.4166 964.4166 964.4171
   972.3843 972.4450 972.4925 972.4925 974.7277 974.7277 974.8591 974.8942
   974.8977 974.9177 974.9177 974.9392 976.5189 976.5189 976.7688 976.7878
   976.9921 976.9922 976.9922 977.0139 977.7452 977.9320 977.9320 977.9543

     the Fermi energy is     7.6773 ev
     (compare with:     3.9151 eV, computed in scf)

     Writing all to output data dir out/mp-1138.save/
 
     init_run     :      0.05s CPU      0.09s WALL (       1 calls)
     electrons    :    976.82s CPU   1053.23s WALL (       1 calls)

     Called by init_run:
     wfcinit      :      0.00s CPU      0.00s WALL (       1 calls)
     potinit      :      0.01s CPU      0.01s WALL (       1 calls)
     hinit0       :      0.02s CPU      0.05s WALL (       1 calls)

     Called by electrons:
     c_bands      :    976.82s CPU   1053.23s WALL (       1 calls)
     v_of_rho     :      0.01s CPU      0.01s WALL (       1 calls)

     Called by c_bands:
     init_us_2    :      0.00s CPU      0.00s WALL (       8 calls)
     init_us_2:cp :      0.00s CPU      0.00s WALL (       8 calls)
     cegterg      :    956.45s CPU   1031.74s WALL (       8 calls)

     Called by *egterg:
     cdiaghg      :    912.00s CPU    986.49s WALL (      67 calls)
     h_psi        :     15.52s CPU     15.97s WALL (      75 calls)
     g_psi        :      0.09s CPU      0.09s WALL (      59 calls)

     Called by h_psi:
     h_psi:calbec :      0.15s CPU      0.17s WALL (      75 calls)
     vloc_psi     :     15.18s CPU     15.60s WALL (      75 calls)
     add_vuspsi   :      0.11s CPU      0.11s WALL (      75 calls)

     General routines
     calbec       :      0.15s CPU      0.17s WALL (      75 calls)
     fft          :      0.01s CPU      0.03s WALL (      10 calls)
     fftw         :     13.77s CPU     14.14s WALL (  110044 calls)
 
     Parallel routines
 
     PWSCF        :  16m17.64s CPU  17m34.52s WALL

 
   This run was terminated on:  15:52:25  15Nov2023            

=------------------------------------------------------------------------------=
   JOB DONE.
=------------------------------------------------------------------------------=
