
     Program PWSCF v.7.1 starts on 15Nov2023 at 18:35:11 

     This program is part of the open-source Quantum ESPRESSO suite
     for quantum simulation of materials; please cite
         "P. Giannozzi et al., J. Phys.:Condens. Matter 21 395502 (2009);
         "P. Giannozzi et al., J. Phys.:Condens. Matter 29 465901 (2017);
         "P. Giannozzi et al., J. Chem. Phys. 152 154105 (2020);
          URL http://www.quantum-espresso.org", 
     in publications or presentations arising from this work. More details at
     http://www.quantum-espresso.org/quote

     Parallel version (MPI), running on    24 processors

     MPI processes distributed on     1 nodes
     123447 MiB available memory on the printing compute node when the environment starts
 
     Reading input from pw_mp-1138_scf_k3000_E143.in
Warning: card &CELL ignored
Warning: card / ignored

     Current dimensions of program PWSCF are:
     Max number of different atomic species (ntypx) = 10
     Max number of k-points (npk) =  40000
     Max angular momentum in pseudopotentials (lmaxx) =  4
 
     K-points division:     npool     =       2
     R & G space division:  proc/nbgrp/npool/nimage =      12
     Subspace diagonalization in iterative solution of the eigenvalue problem:
     a serial algorithm will be used

 
     Parallelization info
     --------------------
     sticks:   dense  smooth     PW     G-vecs:    dense   smooth      PW
     Min          96      96     29                 2203     2203     356
     Max          97      97     30                 2208     2208     359
     Sum        1159    1159    349                26469    26469    4279
 
     Using Slab Decomposition
 


     bravais-lattice index     =            2
     lattice parameter (alat)  =       7.7166  a.u.
     unit-cell volume          =     114.8711 (a.u.)^3
     number of atoms/cell      =            2
     number of atomic types    =            2
     number of electrons       =        10.00
     number of Kohn-Sham states=           10
     kinetic-energy cutoff     =     143.0000  Ry
     charge density cutoff     =     572.0000  Ry
     scf convergence threshold =      1.0E-10
     mixing beta               =       0.7000
     number of iterations used =            8  plain     mixing
     Exchange-correlation= PBE
                           (   1   4   3   4   0   0   0)

     celldm(1)=   7.716558  celldm(2)=   0.000000  celldm(3)=   0.000000
     celldm(4)=   0.000000  celldm(5)=   0.000000  celldm(6)=   0.000000

     crystal axes: (cart. coord. in units of alat)
               a(1) = (  -0.500000   0.000000   0.500000 )  
               a(2) = (   0.000000   0.500000   0.500000 )  
               a(3) = (  -0.500000   0.500000   0.000000 )  

     reciprocal axes: (cart. coord. in units 2 pi/alat)
               b(1) = ( -1.000000 -1.000000  1.000000 )  
               b(2) = (  1.000000  1.000000  1.000000 )  
               b(3) = ( -1.000000  1.000000 -1.000000 )  


     PseudoPot. # 1 for F  read from file:
     /usr/scratch4/magr4985/MG/HTDF/pseudo/SG15/F.upf
     MD5 check sum: 1d8275f47d602dd53cad6bcdc0eda7dc
     Pseudo is Norm-conserving, Zval =  7.0
     Generated using ONCVPSP code by D. R. Hamann
     Using radial grid of  602 points,  4 beta functions with: 
                l(1) =   0
                l(2) =   0
                l(3) =   1
                l(4) =   1

     PseudoPot. # 2 for Li read from file:
     /usr/scratch4/magr4985/MG/HTDF/pseudo/SG15/Li.upf
     MD5 check sum: c91dd4cee9943b136ac3b62641658f95
     Pseudo is Norm-conserving, Zval =  3.0
     Generated using ONCVPSP code by D. R. Hamann
     Using radial grid of  602 points,  4 beta functions with: 
                l(1) =   0
                l(2) =   0
                l(3) =   1
                l(4) =   1

     atomic species   valence    mass     pseudopotential
        F              7.00    18.99840     F ( 1.00)
        Li             3.00     6.94100     Li( 1.00)

     48 Sym. Ops., with inversion, found



   Cartesian axes

     site n.     atom                  positions (alat units)
         1           Li  tau(   1) = (   0.0000000   0.0000000   0.0000000  )
         2           F   tau(   2) = (  -0.5000000   0.5000000   0.5000000  )

     number of k points=    72  Gaussian smearing, width (Ry)=  0.0005
                       cart. coord. in units 2pi/alat
        k(    1) = (   0.0000000   0.0000000   0.0000000), wk =   0.0011574
        k(    2) = (  -0.0833333   0.0833333  -0.0833333), wk =   0.0092593
        k(    3) = (  -0.1666667   0.1666667  -0.1666667), wk =   0.0092593
        k(    4) = (  -0.2500000   0.2500000  -0.2500000), wk =   0.0092593
        k(    5) = (  -0.3333333   0.3333333  -0.3333333), wk =   0.0092593
        k(    6) = (  -0.4166667   0.4166667  -0.4166667), wk =   0.0092593
        k(    7) = (   0.5000000  -0.5000000   0.5000000), wk =   0.0046296
        k(    8) = (   0.0000000   0.1666667   0.0000000), wk =   0.0069444
        k(    9) = (  -0.0833333   0.2500000  -0.0833333), wk =   0.0277778
        k(   10) = (  -0.1666667   0.3333333  -0.1666667), wk =   0.0277778
        k(   11) = (  -0.2500000   0.4166667  -0.2500000), wk =   0.0277778
        k(   12) = (  -0.3333333   0.5000000  -0.3333333), wk =   0.0277778
        k(   13) = (   0.5833333  -0.4166667   0.5833333), wk =   0.0277778
        k(   14) = (   0.5000000  -0.3333333   0.5000000), wk =   0.0277778
        k(   15) = (   0.4166667  -0.2500000   0.4166667), wk =   0.0277778
        k(   16) = (   0.3333333  -0.1666667   0.3333333), wk =   0.0277778
        k(   17) = (   0.2500000  -0.0833333   0.2500000), wk =   0.0277778
        k(   18) = (   0.1666667  -0.0000000   0.1666667), wk =   0.0138889
        k(   19) = (   0.0000000   0.3333333   0.0000000), wk =   0.0069444
        k(   20) = (  -0.0833333   0.4166667  -0.0833333), wk =   0.0277778
        k(   21) = (  -0.1666667   0.5000000  -0.1666667), wk =   0.0277778
        k(   22) = (  -0.2500000   0.5833333  -0.2500000), wk =   0.0277778
        k(   23) = (   0.6666667  -0.3333333   0.6666667), wk =   0.0277778
        k(   24) = (   0.5833333  -0.2500000   0.5833333), wk =   0.0277778
        k(   25) = (   0.5000000  -0.1666667   0.5000000), wk =   0.0277778
        k(   26) = (   0.4166667  -0.0833333   0.4166667), wk =   0.0277778
        k(   27) = (   0.3333333   0.0000000   0.3333333), wk =   0.0138889
        k(   28) = (   0.0000000   0.5000000   0.0000000), wk =   0.0069444
        k(   29) = (  -0.0833333   0.5833333  -0.0833333), wk =   0.0277778
        k(   30) = (  -0.1666667   0.6666667  -0.1666667), wk =   0.0277778
        k(   31) = (   0.7500000  -0.2500000   0.7500000), wk =   0.0277778
        k(   32) = (   0.6666667  -0.1666667   0.6666667), wk =   0.0277778
        k(   33) = (   0.5833333  -0.0833333   0.5833333), wk =   0.0277778
        k(   34) = (   0.5000000   0.0000000   0.5000000), wk =   0.0138889
        k(   35) = (   0.0000000   0.6666667   0.0000000), wk =   0.0069444
        k(   36) = (  -0.0833333   0.7500000  -0.0833333), wk =   0.0277778
        k(   37) = (   0.8333333  -0.1666667   0.8333333), wk =   0.0277778
        k(   38) = (   0.7500000  -0.0833333   0.7500000), wk =   0.0277778
        k(   39) = (   0.6666667  -0.0000000   0.6666667), wk =   0.0138889
        k(   40) = (   0.0000000   0.8333333   0.0000000), wk =   0.0069444
        k(   41) = (   0.9166667  -0.0833333   0.9166667), wk =   0.0277778
        k(   42) = (   0.8333333   0.0000000   0.8333333), wk =   0.0138889
        k(   43) = (   0.0000000  -1.0000000   0.0000000), wk =   0.0034722
        k(   44) = (  -0.1666667   0.3333333   0.0000000), wk =   0.0277778
        k(   45) = (  -0.2500000   0.4166667  -0.0833333), wk =   0.0555556
        k(   46) = (  -0.3333333   0.5000000  -0.1666667), wk =   0.0555556
        k(   47) = (   0.5833333  -0.4166667   0.7500000), wk =   0.0555556
        k(   48) = (   0.5000000  -0.3333333   0.6666667), wk =   0.0277778
        k(   49) = (  -0.1666667   0.5000000   0.0000000), wk =   0.0277778
        k(   50) = (  -0.2500000   0.5833333  -0.0833333), wk =   0.0555556
        k(   51) = (   0.6666667  -0.3333333   0.8333333), wk =   0.0555556
        k(   52) = (   0.5833333  -0.2500000   0.7500000), wk =   0.0555556
        k(   53) = (   0.5000000  -0.1666667   0.6666667), wk =   0.0555556
        k(   54) = (   0.4166667  -0.0833333   0.5833333), wk =   0.0555556
        k(   55) = (   0.3333333   0.0000000   0.5000000), wk =   0.0277778
        k(   56) = (  -0.1666667   0.6666667  -0.0000000), wk =   0.0277778
        k(   57) = (   0.7500000  -0.2500000   0.9166667), wk =   0.0555556
        k(   58) = (   0.6666667  -0.1666667   0.8333333), wk =   0.0555556
        k(   59) = (   0.5833333  -0.0833333   0.7500000), wk =   0.0555556
        k(   60) = (   0.5000000   0.0000000   0.6666667), wk =   0.0277778
        k(   61) = (   0.8333333  -0.1666667   1.0000000), wk =   0.0277778
        k(   62) = (   0.7500000  -0.0833333   0.9166667), wk =   0.0555556
        k(   63) = (   0.6666667   0.0000000   0.8333333), wk =   0.0277778
        k(   64) = (  -0.1666667  -1.0000000  -0.0000000), wk =   0.0138889
        k(   65) = (   0.6666667  -0.3333333   1.0000000), wk =   0.0277778
        k(   66) = (   0.5833333  -0.2500000   0.9166667), wk =   0.0555556
        k(   67) = (   0.5000000  -0.1666667   0.8333333), wk =   0.0277778
        k(   68) = (   0.6666667  -0.1666667   1.0000000), wk =   0.0277778
        k(   69) = (   0.5833333  -0.0833333   0.9166667), wk =   0.0555556
        k(   70) = (   0.5000000   0.0000000   0.8333333), wk =   0.0277778
        k(   71) = (  -0.3333333  -1.0000000   0.0000000), wk =   0.0138889
        k(   72) = (  -0.5000000  -1.0000000   0.0000000), wk =   0.0069444

     Dense  grid:    26469 G-vectors     FFT dimensions: (  45,  45,  45)

     Estimated max dynamical RAM per process >       2.94 MB

     Estimated total dynamical RAM >      64.01 MB

     Initial potential from superposition of free atoms

     starting charge       9.8869, renormalised to      10.0000
     Starting wfcs are random

     total cpu time spent up to now is        0.2 secs

     Self-consistent Calculation

     iteration #  1     ecut=   143.00 Ry     beta= 0.70
     Davidson diagonalization with overlap
     ethr =  1.00E-02,  avg # of iterations =  6.5

     Threshold (ethr) on eigenvalues was too large:
     Diagonalizing with lowered threshold

     Davidson diagonalization with overlap
     ethr =  6.02E-04,  avg # of iterations =  1.2

     total cpu time spent up to now is        1.2 secs

     total energy              =     -62.26496135 Ry
     estimated scf accuracy    <       0.06441762 Ry

     iteration #  2     ecut=   143.00 Ry     beta= 0.70
     Davidson diagonalization with overlap
     ethr =  6.44E-04,  avg # of iterations =  2.1

     total cpu time spent up to now is        1.5 secs

     total energy              =     -62.27998012 Ry
     estimated scf accuracy    <       0.03210935 Ry

     iteration #  3     ecut=   143.00 Ry     beta= 0.70
     Davidson diagonalization with overlap
     ethr =  3.21E-04,  avg # of iterations =  1.8

     total cpu time spent up to now is        1.7 secs

     total energy              =     -62.28699238 Ry
     estimated scf accuracy    <       0.00050839 Ry

     iteration #  4     ecut=   143.00 Ry     beta= 0.70
     Davidson diagonalization with overlap
     ethr =  5.08E-06,  avg # of iterations =  3.1

     total cpu time spent up to now is        2.1 secs

     total energy              =     -62.28709897 Ry
     estimated scf accuracy    <       0.00000503 Ry

     iteration #  5     ecut=   143.00 Ry     beta= 0.70
     Davidson diagonalization with overlap
     ethr =  5.03E-08,  avg # of iterations =  2.0

     total cpu time spent up to now is        2.4 secs

     total energy              =     -62.28710033 Ry
     estimated scf accuracy    <       0.00000022 Ry

     iteration #  6     ecut=   143.00 Ry     beta= 0.70
     Davidson diagonalization with overlap
     ethr =  2.19E-09,  avg # of iterations =  2.0

     total cpu time spent up to now is        2.7 secs

     total energy              =     -62.28710040 Ry
     estimated scf accuracy    <          1.3E-09 Ry

     iteration #  7     ecut=   143.00 Ry     beta= 0.70
     Davidson diagonalization with overlap
     ethr =  1.31E-11,  avg # of iterations =  2.0

     total cpu time spent up to now is        3.8 secs

     End of self-consistent calculation

          k = 0.0000 0.0000 0.0000 (  3287 PWs)   bands (ev):

   -40.3276 -19.1537   0.6160   0.6160   0.6160   9.3851  24.0782  24.0782
    24.0782  24.6575

          k =-0.0833 0.0833-0.0833 (  3338 PWs)   bands (ev):

   -40.3243 -19.1284   0.4228   0.6009   0.6009   9.5921  22.0496  23.1695
    23.1695  25.4348

          k =-0.1667 0.1667-0.1667 (  3329 PWs)   bands (ev):

   -40.3154 -19.0582  -0.0697   0.5605   0.5605  10.1042  19.8596  21.9605
    21.9605  26.1522

          k =-0.2500 0.2500-0.2500 (  3329 PWs)   bands (ev):

   -40.3032 -18.9597  -0.6801   0.5066   0.5066  10.6761  18.2473  20.8531
    20.8531  27.1227

          k =-0.3333 0.3333-0.3333 (  3305 PWs)   bands (ev):

   -40.2910 -18.8577  -1.2395   0.4543   0.4543  11.0724  17.3155  19.9900
    19.9900  28.3346

          k =-0.4167 0.4167-0.4167 (  3314 PWs)   bands (ev):

   -40.2821 -18.7807  -1.6252   0.4170   0.4170  11.2232  16.9522  19.4474
    19.4474  29.6433

          k = 0.5000-0.5000 0.5000 (  3316 PWs)   bands (ev):

   -40.2788 -18.7521  -1.7622   0.4035   0.4035  11.2455  16.8811  19.2628
    19.2628  30.4361

          k = 0.0000 0.1667 0.0000 (  3339 PWs)   bands (ev):

   -40.3232 -19.1196   0.4410   0.5516   0.5516   9.6707  22.6354  22.6354
    23.0068  23.1395

          k =-0.0833 0.2500-0.0833 (  3325 PWs)   bands (ev):

   -40.3162 -19.0633   0.0641   0.4814   0.5272  10.1080  20.4680  21.8572
    22.0974  23.6875

          k =-0.1667 0.3333-0.1667 (  3327 PWs)   bands (ev):

   -40.3052 -18.9724  -0.5034   0.4103   0.4788  10.7029  18.6350  21.0020
    21.0066  24.8091

          k =-0.2500 0.4167-0.2500 (  3326 PWs)   bands (ev):

   -40.2930 -18.8695  -1.0709   0.3574   0.4001  11.2075  17.4491  20.1144
    20.2266  26.1755

          k =-0.3333 0.5000-0.3333 (  3316 PWs)   bands (ev):

   -40.2831 -18.7824  -1.5050   0.3131   0.3365  11.4667  16.8846  19.5363
    19.6447  27.6888

          k = 0.5833-0.4167 0.5833 (  3308 PWs)   bands (ev):

   -40.2779 -18.7367  -1.7181   0.2419   0.3520  11.5304  16.7147  19.2953
    19.3473  29.1796

          k = 0.5000-0.3333 0.5000 (  3316 PWs)   bands (ev):

   -40.2790 -18.7467  -1.6698   0.2057   0.3997  11.5148  16.7234  19.3753
    19.3853  29.7608

          k = 0.4167-0.2500 0.4167 (  3325 PWs)   bands (ev):

   -40.2860 -18.8093  -1.3703   0.2148   0.4672  11.3908  16.9652  19.7396
    19.7818  28.4605

          k = 0.3333-0.1667 0.3333 (  3343 PWs)   bands (ev):

   -40.2971 -18.9051  -0.8797   0.2693   0.5374  11.0366  17.6910  20.3314
    20.5330  27.2244

          k = 0.2500-0.0833 0.2500 (  3322 PWs)   bands (ev):

   -40.3092 -19.0068  -0.3075   0.3605   0.5919  10.4744  19.0366  21.0595
    21.5918  26.0495

          k = 0.1667-0.0000 0.1667 (  3325 PWs)   bands (ev):

   -40.3192 -19.0877   0.1826   0.4813   0.6156   9.9108  20.8160  21.8917
    22.7601  25.1552

          k = 0.0000 0.3333 0.0000 (  3315 PWs)   bands (ev):

   -40.3115 -19.0208  -0.0458   0.3772   0.3772  10.4796  20.9055  21.4610
    21.4991  21.4991

          k =-0.0833 0.4167-0.0833 (  3319 PWs)   bands (ev):

   -40.3025 -18.9405  -0.4779   0.2765   0.2904  11.0793  19.0887  20.6174
    20.9965  22.3149

          k =-0.1667 0.5000-0.1667 (  3328 PWs)   bands (ev):

   -40.2916 -18.8421  -0.9807   0.1709   0.2060  11.6996  17.6293  19.8989
    20.4326  23.5963

          k =-0.2500 0.5833-0.2500 (  3313 PWs)   bands (ev):

   -40.2818 -18.7513  -1.3918   0.0132   0.1835  12.1312  16.7672  19.4271
    19.9208  25.0683

          k = 0.6667-0.3333 0.6667 (  3321 PWs)   bands (ev):

   -40.2756 -18.6944  -1.6199  -0.1404   0.2141  12.2950  16.3843  19.2445
    19.5712  26.6166

          k = 0.5833-0.2500 0.5833 (  3315 PWs)   bands (ev):

   -40.2748 -18.6887  -1.6219  -0.2437   0.2901  12.2774  16.2575  19.3133
    19.4648  28.1102

          k = 0.5000-0.1667 0.5000 (  3316 PWs)   bands (ev):

   -40.2795 -18.7360  -1.4057  -0.2601   0.3920  12.1032  16.3622  19.5573
    19.6485  28.9830

          k = 0.4167-0.0833 0.4167 (  3329 PWs)   bands (ev):

   -40.2885 -18.8218  -1.0363  -0.1641   0.4935  11.6891  16.8839  19.9182
    20.1298  27.9239

          k = 0.3333 0.0000 0.3333 (  3325 PWs)   bands (ev):

   -40.2993 -18.9209  -0.6342   0.0603   0.5671  11.0775  17.8774  20.3784
    20.8488  26.6475

          k = 0.0000 0.5000 0.0000 (  3327 PWs)   bands (ev):

   -40.2959 -18.8714  -0.7338   0.1424   0.1424  11.6833  19.2045  20.0059
    20.8356  20.8356

          k =-0.0833 0.5833-0.0833 (  3322 PWs)   bands (ev):

   -40.2871 -18.7818  -1.1269   0.0010   0.0432  12.3716  17.9650  19.4291
    20.5453  21.5001

          k =-0.1667 0.6667-0.1667 (  3325 PWs)   bands (ev):

   -40.2785 -18.6951  -1.4527  -0.2115   0.0032  12.9758  16.8463  19.0468
    20.1894  22.7774

          k = 0.7500-0.2500 0.7500 (  3307 PWs)   bands (ev):

   -40.2724 -18.6357  -1.6070  -0.4690   0.0318  13.3183  16.1550  18.9408
    19.8618  24.2284

          k = 0.6667-0.1667 0.6667 (  3310 PWs)   bands (ev):

   -40.2704 -18.6214  -1.5524  -0.7016   0.1221  13.3388  15.7956  19.0854
    19.6517  25.7943

          k = 0.5833-0.0833 0.5833 (  3304 PWs)   bands (ev):

   -40.2731 -18.6566  -1.3292  -0.8148   0.2520  13.0436  15.7542  19.3485
    19.6206  27.4713

          k = 0.5000 0.0000 0.5000 (  3318 PWs)   bands (ev):

   -40.2797 -18.7307  -1.1426  -0.6200   0.3882  12.4376  16.1410  19.6266
    19.7909  29.1318

          k = 0.0000 0.6667 0.0000 (  3347 PWs)   bands (ev):

   -40.2807 -18.7037  -1.4496  -0.0880  -0.0880  13.0878  17.9761  18.9134
    20.5231  20.5231

          k =-0.0833 0.7500-0.0833 (  3329 PWs)   bands (ev):

   -40.2742 -18.6280  -1.7267  -0.2405  -0.1557  13.7654  17.1557  18.5165
    20.3703  21.1008

          k = 0.8333-0.1667 0.8333 (  3314 PWs)   bands (ev):

   -40.2692 -18.5759  -1.8276  -0.4947  -0.1442  14.2882  16.2398  18.4002
    20.1369  22.2986

          k = 0.7500-0.0833 0.7500 (  3307 PWs)   bands (ev):

   -40.2672 -18.5628  -1.7048  -0.8003  -0.0561  14.4955  15.4896  18.6324
    19.8945  23.7539

          k = 0.6667-0.0000 0.6667 (  3318 PWs)   bands (ev):

   -40.2686 -18.5927  -1.3841  -1.0634   0.0879  13.9933  15.3559  19.0218
    19.7080  25.4881

          k = 0.0000 0.8333 0.0000 (  3310 PWs)   bands (ev):

   -40.2699 -18.5677  -1.9913  -0.2541  -0.2541  14.4066  17.2359  18.0708
    20.4178  20.4178

          k = 0.9167-0.0833 0.9167 (  3307 PWs)   bands (ev):

   -40.2669 -18.5314  -2.0889  -0.3747  -0.2692  14.8764  16.7041  17.8393
    20.3298  20.9487

          k = 0.8333 0.0000 0.8333 (  3300 PWs)   bands (ev):

   -40.2659 -18.5296  -1.9739  -0.5949  -0.1979  15.1049  15.8022  18.0954
    20.1386  22.1386

          k = 0.0000-1.0000 0.0000 (  3306 PWs)   bands (ev):

   -40.2660 -18.5150  -2.1934  -0.3142  -0.3142  15.0602  16.9888  17.6356
    20.3987  20.3987

          k =-0.1667 0.3333 0.0000 (  3320 PWs)   bands (ev):

   -40.3082 -18.9953  -0.2694   0.2913   0.5087  10.6178  19.2661  20.9587
    21.4835  23.7114

          k =-0.2500 0.4167-0.0833 (  3327 PWs)   bands (ev):

   -40.2973 -18.9000  -0.7490   0.1185   0.4629  11.2405  17.8619  20.3041
    20.6484  24.7064

          k =-0.3333 0.5000-0.1667 (  3314 PWs)   bands (ev):

   -40.2863 -18.8016  -1.2198   0.0019   0.3882  11.7455  16.9194  19.7553
    19.9853  26.0707

          k = 0.5833-0.4167 0.7500 (  3316 PWs)   bands (ev):

   -40.2783 -18.7274  -1.5532  -0.0625   0.3189  11.9986  16.5022  19.4111
    19.5491  27.5680

          k = 0.5000-0.3333 0.6667 (  3306 PWs)   bands (ev):

   -40.2754 -18.6998  -1.6729  -0.0823   0.2905  12.0581  16.4089  19.3329
    19.3603  28.6808

          k =-0.1667 0.5000 0.0000 (  3323 PWs)   bands (ev):

   -40.2936 -18.8554  -0.8358   0.0363   0.2572  11.7247  18.0774  19.9579
    20.6122  22.5751

          k =-0.2500 0.5833-0.0833 (  3324 PWs)   bands (ev):

   -40.2840 -18.7611  -1.2060  -0.1824   0.1942  12.3704  16.9976  19.4630
    20.1589  23.7018

          k = 0.6667-0.3333 0.8333 (  3313 PWs)   bands (ev):

   -40.2761 -18.6835  -1.4764  -0.3704   0.1427  12.8149  16.3241  19.1849
    19.7642  25.1245

          k = 0.5833-0.2500 0.7500 (  3313 PWs)   bands (ev):

   -40.2721 -18.6452  -1.5787  -0.5156   0.1474  12.9685  16.0304  19.1640
    19.4955  26.6276

          k = 0.5000-0.1667 0.6667 (  3312 PWs)   bands (ev):

   -40.2730 -18.6581  -1.4965  -0.5767   0.2127  12.8805  15.9729  19.3556
    19.4148  27.8876

          k = 0.4167-0.0833 0.5833 (  3319 PWs)   bands (ev):

   -40.2787 -18.7181  -1.2751  -0.4998   0.3128  12.5294  16.2279  19.5424
    19.6916  26.8482

          k = 0.3333 0.0000 0.5000 (  3322 PWs)   bands (ev):

   -40.2876 -18.8071  -1.0076  -0.2473   0.4089  11.9228  16.9117  19.8484
    20.1370  25.5293

          k =-0.1667 0.6667-0.0000 (  3325 PWs)   bands (ev):

   -40.2795 -18.6979  -1.4341  -0.2135  -0.0118  13.0761  17.2103  18.9652
    20.2873  21.9281

          k = 0.7500-0.2500 0.9167 (  3322 PWs)   bands (ev):

   -40.2728 -18.6261  -1.6231  -0.4653  -0.0507  13.6962  16.3951  18.6715
    19.9752  23.0980

          k = 0.6667-0.1667 0.8333 (  3309 PWs)   bands (ev):

   -40.2688 -18.5871  -1.6250  -0.7452  -0.0294  14.0404  15.8043  18.6740
    19.6987  24.5244

          k = 0.5833-0.0833 0.7500 (  3300 PWs)   bands (ev):

   -40.2686 -18.5927  -1.4261  -0.9955   0.0591  13.9481  15.5129  18.9550
    19.5148  26.1231

          k = 0.5000 0.0000 0.6667 (  3302 PWs)   bands (ev):

   -40.2722 -18.6412  -1.2341  -0.9769   0.1875  13.3586  15.6832  19.3355
    19.4633  27.8948

          k = 0.8333-0.1667 1.0000 (  3320 PWs)   bands (ev):

   -40.2694 -18.5703  -1.9037  -0.3930  -0.2024  14.3981  16.6735  18.1208
    20.1648  21.6353

          k = 0.7500-0.0833 0.9167 (  3314 PWs)   bands (ev):

   -40.2665 -18.5413  -1.8858  -0.6332  -0.1838  14.8702  15.9757  18.0198
    19.9139  22.8236

          k = 0.6667 0.0000 0.8333 (  3301 PWs)   bands (ev):

   -40.2662 -18.5496  -1.6686  -0.9068  -0.0881  15.0103  15.2048  18.4107
    19.6897  24.3213

          k =-0.1667-1.0000-0.0000 (  3316 PWs)   bands (ev):

   -40.2658 -18.5207  -2.0825  -0.4580  -0.2700  15.0797  16.4911  17.6530
    20.1350  21.5568

          k = 0.6667-0.3333 1.0000 (  3317 PWs)   bands (ev):

   -40.2763 -18.6781  -1.3669  -0.5459   0.1319  13.1084  16.2824  19.1343
    19.7988  24.7157

          k = 0.5833-0.2500 0.9167 (  3311 PWs)   bands (ev):

   -40.2706 -18.6158  -1.4434  -0.8249   0.0593  13.6932  15.8157  18.9131
    19.4989  26.1431

          k = 0.5000-0.1667 0.8333 (  3314 PWs)   bands (ev):

   -40.2686 -18.5927  -1.4584  -0.9353   0.0283  13.9088  15.6767  18.8339
    19.3777  27.3669

          k = 0.6667-0.1667 1.0000 (  3314 PWs)   bands (ev):

   -40.2683 -18.5730  -1.6554  -0.7588  -0.0968  14.4122  15.9251  18.2746
    19.6619  24.2843

          k = 0.5833-0.0833 0.9167 (  3310 PWs)   bands (ev):

   -40.2662 -18.5512  -1.5230  -1.0473  -0.1009  14.8704  15.5141  18.1326
    19.4537  25.8157

          k = 0.5000 0.0000 0.8333 (  3311 PWs)   bands (ev):

   -40.2670 -18.5670  -1.2949  -1.2287  -0.0401  14.5664  15.4475  18.4627
    19.3850  27.5129

          k =-0.3333-1.0000 0.0000 (  3306 PWs)   bands (ev):

   -40.2654 -18.5322  -1.7701  -0.8356  -0.1805  15.1623  15.8086  17.6964
    19.6277  24.1531

          k =-0.5000-1.0000 0.0000 (  3316 PWs)   bands (ev):

   -40.2652 -18.5379  -1.3190  -1.3190  -0.1351  15.3754  15.3754  17.7249
    19.3794  27.5842

     the Fermi energy is     3.9153 ev

!    total energy              =     -62.28710040 Ry
     estimated scf accuracy    <          8.9E-11 Ry
     smearing contrib. (-TS)   =      -0.00000000 Ry
     internal energy E=F+TS    =     -62.28710040 Ry

     The total energy is F=E-TS. E is the sum of the following terms:
     one-electron contribution =     -25.96308425 Ry
     hartree contribution      =      16.74862622 Ry
     xc contribution           =     -12.68018174 Ry
     ewald contribution        =     -40.39246062 Ry

     convergence has been achieved in   7 iterations

     Writing all to output data dir out/mp-1138.save/
 
     init_run     :      0.11s CPU      0.18s WALL (       1 calls)
     electrons    :      2.48s CPU      3.60s WALL (       1 calls)

     Called by init_run:
     wfcinit      :      0.09s CPU      0.11s WALL (       1 calls)
     potinit      :      0.01s CPU      0.01s WALL (       1 calls)
     hinit0       :      0.01s CPU      0.04s WALL (       1 calls)

     Called by electrons:
     c_bands      :      2.10s CPU      3.08s WALL (       8 calls)
     sum_band     :      0.35s CPU      0.41s WALL (       8 calls)
     v_of_rho     :      0.03s CPU      0.03s WALL (       8 calls)
     mix_rho      :      0.01s CPU      0.01s WALL (       8 calls)

     Called by c_bands:
     init_us_2    :      0.03s CPU      0.04s WALL (     612 calls)
     init_us_2:cp :      0.03s CPU      0.04s WALL (     612 calls)
     cegterg      :      1.94s CPU      2.03s WALL (     288 calls)

     Called by *egterg:
     cdiaghg      :      0.13s CPU      0.15s WALL (    1039 calls)
     h_psi        :      1.74s CPU      1.84s WALL (    1111 calls)
     g_psi        :      0.01s CPU      0.01s WALL (     787 calls)

     Called by h_psi:
     h_psi:calbec :      0.03s CPU      0.04s WALL (    1111 calls)
     vloc_psi     :      1.68s CPU      1.77s WALL (    1111 calls)
     add_vuspsi   :      0.02s CPU      0.02s WALL (    1111 calls)

     General routines
     calbec       :      0.03s CPU      0.03s WALL (    1111 calls)
     fft          :      0.01s CPU      0.05s WALL (      80 calls)
     ffts         :      0.00s CPU      0.00s WALL (       8 calls)
     fftw         :      1.81s CPU      1.91s WALL (   20074 calls)
     davcio       :      0.04s CPU      0.17s WALL (     988 calls)
 
     Parallel routines
 
     PWSCF        :      2.68s CPU      3.98s WALL

 
   This run was terminated on:  18:35:15  15Nov2023            

=------------------------------------------------------------------------------=
   JOB DONE.
=------------------------------------------------------------------------------=
