
     Program PWSCF v.7.1 starts on  5Dec2023 at  2:44: 2 

     This program is part of the open-source Quantum ESPRESSO suite
     for quantum simulation of materials; please cite
         "P. Giannozzi et al., J. Phys.:Condens. Matter 21 395502 (2009);
         "P. Giannozzi et al., J. Phys.:Condens. Matter 29 465901 (2017);
         "P. Giannozzi et al., J. Chem. Phys. 152 154105 (2020);
          URL http://www.quantum-espresso.org", 
     in publications or presentations arising from this work. More details at
     http://www.quantum-espresso.org/quote

     Parallel version (MPI), running on    24 processors

     MPI processes distributed on     1 nodes
     121581 MiB available memory on the printing compute node when the environment starts
 
     Reading input from pw_mp-804_scf_k3000_E67.in
Warning: card &CELL ignored
Warning: card / ignored

     Current dimensions of program PWSCF are:
     Max number of different atomic species (ntypx) = 10
     Max number of k-points (npk) =  40000
     Max angular momentum in pseudopotentials (lmaxx) =  4
 
     R & G space division:  proc/nbgrp/npool/nimage =      24
     Subspace diagonalization in iterative solution of the eigenvalue problem:
     a serial algorithm will be used

 
     Parallelization info
     --------------------
     sticks:   dense  smooth     PW     G-vecs:    dense   smooth      PW
     Min          28      28      8                  952      952     152
     Max          29      29      9                  958      958     159
     Sum         673     673    199                22887    22887    3693
 
     Using Slab Decomposition
 


     bravais-lattice index     =            4
     lattice parameter (alat)  =       6.0262  a.u.
     unit-cell volume          =     308.5900 (a.u.)^3
     number of atoms/cell      =            4
     number of atomic types    =            2
     number of electrons       =        36.00
     number of Kohn-Sham states=           36
     kinetic-energy cutoff     =      67.0000  Ry
     charge density cutoff     =     268.0000  Ry
     scf convergence threshold =      1.0E-10
     mixing beta               =       0.7000
     number of iterations used =            8  plain     mixing
     Exchange-correlation= PBE
                           (   1   4   3   4   0   0   0)

     celldm(1)=   6.026205  celldm(2)=   0.000000  celldm(3)=   1.628244
     celldm(4)=   0.000000  celldm(5)=   0.000000  celldm(6)=   0.000000

     crystal axes: (cart. coord. in units of alat)
               a(1) = (   1.000000   0.000000   0.000000 )  
               a(2) = (  -0.500000   0.866025   0.000000 )  
               a(3) = (   0.000000   0.000000   1.628244 )  

     reciprocal axes: (cart. coord. in units 2 pi/alat)
               b(1) = (  1.000000  0.577350  0.000000 )  
               b(2) = (  0.000000  1.154701  0.000000 )  
               b(3) = (  0.000000  0.000000  0.614159 )  


     PseudoPot. # 1 for Ga read from file:
     /usr/scratch4/magr4985/MG/HTDF/pseudo/SG15/Ga.upf
     MD5 check sum: 9961a622ff199abf6dfec9a0a10b8555
     Pseudo is Norm-conserving, Zval = 13.0
     Generated using ONCVPSP code by D. R. Hamann
     Using radial grid of  602 points,  6 beta functions with: 
                l(1) =   0
                l(2) =   0
                l(3) =   1
                l(4) =   1
                l(5) =   2
                l(6) =   2

     PseudoPot. # 2 for N  read from file:
     /usr/scratch4/magr4985/MG/HTDF/pseudo/SG15/N.upf
     MD5 check sum: c233fa8df51455e992258b7c3dee8a9f
     Pseudo is Norm-conserving, Zval =  5.0
     Generated using ONCVPSP code by D. R. Hamann
     Using radial grid of  602 points,  4 beta functions with: 
                l(1) =   0
                l(2) =   0
                l(3) =   1
                l(4) =   1

     atomic species   valence    mass     pseudopotential
        Ga            13.00    69.72300     Ga( 1.00)
        N              5.00    14.00670     N ( 1.00)

      6 Sym. Ops. (no inversion) found



   Cartesian axes

     site n.     atom                  positions (alat units)
         1           Ga  tau(   1) = (   0.0000000   0.5773502   0.8126302  )
         2           Ga  tau(   2) = (   0.5000000   0.2886752   1.6267523  )
         3           N   tau(   3) = (   0.0000000   0.5773502   1.4262057  )
         4           N   tau(   4) = (   0.5000000   0.2886752   0.6120835  )

     number of k points=    72  Gaussian smearing, width (Ry)=  0.0005
                       cart. coord. in units 2pi/alat
        k(    1) = (   0.0000000   0.0000000   0.0000000), wk =   0.0033333
        k(    2) = (   0.0000000   0.0000000   0.1023598), wk =   0.0066667
        k(    3) = (   0.0000000   0.0000000   0.2047195), wk =   0.0066667
        k(    4) = (   0.0000000   0.0000000  -0.3070793), wk =   0.0033333
        k(    5) = (   0.0000000   0.1154701   0.0000000), wk =   0.0200000
        k(    6) = (   0.0000000   0.1154701   0.1023598), wk =   0.0200000
        k(    7) = (   0.0000000   0.1154701   0.2047195), wk =   0.0200000
        k(    8) = (   0.0000000   0.1154701  -0.3070793), wk =   0.0200000
        k(    9) = (   0.0000000   0.2309401   0.0000000), wk =   0.0200000
        k(   10) = (   0.0000000   0.2309401   0.1023598), wk =   0.0200000
        k(   11) = (   0.0000000   0.2309401   0.2047195), wk =   0.0200000
        k(   12) = (   0.0000000   0.2309401  -0.3070793), wk =   0.0200000
        k(   13) = (   0.0000000   0.3464102   0.0000000), wk =   0.0200000
        k(   14) = (   0.0000000   0.3464102   0.1023598), wk =   0.0200000
        k(   15) = (   0.0000000   0.3464102   0.2047195), wk =   0.0200000
        k(   16) = (   0.0000000   0.3464102  -0.3070793), wk =   0.0200000
        k(   17) = (   0.0000000   0.4618802   0.0000000), wk =   0.0200000
        k(   18) = (   0.0000000   0.4618802   0.1023598), wk =   0.0200000
        k(   19) = (   0.0000000   0.4618802   0.2047195), wk =   0.0200000
        k(   20) = (   0.0000000   0.4618802  -0.3070793), wk =   0.0200000
        k(   21) = (   0.0000000  -0.5773503   0.0000000), wk =   0.0100000
        k(   22) = (   0.0000000  -0.5773503   0.1023598), wk =   0.0200000
        k(   23) = (   0.0000000  -0.5773503   0.2047195), wk =   0.0200000
        k(   24) = (   0.0000000  -0.5773503  -0.3070793), wk =   0.0100000
        k(   25) = (   0.1000000   0.1732051   0.0000000), wk =   0.0200000
        k(   26) = (   0.1000000   0.1732051   0.1023598), wk =   0.0400000
        k(   27) = (   0.1000000   0.1732051   0.2047195), wk =   0.0400000
        k(   28) = (   0.1000000   0.1732051  -0.3070793), wk =   0.0200000
        k(   29) = (   0.1000000   0.2886751   0.0000000), wk =   0.0400000
        k(   30) = (   0.1000000   0.2886751   0.1023598), wk =   0.0400000
        k(   31) = (   0.1000000   0.2886751   0.2047195), wk =   0.0400000
        k(   32) = (   0.1000000   0.2886751  -0.3070793), wk =   0.0400000
        k(   33) = (   0.1000000   0.4041452   0.0000000), wk =   0.0400000
        k(   34) = (   0.1000000   0.4041452   0.1023598), wk =   0.0400000
        k(   35) = (   0.1000000   0.4041452   0.2047195), wk =   0.0400000
        k(   36) = (   0.1000000   0.4041452  -0.3070793), wk =   0.0400000
        k(   37) = (   0.1000000   0.5196152   0.0000000), wk =   0.0400000
        k(   38) = (   0.1000000   0.5196152   0.1023598), wk =   0.0400000
        k(   39) = (   0.1000000   0.5196152   0.2047195), wk =   0.0400000
        k(   40) = (   0.1000000   0.5196152  -0.3070793), wk =   0.0400000
        k(   41) = (   0.2000000   0.3464102   0.0000000), wk =   0.0200000
        k(   42) = (   0.2000000   0.3464102   0.1023598), wk =   0.0400000
        k(   43) = (   0.2000000   0.3464102   0.2047195), wk =   0.0400000
        k(   44) = (   0.2000000   0.3464102  -0.3070793), wk =   0.0200000
        k(   45) = (   0.2000000   0.4618802   0.0000000), wk =   0.0400000
        k(   46) = (   0.2000000   0.4618802   0.1023598), wk =   0.0400000
        k(   47) = (   0.2000000   0.4618802   0.2047195), wk =   0.0400000
        k(   48) = (   0.2000000   0.4618802  -0.3070793), wk =   0.0400000
        k(   49) = (   0.2000000   0.5773503   0.0000000), wk =   0.0200000
        k(   50) = (   0.2000000   0.5773503   0.1023598), wk =   0.0400000
        k(   51) = (   0.2000000   0.5773503   0.2047195), wk =   0.0400000
        k(   52) = (   0.2000000   0.5773503  -0.3070793), wk =   0.0200000
        k(   53) = (   0.3000000   0.5196152   0.0000000), wk =   0.0200000
        k(   54) = (   0.3000000   0.5196152   0.1023598), wk =   0.0400000
        k(   55) = (   0.3000000   0.5196152   0.2047195), wk =   0.0400000
        k(   56) = (   0.3000000   0.5196152  -0.3070793), wk =   0.0200000
        k(   57) = (   0.0000000  -0.1154701   0.1023598), wk =   0.0200000
        k(   58) = (   0.0000000  -0.1154701   0.2047195), wk =   0.0200000
        k(   59) = (   0.0000000  -0.2309401   0.1023598), wk =   0.0200000
        k(   60) = (   0.0000000  -0.2309401   0.2047195), wk =   0.0200000
        k(   61) = (   0.0000000  -0.3464102   0.1023598), wk =   0.0200000
        k(   62) = (   0.0000000  -0.3464102   0.2047195), wk =   0.0200000
        k(   63) = (   0.0000000  -0.4618802   0.1023598), wk =   0.0200000
        k(   64) = (   0.0000000  -0.4618802   0.2047195), wk =   0.0200000
        k(   65) = (  -0.1000000  -0.2886751   0.1023598), wk =   0.0400000
        k(   66) = (  -0.1000000  -0.2886751   0.2047195), wk =   0.0400000
        k(   67) = (  -0.1000000  -0.4041452   0.1023598), wk =   0.0400000
        k(   68) = (  -0.1000000  -0.4041452   0.2047195), wk =   0.0400000
        k(   69) = (  -0.1000000  -0.5196152   0.1023598), wk =   0.0400000
        k(   70) = (  -0.1000000  -0.5196152   0.2047195), wk =   0.0400000
        k(   71) = (  -0.2000000  -0.4618802   0.1023598), wk =   0.0400000
        k(   72) = (  -0.2000000  -0.4618802   0.2047195), wk =   0.0400000

     Dense  grid:    22887 G-vectors     FFT dimensions: (  32,  32,  54)

     Estimated max dynamical RAM per process >       3.95 MB

     Estimated total dynamical RAM >      94.87 MB

     Initial potential from superposition of free atoms

     starting charge      35.8431, renormalised to      36.0000
     Starting wfcs are random

     total cpu time spent up to now is        0.6 secs

     Self-consistent Calculation

     iteration #  1     ecut=    67.00 Ry     beta= 0.70
     Davidson diagonalization with overlap
     ethr =  1.00E-02,  avg # of iterations = 10.2

     total cpu time spent up to now is        5.4 secs

     total energy              =    -302.02828560 Ry
     estimated scf accuracy    <       1.04205381 Ry

     iteration #  2     ecut=    67.00 Ry     beta= 0.70
     Davidson diagonalization with overlap
     ethr =  2.89E-03,  avg # of iterations =  2.0

     total cpu time spent up to now is        7.2 secs

     total energy              =    -302.33240073 Ry
     estimated scf accuracy    <       1.01120469 Ry

     iteration #  3     ecut=    67.00 Ry     beta= 0.70
     Davidson diagonalization with overlap
     ethr =  2.81E-03,  avg # of iterations =  1.8

     total cpu time spent up to now is        9.3 secs

     total energy              =    -302.51990618 Ry
     estimated scf accuracy    <       0.00529596 Ry

     iteration #  4     ecut=    67.00 Ry     beta= 0.70
     Davidson diagonalization with overlap
     ethr =  1.47E-05,  avg # of iterations =  5.9

     total cpu time spent up to now is       11.9 secs

     total energy              =    -302.52129184 Ry
     estimated scf accuracy    <       0.00027365 Ry

     iteration #  5     ecut=    67.00 Ry     beta= 0.70
     Davidson diagonalization with overlap
     ethr =  7.60E-07,  avg # of iterations =  3.2

     total cpu time spent up to now is       13.8 secs

     total energy              =    -302.52132801 Ry
     estimated scf accuracy    <       0.00002638 Ry

     iteration #  6     ecut=    67.00 Ry     beta= 0.70
     Davidson diagonalization with overlap
     ethr =  7.33E-08,  avg # of iterations =  2.0

     total cpu time spent up to now is       15.6 secs

     total energy              =    -302.52133150 Ry
     estimated scf accuracy    <       0.00000157 Ry

     iteration #  7     ecut=    67.00 Ry     beta= 0.70
     Davidson diagonalization with overlap
     ethr =  4.36E-09,  avg # of iterations =  2.0

     total cpu time spent up to now is       17.3 secs

     total energy              =    -302.52133197 Ry
     estimated scf accuracy    <       0.00000096 Ry

     iteration #  8     ecut=    67.00 Ry     beta= 0.70
     Davidson diagonalization with overlap
     ethr =  2.67E-09,  avg # of iterations =  1.3

     total cpu time spent up to now is       18.9 secs

     total energy              =    -302.52133211 Ry
     estimated scf accuracy    <       0.00000015 Ry

     iteration #  9     ecut=    67.00 Ry     beta= 0.70
     Davidson diagonalization with overlap
     ethr =  4.25E-10,  avg # of iterations =  1.0

     total cpu time spent up to now is       20.4 secs

     total energy              =    -302.52133212 Ry
     estimated scf accuracy    <       0.00000002 Ry

     iteration # 10     ecut=    67.00 Ry     beta= 0.70
     Davidson diagonalization with overlap
     ethr =  5.39E-11,  avg # of iterations =  1.4

     total cpu time spent up to now is       22.0 secs

     total energy              =    -302.52133212 Ry
     estimated scf accuracy    <          1.9E-09 Ry

     iteration # 11     ecut=    67.00 Ry     beta= 0.70
     Davidson diagonalization with overlap
     ethr =  5.24E-12,  avg # of iterations =  2.0

     total cpu time spent up to now is       23.9 secs

     End of self-consistent calculation

          k = 0.0000 0.0000 0.0000 (  2863 PWs)   bands (ev):

    -5.2235  -4.3592  -2.8312  -2.8222  -2.8222  -2.7634  -2.7634  -2.5745
    -2.5745  -2.4782  -2.4782  -1.1892   3.6871   9.6800   9.6800  10.6728
    10.7058  10.7058  12.6640  14.9947  19.9171  20.6391  20.6391  21.4802
    22.4462  22.4462  25.3439  26.3950  26.3950  28.6459  28.6459  28.9008
    28.9607  32.4135  34.8858  34.8859

          k = 0.0000 0.0000 0.1024 (  2851 PWs)   bands (ev):

    -5.1442  -4.3862  -2.8206  -2.8206  -2.8075  -2.7696  -2.7696  -2.5656
    -2.5656  -2.4823  -2.4823  -1.4684   4.1859   9.7460   9.7460   9.8686
    10.6342  10.6342  13.3403  15.0501  19.7248  20.6717  20.6717  20.8363
    22.1961  22.1961  25.6212  26.7674  26.7674  28.6928  29.1026  29.1026
    30.0016  32.4665  33.9507  33.9507

          k = 0.0000 0.0000 0.2047 (  2876 PWs)   bands (ev):

    -4.9344  -4.4846  -2.8148  -2.8148  -2.7851  -2.7851  -2.7097  -2.5436
    -2.5436  -2.4960  -2.4960  -2.0153   5.3853   8.4371   9.9268   9.9268
    10.4399  10.4399  14.3337  15.1393  19.3274  19.7790  20.8197  20.8197
    21.6622  21.6622  26.2220  27.7813  27.7813  27.9837  29.8678  29.8678
    32.3794  32.6966  32.6966  33.0844

          k = 0.0000 0.0000-0.3071 (  2834 PWs)   bands (ev):

    -4.6796  -4.6796  -2.8021  -2.8021  -2.8021  -2.8021  -2.5174  -2.5174
    -2.5174  -2.5174  -2.4646  -2.4646   6.8827   6.8827  10.1806  10.1806
    10.1806  10.1807  14.9897  14.9897  19.2082  19.2082  21.1542  21.1542
    21.1542  21.1542  27.0478  27.0478  29.1458  29.1458  29.1458  29.1458
    33.4946  33.4946  33.4946  33.4946

          k = 0.0000 0.1155 0.0000 (  2837 PWs)   bands (ev):

    -5.1279  -4.3360  -2.8219  -2.8079  -2.7880  -2.7515  -2.7442  -2.5824
    -2.5755  -2.4939  -2.4758  -1.1194   3.8292   8.9667   9.4765   9.8801
    10.5755  10.6175  13.4177  15.5921  19.6174  20.0147  20.8947  21.5623
    22.0210  22.6607  24.4490  25.9063  27.2405  28.5476  29.7679  29.8579
    30.1747  33.1495  34.3560  34.8402

          k = 0.0000 0.1155 0.1024 (  2847 PWs)   bands (ev):

    -5.0524  -4.3594  -2.8159  -2.8060  -2.7723  -2.7556  -2.7506  -2.5697
    -2.5667  -2.5002  -2.4807  -1.3906   4.3065   9.0403   9.4151   9.5477
    10.4018  10.5356  13.8649  15.6387  19.3979  19.9626  20.9300  20.9612
    21.8698  22.4212  25.0907  26.3304  27.4485  28.7333  29.7794  30.1192
    30.7850  33.0042  33.8378  34.2814

          k = 0.0000 0.1155 0.2047 (  2859 PWs)   bands (ev):

    -4.8550  -4.4453  -2.8056  -2.7988  -2.7748  -2.7666  -2.6866  -2.5446
    -2.5328  -2.5153  -2.4954  -1.9272   5.4519   8.2470   9.3114   9.7457
    10.0616  10.3158  14.7273  15.6889  18.9363  19.4351  20.6279  21.0839
    21.5104  21.9113  26.1258  27.4465  27.8715  28.5777  30.0269  30.3306
    31.8931  32.7789  32.9004  34.7670

          k = 0.0000 0.1155-0.3071 (  2858 PWs)   bands (ev):

    -4.6202  -4.6202  -2.7918  -2.7918  -2.7848  -2.7848  -2.5692  -2.5692
    -2.5181  -2.5181  -2.3605  -2.3605   6.8562   6.8562   9.6659   9.6659
    10.0255  10.0255  15.4403  15.4403  18.8484  18.8484  21.0115  21.0115
    21.4181  21.4181  27.1232  27.1232  28.9807  28.9807  29.5044  29.5044
    32.3593  32.3593  34.1034  34.1034

          k = 0.0000 0.2309 0.0000 (  2841 PWs)   bands (ev):

    -4.8823  -4.2847  -2.7918  -2.7770  -2.7237  -2.6941  -2.6589  -2.6025
    -2.5705  -2.5186  -2.4708  -0.9298   4.2293   7.4862   8.5313   9.0015
    10.2590  10.3697  14.5349  16.5239  18.5510  19.4738  20.9805  21.3666
    22.1857  23.1235  23.4712  25.8796  27.2076  30.2073  31.5470  31.7886
    31.9450  33.0713  34.8582  36.3381

          k = 0.0000 0.2309 0.1024 (  2844 PWs)   bands (ev):

    -4.8192  -4.2990  -2.7905  -2.7728  -2.7323  -2.7010  -2.6531  -2.5775
    -2.5629  -2.5113  -2.4768  -1.1761   4.6231   7.6056   8.2590   9.0840
    10.1285  10.2670  14.7155  16.5757  18.4571  19.2527  20.8275  21.4344
    21.7401  22.9404  24.0874  26.2615  27.5118  30.2116  30.7463  32.0385
    32.6795  33.2156  33.8305  35.7764

          k = 0.0000 0.2309 0.2047 (  2847 PWs)   bands (ev):

    -4.6592  -4.3557  -2.7820  -2.7603  -2.7482  -2.7187  -2.6342  -2.5728
    -2.5429  -2.4933  -2.4090  -1.6858   5.5379   7.4292   8.1730   9.3152
     9.6185   9.9959  15.2599  16.5416  18.1899  18.8799  20.4998  21.3540
    21.6545  22.5086  25.1039  27.3275  27.4035  30.3575  30.7971  31.0100
    32.3545  33.3042  34.0511  35.9976

          k = 0.0000 0.2309-0.3071 (  2864 PWs)   bands (ev):

    -4.4799  -4.4799  -2.7659  -2.7659  -2.7408  -2.7408  -2.6022  -2.6022
    -2.5173  -2.5173  -2.1391  -2.1391   6.5562   6.5562   8.8443   8.8443
     9.6456   9.6456  16.0070  16.0070  18.3667  18.3667  20.8128  20.8128
    22.0322  22.0322  26.3393  26.3393  28.9140  28.9140  31.0306  31.0306
    32.4454  32.4454  35.4993  35.4993

          k = 0.0000 0.3464 0.0000 (  2848 PWs)   bands (ev):

    -4.6065  -4.2389  -2.7702  -2.7539  -2.6776  -2.6334  -2.6142  -2.5774
    -2.5448  -2.4645  -2.2987  -0.6941   4.7277   6.1072   7.2022   8.4911
     9.6966  10.0573  15.4165  16.5737  17.7135  19.1642  20.9523  21.4382
    22.1869  23.7482  23.7863  26.9785  27.0472  29.5127  32.5705  33.9388
    34.4714  34.6158  35.2605  36.7884

          k = 0.0000 0.3464 0.1024 (  2852 PWs)   bands (ev):

    -4.5623  -4.2445  -2.7731  -2.7456  -2.6941  -2.6410  -2.6093  -2.5749
    -2.5404  -2.4711  -2.2463  -0.8897   4.8438   6.3681   7.0284   8.5834
     9.7290   9.9361  15.2449  16.6439  17.8228  19.0317  20.7619  21.5986
    21.9594  23.6235  23.8025  27.3145  27.3596  29.5722  32.1841  33.4687
    34.0416  34.9974  35.2780  36.3860

          k = 0.0000 0.3464 0.2047 (  2856 PWs)   bands (ev):

    -4.4546  -4.2720  -2.7728  -2.7256  -2.7231  -2.6621  -2.6009  -2.5774
    -2.5277  -2.4879  -2.0762  -1.3272   5.1601   6.1902   7.5459   8.8429
     9.4535   9.6195  15.2469  16.4633  17.9978  18.8477  20.5380  21.3038
    22.0267  23.1847  24.4527  27.0181  28.1395  30.3246  31.3561  31.8945
    34.3132  34.9950  35.7995  37.5509

          k = 0.0000 0.3464-0.3071 (  2868 PWs)   bands (ev):

    -4.3425  -4.3425  -2.7562  -2.7562  -2.6924  -2.6924  -2.5888  -2.5887
    -2.5088  -2.5088  -1.7649  -1.7649   5.6338   5.6338   8.6116   8.6116
     9.2171   9.2171  15.7804  15.7804  18.4679  18.4679  20.7036  20.7036
    22.6017  22.6017  25.7073  25.7073  29.5147  29.5147  31.3812  31.3812
    34.6349  34.6349  36.7913  36.7914

          k = 0.0000 0.4619 0.0000 (  2858 PWs)   bands (ev):

    -4.4254  -4.2148  -2.7681  -2.7477  -2.6576  -2.6106  -2.5875  -2.5709
    -2.5075  -2.4574  -1.7435  -0.6030   4.5431   5.7302   6.3549   8.1193
     8.9673   9.8094  15.7871  16.3411  17.0263  19.2205  21.0548  21.2408
    22.7972  23.9966  24.4604  27.2646  28.5892  28.8763  32.3425  34.2474
    35.0260  35.9475  36.0480  36.2927

          k = 0.0000 0.4619 0.1024 (  2856 PWs)   bands (ev):

    -4.3968  -4.2151  -2.7742  -2.7361  -2.6706  -2.6259  -2.5958  -2.5454
    -2.5060  -2.4639  -1.6973  -0.7135   4.3945   5.5902   6.7268   8.2175
     9.1719   9.6762  15.3731  16.1368  17.7429  18.9159  20.9608  21.4700
    22.2144  23.9891  24.2514  27.8200  29.0076  29.0854  31.7148  34.3469
    34.4233  35.4738  36.0439  36.7529

          k = 0.0000 0.4619 0.2047 (  2857 PWs)   bands (ev):

    -4.3290  -4.2249  -2.7803  -2.7250  -2.7044  -2.6217  -2.5944  -2.5357
    -2.5009  -2.4780  -1.5520  -0.9890   4.3446   5.0753   7.7240   8.4947
     9.2883   9.3312  14.9801  15.9492  18.1847  18.7487  20.7920  21.1102
    22.0811  23.6790  24.5958  27.1936  29.7346  30.4655  31.6136  32.4290
    34.6307  35.5352  36.1629  36.7471

          k = 0.0000 0.4619-0.3071 (  2856 PWs)   bands (ev):

    -4.2620  -4.2620  -2.7664  -2.7664  -2.6619  -2.6619  -2.5562  -2.5562
    -2.4916  -2.4916  -1.3033  -1.3033   4.5942   4.5942   8.7436   8.7436
     8.8962   8.8962  15.3313  15.3313  18.5312  18.5312  20.6905  20.6905
    22.8893  22.8893  25.7746  25.7746  30.8529  30.8529  31.5435  31.5435
    35.1203  35.1203  36.4499  36.4499

          k = 0.0000-0.5774 0.0000 (  2862 PWs)   bands (ev):

    -4.3687  -4.2085  -2.7715  -2.7476  -2.6510  -2.6141  -2.5716  -2.5589
    -2.4896  -2.4537  -1.3004  -0.7479   4.2798   5.4402   6.5324   7.9845
     8.5242   9.7161  15.7992  16.2969  16.7842  19.3115  21.0665  21.1431
    23.1626  24.0359  24.7306  27.5573  28.2689  30.0784  32.1269  34.1585
    34.6561  34.7603  36.0902  37.0788

          k = 0.0000-0.5774 0.1024 (  2856 PWs)   bands (ev):

    -4.3456  -4.2069  -2.7782  -2.7349  -2.6624  -2.6323  -2.5804  -2.5308
    -2.4890  -2.4600  -1.2749  -0.7918   4.1189   5.1382   6.9900   8.0850
     8.8190   9.5788  15.4212  15.8409  17.7726  18.8953  21.0468  21.3930
    22.2194  24.2413  24.4935  28.2907  28.7308  30.2784  31.4095  34.1495
    34.6606  35.0799  35.1789  36.7359

          k = 0.0000-0.5774 0.2047 (  2874 PWs)   bands (ev):

    -4.2911  -4.2112  -2.7856  -2.7281  -2.7001  -2.6088  -2.5884  -2.5190
    -2.4869  -2.4725  -1.1959  -0.9120   3.9795   4.5760   7.9415   8.3678
     9.1557   9.2242  14.8681  15.7235  18.3183  18.6155  20.9188  20.9504
    22.0635  23.8457  24.8531  27.4159  30.6748  30.8821  31.3580  33.2895
    34.2365  35.0690  35.1224  36.0634

          k = 0.0000-0.5774-0.3071 (  2868 PWs)   bands (ev):

    -4.2383  -4.2383  -2.7724  -2.7724  -2.6531  -2.6531  -2.5424  -2.5424
    -2.4819  -2.4819  -1.0654  -1.0654   4.1353   4.1353   8.7788   8.7788
     8.8313   8.8313  15.1469  15.1469  18.4911  18.4911  20.6923  20.6923
    22.9603  22.9603  25.9734  25.9734  31.6393  31.6393  31.8946  31.8946
    34.7110  34.7110  35.4556  35.4556

          k = 0.1000 0.1732 0.0000 (  2846 PWs)   bands (ev):

    -4.9569  -4.2991  -2.7978  -2.7874  -2.7331  -2.7324  -2.6833  -2.5944
    -2.5754  -2.5172  -2.4710  -0.9890   4.1012   8.0411   8.6148   9.3252
    10.3539  10.3737  14.2790  16.4253  19.1196  19.1635  21.3870  21.4339
    21.5066  23.0823  24.2182  24.8517  28.8770  29.0754  30.0199  31.1873
    32.3642  32.8602  34.7416  35.6778

          k = 0.1000 0.1732 0.1024 (  2851 PWs)   bands (ev):

    -4.8897  -4.3161  -2.7957  -2.7839  -2.7383  -2.7321  -2.6788  -2.5691
    -2.5679  -2.5241  -2.4749  -1.2440   4.5277   8.1624   8.4367   9.2387
    10.2379  10.2546  14.5429  16.4637  18.8547  19.1623  20.9198  21.3130
    21.5897  22.8069  24.9149  25.1787  28.8742  29.2729  30.4765  31.0378
    32.0592  32.9283  34.0685  36.0439

          k = 0.1000 0.1732 0.2047 (  2845 PWs)   bands (ev):

    -4.7174  -4.3812  -2.7867  -2.7733  -2.7529  -2.7386  -2.6484  -2.5644
    -2.5342  -2.5055  -2.4509  -1.7633   5.5355   7.7422   8.5210   9.3220
     9.7869   9.9948  15.2170  16.4459  18.3718  18.9570  20.4386  21.2154
    21.6377  22.3215  26.0014  26.1373  28.3169  29.7713  30.4606  31.2675
    31.9534  32.4341  34.2461  36.0577

          k = 0.1000 0.1732-0.3071 (  2850 PWs)   bands (ev):

    -4.5206  -4.5206  -2.7720  -2.7720  -2.7551  -2.7551  -2.5986  -2.5986
    -2.5176  -2.5176  -2.2107  -2.2107   6.7024   6.7024   9.0745   9.0745
     9.6765   9.6765  15.9943  15.9943  18.4261  18.4261  20.7805  20.7806
    21.8813  21.8813  26.8061  26.8061  28.3751  28.3751  31.1062  31.1062
    32.3039  32.3039  34.6725  34.6725

          k = 0.1000 0.2887 0.0000 (  2843 PWs)   bands (ev):

    -4.6960  -4.2526  -2.7697  -2.7648  -2.6932  -2.6707  -2.6114  -2.5620
    -2.5532  -2.4986  -2.4117  -0.7684   4.5745   6.7525   7.5087   8.5664
     9.9459   9.9536  15.3088  17.1518  18.0756  18.8521  20.7105  21.4116
    21.7609  23.7605  24.0722  25.3467  28.5282  30.4025  31.0630  32.5496
    34.1630  34.1856  35.0394  36.0963

          k = 0.1000 0.2887 0.1024 (  2844 PWs)   bands (ev):

    -4.6450  -4.2609  -2.7671  -2.7617  -2.7046  -2.6789  -2.6031  -2.5752
    -2.5418  -2.4962  -2.3706  -0.9862   4.8408   6.9337   7.3682   8.5640
     9.8035   9.9571  15.3256  17.2028  17.9761  18.8192  20.5580  21.2634
    21.8185  23.3867  24.4186  25.7269  28.5480  30.3710  31.4980  32.1335
    33.1051  34.2600  35.5897  36.5032

          k = 0.1000 0.2887 0.2047 (  2852 PWs)   bands (ev):

    -4.5189  -4.2972  -2.7636  -2.7424  -2.7241  -2.6947  -2.6049  -2.5930
    -2.5267  -2.4999  -2.2152  -1.4581   5.4299   6.7118   7.7525   8.7277
     9.4451   9.6396  15.5916  16.9663  17.9509  18.7295  20.2827  20.9943
    22.0057  22.8993  25.1100  26.4026  28.2066  29.9108  31.4117  32.0711
    33.6426  34.3828  35.1289  36.7467

          k = 0.1000 0.2887-0.3071 (  2866 PWs)   bands (ev):

    -4.3846  -4.3846  -2.7472  -2.7472  -2.7160  -2.7160  -2.6059  -2.6059
    -2.5118  -2.5118  -1.9101  -1.9101   6.0840   6.0840   8.6602   8.6602
     9.1477   9.1477  16.2353  16.2353  18.3532  18.3532  20.5095  20.5095
    22.4133  22.4133  26.1184  26.1184  28.5483  28.5483  32.0937  32.0937
    34.0349  34.0349  35.7665  35.7665

          k = 0.1000 0.4041 0.0000 (  2870 PWs)   bands (ev):

    -4.4739  -4.2218  -2.7704  -2.7450  -2.6520  -2.6206  -2.6094  -2.5724
    -2.5247  -2.4723  -1.9729  -0.5799   4.8249   5.8753   6.5909   7.8872
     9.3051   9.5791  16.1023  16.9391  17.2232  19.0634  20.5745  21.4281
    22.0370  24.1150  24.4849  26.5839  28.5668  29.6184  32.0835  34.1956
    34.5077  35.0436  35.8554  36.5423

          k = 0.1000 0.4041 0.1024 (  2861 PWs)   bands (ev):

    -4.4406  -4.2232  -2.7633  -2.7466  -2.6735  -2.6233  -2.6075  -2.5671
    -2.5175  -2.4800  -1.9210  -0.7295   4.7305   5.9832   6.7360   7.9617
     9.3618   9.5197  15.7357  16.9263  17.6058  18.9567  20.5121  21.1799
    22.0975  23.7892  24.5931  26.8089  28.6841  29.9797  31.8265  33.1735
    34.5696  35.1991  36.3206  37.0898

          k = 0.1000 0.4041 0.2047 (  2859 PWs)   bands (ev):

    -4.3614  -4.2370  -2.7626  -2.7275  -2.7065  -2.6448  -2.5977  -2.5656
    -2.5084  -2.4912  -1.7557  -1.0841   4.7776   5.5737   7.6093   8.2639
     8.9978   9.4915  15.4960  16.6051  18.0481  18.9312  20.3863  20.6563
    22.2653  23.3877  24.9571  26.6946  28.8750  30.3431  31.6750  32.5026
    34.8983  35.5604  36.2319  36.9792

          k = 0.1000 0.4041-0.3071 (  2850 PWs)   bands (ev):

    -4.2824  -4.2824  -2.7495  -2.7495  -2.6783  -2.6783  -2.5818  -2.5818
    -2.4989  -2.4989  -1.4659  -1.4659   5.0886   5.0886   8.4200   8.4200
     8.9378   8.9378  15.8971  15.8971  18.6164  18.6164  20.3449  20.3449
    22.8013  22.8013  25.8075  25.8075  29.5736  29.5736  32.2106  32.2106
    35.4163  35.4163  36.5352  36.5352

          k = 0.1000 0.5196 0.0000 (  2865 PWs)   bands (ev):

    -4.3633  -4.2104  -2.7781  -2.7394  -2.6371  -2.6132  -2.5785  -2.5663
    -2.5021  -2.4647  -1.3885  -0.6402   4.4465   5.5701   6.5128   7.5859
     8.6170   9.3644  16.4042  16.6580  16.7983  19.2276  20.7206  21.0872
    23.0460  24.1690  24.4779  27.8286  28.5227  29.6184  31.8542  33.9569
    34.7025  35.4204  36.0736  36.6155

          k = 0.1000 0.5196 0.1024 (  2857 PWs)   bands (ev):

    -4.3404  -4.2082  -2.7712  -2.7402  -2.6588  -2.6185  -2.5897  -2.5395
    -2.5000  -2.4729  -1.3535  -0.7021   4.2874   5.2963   6.9103   7.7403
     8.8725   9.2282  15.7515  16.5249  17.7330  18.8763  20.6846  20.9412
    22.7111  24.0787  24.5649  27.9168  28.9217  30.0349  31.4741  33.4570
    34.6606  35.3323  36.2575  36.7617

          k = 0.1000 0.5196 0.2047 (  2862 PWs)   bands (ev):

    -4.2867  -4.2107  -2.7705  -2.7207  -2.7088  -2.6171  -2.5853  -2.5309
    -2.4966  -2.4850  -1.2466  -0.8671   4.1609   4.7591   7.6075   8.2865
     8.7226   9.2985  15.2956  16.2894  18.2986  18.7781  20.2546  20.6434
    22.5727  23.7383  25.0357  27.1393  29.7219  31.0211  31.6831  32.3586
    34.6951  35.1689  36.3552  36.6016

          k = 0.1000 0.5196-0.3071 (  2862 PWs)   bands (ev):

    -4.2356  -4.2356  -2.7584  -2.7584  -2.6622  -2.6622  -2.5516  -2.5516
    -2.4915  -2.4915  -1.0723  -1.0723   4.3254   4.3254   8.1857   8.1857
     9.0317   9.0317  15.5983  15.5983  18.6657  18.6657  20.2589  20.2589
    23.0698  23.0698  25.9855  25.9855  30.6333  30.6333  32.0725  32.0725
    35.0580  35.0580  36.4150  36.4150

          k = 0.2000 0.3464 0.0000 (  2850 PWs)   bands (ev):

    -4.4925  -4.2247  -2.7822  -2.7217  -2.6634  -2.6352  -2.6176  -2.5613
    -2.5309  -2.4894  -2.0425  -0.5740   4.9328   6.3720   6.3769   7.7097
     9.2692   9.4520  16.3624  17.2954  18.1790  18.3208  20.4665  21.0767
    21.5630  24.5129  24.6596  25.5545  30.2818  30.4643  30.6129  33.1344
    33.7896  35.1864  35.3609  36.9000

          k = 0.2000 0.3464 0.1024 (  2861 PWs)   bands (ev):

    -4.4574  -4.2266  -2.7703  -2.7304  -2.6711  -2.6567  -2.5894  -2.5807
    -2.5166  -2.4998  -1.9896  -0.7378   4.9205   6.2399   6.8151   7.6585
     9.1027   9.5875  16.2080  17.2327  18.2994  18.4081  20.3392  20.6882
    21.7916  24.1382  24.8352  25.8455  29.4619  30.7812  31.7643  31.7669
    34.0546  35.4243  36.1455  36.8703

          k = 0.2000 0.3464 0.2047 (  2852 PWs)   bands (ev):

    -4.3735  -4.2417  -2.7400  -2.7392  -2.6924  -2.6734  -2.6025  -2.5841
    -2.5066  -2.5027  -1.8203  -1.1188   5.0488   5.8468   7.7866   7.7870
     8.6992   9.5418  16.1004  16.9538  18.4907  18.5640  20.0990  20.2483
    22.1210  23.4443  25.3080  26.2075  29.0283  29.4879  32.5980  32.6695
    34.3658  35.7131  36.2383  36.5402

          k = 0.2000 0.3464-0.3071 (  2858 PWs)   bands (ev):

    -4.2899  -4.2899  -2.7296  -2.7296  -2.6939  -2.6939  -2.6038  -2.6038
    -2.5002  -2.5002  -1.5205  -1.5205   5.3859   5.3859   8.1538   8.1538
     8.8975   8.8975  16.4373  16.4374  18.6025  18.6025  20.0362  20.0362
    22.7076  22.7076  25.9368  25.9368  28.9256  28.9256  32.8775  32.8775
    35.4071  35.4071  36.4191  36.4192

          k = 0.2000 0.4619 0.0000 (  2873 PWs)   bands (ev):

    -4.3539  -4.2141  -2.7983  -2.6964  -2.6243  -2.6169  -2.6026  -2.5730
    -2.5175  -2.4863  -1.4864  -0.5109   4.8742   5.6552   6.5992   6.9122
     8.7263   8.8051  16.5287  17.2614  17.9734  18.9255  20.3129  21.0985
    22.0396  24.3262  24.5897  26.8902  30.0531  30.3953  31.4385  32.6386
    33.9845  35.4110  35.7388  36.8511

          k = 0.2000 0.4619 0.1024 (  2864 PWs)   bands (ev):

    -4.3313  -4.2109  -2.7833  -2.7098  -2.6508  -2.6193  -2.5918  -2.5673
    -2.5088  -2.4980  -1.4415  -0.5968   4.6981   5.4964   6.7461   7.2477
     8.5415   9.0619  16.4364  17.2409  18.0596  18.8660  20.2317  20.5042
    22.3559  24.2794  24.7802  26.7371  29.5651  30.5017  31.6311  32.6658
    34.2758  35.3318  36.5575  36.8548

          k = 0.2000 0.4619 0.2047 (  2857 PWs)   bands (ev):

    -4.2792  -4.2105  -2.7464  -2.7252  -2.6885  -2.6374  -2.5876  -2.5654
    -2.5108  -2.4963  -1.3049  -0.8177   4.5633   5.0850   7.0014   7.9872
     8.2639   9.3658  16.2170  16.9913  18.3320  18.9669  19.6723  20.1036
    22.6813  23.8826  25.2607  26.3872  29.2126  29.9891  32.5419  32.7819
    34.8691  35.1822  36.6936  37.1356

          k = 0.2000 0.4619-0.3071 (  2850 PWs)   bands (ev):

    -4.2314  -4.2314  -2.7287  -2.7287  -2.6764  -2.6764  -2.5816  -2.5816
    -2.4993  -2.4993  -1.0830  -1.0830   4.7088   4.7088   7.4702   7.4702
     9.0794   9.0794  16.4174  16.4174  18.7753  18.7753  19.7315  19.7315
    23.1940  23.1940  25.8334  25.8334  29.5290  29.5290  32.7497  32.7497
    35.2631  35.2631  37.0889  37.0889

          k = 0.2000 0.5774 0.0000 (  2868 PWs)   bands (ev):

    -4.3049  -4.2154  -2.8048  -2.6922  -2.6111  -2.6100  -2.5837  -2.5732
    -2.5221  -2.4844  -1.0783  -0.6423   4.6872   5.5559   6.3080   7.1948
     8.2821   8.5786  16.2285  17.6327  17.8426  19.0922  20.4211  20.8580
    23.3299  23.5027  24.3096  28.6279  28.6956  30.4366  31.1467  32.2596
    35.2198  36.0135  36.1315  36.9969

          k = 0.2000 0.5774 0.1024 (  2863 PWs)   bands (ev):

    -4.2873  -4.2099  -2.7890  -2.7055  -2.6458  -2.5993  -2.5964  -2.5426
    -2.5205  -2.4970  -1.0538  -0.6722   4.5279   5.2660   6.3896   7.6412
     8.3059   8.6882  16.2116  17.7724  17.8291  18.7432  20.2219  20.5786
    23.2256  23.7799  24.6396  27.9795  28.5147  30.7438  31.1881  32.5947
    35.1049  35.4950  36.9748  37.0126

          k = 0.2000 0.5774 0.2047 (  2873 PWs)   bands (ev):

    -4.2473  -4.2029  -2.7502  -2.7175  -2.6967  -2.6239  -2.5745  -2.5395
    -2.5155  -2.5087  -0.9819  -0.7569   4.3395   4.7588   6.7064   7.8133
     8.5062   9.1855  16.1013  17.2391  18.3433  18.5374  19.7761  20.1300
    23.2290  23.9126  25.2533  26.7259  28.7717  30.2840  32.2501  32.5870
    35.2598  35.2887  37.0935  37.6511

          k = 0.2000 0.5774-0.3071 (  2870 PWs)   bands (ev):

    -4.2131  -4.2131  -2.7297  -2.7297  -2.6749  -2.6749  -2.5572  -2.5572
    -2.5091  -2.5091  -0.8731  -0.8731   4.4057   4.4057   7.2186   7.2186
     9.1710   9.1710  16.3790  16.3790  18.7589  18.7589  19.6452  19.6452
    23.5485  23.5485  25.8760  25.8760  29.5157  29.5157  32.5693  32.5693
    35.4452  35.4452  37.4687  37.4688

          k = 0.3000 0.5196 0.0000 (  2882 PWs)   bands (ev):

    -4.2744  -4.2254  -2.8170  -2.6427  -2.6112  -2.6092  -2.5941  -2.5811
    -2.5367  -2.4960  -0.9842  -0.6040   5.1817   5.3071   5.9056   7.3310
     8.1281   8.1559  16.0109  18.1789  18.6873  18.9522  20.4043  20.7505
    22.6939  23.8602  23.9048  28.1408  29.7654  30.1691  31.4315  32.5529
    33.9414  35.8680  36.2821  36.8738

          k = 0.3000 0.5196 0.1024 (  2876 PWs)   bands (ev):

    -4.2597  -4.2176  -2.7997  -2.6690  -2.6423  -2.6115  -2.5712  -2.5676
    -2.5302  -2.5124  -0.9606  -0.6285   4.9356   5.1816   5.8832   7.7663
     7.9233   8.5214  16.3213  17.8506  18.5408  18.8803  20.1576  20.2374
    23.1275  24.1573  24.1958  27.5836  29.0518  29.5941  32.4369  32.7574
    34.5322  35.5913  37.1507  37.2400

          k = 0.3000 0.5196 0.2047 (  2867 PWs)   bands (ev):

    -4.2278  -4.2038  -2.7524  -2.6997  -2.6826  -2.6303  -2.5647  -2.5571
    -2.5307  -2.5190  -0.8935  -0.6983   4.6215   4.8168   6.1644   7.3367
     8.6505   9.1080  16.9311  17.1966  18.0722  18.6929  19.6930  19.9573
    23.5593  24.5120  24.7995  26.2446  28.6405  29.2914  32.9540  32.9547
    35.4709  35.5455  37.5119  37.5807

          k = 0.3000 0.5196-0.3071 (  2860 PWs)   bands (ev):

    -4.2041  -4.2041  -2.7089  -2.7089  -2.6832  -2.6832  -2.5653  -2.5653
    -2.5192  -2.5192  -0.7968  -0.7968   4.5726   4.5726   6.7007   6.7007
     9.2213   9.2213  16.9527  16.9527  18.2844  18.2844  19.7250  19.7250
    24.0950  24.0950  25.3929  25.3929  28.9288  28.9288  32.9940  32.9940
    35.6841  35.6841  37.5383  37.5383

          k = 0.0000-0.1155 0.1024 (  2847 PWs)   bands (ev):

    -5.0524  -4.3594  -2.8159  -2.8060  -2.7723  -2.7556  -2.7506  -2.5697
    -2.5667  -2.5002  -2.4807  -1.3906   4.3065   9.0403   9.4151   9.5477
    10.4018  10.5356  13.8649  15.6387  19.3979  19.9626  20.9300  20.9612
    21.8698  22.4212  25.0907  26.3304  27.4485  28.7333  29.7794  30.1192
    30.7850  33.0042  33.8378  34.2814

          k = 0.0000-0.1155 0.2047 (  2859 PWs)   bands (ev):

    -4.8550  -4.4453  -2.8056  -2.7988  -2.7748  -2.7666  -2.6866  -2.5446
    -2.5328  -2.5153  -2.4954  -1.9272   5.4519   8.2470   9.3114   9.7457
    10.0616  10.3158  14.7273  15.6889  18.9363  19.4351  20.6279  21.0839
    21.5103  21.9113  26.1258  27.4465  27.8715  28.5777  30.0269  30.3306
    31.8931  32.7789  32.9004  34.7670

          k = 0.0000-0.2309 0.1024 (  2844 PWs)   bands (ev):

    -4.8192  -4.2990  -2.7905  -2.7728  -2.7323  -2.7010  -2.6531  -2.5775
    -2.5629  -2.5113  -2.4768  -1.1761   4.6231   7.6056   8.2590   9.0840
    10.1285  10.2670  14.7155  16.5757  18.4571  19.2527  20.8275  21.4344
    21.7401  22.9404  24.0874  26.2615  27.5118  30.2116  30.7463  32.0385
    32.6795  33.2156  33.8305  35.7764

          k = 0.0000-0.2309 0.2047 (  2847 PWs)   bands (ev):

    -4.6592  -4.3557  -2.7820  -2.7603  -2.7482  -2.7187  -2.6342  -2.5728
    -2.5429  -2.4933  -2.4090  -1.6858   5.5379   7.4292   8.1730   9.3152
     9.6185   9.9959  15.2599  16.5416  18.1899  18.8799  20.4998  21.3540
    21.6545  22.5086  25.1039  27.3275  27.4035  30.3575  30.7972  31.0100
    32.3545  33.3042  34.0511  35.9975

          k = 0.0000-0.3464 0.1024 (  2852 PWs)   bands (ev):

    -4.5623  -4.2445  -2.7731  -2.7456  -2.6941  -2.6410  -2.6093  -2.5749
    -2.5404  -2.4711  -2.2463  -0.8897   4.8438   6.3681   7.0284   8.5834
     9.7290   9.9361  15.2449  16.6439  17.8227  19.0317  20.7619  21.5986
    21.9594  23.6235  23.8025  27.3145  27.3596  29.5722  32.1841  33.4687
    34.0416  34.9974  35.2780  36.3860

          k = 0.0000-0.3464 0.2047 (  2856 PWs)   bands (ev):

    -4.4546  -4.2720  -2.7728  -2.7256  -2.7231  -2.6621  -2.6009  -2.5774
    -2.5277  -2.4879  -2.0762  -1.3272   5.1601   6.1902   7.5459   8.8429
     9.4535   9.6195  15.2469  16.4633  17.9978  18.8477  20.5380  21.3038
    22.0267  23.1847  24.4527  27.0181  28.1395  30.3246  31.3561  31.8945
    34.3132  34.9950  35.7995  37.5509

          k = 0.0000-0.4619 0.1024 (  2856 PWs)   bands (ev):

    -4.3968  -4.2151  -2.7742  -2.7361  -2.6706  -2.6259  -2.5958  -2.5454
    -2.5060  -2.4639  -1.6973  -0.7135   4.3945   5.5902   6.7268   8.2175
     9.1719   9.6762  15.3731  16.1368  17.7429  18.9159  20.9608  21.4700
    22.2144  23.9891  24.2514  27.8200  29.0076  29.0854  31.7148  34.3469
    34.4233  35.4738  36.0439  36.7529

          k = 0.0000-0.4619 0.2047 (  2857 PWs)   bands (ev):

    -4.3290  -4.2249  -2.7803  -2.7250  -2.7044  -2.6217  -2.5944  -2.5357
    -2.5009  -2.4780  -1.5520  -0.9890   4.3446   5.0753   7.7240   8.4947
     9.2883   9.3312  14.9801  15.9492  18.1847  18.7487  20.7919  21.1102
    22.0811  23.6790  24.5958  27.1936  29.7346  30.4655  31.6136  32.4290
    34.6307  35.5352  36.1629  36.7471

          k =-0.1000-0.2887 0.1024 (  2844 PWs)   bands (ev):

    -4.6450  -4.2609  -2.7671  -2.7617  -2.7046  -2.6789  -2.6031  -2.5752
    -2.5418  -2.4962  -2.3706  -0.9862   4.8408   6.9337   7.3682   8.5640
     9.8035   9.9571  15.3256  17.2028  17.9761  18.8192  20.5580  21.2634
    21.8185  23.3867  24.4186  25.7269  28.5480  30.3710  31.4980  32.1335
    33.1051  34.2600  35.5897  36.5032

          k =-0.1000-0.2887 0.2047 (  2852 PWs)   bands (ev):

    -4.5189  -4.2972  -2.7636  -2.7424  -2.7241  -2.6947  -2.6049  -2.5930
    -2.5267  -2.4999  -2.2152  -1.4581   5.4299   6.7118   7.7525   8.7277
     9.4451   9.6396  15.5916  16.9663  17.9509  18.7295  20.2827  20.9943
    22.0057  22.8993  25.1100  26.4026  28.2066  29.9108  31.4117  32.0711
    33.6426  34.3828  35.1289  36.7467

          k =-0.1000-0.4041 0.1024 (  2861 PWs)   bands (ev):

    -4.4406  -4.2232  -2.7633  -2.7466  -2.6735  -2.6233  -2.6075  -2.5671
    -2.5175  -2.4800  -1.9210  -0.7295   4.7305   5.9832   6.7360   7.9617
     9.3618   9.5197  15.7358  16.9263  17.6058  18.9567  20.5121  21.1799
    22.0975  23.7892  24.5931  26.8089  28.6840  29.9797  31.8265  33.1735
    34.5696  35.1991  36.3206  37.0896

          k =-0.1000-0.4041 0.2047 (  2859 PWs)   bands (ev):

    -4.3614  -4.2370  -2.7626  -2.7275  -2.7065  -2.6448  -2.5977  -2.5656
    -2.5084  -2.4912  -1.7557  -1.0841   4.7776   5.5737   7.6093   8.2639
     8.9978   9.4915  15.4960  16.6051  18.0481  18.9312  20.3863  20.6563
    22.2653  23.3877  24.9571  26.6946  28.8750  30.3430  31.6750  32.5026
    34.8983  35.5604  36.2319  36.9792

          k =-0.1000-0.5196 0.1024 (  2857 PWs)   bands (ev):

    -4.3404  -4.2082  -2.7712  -2.7402  -2.6588  -2.6185  -2.5897  -2.5395
    -2.5000  -2.4729  -1.3535  -0.7021   4.2874   5.2963   6.9103   7.7403
     8.8725   9.2282  15.7515  16.5249  17.7330  18.8763  20.6846  20.9412
    22.7111  24.0787  24.5649  27.9168  28.9217  30.0349  31.4741  33.4570
    34.6606  35.3323  36.2575  36.7617

          k =-0.1000-0.5196 0.2047 (  2862 PWs)   bands (ev):

    -4.2867  -4.2107  -2.7705  -2.7207  -2.7088  -2.6171  -2.5853  -2.5309
    -2.4966  -2.4850  -1.2466  -0.8671   4.1609   4.7591   7.6075   8.2865
     8.7226   9.2985  15.2956  16.2894  18.2986  18.7781  20.2546  20.6434
    22.5727  23.7383  25.0357  27.1393  29.7219  31.0211  31.6831  32.3586
    34.6951  35.1689  36.3552  36.6016

          k =-0.2000-0.4619 0.1024 (  2864 PWs)   bands (ev):

    -4.3313  -4.2109  -2.7833  -2.7098  -2.6508  -2.6193  -2.5918  -2.5673
    -2.5088  -2.4980  -1.4415  -0.5968   4.6981   5.4964   6.7461   7.2477
     8.5415   9.0619  16.4364  17.2409  18.0596  18.8660  20.2317  20.5042
    22.3559  24.2794  24.7802  26.7371  29.5651  30.5017  31.6311  32.6658
    34.2758  35.3318  36.5575  36.8548

          k =-0.2000-0.4619 0.2047 (  2857 PWs)   bands (ev):

    -4.2792  -4.2105  -2.7464  -2.7252  -2.6885  -2.6374  -2.5876  -2.5654
    -2.5108  -2.4963  -1.3049  -0.8177   4.5633   5.0850   7.0014   7.9872
     8.2639   9.3658  16.2170  16.9913  18.3320  18.9669  19.6723  20.1036
    22.6813  23.8826  25.2607  26.3872  29.2126  29.9891  32.5419  32.7819
    34.8691  35.1822  36.6936  37.1356

     the Fermi energy is    10.8388 ev

!    total energy              =    -302.52133212 Ry
     estimated scf accuracy    <          2.7E-11 Ry
     smearing contrib. (-TS)   =      -0.00000000 Ry
     internal energy E=F+TS    =    -302.52133212 Ry

     The total energy is F=E-TS. E is the sum of the following terms:
     one-electron contribution =    -107.90089954 Ry
     hartree contribution      =      85.11368560 Ry
     xc contribution           =     -46.55928354 Ry
     ewald contribution        =    -233.17483464 Ry

     convergence has been achieved in  11 iterations

     Writing all to output data dir out/mp-804.save/
 
     init_run     :      0.34s CPU      0.42s WALL (       1 calls)
     electrons    :     18.40s CPU     23.38s WALL (       1 calls)

     Called by init_run:
     wfcinit      :      0.31s CPU      0.38s WALL (       1 calls)
     potinit      :      0.01s CPU      0.01s WALL (       1 calls)
     hinit0       :      0.01s CPU      0.02s WALL (       1 calls)

     Called by electrons:
     c_bands      :     15.37s CPU     18.40s WALL (      11 calls)
     sum_band     :      2.97s CPU      4.76s WALL (      11 calls)
     v_of_rho     :      0.02s CPU      0.02s WALL (      12 calls)
     mix_rho      :      0.03s CPU      0.08s WALL (      11 calls)

     Called by c_bands:
     init_us_2    :      0.08s CPU      0.09s WALL (    1656 calls)
     init_us_2:cp :      0.08s CPU      0.08s WALL (    1656 calls)
     cegterg      :     12.80s CPU     13.46s WALL (     792 calls)

     Called by *egterg:
     cdiaghg      :      4.37s CPU      4.46s WALL (    3158 calls)
     h_psi        :      7.48s CPU      8.02s WALL (    3230 calls)
     g_psi        :      0.04s CPU      0.04s WALL (    2366 calls)

     Called by h_psi:
     h_psi:calbec :      0.29s CPU      0.32s WALL (    3230 calls)
     vloc_psi     :      6.98s CPU      7.48s WALL (    3230 calls)
     add_vuspsi   :      0.17s CPU      0.19s WALL (    3230 calls)

     General routines
     calbec       :      0.28s CPU      0.31s WALL (    3230 calls)
     fft          :      0.01s CPU      0.01s WALL (     119 calls)
     ffts         :      0.00s CPU      0.00s WALL (      11 calls)
     fftw         :      9.12s CPU      9.92s WALL (  189210 calls)
     davcio       :      0.15s CPU      3.56s WALL (    2646 calls)
 
     Parallel routines
 
     PWSCF        :     19.19s CPU     25.04s WALL

 
   This run was terminated on:   2:44:27   5Dec2023            

=------------------------------------------------------------------------------=
   JOB DONE.
=------------------------------------------------------------------------------=
