
     Program PWSCF v.7.1 starts on 20Nov2023 at  6: 0:49 

     This program is part of the open-source Quantum ESPRESSO suite
     for quantum simulation of materials; please cite
         "P. Giannozzi et al., J. Phys.:Condens. Matter 21 395502 (2009);
         "P. Giannozzi et al., J. Phys.:Condens. Matter 29 465901 (2017);
         "P. Giannozzi et al., J. Chem. Phys. 152 154105 (2020);
          URL http://www.quantum-espresso.org", 
     in publications or presentations arising from this work. More details at
     http://www.quantum-espresso.org/quote

     Parallel version (MPI), running on    24 processors

     MPI processes distributed on     1 nodes
     123431 MiB available memory on the printing compute node when the environment starts
 
     Reading input from pw_mp-1342_scf_k3000_E83.in
Warning: card &CELL ignored
Warning: card / ignored

     Current dimensions of program PWSCF are:
     Max number of different atomic species (ntypx) = 10
     Max number of k-points (npk) =  40000
     Max angular momentum in pseudopotentials (lmaxx) =  4
 
     K-points division:     npool     =       2
     R & G space division:  proc/nbgrp/npool/nimage =      12
     Subspace diagonalization in iterative solution of the eigenvalue problem:
     a serial algorithm will be used

 
     Parallelization info
     --------------------
     sticks:   dense  smooth     PW     G-vecs:    dense   smooth      PW
     Min         106     106     31                 2494     2494     400
     Max         107     107     33                 2497     2497     402
     Sum        1273    1273    379                29939    29939    4813
 
     Using Slab Decomposition
 


     bravais-lattice index     =            2
     lattice parameter (alat)  =      10.5462  a.u.
     unit-cell volume          =     293.2392 (a.u.)^3
     number of atoms/cell      =            2
     number of atomic types    =            2
     number of electrons       =        16.00
     number of Kohn-Sham states=           16
     kinetic-energy cutoff     =      83.0000  Ry
     charge density cutoff     =     332.0000  Ry
     scf convergence threshold =      1.0E-10
     mixing beta               =       0.7000
     number of iterations used =            8  plain     mixing
     Exchange-correlation= PBE
                           (   1   4   3   4   0   0   0)

     celldm(1)=  10.546151  celldm(2)=   0.000000  celldm(3)=   0.000000
     celldm(4)=   0.000000  celldm(5)=   0.000000  celldm(6)=   0.000000

     crystal axes: (cart. coord. in units of alat)
               a(1) = (  -0.500000   0.000000   0.500000 )  
               a(2) = (   0.000000   0.500000   0.500000 )  
               a(3) = (  -0.500000   0.500000   0.000000 )  

     reciprocal axes: (cart. coord. in units 2 pi/alat)
               b(1) = ( -1.000000 -1.000000  1.000000 )  
               b(2) = (  1.000000  1.000000  1.000000 )  
               b(3) = ( -1.000000  1.000000 -1.000000 )  


     PseudoPot. # 1 for Ba read from file:
     /usr/scratch4/magr4985/MG/HTDF/pseudo/SG15/Ba.upf
     MD5 check sum: ac4691792522964bb0504809e83fae44
     Pseudo is Norm-conserving, Zval = 10.0
     Generated using ONCVPSP code by D. R. Hamann
     Using radial grid of  602 points,  8 beta functions with: 
                l(1) =   0
                l(2) =   0
                l(3) =   1
                l(4) =   1
                l(5) =   2
                l(6) =   2
                l(7) =   3
                l(8) =   3

     PseudoPot. # 2 for O  read from file:
     /usr/scratch4/magr4985/MG/HTDF/pseudo/SG15/O.upf
     MD5 check sum: e36c48deb68f4e355fffe4602be2c42c
     Pseudo is Norm-conserving, Zval =  6.0
     Generated using ONCVPSP code by D. R. Hamann
     Using radial grid of  602 points,  4 beta functions with: 
                l(1) =   0
                l(2) =   0
                l(3) =   1
                l(4) =   1

     atomic species   valence    mass     pseudopotential
        Ba            10.00   137.32700     Ba( 1.00)
        O              6.00    15.99940     O ( 1.00)

     48 Sym. Ops., with inversion, found



   Cartesian axes

     site n.     atom                  positions (alat units)
         1           Ba  tau(   1) = (   0.0000000   0.0000000   0.0000000  )
         2           O   tau(   2) = (  -0.5000000   0.5000000   0.5000000  )

     number of k points=    72  Gaussian smearing, width (Ry)=  0.0005
                       cart. coord. in units 2pi/alat
        k(    1) = (   0.0000000   0.0000000   0.0000000), wk =   0.0011574
        k(    2) = (  -0.0833333   0.0833333  -0.0833333), wk =   0.0092593
        k(    3) = (  -0.1666667   0.1666667  -0.1666667), wk =   0.0092593
        k(    4) = (  -0.2500000   0.2500000  -0.2500000), wk =   0.0092593
        k(    5) = (  -0.3333333   0.3333333  -0.3333333), wk =   0.0092593
        k(    6) = (  -0.4166667   0.4166667  -0.4166667), wk =   0.0092593
        k(    7) = (   0.5000000  -0.5000000   0.5000000), wk =   0.0046296
        k(    8) = (   0.0000000   0.1666667   0.0000000), wk =   0.0069444
        k(    9) = (  -0.0833333   0.2500000  -0.0833333), wk =   0.0277778
        k(   10) = (  -0.1666667   0.3333333  -0.1666667), wk =   0.0277778
        k(   11) = (  -0.2500000   0.4166667  -0.2500000), wk =   0.0277778
        k(   12) = (  -0.3333333   0.5000000  -0.3333333), wk =   0.0277778
        k(   13) = (   0.5833333  -0.4166667   0.5833333), wk =   0.0277778
        k(   14) = (   0.5000000  -0.3333333   0.5000000), wk =   0.0277778
        k(   15) = (   0.4166667  -0.2500000   0.4166667), wk =   0.0277778
        k(   16) = (   0.3333333  -0.1666667   0.3333333), wk =   0.0277778
        k(   17) = (   0.2500000  -0.0833333   0.2500000), wk =   0.0277778
        k(   18) = (   0.1666667  -0.0000000   0.1666667), wk =   0.0138889
        k(   19) = (   0.0000000   0.3333333   0.0000000), wk =   0.0069444
        k(   20) = (  -0.0833333   0.4166667  -0.0833333), wk =   0.0277778
        k(   21) = (  -0.1666667   0.5000000  -0.1666667), wk =   0.0277778
        k(   22) = (  -0.2500000   0.5833333  -0.2500000), wk =   0.0277778
        k(   23) = (   0.6666667  -0.3333333   0.6666667), wk =   0.0277778
        k(   24) = (   0.5833333  -0.2500000   0.5833333), wk =   0.0277778
        k(   25) = (   0.5000000  -0.1666667   0.5000000), wk =   0.0277778
        k(   26) = (   0.4166667  -0.0833333   0.4166667), wk =   0.0277778
        k(   27) = (   0.3333333   0.0000000   0.3333333), wk =   0.0138889
        k(   28) = (   0.0000000   0.5000000   0.0000000), wk =   0.0069444
        k(   29) = (  -0.0833333   0.5833333  -0.0833333), wk =   0.0277778
        k(   30) = (  -0.1666667   0.6666667  -0.1666667), wk =   0.0277778
        k(   31) = (   0.7500000  -0.2500000   0.7500000), wk =   0.0277778
        k(   32) = (   0.6666667  -0.1666667   0.6666667), wk =   0.0277778
        k(   33) = (   0.5833333  -0.0833333   0.5833333), wk =   0.0277778
        k(   34) = (   0.5000000   0.0000000   0.5000000), wk =   0.0138889
        k(   35) = (   0.0000000   0.6666667   0.0000000), wk =   0.0069444
        k(   36) = (  -0.0833333   0.7500000  -0.0833333), wk =   0.0277778
        k(   37) = (   0.8333333  -0.1666667   0.8333333), wk =   0.0277778
        k(   38) = (   0.7500000  -0.0833333   0.7500000), wk =   0.0277778
        k(   39) = (   0.6666667  -0.0000000   0.6666667), wk =   0.0138889
        k(   40) = (   0.0000000   0.8333333   0.0000000), wk =   0.0069444
        k(   41) = (   0.9166667  -0.0833333   0.9166667), wk =   0.0277778
        k(   42) = (   0.8333333   0.0000000   0.8333333), wk =   0.0138889
        k(   43) = (   0.0000000  -1.0000000   0.0000000), wk =   0.0034722
        k(   44) = (  -0.1666667   0.3333333   0.0000000), wk =   0.0277778
        k(   45) = (  -0.2500000   0.4166667  -0.0833333), wk =   0.0555556
        k(   46) = (  -0.3333333   0.5000000  -0.1666667), wk =   0.0555556
        k(   47) = (   0.5833333  -0.4166667   0.7500000), wk =   0.0555556
        k(   48) = (   0.5000000  -0.3333333   0.6666667), wk =   0.0277778
        k(   49) = (  -0.1666667   0.5000000   0.0000000), wk =   0.0277778
        k(   50) = (  -0.2500000   0.5833333  -0.0833333), wk =   0.0555556
        k(   51) = (   0.6666667  -0.3333333   0.8333333), wk =   0.0555556
        k(   52) = (   0.5833333  -0.2500000   0.7500000), wk =   0.0555556
        k(   53) = (   0.5000000  -0.1666667   0.6666667), wk =   0.0555556
        k(   54) = (   0.4166667  -0.0833333   0.5833333), wk =   0.0555556
        k(   55) = (   0.3333333   0.0000000   0.5000000), wk =   0.0277778
        k(   56) = (  -0.1666667   0.6666667  -0.0000000), wk =   0.0277778
        k(   57) = (   0.7500000  -0.2500000   0.9166667), wk =   0.0555556
        k(   58) = (   0.6666667  -0.1666667   0.8333333), wk =   0.0555556
        k(   59) = (   0.5833333  -0.0833333   0.7500000), wk =   0.0555556
        k(   60) = (   0.5000000   0.0000000   0.6666667), wk =   0.0277778
        k(   61) = (   0.8333333  -0.1666667   1.0000000), wk =   0.0277778
        k(   62) = (   0.7500000  -0.0833333   0.9166667), wk =   0.0555556
        k(   63) = (   0.6666667   0.0000000   0.8333333), wk =   0.0277778
        k(   64) = (  -0.1666667  -1.0000000  -0.0000000), wk =   0.0138889
        k(   65) = (   0.6666667  -0.3333333   1.0000000), wk =   0.0277778
        k(   66) = (   0.5833333  -0.2500000   0.9166667), wk =   0.0555556
        k(   67) = (   0.5000000  -0.1666667   0.8333333), wk =   0.0277778
        k(   68) = (   0.6666667  -0.1666667   1.0000000), wk =   0.0277778
        k(   69) = (   0.5833333  -0.0833333   0.9166667), wk =   0.0555556
        k(   70) = (   0.5000000   0.0000000   0.8333333), wk =   0.0277778
        k(   71) = (  -0.3333333  -1.0000000   0.0000000), wk =   0.0138889
        k(   72) = (  -0.5000000  -1.0000000   0.0000000), wk =   0.0069444

     Dense  grid:    29939 G-vectors     FFT dimensions: (  45,  45,  45)

     Estimated max dynamical RAM per process >       9.32 MB

     Estimated total dynamical RAM >     216.35 MB

     Initial potential from superposition of free atoms

     starting charge      15.6072, renormalised to      16.0000
     Starting wfcs are random

     total cpu time spent up to now is        0.3 secs

     Self-consistent Calculation

     iteration #  1     ecut=    83.00 Ry     beta= 0.70
     Davidson diagonalization with overlap
     ethr =  1.00E-02,  avg # of iterations = 10.6

     total cpu time spent up to now is        1.7 secs

     total energy              =     -83.37208427 Ry
     estimated scf accuracy    <       0.51169371 Ry

     iteration #  2     ecut=    83.00 Ry     beta= 0.70
     Davidson diagonalization with overlap
     ethr =  3.20E-03,  avg # of iterations =  2.2

     total cpu time spent up to now is        2.3 secs

     total energy              =     -83.18023808 Ry
     estimated scf accuracy    <       2.41795311 Ry

     iteration #  3     ecut=    83.00 Ry     beta= 0.70
     Davidson diagonalization with overlap
     ethr =  3.20E-03,  avg # of iterations =  2.0

     total cpu time spent up to now is        2.8 secs

     total energy              =     -83.63347477 Ry
     estimated scf accuracy    <       0.03802546 Ry

     iteration #  4     ecut=    83.00 Ry     beta= 0.70
     Davidson diagonalization with overlap
     ethr =  2.38E-04,  avg # of iterations =  3.7

     total cpu time spent up to now is        3.4 secs

     total energy              =     -83.63938672 Ry
     estimated scf accuracy    <       0.00018905 Ry

     iteration #  5     ecut=    83.00 Ry     beta= 0.70
     Davidson diagonalization with overlap
     c_bands:  1 eigenvalues not converged
     c_bands:  1 eigenvalues not converged
     c_bands:  1 eigenvalues not converged
     c_bands:  1 eigenvalues not converged
     c_bands:  2 eigenvalues not converged
     c_bands:  2 eigenvalues not converged
     c_bands:  1 eigenvalues not converged
     c_bands:  1 eigenvalues not converged
     c_bands:  1 eigenvalues not converged
     c_bands:  3 eigenvalues not converged
     c_bands:  2 eigenvalues not converged
     c_bands:  1 eigenvalues not converged
     c_bands:  3 eigenvalues not converged
     c_bands:  2 eigenvalues not converged
     c_bands:  1 eigenvalues not converged
     c_bands:  1 eigenvalues not converged
     c_bands:  1 eigenvalues not converged
     c_bands:  3 eigenvalues not converged
     c_bands:  1 eigenvalues not converged
     c_bands:  2 eigenvalues not converged
     c_bands:  1 eigenvalues not converged
     c_bands:  2 eigenvalues not converged
     c_bands:  2 eigenvalues not converged
     c_bands:  2 eigenvalues not converged
     c_bands:  1 eigenvalues not converged
     c_bands:  2 eigenvalues not converged
     c_bands:  2 eigenvalues not converged
     c_bands:  2 eigenvalues not converged
     c_bands:  1 eigenvalues not converged
     c_bands:  2 eigenvalues not converged
     c_bands:  1 eigenvalues not converged
     c_bands:  2 eigenvalues not converged
     ethr =  1.18E-06,  avg # of iterations = 19.4

     total cpu time spent up to now is        5.5 secs

     total energy              =     -83.64027563 Ry
     estimated scf accuracy    <       0.00008384 Ry

     iteration #  6     ecut=    83.00 Ry     beta= 0.70
     Davidson diagonalization with overlap
     ethr =  5.24E-07,  avg # of iterations =  8.8

     total cpu time spent up to now is        6.3 secs

     total energy              =     -83.64029747 Ry
     estimated scf accuracy    <       0.00002171 Ry

     iteration #  7     ecut=    83.00 Ry     beta= 0.70
     Davidson diagonalization with overlap
     ethr =  1.36E-07,  avg # of iterations =  1.8

     total cpu time spent up to now is        6.8 secs

     total energy              =     -83.64030056 Ry
     estimated scf accuracy    <       0.00000016 Ry

     iteration #  8     ecut=    83.00 Ry     beta= 0.70
     Davidson diagonalization with overlap
     c_bands:  1 eigenvalues not converged
     ethr =  9.99E-10,  avg # of iterations =  5.6

     total cpu time spent up to now is        7.5 secs

     total energy              =     -83.64030076 Ry
     estimated scf accuracy    <       0.00000023 Ry

     iteration #  9     ecut=    83.00 Ry     beta= 0.70
     Davidson diagonalization with overlap
     ethr =  9.99E-10,  avg # of iterations =  2.0

     total cpu time spent up to now is        8.0 secs

     total energy              =     -83.64030079 Ry
     estimated scf accuracy    <       0.00000001 Ry

     iteration # 10     ecut=    83.00 Ry     beta= 0.70
     Davidson diagonalization with overlap
     c_bands:  1 eigenvalues not converged
     ethr =  6.38E-11,  avg # of iterations =  5.0

     total cpu time spent up to now is        8.7 secs

     total energy              =     -83.64030079 Ry
     estimated scf accuracy    <          2.2E-09 Ry

     iteration # 11     ecut=    83.00 Ry     beta= 0.70
     Davidson diagonalization with overlap
     ethr =  1.40E-11,  avg # of iterations =  2.3

     total cpu time spent up to now is        9.2 secs

     total energy              =     -83.64030079 Ry
     estimated scf accuracy    <          3.1E-10 Ry

     iteration # 12     ecut=    83.00 Ry     beta= 0.70
     Davidson diagonalization with overlap
     ethr =  1.91E-12,  avg # of iterations =  3.9

     total cpu time spent up to now is        9.8 secs

     End of self-consistent calculation

          k = 0.0000 0.0000 0.0000 (  3719 PWs)   bands (ev):

   -17.5999  -6.7080  -2.1666  -2.1666  -2.1666   7.8293   7.8293   7.8293
    11.7228  12.9735  12.9735  12.9735  15.1826  15.1826  15.7427  18.6305

          k =-0.0833 0.0833-0.0833 (  3755 PWs)   bands (ev):

   -17.5849  -6.7528  -2.1835  -2.1745  -2.1745   7.6826   7.7500   7.7500
    12.0181  12.8532  13.0883  13.0883  15.3435  15.3435  16.0668  18.5912

          k =-0.1667 0.1667-0.1667 (  3737 PWs)   bands (ev):

   -17.5434  -6.8753  -2.2282  -2.1961  -2.1961   7.3415   7.5460   7.5460
    12.5757  12.8994  13.4203  13.4203  15.7797  15.7797  16.7716  18.4806

          k =-0.2500 0.2500-0.2500 (  3744 PWs)   bands (ev):

   -17.4857  -7.0430  -2.2861  -2.2250  -2.2250   6.9574   7.2918   7.2918
    12.6157  13.8757  13.9296  13.9296  16.3736  16.3736  17.4700  18.3494

          k =-0.3333 0.3333-0.3333 (  3753 PWs)   bands (ev):

   -17.4266  -7.2111  -2.3404  -2.2535  -2.2535   6.6270   7.0600   7.0600
    12.7889  14.5383  14.5383  14.8644  16.9516  16.9517  17.9756  18.3493

          k =-0.4167 0.4167-0.4167 (  3750 PWs)   bands (ev):

   -17.3824  -7.3344  -2.3781  -2.2740  -2.2740   6.4074   6.9019   6.9019
    13.0322  15.1004  15.1004  15.4308  17.2507  17.2507  18.3797  18.3838

          k = 0.5000-0.5000 0.5000 (  3750 PWs)   bands (ev):

   -17.3660  -7.3796  -2.3914  -2.2814  -2.2814   6.3308   6.8461   6.8461
    13.1531  15.3542  15.3542  15.5478  17.2634  17.2636  18.5928  18.5936

          k = 0.0000 0.1667 0.0000 (  3735 PWs)   bands (ev):

   -17.5799  -6.7641  -2.2051  -2.2051  -2.1428   7.4949   7.8206   7.8206
    12.0723  12.6146  13.2333  13.2333  15.2594  15.5316  16.1509  18.5583

          k =-0.0833 0.2500-0.0833 (  3742 PWs)   bands (ev):

   -17.5474  -6.8513  -2.2529  -2.2461  -2.1495   7.2075   7.7044   7.7390
    12.3655  12.5885  13.5305  13.5859  15.4927  15.9709  16.6846  18.4608

          k =-0.1667 0.3333-0.1667 (  3740 PWs)   bands (ev):

   -17.4953  -6.9919  -2.3115  -2.2861  -2.1922   6.9377   7.4394   7.5409
    12.3174  13.3575  14.0181  14.0996  15.9904  16.5093  17.3490  18.3493

          k =-0.2500 0.4167-0.2500 (  3735 PWs)   bands (ev):

   -17.4368  -7.1489  -2.3660  -2.3146  -2.2562   6.7215   7.1556   7.2974
    12.4946  14.0137  14.6900  14.8350  16.6276  16.9138  17.9152  18.3072

          k =-0.3333 0.5000-0.3333 (  3753 PWs)   bands (ev):

   -17.3877  -7.2796  -2.4083  -2.3242  -2.3185   6.5609   6.9658   7.0762
    12.8243  14.4443  15.2136  15.6513  17.0921  17.1647  18.1707  18.2223

          k = 0.5833-0.4167 0.5833 (  3743 PWs)   bands (ev):

   -17.3620  -7.3482  -2.4416  -2.3506  -2.3127   6.4608   6.9256   6.9289
    13.1085  14.6326  15.4292  16.0669  17.2406  17.3031  18.1446  18.3854

          k = 0.5000-0.3333 0.5000 (  3747 PWs)   bands (ev):

   -17.3674  -7.3357  -2.4612  -2.3422  -2.2831   6.4549   6.8732   7.0320
    13.0894  14.6888  15.1497  16.0175  17.2331  17.3433  17.9984  18.5615

          k = 0.4167-0.2500 0.4167 (  3748 PWs)   bands (ev):

   -17.4022  -7.2458  -2.4500  -2.3069  -2.2429   6.5654   6.9286   7.2347
    12.8209  14.5262  14.5720  15.4949  16.9555  17.2487  18.0675  18.4398

          k = 0.3333-0.1667 0.3333 (  3745 PWs)   bands (ev):

   -17.4562  -7.1037  -2.4029  -2.2598  -2.2026   6.7854   7.0834   7.4844
    12.5695  13.9516  13.9644  14.7437  16.5011  16.8322  17.7304  18.2664

          k = 0.2500-0.0833 0.2500 (  3735 PWs)   bands (ev):

   -17.5143  -6.9479  -2.3283  -2.2148  -2.1732   7.0867   7.3096   7.7063
    12.4955  13.1380  13.4728  14.0579  15.9180  16.2547  17.1377  18.3615

          k = 0.1667-0.0000 0.1667 (  3745 PWs)   bands (ev):

   -17.5611  -6.8199  -2.2457  -2.1848  -2.1628   7.4196   7.5559   7.8092
    12.4147  12.6378  13.1699  13.4910  15.4820  15.7102  16.4880  18.5077

          k = 0.0000 0.3333 0.0000 (  3731 PWs)   bands (ev):

   -17.5254  -6.8835  -2.3089  -2.3089  -2.1740   7.0069   7.8180   7.8180
    11.9248  12.7255  13.9495  13.9495  15.4841  16.3589  16.9418  18.4007

          k =-0.0833 0.4167-0.0833 (  3725 PWs)   bands (ev):

   -17.4828  -6.9655  -2.3744  -2.3676  -2.2656   6.8864   7.7161   7.7535
    11.7091  13.2214  14.4270  14.4595  15.7862  16.7442  17.4130  18.3909

          k =-0.1667 0.5000-0.1667 (  3740 PWs)   bands (ev):

   -17.4302  -7.0763  -2.4379  -2.4070  -2.3902   6.8554   7.4628   7.5770
    11.7939  13.8605  15.0015  15.0149  16.3622  16.9023  17.9000  18.3057

          k =-0.2500 0.5833-0.2500 (  3750 PWs)   bands (ev):

   -17.3817  -7.1850  -2.5478  -2.4495  -2.4174   6.8798   7.2002   7.3525
    12.1556  14.2655  15.4770  15.6616  16.9045  17.0638  18.0265  18.2417

          k = 0.6667-0.3333 0.6667 (  3730 PWs)   bands (ev):

   -17.3507  -7.2604  -2.6563  -2.4499  -2.3962   6.7977   7.1424   7.1636
    12.6926  14.2144  15.6541  16.1559  17.0446  17.4112  18.1133  18.1723

          k = 0.5833-0.2500 0.5833 (  3744 PWs)   bands (ev):

   -17.3464  -7.2814  -2.7114  -2.4175  -2.3486   6.6600   6.9917   7.3292
    13.1192  13.9915  15.3710  16.1609  17.2674  17.4335  17.9208  18.5062

          k = 0.5000-0.1667 0.5000 (  3736 PWs)   bands (ev):

   -17.3700  -7.2432  -2.6964  -2.3629  -2.2864   6.6124   6.9287   7.5363
    12.9437  14.1217  14.7987  15.7006  17.2083  17.4499  18.0194  18.4414

          k = 0.4167-0.0833 0.4167 (  3744 PWs)   bands (ev):

   -17.4145  -7.1584  -2.6116  -2.3006  -2.2260   6.6741   6.9660   7.7121
    12.6102  14.0096  14.2078  15.2218  16.9470  17.2446  17.9861  18.4112

          k = 0.3333 0.0000 0.3333 (  3733 PWs)   bands (ev):

   -17.4673  -7.0507  -2.4766  -2.2466  -2.1843   6.8385   7.1005   7.7841
    12.4462  13.5517  13.7436  14.7433  16.4034  16.7934  17.5982  18.2421

          k = 0.0000 0.5000 0.0000 (  3727 PWs)   bands (ev):

   -17.4511  -6.9728  -2.4472  -2.4472  -2.4281   6.9365   7.8542   7.8542
    11.2653  13.3769  14.9714  14.9714  15.8387  16.8579  17.6589  18.5533

          k =-0.0833 0.5833-0.0833 (  3738 PWs)   bands (ev):

   -17.4085  -7.0127  -2.6328  -2.5094  -2.5044   7.0745   7.7744   7.8120
    11.1366  13.8187  15.4625  15.5011  16.2304  16.8406  17.9720  18.3392

          k =-0.1667 0.6667-0.1667 (  3746 PWs)   bands (ev):

   -17.3659  -7.0729  -2.8276  -2.5449  -2.5256   7.2608   7.5419   7.6539
    11.3474  14.3460  15.5852  15.8759  16.9517  17.0036  17.9910  18.2470

          k = 0.7500-0.2500 0.7500 (  3747 PWs)   bands (ev):

   -17.3353  -7.1354  -2.9673  -2.5441  -2.5059   7.2195   7.4377   7.5053
    11.8526  14.4572  15.6024  16.0225  17.2425  17.5552  17.8164  18.3417

          k = 0.6667-0.1667 0.6667 (  3740 PWs)   bands (ev):

   -17.3251  -7.1826  -3.0186  -2.5067  -2.4496   6.9635   7.2211   7.6933
    12.5547  13.9731  15.7622  15.7824  17.2651  17.4717  18.2321  18.3622

          k = 0.5833-0.0833 0.5833 (  3734 PWs)   bands (ev):

   -17.3384  -7.2034  -2.9663  -2.4421  -2.3702   6.7717   7.0496   7.8233
    13.2010  13.4857  15.2085  15.6236  17.2901  17.5194  18.2125  18.4385

          k = 0.5000 0.0000 0.5000 (  3759 PWs)   bands (ev):

   -17.3713  -7.1944  -2.8189  -2.3668  -2.2881   6.6712   6.9570   7.8384
    12.8665  13.8873  14.6422  15.3580  17.2580  17.4868  18.1893  18.3771

          k = 0.0000 0.6667 0.0000 (  3735 PWs)   bands (ev):

   -17.3772  -6.9745  -2.8944  -2.5814  -2.5814   7.3487   7.9266   7.9266
    10.7558  13.9340  16.1065  16.1065  16.2886  16.6361  18.1430  18.3071

          k =-0.0833 0.7500-0.0833 (  3744 PWs)   bands (ev):

   -17.3446  -6.9710  -3.1226  -2.6251  -2.6198   7.6272   7.8561   7.8922
    10.7316  14.2495  15.9957  16.3745  16.9073  17.0636  18.0183  18.3054

          k = 0.8333-0.1667 0.8333 (  3745 PWs)   bands (ev):

   -17.3196  -7.0033  -3.2651  -2.6303  -2.6110   7.6173   7.7331   7.8614
    11.0617  14.6678  15.3846  16.5028  17.5246  17.5410  17.7158  18.4388

          k = 0.7500-0.0833 0.7500 (  3753 PWs)   bands (ev):

   -17.3090  -7.0639  -3.2877  -2.5950  -2.5567   7.3141   7.5020   7.9963
    11.6851  14.5441  15.2143  16.2957  17.3936  17.4476  18.2676  18.4106

          k = 0.6667-0.0000 0.6667 (  3765 PWs)   bands (ev):

   -17.3160  -7.1374  -3.1809  -2.5267  -2.4693   7.0168   7.2564   7.9900
    12.5006  13.8690  15.4948  15.7543  17.2884  17.4659  18.3907  18.4988

          k = 0.0000 0.8333 0.0000 (  3760 PWs)   bands (ev):

   -17.3233  -6.9067  -3.3566  -2.6773  -2.6773   7.9313   7.9989   7.9989
    10.4391  14.1739  16.4971  16.7696  17.1414  17.1414  17.9690  18.3598

          k = 0.9167-0.0833 0.9167 (  3754 PWs)   bands (ev):

   -17.3079  -6.9011  -3.4763  -2.6904  -2.6852   7.9146   7.9497   8.1203
    10.5238  14.3131  16.0833  16.9559  17.4656  17.7271  17.8161  18.2682

          k = 0.8333 0.0000 0.8333 (  3754 PWs)   bands (ev):

   -17.3027  -6.9592  -3.4524  -2.6612  -2.6419   7.6559   7.7667   8.1482
    10.9640  14.6778  15.3267  16.8844  17.2290  17.6924  18.1751  18.3674

          k = 0.0000-1.0000 0.0000 (  3740 PWs)   bands (ev):

   -17.3037  -6.8624  -3.5525  -2.7119  -2.7119   8.0292   8.0292   8.2134
    10.3320  14.1538  16.5696  17.0665  17.7267  17.8710  17.8718  17.9401

          k =-0.1667 0.3333 0.0000 (  3736 PWs)   bands (ev):

   -17.5098  -6.9378  -2.3545  -2.2621  -2.1807   6.9756   7.5033   7.8012
    12.1382  13.0359  13.7838  14.1862  15.7618  16.4450  17.1592  18.3575

          k =-0.2500 0.4167-0.0833 (  3740 PWs)   bands (ev):

   -17.4574  -7.0578  -2.4609  -2.2935  -2.2418   6.8143   7.2435   7.7120
    12.1513  13.6466  14.2094  14.8153  16.3169  16.8704  17.6843  18.3234

          k =-0.3333 0.5000-0.1667 (  3749 PWs)   bands (ev):

   -17.4040  -7.1799  -2.5390  -2.3763  -2.2743   6.7187   7.0370   7.5111
    12.4163  14.1249  14.8134  15.3930  16.9218  17.0933  18.0606  18.3081

          k = 0.5833-0.4167 0.7500 (  3747 PWs)   bands (ev):

   -17.3642  -7.2706  -2.5703  -2.4695  -2.2882   6.6468   6.9784   7.2824
    12.8385  14.2232  15.3037  15.9815  17.1448  17.3344  18.0071  18.4068

          k = 0.5000-0.3333 0.6667 (  3740 PWs)   bands (ev):

   -17.3495  -7.3041  -2.5619  -2.5233  -2.2928   6.6114   7.0418   7.1253
    13.1119  14.1043  15.5135  16.2617  17.2799  17.3156  17.9724  18.4022

          k =-0.1667 0.5000 0.0000 (  3738 PWs)   bands (ev):

   -17.4400  -7.0246  -2.4992  -2.4187  -2.3674   6.8981   7.5385   7.8325
    11.5382  13.6366  14.8228  15.0613  16.1560  16.9168  17.7687  18.4188

          k =-0.2500 0.5833-0.0833 (  3745 PWs)   bands (ev):

   -17.3926  -7.0993  -2.6100  -2.5851  -2.3595   6.9871   7.2978   7.7649
    11.6800  14.1200  15.3105  15.3799  16.7782  17.0337  18.0814  18.2256

          k = 0.6667-0.3333 0.8333 (  3737 PWs)   bands (ev):

   -17.3533  -7.1684  -2.7371  -2.6711  -2.3385   6.9826   7.2282   7.5857
    12.1057  14.2460  15.5717  15.7909  17.0942  17.3926  18.0125  18.3562

          k = 0.5833-0.2500 0.7500 (  3742 PWs)   bands (ev):

   -17.3331  -7.2123  -2.8325  -2.6715  -2.3111   6.8327   7.3455   7.4262
    12.7158  13.8289  15.8243  15.9535  17.2645  17.4341  18.1974  18.2420

          k = 0.5000-0.1667 0.6667 (  3740 PWs)   bands (ev):

   -17.3380  -7.2190  -2.8489  -2.6109  -2.2834   6.7551   7.1552   7.6130
    13.0131  13.6024  15.5687  15.8288  17.3213  17.4100  18.1312  18.4711

          k = 0.4167-0.0833 0.5833 (  3744 PWs)   bands (ev):

   -17.3664  -7.1881  -2.7792  -2.5059  -2.2621   6.7564   7.0294   7.7651
    12.5538  14.0024  15.0676  15.4353  17.2625  17.3547  18.1607  18.4508

          k = 0.3333 0.0000 0.5000 (  3753 PWs)   bands (ev):

   -17.4103  -7.1291  -2.6377  -2.3843  -2.2525   6.7741   7.0622   7.8103
    12.2250  13.9654  14.5512  15.2062  16.9483  17.1230  17.9908  18.4014

          k =-0.1667 0.6667-0.0000 (  3748 PWs)   bands (ev):

   -17.3709  -7.0237  -2.8605  -2.6393  -2.4845   7.3070   7.6197   7.9011
    11.0593  14.1653  15.6314  15.9997  16.5721  17.0622  18.1497  18.1764

          k = 0.7500-0.2500 0.9167 (  3747 PWs)   bands (ev):

   -17.3374  -7.0535  -3.0431  -2.7341  -2.4391   7.3618   7.5671   7.8422
    11.3206  14.5056  15.3003  16.3609  17.0336  17.5308  17.9502  18.3526

          k = 0.6667-0.1667 0.8333 (  3748 PWs)   bands (ev):

   -17.3172  -7.0947  -3.1382  -2.7673  -2.3811   7.1200   7.6626   7.7774
    11.8740  14.2205  15.3148  16.4122  17.3538  17.5710  18.0474  18.3932

          k = 0.5833-0.0833 0.7500 (  3754 PWs)   bands (ev):

   -17.3160  -7.1377  -3.1212  -2.7313  -2.3235   6.9247   7.4272   7.9079
    12.6265  13.5451  15.4955  16.0864  17.3226  17.4894  18.3336  18.4805

          k = 0.5000 0.0000 0.6667 (  3744 PWs)   bands (ev):

   -17.3341  -7.1722  -2.9920  -2.6359  -2.2797   6.8064   7.1923   7.9109
    12.9415  13.4284  15.4622  15.5573  17.3177  17.4650  18.3262  18.4309

          k = 0.8333-0.1667 1.0000 (  3747 PWs)   bands (ev):

   -17.3207  -6.9550  -3.3104  -2.7391  -2.5657   7.7013   7.8964   7.9707
    10.7586  14.4296  15.6560  16.8840  17.0869  17.6757  17.8229  18.3370

          k = 0.7500-0.0833 0.9167 (  3754 PWs)   bands (ev):

   -17.3059  -6.9828  -3.3804  -2.8046  -2.4842   7.4432   7.8981   8.0582
    11.1319  14.7019  14.9782  17.0181  17.3661  17.7142  17.9609  18.3329

          k = 0.6667 0.0000 0.8333 (  3757 PWs)   bands (ev):

   -17.3042  -7.0501  -3.3132  -2.8018  -2.3967   7.1653   7.6979   8.0681
    11.7912  14.1800  15.1086  16.6758  17.3684  17.5338  18.3776  18.3813

          k =-0.1667-1.0000-0.0000 (  3762 PWs)   bands (ev):

   -17.3025  -6.9108  -3.5020  -2.7752  -2.5952   7.7381   7.9998   8.1807
    10.6565  14.4100  15.6866  17.1628  17.5623  17.8761  17.9071  17.9682

          k = 0.6667-0.3333 1.0000 (  3736 PWs)   bands (ev):

   -17.3545  -7.1199  -2.7927  -2.7665  -2.3083   7.0338   7.2612   7.8775
    11.8647  14.2045  15.2786  15.7561  17.0761  17.4000  18.2489  18.3076

          k = 0.5833-0.2500 0.9167 (  3744 PWs)   bands (ev):

   -17.3264  -7.1334  -2.9190  -2.9013  -2.2728   6.9166   7.4767   7.8446
    12.3278  13.7480  15.3734  16.2139  17.3443  17.4079  18.2814  18.4458

          k = 0.5000-0.1667 0.8333 (  3754 PWs)   bands (ev):

   -17.3160  -7.1380  -2.9588  -2.9560  -2.2602   6.8695   7.6807   7.7061
    12.9051  13.1136  15.4962  16.3829  17.3964  17.5183  18.2247  18.3662

          k = 0.6667-0.1667 1.0000 (  3746 PWs)   bands (ev):

   -17.3146  -7.0469  -3.1811  -2.9026  -2.3463   7.1614   7.8120   7.9470
    11.6118  14.2381  15.0186  16.9452  17.2371  17.5059  18.2751  18.3306

          k = 0.5833-0.0833 0.9167 (  3749 PWs)   bands (ev):

   -17.3039  -7.0596  -3.2079  -2.9976  -2.2785   7.0000   7.9021   7.9684
    12.1848  13.5110  15.0962  17.0923  17.4021  17.6656  18.1145  18.4274

          k = 0.5000 0.0000 0.8333 (  3746 PWs)   bands (ev):

   -17.3082  -7.0918  -3.1139  -2.9964  -2.2516   6.9138   7.7285   7.9849
    12.8169  12.9537  15.2303  16.7760  17.3871  17.5187  18.3493  18.5036

          k =-0.3333-1.0000 0.0000 (  3760 PWs)   bands (ev):

   -17.3002  -7.0022  -3.3605  -2.9421  -2.3602   7.2056   7.9762   8.1003
    11.5235  14.2110  14.8358  17.3511  17.6079  17.8199  17.8860  18.1059

          k =-0.5000-1.0000 0.0000 (  3736 PWs)   bands (ev):

   -17.2990  -7.0456  -3.1576  -3.1576  -2.2412   6.9569   8.0158   8.0158
    12.7592  12.7592  15.0120  17.4266  17.7080  17.7081  17.8912  18.2814

     the Fermi energy is     9.6041 ev

!    total energy              =     -83.64030079 Ry
     estimated scf accuracy    <          6.3E-12 Ry
     smearing contrib. (-TS)   =      -0.00000000 Ry
     internal energy E=F+TS    =     -83.64030079 Ry

     The total energy is F=E-TS. E is the sum of the following terms:
     one-electron contribution =     -12.54476181 Ry
     hartree contribution      =      14.97744001 Ry
     xc contribution           =     -14.54838627 Ry
     ewald contribution        =     -71.52459273 Ry

     convergence has been achieved in  12 iterations

     Writing all to output data dir out/mp-1342.save/
 
     init_run     :      0.17s CPU      0.25s WALL (       1 calls)
     electrons    :      8.62s CPU      9.49s WALL (       1 calls)

     Called by init_run:
     wfcinit      :      0.14s CPU      0.17s WALL (       1 calls)
     potinit      :      0.01s CPU      0.01s WALL (       1 calls)
     hinit0       :      0.01s CPU      0.04s WALL (       1 calls)

     Called by electrons:
     c_bands      :      7.70s CPU      8.38s WALL (      12 calls)
     sum_band     :      0.86s CPU      1.01s WALL (      12 calls)
     v_of_rho     :      0.05s CPU      0.06s WALL (      13 calls)
     mix_rho      :      0.01s CPU      0.02s WALL (      12 calls)

     Called by c_bands:
     init_us_2    :      0.12s CPU      0.13s WALL (     900 calls)
     init_us_2:cp :      0.11s CPU      0.13s WALL (     900 calls)
     cegterg      :      6.50s CPU      6.76s WALL (     432 calls)

     Called by *egterg:
     cdiaghg      :      0.79s CPU      0.83s WALL (    2813 calls)
     h_psi        :      5.27s CPU      5.49s WALL (    2849 calls)
     g_psi        :      0.04s CPU      0.04s WALL (    2381 calls)

     Called by h_psi:
     h_psi:calbec :      0.18s CPU      0.19s WALL (    2849 calls)
     vloc_psi     :      4.93s CPU      5.14s WALL (    2849 calls)
     add_vuspsi   :      0.13s CPU      0.14s WALL (    2849 calls)

     General routines
     calbec       :      0.17s CPU      0.18s WALL (    2849 calls)
     fft          :      0.02s CPU      0.06s WALL (     129 calls)
     ffts         :      0.00s CPU      0.00s WALL (      12 calls)
     fftw         :      5.19s CPU      5.41s WALL (   57054 calls)
     davcio       :      0.08s CPU      0.46s WALL (    1514 calls)
 
     Parallel routines
 
     PWSCF        :      8.88s CPU      9.95s WALL

 
   This run was terminated on:   6: 0:59  20Nov2023            

=------------------------------------------------------------------------------=
   JOB DONE.
=------------------------------------------------------------------------------=
