
     Program PWSCF v.7.1 starts on 15Nov2023 at  4:31:19 

     This program is part of the open-source Quantum ESPRESSO suite
     for quantum simulation of materials; please cite
         "P. Giannozzi et al., J. Phys.:Condens. Matter 21 395502 (2009);
         "P. Giannozzi et al., J. Phys.:Condens. Matter 29 465901 (2017);
         "P. Giannozzi et al., J. Chem. Phys. 152 154105 (2020);
          URL http://www.quantum-espresso.org", 
     in publications or presentations arising from this work. More details at
     http://www.quantum-espresso.org/quote

     Parallel version (MPI), running on     8 processors

     MPI processes distributed on     1 nodes
     123429 MiB available memory on the printing compute node when the environment starts
 
     Reading input from pw_mp-1087_nscf_k0_E79.in
Warning: card &IONS ignored
Warning: card / ignored
Warning: card &CELL ignored
Warning: card / ignored

     Current dimensions of program PWSCF are:
     Max number of different atomic species (ntypx) = 10
     Max number of k-points (npk) =  40000
     Max angular momentum in pseudopotentials (lmaxx) =  4

     Atomic positions and unit cell read from directory:
     out/mp-1087.save/
     Atomic positions from file used, from input discarded
 
 
     R & G space division:  proc/nbgrp/npool/nimage =       8
     Subspace diagonalization in iterative solution of the eigenvalue problem:
     one sub-group per band group will be used
     scalapack distributed-memory algorithm (size of sub-group:  2*  2 procs)

 
     Parallelization info
     --------------------
     sticks:   dense  smooth     PW     G-vecs:    dense   smooth      PW
     Min         177     177     45                 4444     4444     558
     Max         178     178     46                 4448     4448     560
     Sum        1417    1417    361                35557    35557    4477
 
     Using Slab Decomposition
 


     bravais-lattice index     =            2
     lattice parameter (alat)  =      11.4291  a.u.
     unit-cell volume          =     373.2322 (a.u.)^3
     number of atoms/cell      =            2
     number of atomic types    =            2
     number of electrons       =        16.00
     number of Kohn-Sham states=         1672
     kinetic-energy cutoff     =      79.0000  Ry
     charge density cutoff     =     316.0000  Ry
     Exchange-correlation= PBE
                           (   1   4   3   4   0   0   0)

     celldm(1)=  11.429126  celldm(2)=   0.000000  celldm(3)=   0.000000
     celldm(4)=   0.000000  celldm(5)=   0.000000  celldm(6)=   0.000000

     crystal axes: (cart. coord. in units of alat)
               a(1) = (  -0.500000   0.000000   0.500000 )  
               a(2) = (   0.000000   0.500000   0.500000 )  
               a(3) = (  -0.500000   0.500000   0.000000 )  

     reciprocal axes: (cart. coord. in units 2 pi/alat)
               b(1) = ( -1.000000 -1.000000  1.000000 )  
               b(2) = (  1.000000  1.000000  1.000000 )  
               b(3) = ( -1.000000  1.000000 -1.000000 )  


     PseudoPot. # 1 for S  read from file:
     /usr/scratch4/magr4985/MG/HTDF/pseudo/SG15/S.upf
     MD5 check sum: f9d020296ee6110346977bfd66d424f6
     Pseudo is Norm-conserving, Zval =  6.0
     Generated using ONCVPSP code by D. R. Hamann
     Using radial grid of  602 points,  4 beta functions with: 
                l(1) =   0
                l(2) =   0
                l(3) =   1
                l(4) =   1

     PseudoPot. # 2 for Sr read from file:
     /usr/scratch4/magr4985/MG/HTDF/pseudo/SG15/Sr.upf
     MD5 check sum: 3f9bc8d6f3e8472da0cbe0e6a3044a9f
     Pseudo is Norm-conserving, Zval = 10.0
     Generated using ONCVPSP code by D. R. Hamann
     Using radial grid of  602 points,  6 beta functions with: 
                l(1) =   0
                l(2) =   0
                l(3) =   1
                l(4) =   1
                l(5) =   2
                l(6) =   2

     atomic species   valence    mass     pseudopotential
        S              6.00    32.06500     S ( 1.00)
        Sr            10.00    87.62000     Sr( 1.00)

     48 Sym. Ops., with inversion, found



   Cartesian axes

     site n.     atom                  positions (alat units)
         1           Sr  tau(   1) = (   0.0000000   0.0000000   0.0000000  )
         2           S   tau(   2) = (  -0.5000000   0.5000000   0.5000000  )

     number of k points=     1  Gaussian smearing, width (Ry)=  0.0005
                       cart. coord. in units 2pi/alat
        k(    1) = (   0.0000000   0.0000000   0.0000000), wk =   2.0000000

     Dense  grid:    35557 G-vectors     FFT dimensions: (  45,  45,  45)

     Estimated max dynamical RAM per process >     203.82 MB

     Estimated total dynamical RAM >       1.59 GB

     The potential is recalculated from file :
     out/mp-1087.save/charge-density

     Starting wfcs are random

     Band Structure Calculation
     Davidson diagonalization with overlap

     ethr =  5.00E-06,  avg # of iterations =  4.0

     total cpu time spent up to now is      240.0 secs

     End of band structure calculation

          k = 0.0000 0.0000 0.0000 (  4477 PWs)   bands (ev):

   -27.8248  -9.7674  -9.7674  -9.7674  -5.1090   5.6599   5.6599   5.6599
     9.2516  10.1065  10.1065  10.1065  10.9822  10.9822  15.4273  20.5691
    20.5691  20.5691  22.6134  22.6134  22.6134  24.0292  24.0292  27.8056
    27.8056  27.8056  28.2918  30.3062  30.3062  30.6243  30.6243  30.6243
    32.0100  32.0100  32.0100  38.9734  40.4675  40.4675  40.4675  41.7628
    41.9672  41.9672  41.9672  43.4523  43.4523  43.4523  44.2336  44.2336
    44.2336  45.7995  45.9725  45.9725  45.9725  47.1521  47.1521  47.1961
    47.1961  47.1961  47.8518  47.8518  49.3258  55.2023  55.2023  55.2023
    61.4470  61.4470  61.4470  63.6745  64.7114  64.7114  64.7114  65.9785
    65.9785  65.9785  66.4980  66.4980  67.7501  67.7501  67.7501  71.2809
    72.5164  72.5164  73.4349  73.4349  73.4349  74.1269  74.1269  74.1269
    75.1046  75.9489  75.9489  75.9489  76.4084  76.4084  76.4084  77.4680
    77.4680  77.4680  77.9696  77.9696  77.9696  79.0437  79.0437  79.2400
    79.2400  79.2400  79.8935  79.8935  81.3805  81.3805  81.3805  82.3613
    83.7721  83.7721  84.0801  86.8651  88.2108  88.2108  88.2108  91.8247
    91.8247  91.8247  92.5264  92.5264  92.5264  95.8770  95.8770  95.9725
    95.9725  95.9725  96.0476  96.0476  96.2353  96.2353  96.2353  96.3308
    96.3308  96.3308  97.0471  97.0471  97.0471  98.3178  98.4596  98.4596
    98.4596 100.2491 103.8425 103.9596 104.6786 104.6786 104.6786 105.4118
   105.4118 105.4118 106.1301 106.1301 106.1301 107.7506 107.7506 107.7506
   108.1743 108.1743 108.1743 112.6380 112.6380 112.7604 112.7604 112.7604
   112.9570 114.1491 118.0905 118.0905 118.2543 118.2543 118.2543 121.6627
   121.6627 121.6627 123.0974 123.0974 123.0974 123.4758 123.4758 123.4758
   124.0772 124.0772 128.3915 128.4584 128.4584 128.4584 129.6627 129.6627
   130.9627 130.9627 130.9627 134.1455 134.1455 134.1455 134.4918 134.8721
   134.8721 134.8721 135.2784 135.2784 135.2784 135.6352 135.6352 135.6352
   136.4384 136.4384 137.3436 137.5888 138.1629 138.1629 138.1629 139.2449
   139.2449 139.2449 139.4138 139.4138 139.4138 139.4947 140.1465 140.7176
   140.7176 142.5821 142.5821 142.5821 142.6874 142.6874 142.6874 143.9761
   143.9761 143.9761 144.5817 144.5817 144.6615 144.6615 144.6615 145.0006
   145.0006 145.0006 145.0989 145.0989 145.0989 145.3361 145.3361 145.3361
   145.4021 145.4021 145.6726 145.6726 145.6726 145.7384 145.7384 145.7384
   145.7567 145.7567 145.7878 153.6736 154.0748 154.0748 154.7446 154.7446
   154.7446 155.2427 155.2427 155.2427 155.6606 155.6606 155.6606 155.6634
   155.6634 155.6634 156.8549 156.8549 156.8549 162.0806 162.0806 162.0806
   162.5737 162.5737 162.6420 162.6420 162.6420 162.7399 163.0374 164.5933
   165.8772 165.8772 165.8772 168.8574 168.8574 172.8320 172.8320 172.8320
   172.9356 172.9356 172.9356 173.0310 173.1349 173.1349 173.1471 173.1471
   173.1471 173.3660 173.3660 173.3660 173.3868 173.3868 173.3868 174.6182
   175.4918 175.4918 175.8406 175.8406 175.8406 176.1935 176.1935 176.1935
   176.3400 176.3400 176.4879 176.4879 176.4879 176.8368 176.8368 176.8368
   177.2812 177.2812 177.2812 178.6624 178.6624 180.6380 183.8602 183.8602
   183.8602 187.3128 187.3128 187.3128 189.3391 189.3391 189.3391 189.7765
   190.1042 190.1042 190.1042 190.1150 194.0304 194.0304 194.3234 194.3234
   194.3234 194.6960 194.6960 194.6960 196.2460 197.2963 197.2963 197.2963
   197.8809 197.8809 198.7377 199.1346 199.1346 199.1346 200.8045 200.8045
   200.8045 203.8062 203.8062 203.8062 204.3444 204.3444 204.3444 204.5770
   204.5770 204.5770 204.6012 204.6012 204.6012 207.1811 207.3774 207.3774
   207.4472 207.4472 207.4472 208.0598 208.0598 208.0598 208.3371 208.3371
   208.4563 208.4563 208.4563 208.4651 208.4651 208.4651 208.9502 208.9502
   208.9502 209.1807 209.1807 209.1807 209.3436 211.2654 211.2654 211.2812
   211.2812 211.2812 211.3206 216.4432 216.4432 216.4432 217.5322 219.2254
   219.2254 219.2254 219.4960 220.4016 220.4016 220.7039 220.7039 220.7039
   222.2080 222.2080 222.4700 222.4700 222.4700 222.6897 222.6897 222.6897
   222.8026 222.8026 222.9195 222.9195 222.9195 222.9714 222.9714 222.9714
   223.5249 223.5249 223.5249 223.5456 227.6384 227.6384 227.6903 227.6903
   227.6903 227.7143 227.7143 227.7143 227.7146 227.7146 227.7146 227.7489
   227.7601 227.7601 227.7601 227.8753 227.8753 228.0619 228.0619 228.0619
   229.2049 229.2049 229.2049 229.4089 229.4089 229.4089 229.5026 229.5403
   229.6881 229.6881 229.6881 230.2742 230.2742 230.2742 232.2463 232.2463
   232.2463 233.3103 233.4874 233.4874 233.4874 233.8709 233.8709 234.3012
   234.3012 234.3012 234.7166 234.9213 234.9213 237.7623 237.7623 238.6059
   238.6059 238.6059 239.1350 239.1350 239.1350 239.1475 239.1475 239.1475
   240.0193 240.0193 240.0193 240.0220 240.0220 240.1217 240.5901 240.5901
   240.5901 240.6345 240.6345 241.0059 241.0059 241.0059 242.2418 242.2418
   242.2418 242.3904 242.3904 242.3904 242.5273 242.5759 242.5759 242.5759
   242.7074 242.7074 242.7074 243.6994 243.7709 243.7709 243.7709 243.8047
   243.8047 252.8816 252.8816 252.8816 260.3422 260.3422 260.3422 261.9454
   263.1364 263.1364 264.0421 264.0421 264.0421 265.0772 266.7151 266.7151
   266.7151 267.1566 267.1566 268.2583 268.3845 268.3845 268.3845 268.8348
   268.8348 268.8348 269.0194 269.4832 269.4832 269.4832 269.4919 269.4919
   269.4919 269.5347 269.5347 269.5347 269.5830 269.5830 269.5830 269.7126
   269.7126 269.7831 269.7831 269.7831 269.9331 269.9331 269.9331 270.4766
   270.5990 270.5990 270.5990 275.6864 275.6864 275.9842 275.9842 275.9842
   275.9913 275.9913 275.9913 276.1931 276.1931 276.2058 276.2058 276.2058
   276.4226 276.4226 276.4226 277.3792 277.3792 277.5116 277.5116 277.5116
   277.6601 279.3356 279.3356 279.3356 280.7266 280.7266 283.5910 283.5910
   283.5910 284.2427 284.7164 284.7164 284.7164 284.8120 284.8120 284.8120
   285.2034 285.2034 285.2034 285.6742 285.6742 287.1405 288.5397 288.5397
   288.5397 290.4752 290.7010 290.7010 290.7010 290.8128 290.8128 290.8224
   290.8224 291.3635 291.3635 291.3635 291.5310 291.5310 291.5310 291.5534
   291.5534 291.5534 292.0084 292.0084 292.0084 292.2931 292.2931 292.2931
   292.8082 296.9270 296.9270 298.5097 298.7516 298.7516 298.7516 299.7166
   299.7166 299.7166 300.4835 300.4835 300.4835 300.5749 300.5749 300.5749
   300.6498 300.6498 300.6498 300.8121 301.5441 303.2842 303.2842 303.2842
   304.4255 304.4255 304.4255 304.4491 304.4491 304.7246 304.7246 304.7246
   305.0540 305.5291 305.5291 305.5291 305.6553 305.6553 305.6629 305.6629
   305.6629 306.0608 306.9144 306.9591 306.9591 307.1146 307.1146 307.1146
   307.5106 307.5106 307.5106 307.5793 307.5793 307.5793 307.7853 307.7853
   307.7853 307.7859 307.7859 308.5157 308.5157 308.5157 308.5494 308.5494
   308.6007 308.6007 308.6007 308.6582 308.6582 308.6582 308.7063 310.6368
   310.6368 310.6368 312.5979 314.9639 314.9639 317.5931 317.5931 317.5931
   319.2554 319.2554 319.2554 319.7649 319.7649 319.7649 319.9347 319.9347
   319.9347 319.9449 319.9449 319.9449 320.0547 320.8675 321.0169 321.0169
   321.0169 321.0510 321.0510 322.7269 322.7269 322.7269 327.4751 327.4751
   327.4751 328.1051 328.7858 331.3799 331.3799 331.7465 331.7465 331.7465
   332.0264 332.0264 332.0264 332.3426 332.3426 332.3426 332.6291 332.6291
   332.6291 332.7656 332.7656 332.7853 332.7853 332.7853 334.9145 335.0896
   335.0896 335.0896 335.5020 335.5020 335.5020 335.5771 335.5771 335.5771
   335.6678 335.6678 335.6678 336.0792 336.0792 336.0792 336.4694 336.4694
   336.6810 336.6810 336.6810 336.7202 336.7202 336.9229 337.0809 337.0809
   337.0809 337.5120 337.5120 337.5120 337.8093 337.8093 337.8093 338.3864
   338.3864 338.5169 338.5169 338.5169 338.5294 338.5294 338.6052 338.6052
   338.6052 338.6112 338.6112 338.6112 338.8411 338.8411 338.8411 339.9945
   340.1073 340.1073 340.1073 340.1833 340.1833 340.1833 340.2325 342.7726
   342.7983 342.7983 342.7983 342.8189 342.8189 342.8189 342.8343 342.8343
   342.8662 342.8662 342.9364 342.9364 342.9364 343.0179 343.0179 343.0179
   343.0234 343.0234 343.0234 343.0927 343.0927 343.1463 343.2645 343.2645
   343.2645 343.3766 343.3766 343.3766 343.4743 347.4103 347.4103 347.4103
   348.6258 348.6258 348.6258 348.7983 348.8171 353.0307 353.0307 356.9206
   356.9206 356.9206 357.2948 357.2948 357.2948 357.8145 358.0168 358.0168
   358.1076 358.1076 358.1076 358.3775 358.3775 358.3775 358.5935 358.5935
   358.5935 358.6176 358.6176 358.7543 358.7543 358.7543 360.9549 360.9549
   360.9549 361.0083 361.0083 361.0083 361.3623 361.3623 361.3623 365.4922
   365.4922 365.6678 365.6678 365.6678 365.8106 370.3902 370.4000 370.4000
   370.4000 370.5757 370.5757 372.0660 372.0660 373.5940 373.5940 373.5940
   373.6984 373.6984 373.6984 373.7147 373.7147 373.7147 373.7353 373.7353
   373.7353 375.2006 375.2006 375.2138 375.2138 375.2138 375.2535 376.5249
   376.5249 376.5249 381.0012 382.1551 382.1551 382.1551 382.8312 382.8312
   382.8312 386.8269 386.8283 386.8283 386.8283 387.0182 387.0182 387.0182
   388.2372 388.2372 388.2499 388.2499 388.2499 388.3339 388.3339 388.3339
   388.5331 388.5331 388.8845 388.8845 388.8845 389.0647 389.9929 389.9929
   390.4544 390.4544 390.4544 390.8017 390.8017 390.8017 390.8588 391.2677
   392.6379 392.6379 392.6379 393.4841 393.4841 393.4841 394.0632 394.2288
   394.2288 394.2288 394.6482 394.6482 394.6482 395.0901 395.0901 397.3628
   397.3628 397.3628 398.2656 398.7223 398.7223 399.6774 399.6774 399.6774
   399.9027 399.9027 399.9027 400.1420 400.1420 400.4405 400.4405 400.4405
   400.6695 400.6695 400.6695 401.6786 401.6786 401.6786 401.7696 401.9413
   401.9413 401.9413 402.0449 404.2368 404.2368 404.2368 404.2481 404.2481
   404.3342 404.3342 404.3342 404.4520 404.4520 404.4520 404.4965 404.4965
   404.5437 404.5437 404.5437 405.7237 405.7237 405.7384 405.7384 405.7384
   405.7446 405.7446 405.7505 405.7505 405.7505 405.7519 405.7519 405.7519
   405.7738 405.7738 405.7738 405.7964 405.8337 405.8337 405.8337 405.8708
   405.8708 405.8708 405.8840 414.7600 414.7600 414.7600 415.7230 415.7230
   417.0458 417.0788 417.0788 417.0788 417.3237 417.3237 417.3237 417.4081
   417.4081 417.4081 417.4984 417.4984 417.4984 417.7177 418.4948 418.4948
   418.4948 419.0604 419.0604 419.0604 419.1214 419.1214 419.2287 419.2287
   419.2287 420.4530 420.6416 420.6416 420.6416 420.9114 420.9114 420.9288
   420.9288 420.9288 421.1612 421.1612 421.1612 422.4868 422.4868 422.9622
   422.9622 422.9622 424.5134 424.5134 424.5215 424.5215 424.5215 424.5545
   424.5545 424.5545 424.6376 424.6376 424.6376 424.6651 424.7049 424.8013
   424.8013 424.8013 424.8277 424.8277 424.9587 424.9587 424.9587 425.0040
   425.0040 425.0040 425.7391 425.7501 425.7501 425.8309 425.8309 425.8309
   425.9680 426.1116 426.1116 426.1116 426.2336 426.2336 426.2336 427.2609
   427.2609 427.2609 427.4398 427.4398 427.6302 427.6302 427.6302 427.9997
   427.9997 427.9997 428.1876 431.3080 432.0824 432.0824 432.0824 432.8822
   432.8822 432.8822 433.4193 433.4193 433.4241 433.4241 433.4241 434.6369
   434.7514 434.7514 434.7514 434.9063 434.9063 434.9063 434.9844 434.9844
   434.9844 435.0868 435.0868 435.0868 435.1032 435.1032 436.2043 436.3049
   436.3282 436.3282 436.3282 438.4861 438.4861 438.5593 438.5593 438.5822
   438.5822 438.5822 438.6027 438.7448 438.7448 438.7448 438.8030 438.8030
   438.8030 438.8045 438.8045 438.9179 438.9179 438.9179 439.0490 439.1159
   439.1159 439.1159 439.3361 439.3361 439.3361 439.3994 439.3994 439.3994
   439.4329 439.4329 439.4329 439.4778 439.5431 439.5431 439.5431 439.5450
   439.5450 439.5615 439.5615 439.5615 439.5632 439.5632 439.5632 439.6076
   439.7099 439.7099 439.7099 457.7267 457.7267 457.7267 458.6408 458.6408
   459.0246 460.4117 460.4117 460.4117 460.8971 460.8971 461.5144 462.2233
   462.2233 462.2233 462.8962 462.8962 462.8962 463.1676 463.1676 463.1676
   463.7294 463.7294 463.7294 463.8483 463.8483 463.8483 463.9856 464.0073
   464.0073 464.0107 464.0107 464.0107 464.0822 465.2666 465.2666 465.2666
   465.3943 465.3943 465.3943 466.3542 466.3542 466.3542 466.3736 466.3736
   466.3736 467.5306 467.9269 467.9269 467.9981 467.9981 468.1813 468.1813
   468.1813 468.2955 468.2955 468.2955 468.5050 468.8836 468.8836 468.8836
   469.0122 469.0122 469.0122 469.1451 469.1451 469.1451 469.4306 469.4306
   469.4841 469.4841 469.4841 469.6009 469.6009 469.6009 469.6045 469.6045
   469.6769 469.6769 469.6769 469.7589 469.7589 469.8207 469.8207 469.8207
   469.8512 469.8512 469.8512 469.8859 469.9288 469.9288 469.9288 469.9514
   469.9514 469.9514 469.9595 472.2796 472.2796 473.9913 473.9913 473.9913
   474.0278 474.0278 474.0278 474.0403 474.0403 474.1331 474.1331 474.1331
   474.1479 474.1479 474.1479 474.1966 474.1966 476.0556 476.0606 476.0606
   476.0606 476.0705 476.0705 476.0705 476.0853 476.5684 477.1115 477.1115
   477.1115 484.6506 484.8757 484.8757 484.8757 485.1700 485.1700 485.3560
   485.3560 485.3560 485.6511 485.6511 485.7303 485.7303 485.7303 485.7597
   485.7597 485.7597 485.8298 485.8298 485.8298 486.3847 486.9547 486.9547
   486.9547 488.9500 488.9500 488.9500 490.8232 490.8422 490.8422 490.8450
   490.8450 490.8450 490.9017 490.9017 490.9017 490.9754 490.9754 490.9754
   491.0329 491.0329 491.0329 491.0701 491.0701 491.0701 491.1301 491.1301
   491.2329 491.2329 491.2329 491.2911 491.3233 491.4354 492.0991 492.0991
   492.0991 499.0356 499.0356 499.0356 499.3226 499.3226 499.3226 499.5024
   499.5024 499.5024 499.5396 499.5396 499.5396 501.7544 501.7544 501.9670
   501.9670 501.9670 502.0254 502.0254 502.0254 502.1824 502.1824 502.1824
   502.2033 502.2033 502.2033 502.2166 502.2166 507.2392 507.2439 507.2439
   507.2439 507.2493 507.2493 510.5344 510.5344 510.5344 512.2581 512.3933
   512.3933 513.1088 513.1088 513.1088 513.4601 513.4601 513.4601 513.7488
   513.7488 514.4967 514.4967 514.4967 515.6277 516.5581 516.5581 516.5581
   519.3317 519.3317 519.3317 521.1319 521.1319 521.9037 521.9037 521.9037
   523.8739 524.2621 524.2621 524.2621 525.3574 525.3574 525.3574 525.7482
   525.7482 525.7482 526.1036 526.1036 526.1036 528.7709 528.9146 529.5949
   529.5949 529.5949 529.7733 529.7733 530.0059 530.0059 530.0059 530.0579
   530.0580 530.0580 530.6716 530.6716 530.6716 530.8361 530.8361 530.8361
   530.9205 530.9205 531.3964 531.3964 531.4556 531.4556 531.4556 531.6938
   531.6938 531.6938 531.8161 531.9508 531.9508 531.9508 531.9522 532.1859
   532.1859 532.1859 532.1972 532.1972 532.3244 532.3244 532.3244 532.6201
   532.6201 532.6201 532.8452 533.1875 533.1875 533.2293 533.9677 533.9677
   533.9677 534.4724 534.4724 534.5123 534.5123 534.5123 534.7718 534.7718
   534.7718 535.0338 535.0338 535.0338 535.0866 535.0866 535.0866 535.2053
   535.2053 535.2162 535.2162 535.2162 535.2446 535.3619 535.3984 535.3984
   535.3984 535.5977 535.5977 535.5977 535.6399 535.6399 535.6399 535.8487
   535.8487 537.5534 537.5534 537.6944 537.6944 537.6944 537.7637 537.7637
   537.7637 537.7963 537.7963 537.7963 537.8904 537.8904 537.8904 538.0078
   538.0078 538.1187 538.1187 538.1187 538.1342 538.1342 538.1342 538.1889
   538.1889 538.1889 538.2398 538.2398 538.2398 538.4220 538.5724 538.5724
   538.5724 538.5898 538.5926 538.5926 538.5926 538.7735 538.8576 538.8576
   538.8576 538.8915 538.8915 538.9198 538.9198 538.9198 538.9206 538.9206
   538.9206 539.7024 539.7024 539.7208 539.7208 539.7208 539.7551 545.1014
   545.1014 545.1014 545.4701 545.7001 546.0606 546.0606 546.0606 548.4433
   548.4433 549.6864 549.6864 549.6864 549.7473 549.7473 549.7473 549.8258
   549.8258 549.8258 549.9310 549.9569 549.9569 549.9569 550.1292 550.1292
   550.1325 550.1746 550.1746 550.1746 551.1895 551.1895 551.1896 555.6920

     the Fermi energy is     8.5903 ev
     (compare with:     8.5903 eV, computed in scf)

     Writing all to output data dir out/mp-1087.save/
 
     init_run     :      0.08s CPU      0.10s WALL (       1 calls)
     electrons    :    222.88s CPU    239.64s WALL (       1 calls)

     Called by init_run:
     wfcinit      :      0.00s CPU      0.00s WALL (       1 calls)
     potinit      :      0.01s CPU      0.02s WALL (       1 calls)
     hinit0       :      0.02s CPU      0.03s WALL (       1 calls)

     Called by electrons:
     c_bands      :    222.87s CPU    239.63s WALL (       1 calls)
     v_of_rho     :      0.01s CPU      0.01s WALL (       1 calls)

     Called by c_bands:
     init_us_2    :      0.00s CPU      0.00s WALL (       1 calls)
     init_us_2:cp :      0.00s CPU      0.00s WALL (       1 calls)
     cegterg      :    215.97s CPU    232.20s WALL (       1 calls)

     Called by *egterg:
     cdiaghg      :    205.67s CPU    221.84s WALL (       5 calls)
     h_psi        :      2.74s CPU      2.83s WALL (       6 calls)
     g_psi        :      0.02s CPU      0.02s WALL (       4 calls)

     Called by h_psi:
     h_psi:calbec :      0.05s CPU      0.05s WALL (       6 calls)
     vloc_psi     :      2.64s CPU      2.72s WALL (       6 calls)
     add_vuspsi   :      0.03s CPU      0.04s WALL (       6 calls)

     General routines
     calbec       :      0.05s CPU      0.05s WALL (       6 calls)
     fft          :      0.01s CPU      0.02s WALL (      10 calls)
     fftw         :      2.38s CPU      2.45s WALL (   18428 calls)
 
     Parallel routines
 
     PWSCF        :   3m43.27s CPU   4m 0.19s WALL

 
   This run was terminated on:   4:35:19  15Nov2023            

=------------------------------------------------------------------------------=
   JOB DONE.
=------------------------------------------------------------------------------=
