
     Program PWSCF v.7.1 starts on 15Nov2023 at 10:20:12 

     This program is part of the open-source Quantum ESPRESSO suite
     for quantum simulation of materials; please cite
         "P. Giannozzi et al., J. Phys.:Condens. Matter 21 395502 (2009);
         "P. Giannozzi et al., J. Phys.:Condens. Matter 29 465901 (2017);
         "P. Giannozzi et al., J. Chem. Phys. 152 154105 (2020);
          URL http://www.quantum-espresso.org", 
     in publications or presentations arising from this work. More details at
     http://www.quantum-espresso.org/quote

     Parallel version (MPI), running on    24 processors

     MPI processes distributed on     1 nodes
     123105 MiB available memory on the printing compute node when the environment starts
 
     Reading input from pw_mp-1087_scf_k3000_E80.in
Warning: card &CELL ignored
Warning: card / ignored

     Current dimensions of program PWSCF are:
     Max number of different atomic species (ntypx) = 10
     Max number of k-points (npk) =  40000
     Max angular momentum in pseudopotentials (lmaxx) =  4
 
     R & G space division:  proc/nbgrp/npool/nimage =      24
     Subspace diagonalization in iterative solution of the eigenvalue problem:
     a serial algorithm will be used

 
     Parallelization info
     --------------------
     sticks:   dense  smooth     PW     G-vecs:    dense   smooth      PW
     Min          59      59     17                 1493     1493     238
     Max          60      60     18                 1498     1498     242
     Sum        1417    1417    421                35845    35845    5769
 
     Using Slab Decomposition
 


     bravais-lattice index     =            2
     lattice parameter (alat)  =      11.4291  a.u.
     unit-cell volume          =     373.2322 (a.u.)^3
     number of atoms/cell      =            2
     number of atomic types    =            2
     number of electrons       =        16.00
     number of Kohn-Sham states=           16
     kinetic-energy cutoff     =      80.0000  Ry
     charge density cutoff     =     320.0000  Ry
     scf convergence threshold =      1.0E-10
     mixing beta               =       0.7000
     number of iterations used =            8  plain     mixing
     Exchange-correlation= PBE
                           (   1   4   3   4   0   0   0)

     celldm(1)=  11.429126  celldm(2)=   0.000000  celldm(3)=   0.000000
     celldm(4)=   0.000000  celldm(5)=   0.000000  celldm(6)=   0.000000

     crystal axes: (cart. coord. in units of alat)
               a(1) = (  -0.500000   0.000000   0.500000 )  
               a(2) = (   0.000000   0.500000   0.500000 )  
               a(3) = (  -0.500000   0.500000   0.000000 )  

     reciprocal axes: (cart. coord. in units 2 pi/alat)
               b(1) = ( -1.000000 -1.000000  1.000000 )  
               b(2) = (  1.000000  1.000000  1.000000 )  
               b(3) = ( -1.000000  1.000000 -1.000000 )  


     PseudoPot. # 1 for S  read from file:
     /usr/scratch4/magr4985/MG/HTDF/pseudo/SG15/S.upf
     MD5 check sum: f9d020296ee6110346977bfd66d424f6
     Pseudo is Norm-conserving, Zval =  6.0
     Generated using ONCVPSP code by D. R. Hamann
     Using radial grid of  602 points,  4 beta functions with: 
                l(1) =   0
                l(2) =   0
                l(3) =   1
                l(4) =   1

     PseudoPot. # 2 for Sr read from file:
     /usr/scratch4/magr4985/MG/HTDF/pseudo/SG15/Sr.upf
     MD5 check sum: 3f9bc8d6f3e8472da0cbe0e6a3044a9f
     Pseudo is Norm-conserving, Zval = 10.0
     Generated using ONCVPSP code by D. R. Hamann
     Using radial grid of  602 points,  6 beta functions with: 
                l(1) =   0
                l(2) =   0
                l(3) =   1
                l(4) =   1
                l(5) =   2
                l(6) =   2

     atomic species   valence    mass     pseudopotential
        S              6.00    32.06500     S ( 1.00)
        Sr            10.00    87.62000     Sr( 1.00)

     48 Sym. Ops., with inversion, found



   Cartesian axes

     site n.     atom                  positions (alat units)
         1           Sr  tau(   1) = (   0.0000000   0.0000000   0.0000000  )
         2           S   tau(   2) = (  -0.5000000   0.5000000   0.5000000  )

     number of k points=    72  Gaussian smearing, width (Ry)=  0.0005
                       cart. coord. in units 2pi/alat
        k(    1) = (   0.0000000   0.0000000   0.0000000), wk =   0.0011574
        k(    2) = (  -0.0833333   0.0833333  -0.0833333), wk =   0.0092593
        k(    3) = (  -0.1666667   0.1666667  -0.1666667), wk =   0.0092593
        k(    4) = (  -0.2500000   0.2500000  -0.2500000), wk =   0.0092593
        k(    5) = (  -0.3333333   0.3333333  -0.3333333), wk =   0.0092593
        k(    6) = (  -0.4166667   0.4166667  -0.4166667), wk =   0.0092593
        k(    7) = (   0.5000000  -0.5000000   0.5000000), wk =   0.0046296
        k(    8) = (   0.0000000   0.1666667   0.0000000), wk =   0.0069444
        k(    9) = (  -0.0833333   0.2500000  -0.0833333), wk =   0.0277778
        k(   10) = (  -0.1666667   0.3333333  -0.1666667), wk =   0.0277778
        k(   11) = (  -0.2500000   0.4166667  -0.2500000), wk =   0.0277778
        k(   12) = (  -0.3333333   0.5000000  -0.3333333), wk =   0.0277778
        k(   13) = (   0.5833333  -0.4166667   0.5833333), wk =   0.0277778
        k(   14) = (   0.5000000  -0.3333333   0.5000000), wk =   0.0277778
        k(   15) = (   0.4166667  -0.2500000   0.4166667), wk =   0.0277778
        k(   16) = (   0.3333333  -0.1666667   0.3333333), wk =   0.0277778
        k(   17) = (   0.2500000  -0.0833333   0.2500000), wk =   0.0277778
        k(   18) = (   0.1666667  -0.0000000   0.1666667), wk =   0.0138889
        k(   19) = (   0.0000000   0.3333333   0.0000000), wk =   0.0069444
        k(   20) = (  -0.0833333   0.4166667  -0.0833333), wk =   0.0277778
        k(   21) = (  -0.1666667   0.5000000  -0.1666667), wk =   0.0277778
        k(   22) = (  -0.2500000   0.5833333  -0.2500000), wk =   0.0277778
        k(   23) = (   0.6666667  -0.3333333   0.6666667), wk =   0.0277778
        k(   24) = (   0.5833333  -0.2500000   0.5833333), wk =   0.0277778
        k(   25) = (   0.5000000  -0.1666667   0.5000000), wk =   0.0277778
        k(   26) = (   0.4166667  -0.0833333   0.4166667), wk =   0.0277778
        k(   27) = (   0.3333333   0.0000000   0.3333333), wk =   0.0138889
        k(   28) = (   0.0000000   0.5000000   0.0000000), wk =   0.0069444
        k(   29) = (  -0.0833333   0.5833333  -0.0833333), wk =   0.0277778
        k(   30) = (  -0.1666667   0.6666667  -0.1666667), wk =   0.0277778
        k(   31) = (   0.7500000  -0.2500000   0.7500000), wk =   0.0277778
        k(   32) = (   0.6666667  -0.1666667   0.6666667), wk =   0.0277778
        k(   33) = (   0.5833333  -0.0833333   0.5833333), wk =   0.0277778
        k(   34) = (   0.5000000   0.0000000   0.5000000), wk =   0.0138889
        k(   35) = (   0.0000000   0.6666667   0.0000000), wk =   0.0069444
        k(   36) = (  -0.0833333   0.7500000  -0.0833333), wk =   0.0277778
        k(   37) = (   0.8333333  -0.1666667   0.8333333), wk =   0.0277778
        k(   38) = (   0.7500000  -0.0833333   0.7500000), wk =   0.0277778
        k(   39) = (   0.6666667  -0.0000000   0.6666667), wk =   0.0138889
        k(   40) = (   0.0000000   0.8333333   0.0000000), wk =   0.0069444
        k(   41) = (   0.9166667  -0.0833333   0.9166667), wk =   0.0277778
        k(   42) = (   0.8333333   0.0000000   0.8333333), wk =   0.0138889
        k(   43) = (   0.0000000  -1.0000000   0.0000000), wk =   0.0034722
        k(   44) = (  -0.1666667   0.3333333   0.0000000), wk =   0.0277778
        k(   45) = (  -0.2500000   0.4166667  -0.0833333), wk =   0.0555556
        k(   46) = (  -0.3333333   0.5000000  -0.1666667), wk =   0.0555556
        k(   47) = (   0.5833333  -0.4166667   0.7500000), wk =   0.0555556
        k(   48) = (   0.5000000  -0.3333333   0.6666667), wk =   0.0277778
        k(   49) = (  -0.1666667   0.5000000   0.0000000), wk =   0.0277778
        k(   50) = (  -0.2500000   0.5833333  -0.0833333), wk =   0.0555556
        k(   51) = (   0.6666667  -0.3333333   0.8333333), wk =   0.0555556
        k(   52) = (   0.5833333  -0.2500000   0.7500000), wk =   0.0555556
        k(   53) = (   0.5000000  -0.1666667   0.6666667), wk =   0.0555556
        k(   54) = (   0.4166667  -0.0833333   0.5833333), wk =   0.0555556
        k(   55) = (   0.3333333   0.0000000   0.5000000), wk =   0.0277778
        k(   56) = (  -0.1666667   0.6666667  -0.0000000), wk =   0.0277778
        k(   57) = (   0.7500000  -0.2500000   0.9166667), wk =   0.0555556
        k(   58) = (   0.6666667  -0.1666667   0.8333333), wk =   0.0555556
        k(   59) = (   0.5833333  -0.0833333   0.7500000), wk =   0.0555556
        k(   60) = (   0.5000000   0.0000000   0.6666667), wk =   0.0277778
        k(   61) = (   0.8333333  -0.1666667   1.0000000), wk =   0.0277778
        k(   62) = (   0.7500000  -0.0833333   0.9166667), wk =   0.0555556
        k(   63) = (   0.6666667   0.0000000   0.8333333), wk =   0.0277778
        k(   64) = (  -0.1666667  -1.0000000  -0.0000000), wk =   0.0138889
        k(   65) = (   0.6666667  -0.3333333   1.0000000), wk =   0.0277778
        k(   66) = (   0.5833333  -0.2500000   0.9166667), wk =   0.0555556
        k(   67) = (   0.5000000  -0.1666667   0.8333333), wk =   0.0277778
        k(   68) = (   0.6666667  -0.1666667   1.0000000), wk =   0.0277778
        k(   69) = (   0.5833333  -0.0833333   0.9166667), wk =   0.0555556
        k(   70) = (   0.5000000   0.0000000   0.8333333), wk =   0.0277778
        k(   71) = (  -0.3333333  -1.0000000   0.0000000), wk =   0.0138889
        k(   72) = (  -0.5000000  -1.0000000   0.0000000), wk =   0.0069444

     Dense  grid:    35845 G-vectors     FFT dimensions: (  45,  45,  45)

     Estimated max dynamical RAM per process >       4.17 MB

     Estimated total dynamical RAM >     100.12 MB

     Initial potential from superposition of free atoms

     starting charge      15.7089, renormalised to      16.0000
     Starting wfcs are random

     total cpu time spent up to now is        1.2 secs

     Self-consistent Calculation

     iteration #  1     ecut=    80.00 Ry     beta= 0.70
     Davidson diagonalization with overlap
     ethr =  1.00E-02,  avg # of iterations =  8.7

     Threshold (ethr) on eigenvalues was too large:
     Diagonalizing with lowered threshold

     Davidson diagonalization with overlap
     ethr =  6.58E-04,  avg # of iterations =  1.4

     total cpu time spent up to now is        3.6 secs

     total energy              =     -83.00099891 Ry
     estimated scf accuracy    <       0.10645221 Ry

     iteration #  2     ecut=    80.00 Ry     beta= 0.70
     Davidson diagonalization with overlap
     ethr =  6.65E-04,  avg # of iterations =  2.6

     total cpu time spent up to now is        4.4 secs

     total energy              =     -83.02873384 Ry
     estimated scf accuracy    <       0.04910162 Ry

     iteration #  3     ecut=    80.00 Ry     beta= 0.70
     Davidson diagonalization with overlap
     ethr =  3.07E-04,  avg # of iterations =  2.1

     total cpu time spent up to now is        5.0 secs

     total energy              =     -83.03957574 Ry
     estimated scf accuracy    <       0.00074022 Ry

     iteration #  4     ecut=    80.00 Ry     beta= 0.70
     Davidson diagonalization with overlap
     c_bands:  1 eigenvalues not converged
     ethr =  4.63E-06,  avg # of iterations =  8.2

     total cpu time spent up to now is        6.2 secs

     total energy              =     -83.03968190 Ry
     estimated scf accuracy    <       0.00001041 Ry

     iteration #  5     ecut=    80.00 Ry     beta= 0.70
     Davidson diagonalization with overlap
     ethr =  6.51E-08,  avg # of iterations =  2.5

     total cpu time spent up to now is        6.9 secs

     total energy              =     -83.03968577 Ry
     estimated scf accuracy    <       0.00000041 Ry

     iteration #  6     ecut=    80.00 Ry     beta= 0.70
     Davidson diagonalization with overlap
     ethr =  2.57E-09,  avg # of iterations =  2.5

     total cpu time spent up to now is        7.7 secs

     total energy              =     -83.03968600 Ry
     estimated scf accuracy    <       0.00000002 Ry

     iteration #  7     ecut=    80.00 Ry     beta= 0.70
     Davidson diagonalization with overlap
     ethr =  9.62E-11,  avg # of iterations =  2.3

     total cpu time spent up to now is        8.4 secs

     total energy              =     -83.03968600 Ry
     estimated scf accuracy    <          2.9E-10 Ry

     iteration #  8     ecut=    80.00 Ry     beta= 0.70
     Davidson diagonalization with overlap
     ethr =  1.81E-12,  avg # of iterations =  3.8

     total cpu time spent up to now is        9.3 secs

     End of self-consistent calculation

          k = 0.0000 0.0000 0.0000 (  4573 PWs)   bands (ev):

   -27.8248  -9.7674  -9.7674  -9.7674  -5.1091   5.6599   5.6599   5.6599
     9.2516  10.1065  10.1065  10.1065  10.9821  10.9821  15.4273  20.5688

          k =-0.0833 0.0833-0.0833 (  4543 PWs)   bands (ev):

   -27.8237  -9.7947  -9.7689  -9.7689  -5.0581   5.3972   5.5671   5.5671
     9.5327  10.1398  10.2184  10.2184  11.1762  11.1762  15.7270  19.8704

          k =-0.1667 0.1667-0.1667 (  4498 PWs)   bands (ev):

   -27.8206  -9.8669  -9.7729  -9.7729  -4.9194   4.8160   5.3378   5.3378
     9.8950  10.5351  10.5351  10.5575  11.7179  11.7179  16.4891  18.6894

          k =-0.2500 0.2500-0.2500 (  4531 PWs)   bands (ev):

   -27.8163  -9.9608  -9.7784  -9.7784  -4.7302   4.1883   5.0667   5.0667
    10.0685  11.0275  11.0275  11.3976  12.5049  12.5049  16.7774  18.0467

          k =-0.3333 0.3333-0.3333 (  4546 PWs)   bands (ev):

   -27.8121 -10.0499  -9.7838  -9.7838  -4.5400   3.6594   4.8302   4.8302
    10.3480  11.6599  11.6599  12.0831  13.4088  13.4088  16.1993  16.7995

          k =-0.4167 0.4167-0.4167 (  4500 PWs)   bands (ev):

   -27.8090 -10.1125  -9.7878  -9.7878  -4.3990   3.3098   4.6735   4.6735
    10.7421  12.2074  12.3337  12.3337  14.2463  14.2463  15.7212  15.7212

          k = 0.5000-0.5000 0.5000 (  4476 PWs)   bands (ev):

   -27.8078 -10.1349  -9.7893  -9.7893  -4.3469   3.1876   4.6190   4.6190
    11.0040  12.0481  12.6993  12.6993  14.6542  14.6542  15.1949  15.1950

          k = 0.0000 0.1667 0.0000 (  4561 PWs)   bands (ev):

   -27.8233  -9.7948  -9.7735  -9.7735  -5.0438   5.2397   5.5964   5.5964
     9.5808   9.9011  10.3717  10.3717  11.0441  11.4560  15.8208  19.7811

          k =-0.0833 0.2500-0.0833 (  4521 PWs)   bands (ev):

   -27.8209  -9.8473  -9.7802  -9.7759  -4.9419   4.8067   5.4177   5.4616
     9.7787  10.0255  10.7121  10.7125  11.3035  12.0789  16.4283  18.7602

          k =-0.1667 0.3333-0.1667 (  4522 PWs)   bands (ev):

   -27.8170  -9.9305  -9.7873  -9.7796  -4.7805   4.2963   5.1200   5.2271
     9.8325  10.6623  11.1948  11.2530  11.9043  12.8877  16.9371  17.9101

          k =-0.2500 0.4167-0.2500 (  4533 PWs)   bands (ev):

   -27.8128 -10.0176  -9.7927  -9.7861  -4.6022   3.8173   4.8492   4.9771
    10.0581  11.3368  11.8091  11.9172  12.6962  13.6773  16.2399  16.8923

          k =-0.3333 0.5000-0.3333 (  4516 PWs)   bands (ev):

   -27.8093 -10.0860  -9.7952  -9.7938  -4.4537   3.4569   4.6706   4.7739
    10.4493  11.9727  12.2922  12.4633  13.5188  14.3011  15.7521  15.9365

          k = 0.5833-0.4167 0.5833 (  4506 PWs)   bands (ev):

   -27.8075 -10.1204  -9.8003  -9.7939  -4.3754   3.2769   4.6055   4.6541
    10.8851  11.9430  12.6984  12.7522  14.3232  14.7089  15.1173  15.4130

          k = 0.5000-0.3333 0.5000 (  4509 PWs)   bands (ev):

   -27.8079 -10.1134  -9.8040  -9.7894  -4.3894   3.3086   4.6352   4.6565
    10.8518  12.0025  12.3355  12.8263  13.8831  15.0113  15.3604  15.5124

          k = 0.4167-0.2500 0.4167 (  4515 PWs)   bands (ev):

   -27.8103 -10.0668  -9.8036  -9.7827  -4.4919   3.5492   4.7199   4.8141
    10.4563  11.6669  12.0395  12.3747  13.1789  14.2576  15.9203  16.5049

          k = 0.3333-0.1667 0.3333 (  4520 PWs)   bands (ev):

   -27.8142  -9.9909  -9.7989  -9.7757  -4.6542   3.9635   4.8971   5.0531
    10.1517  11.0475  11.3548  11.7524  12.6477  13.3092  16.4161  17.2675

          k = 0.2500-0.0833 0.2500 (  4514 PWs)   bands (ev):

   -27.8184  -9.9040  -9.7907  -9.7702  -4.8328   4.4876   5.1377   5.3221
    10.0150  10.5499  10.5746  11.1450  11.9506  12.4002  16.9087  17.7254

          k = 0.1667-0.0000 0.1667 (  4509 PWs)   bands (ev):

   -27.8219  -9.8311  -9.7798  -9.7677  -4.9806   5.0236   5.3879   5.5257
     9.8662  10.0647  10.2895  10.6326  11.3571  11.6559  16.1818  18.9381

          k = 0.0000 0.3333 0.0000 (  4516 PWs)   bands (ev):

   -27.8192  -9.8595  -9.7901  -9.7901  -4.8949   4.5278   5.4573   5.4573
     9.4355  10.0880  11.0908  11.0908  11.2207  12.7571  16.8283  18.5538

          k =-0.0833 0.4167-0.0833 (  4538 PWs)   bands (ev):

   -27.8160  -9.9136  -9.7998  -9.7968  -4.7924   4.2097   5.2723   5.3266
     9.3193  10.4958  11.4378  11.5781  11.6702  13.5390  17.1807  17.6403

          k =-0.1667 0.5000-0.1667 (  4524 PWs)   bands (ev):

   -27.8122  -9.9829  -9.8069  -9.8046  -4.6624   3.9226   4.9684   5.1238
     9.4577  11.1566  11.9556  12.1124  12.3237  14.1167  16.1227  16.9763

          k =-0.2500 0.5833-0.2500 (  4519 PWs)   bands (ev):

   -27.8087 -10.0438  -9.8164  -9.8094  -4.5387   3.6876   4.7085   4.9154
     9.8130  11.8607  12.5469  12.6484  12.9365  14.1816  15.4490  16.1930

          k = 0.6667-0.3333 0.6667 (  4498 PWs)   bands (ev):

   -27.8065 -10.0810  -9.8296  -9.8066  -4.4532   3.5254   4.5819   4.7523
    10.3484  11.9418  12.9062  12.9139  13.7185  14.2772  14.9835  15.8344

          k = 0.5833-0.2500 0.5833 (  4498 PWs)   bands (ev):

   -27.8062 -10.0870  -9.8395  -9.7994  -4.4286   3.4716   4.6012   4.6653
    10.8843  11.5654  12.4776  13.0193  13.8681  14.7474  15.4045  15.7957

          k = 0.5000-0.1667 0.5000 (  4518 PWs)   bands (ev):

   -27.8079 -10.0618  -9.8422  -9.7896  -4.4725   3.5535   4.6683   4.7404
    10.7175  11.7904  11.8442  12.5610  13.2951  15.0838  15.8260  16.1415

          k = 0.4167-0.0833 0.4167 (  4520 PWs)   bands (ev):

   -27.8111 -10.0132  -9.8345  -9.7798  -4.5739   3.7719   4.7607   4.9563
    10.4152  11.2608  11.3362  12.4822  12.7390  14.2315  15.9327  16.9958

          k = 0.3333 0.0000 0.3333 (  4535 PWs)   bands (ev):

   -27.8150  -9.9555  -9.8159  -9.7727  -4.7060   4.1007   4.9279   5.1818
    10.2227  10.7556  10.8236  11.7601  12.5179  13.2704  16.5343  17.2920

          k = 0.0000 0.5000 0.0000 (  4552 PWs)   bands (ev):

   -27.8136  -9.9266  -9.8127  -9.8127  -4.7649   4.0646   5.3258   5.3258
     8.9350  10.6110  11.4827  12.0859  12.0859  14.2446  16.6902  17.5411

          k =-0.0833 0.5833-0.0833 (  4529 PWs)   bands (ev):

   -27.8105  -9.9646  -9.8242  -9.8225  -4.7065   3.9555   5.1592   5.2244
     8.8704  11.0430  11.7732  12.5950  12.6333  14.6401  15.6822  17.0577

          k =-0.1667 0.6667-0.1667 (  4504 PWs)   bands (ev):

   -27.8074 -10.0041  -9.8414  -9.8266  -4.6320   3.9005   4.8594   5.0622
     9.1084  11.7195  12.3315  12.9502  13.0805  14.1999  15.1495  16.5701

          k = 0.7500-0.2500 0.7500 (  4507 PWs)   bands (ev):

   -27.8052 -10.0301  -9.8646  -9.8239  -4.5593   3.8631   4.6000   4.8919
     9.5839  12.1842  13.0730  13.0851  13.1547  13.6922  15.0094  16.4249

          k = 0.6667-0.1667 0.6667 (  4494 PWs)   bands (ev):

   -27.8045 -10.0387  -9.8850  -9.8151  -4.5066   3.7815   4.5219   4.7567
    10.2496  11.7647  12.7458  12.9824  13.8057  14.0086  15.3597  16.6232

          k = 0.5833-0.0833 0.5833 (  4505 PWs)   bands (ev):

   -27.8055 -10.0349  -9.8898  -9.8026  -4.4889   3.6909   4.6165   4.6836
    10.9857  11.3009  12.1788  12.3254  14.0175  14.9263  15.7544  16.3579

          k = 0.5000 0.0000 0.5000 (  4514 PWs)   bands (ev):

   -27.8080 -10.0266  -9.8705  -9.7897  -4.5131   3.6769   4.6851   4.7880
    10.8078  11.4409  11.6518  12.2475  13.3650  15.0825  15.8909  16.5398

          k = 0.0000 0.6667 0.0000 (  4528 PWs)   bands (ev):

   -27.8081  -9.9721  -9.8354  -9.8354  -4.7240   3.9817   5.2418   5.2418
     8.5263  11.1750  11.7745  13.0730  13.0730  14.7285  15.2699  17.0777

          k =-0.0833 0.7500-0.0833 (  4512 PWs)   bands (ev):

   -27.8057  -9.9883  -9.8509  -9.8422  -4.7096   4.0408   5.0888   5.1705
     8.5422  11.5987  12.0517  13.3394  13.4030  14.0326  15.1743  17.0534

          k = 0.8333-0.1667 0.8333 (  4494 PWs)   bands (ev):

   -27.8039  -9.9942  -9.8821  -9.8410  -4.6655   4.1307   4.7623   5.0387
     8.8805  12.2538  12.5731  13.0175  13.4221  13.5124  15.2070  17.1835

          k = 0.7500-0.0833 0.7500 (  4494 PWs)   bands (ev):

   -27.8032  -9.9847  -9.9239  -9.8323  -4.6022   4.1772   4.4545   4.8898
     9.4576  12.3100  12.9117  13.0941  13.2696  13.2883  15.5902  17.0828

          k = 0.6667-0.0000 0.6667 (  4490 PWs)   bands (ev):

   -27.8038  -9.9954  -9.9311  -9.8183  -4.5369   3.9414   4.4817   4.7624
    10.2139  11.7677  12.4907  12.6282  13.9751  14.1052  16.0355  16.1535

          k = 0.0000 0.8333 0.0000 (  4516 PWs)   bands (ev):

   -27.8041  -9.9925  -9.8520  -9.8520  -4.7507   4.1411   5.2038   5.2038
     8.2658  11.6380  12.0126  13.6364  13.6364  13.6549  15.1314  17.5652

          k = 0.9167-0.0833 0.9167 (  4493 PWs)   bands (ev):

   -27.8030  -9.9927  -9.8686  -9.8535  -4.7435   4.2299   5.0497   5.1516
     8.3715  11.9257  12.2274  13.3107  13.5322  13.6592  15.1302  18.0700

          k = 0.8333 0.0000 0.8333 (  4496 PWs)   bands (ev):

   -27.8026  -9.9791  -9.9062  -9.8463  -4.6891   4.3059   4.6878   5.0343
     8.8021  12.4484  12.6682  12.9373  13.1429  13.4458  15.4451  17.7890

          k = 0.0000-1.0000 0.0000 (  4456 PWs)   bands (ev):

   -27.8026  -9.9974  -9.8581  -9.8581  -4.7721   4.2505   5.1942   5.1942
     8.1769  11.7690  12.1061  13.3448  13.7555  13.7555  14.9202  18.7266

          k =-0.1667 0.3333 0.0000 (  4511 PWs)   bands (ev):

   -27.8181  -9.8953  -9.7970  -9.7775  -4.8368   4.4234   5.2236   5.3705
     9.7051  10.3397  10.9478  11.2418  11.6730  12.8253  17.0429  17.6205

          k =-0.2500 0.4167-0.0833 (  4530 PWs)   bands (ev):

   -27.8142  -9.9643  -9.8117  -9.7815  -4.6942   4.0362   4.9690   5.1595
     9.8076  10.8837  11.3797  11.8103  12.3336  13.6103  16.4686  17.3027

          k =-0.3333 0.5000-0.1667 (  4521 PWs)   bands (ev):

   -27.8104 -10.0328  -9.8206  -9.7890  -4.5523   3.7077   4.7532   4.9230
    10.0828  11.5241  11.9704  12.4924  12.7938  14.2406  15.8387  16.5849

          k = 0.5833-0.4167 0.7500 (  4507 PWs)   bands (ev):

   -27.8075 -10.0819  -9.8241  -9.7968  -4.4484   3.4858   4.6275   4.7393
    10.5185  11.8740  12.3988  12.8764  13.3863  14.8605  15.2786  15.8436

          k = 0.5000-0.3333 0.6667 (  4498 PWs)   bands (ev):

   -27.8065 -10.0996  -9.8246  -9.8004  -4.4104   3.4071   4.5957   4.6628
    10.8798  11.5871  12.8032  12.9423  14.0474  14.5686  15.4197  15.4437

          k =-0.1667 0.5000 0.0000 (  4529 PWs)   bands (ev):

   -27.8129  -9.9535  -9.8205  -9.8005  -4.7128   4.0037   5.1142   5.2211
     9.2357  10.8479  11.7789  11.9643  12.3013  14.1746  16.2938  17.2955

          k =-0.2500 0.5833-0.0833 (  4521 PWs)   bands (ev):

   -27.8094  -9.9998  -9.8373  -9.8075  -4.6197   3.8519   4.8714   5.0379
     9.4281  11.3806  12.3815  12.4316  12.7788  14.3476  15.5356  16.7592

          k = 0.6667-0.3333 0.8333 (  4520 PWs)   bands (ev):

   -27.8066 -10.0374  -9.8495  -9.8154  -4.5368   3.7502   4.6556   4.8584
     9.8353  11.8964  12.6032  12.9012  13.2332  14.3356  15.0816  16.2535

          k = 0.5833-0.2500 0.7500 (  4498 PWs)   bands (ev):

   -27.8052 -10.0562  -9.8603  -9.8163  -4.4853   3.6805   4.5625   4.7310
    10.4156  11.5331  13.0068  13.0875  13.4460  14.4257  15.2265  16.1093

          k = 0.5000-0.1667 0.6667 (  4500 PWs)   bands (ev):

   -27.8055 -10.0532  -9.8667  -9.8089  -4.4786   3.6512   4.6051   4.6903
    10.7770  11.2742  12.5680  12.7738  13.7539  14.8232  15.5115  15.9930

          k = 0.4167-0.0833 0.5833 (  4508 PWs)   bands (ev):

   -27.8076 -10.0317  -9.8616  -9.7975  -4.5196   3.6928   4.6874   4.8022
    10.3522  11.5768  12.1651  12.3574  13.3327  14.9505  15.4212  16.4941

          k = 0.3333 0.0000 0.5000 (  4509 PWs)   bands (ev):

   -27.8108  -9.9996  -9.8417  -9.7872  -4.5984   3.8230   4.8049   4.9991
    10.0075  11.1864  11.6916  12.5261  12.6544  14.2632  15.8671  17.0186

          k =-0.1667 0.6667-0.0000 (  4516 PWs)   bands (ev):

   -27.8077  -9.9853  -9.8440  -9.8293  -4.6772   3.9513   5.0437   5.1211
     8.8492  11.3938  12.1163  12.9959  13.0598  14.4337  15.2041  16.9371

          k = 0.7500-0.2500 0.9167 (  4507 PWs)   bands (ev):

   -27.8053 -10.0010  -9.8652  -9.8380  -4.6315   3.9949   4.7911   4.9755
     9.1360  11.8744  12.5744  13.0784  13.3142  13.8901  15.1455  16.7676

          k = 0.6667-0.1667 0.8333 (  4499 PWs)   bands (ev):

   -27.8039 -10.0051  -9.8935  -9.8371  -4.5803   4.0314   4.5481   4.8385
     9.6530  11.9333  12.6663  13.2319  13.3591  13.8637  15.3906  16.8630

          k = 0.5833-0.0833 0.7500 (  4501 PWs)   bands (ev):

   -27.8038 -10.0051  -9.9130  -9.8266  -4.5369   3.9372   4.5126   4.7331
    10.3503  11.3356  12.6040  13.0236  13.4341  14.6987  15.7237  16.3473

          k = 0.5000 0.0000 0.6667 (  4515 PWs)   bands (ev):

   -27.8052 -10.0174  -9.8993  -9.8117  -4.5141   3.7814   4.6410   4.6804
    10.7920  11.1437  12.1768  12.5766  13.9150  14.9720  15.5401  16.3612

          k = 0.8333-0.1667 1.0000 (  4503 PWs)   bands (ev):

   -27.8039  -9.9909  -9.8612  -9.8561  -4.7073   4.1448   4.9951   5.0714
     8.6032  11.8435  12.4078  13.1548  13.6127  13.6189  15.2239  17.3653

          k = 0.7500-0.0833 0.9167 (  4500 PWs)   bands (ev):

   -27.8029  -9.9805  -9.8954  -9.8561  -4.6699   4.2626   4.6939   4.9518
     8.9828  12.1878  12.5257  13.1135  13.2398  13.6360  15.5044  17.5659

          k = 0.6667 0.0000 0.8333 (  4498 PWs)   bands (ev):

   -27.8029  -9.9543  -9.9472  -9.8443  -4.6073   4.2991   4.3955   4.8335
     9.5884  11.9138  12.6184  12.9441  13.3902  13.9833  15.8542  16.8735

          k =-0.1667-1.0000-0.0000 (  4480 PWs)   bands (ev):

   -27.8026  -9.9881  -9.8681  -9.8675  -4.7298   4.2784   4.9678   5.0574
     8.5194  11.9694  12.5375  13.1176  13.2417  13.7611  15.2648  18.2805

          k = 0.6667-0.3333 1.0000 (  4520 PWs)   bands (ev):

   -27.8066 -10.0093  -9.8674  -9.8181  -4.5778   3.8506   4.7525   4.8721
     9.6821  11.6201  12.4005  12.7979  13.2696  14.4700  15.1625  16.6661

          k = 0.5833-0.2500 0.9167 (  4504 PWs)   bands (ev):

   -27.8046 -10.0121  -9.8874  -9.8318  -4.5478   3.8989   4.6267   4.7336
    10.1348  11.4607  12.3052  13.1697  13.5829  14.5415  15.4261  16.4336

          k = 0.5000-0.1667 0.8333 (  4494 PWs)   bands (ev):

   -27.8038 -10.0124  -9.8940  -9.8384  -4.5369   3.9331   4.5550   4.6921
    10.6617  10.8454  12.8614  12.9830  13.3564  15.0659  15.5669  16.2750

          k = 0.6667-0.1667 1.0000 (  4504 PWs)   bands (ev):

   -27.8036  -9.9866  -9.8863  -9.8595  -4.6179   4.1273   4.6808   4.8044
     9.4660  11.8900  12.1696  13.3683  13.5644  13.8405  15.5902  16.9097

          k = 0.5833-0.0833 0.9167 (  4497 PWs)   bands (ev):

   -27.8029  -9.9657  -9.9161  -9.8671  -4.5948   4.2342   4.5151   4.6982
    10.0091  11.2586  12.4061  12.9184  13.6469  14.7846  15.9705  16.7381

          k = 0.5000 0.0000 0.8333 (  4501 PWs)   bands (ev):

   -27.8032  -9.9751  -9.9204  -9.8531  -4.5690   4.1048   4.5614   4.6541
    10.6332  10.7046  12.3974  13.0929  13.4775  15.4701  15.5851  16.3738

          k =-0.3333-1.0000 0.0000 (  4496 PWs)   bands (ev):

   -27.8025  -9.9628  -9.8932  -9.8879  -4.6438   4.3690   4.5646   4.7840
     9.3919  11.8905  12.1707  12.9740  13.7723  13.9550  15.8668  17.4537

          k =-0.5000-1.0000 0.0000 (  4488 PWs)   bands (ev):

   -27.8025  -9.9281  -9.9281  -9.8977  -4.6000   4.3812   4.5370   4.5370
    10.5728  10.5728  12.3106  12.8009  13.7779  15.6029  15.9731  16.6070

     the Fermi energy is     6.9854 ev

!    total energy              =     -83.03968600 Ry
     estimated scf accuracy    <          2.4E-11 Ry
     smearing contrib. (-TS)   =      -0.00000000 Ry
     internal energy E=F+TS    =     -83.03968600 Ry

     The total energy is F=E-TS. E is the sum of the following terms:
     one-electron contribution =     -17.61397878 Ry
     hartree contribution      =      13.90725402 Ry
     xc contribution           =     -13.33411011 Ry
     ewald contribution        =     -65.99885114 Ry

     convergence has been achieved in   8 iterations

     Writing all to output data dir out/mp-1087.save/
 
     init_run     :      0.89s CPU      1.11s WALL (       1 calls)
     electrons    :      7.37s CPU      8.17s WALL (       1 calls)

     Called by init_run:
     wfcinit      :      0.87s CPU      1.06s WALL (       1 calls)
     potinit      :      0.01s CPU      0.01s WALL (       1 calls)
     hinit0       :      0.01s CPU      0.03s WALL (       1 calls)

     Called by electrons:
     c_bands      :      6.43s CPU      7.00s WALL (       9 calls)
     sum_band     :      0.91s CPU      1.06s WALL (       9 calls)
     v_of_rho     :      0.02s CPU      0.02s WALL (       9 calls)
     mix_rho      :      0.01s CPU      0.01s WALL (       9 calls)

     Called by c_bands:
     init_us_2    :      0.08s CPU      0.08s WALL (    1368 calls)
     init_us_2:cp :      0.07s CPU      0.08s WALL (    1368 calls)
     cegterg      :      6.01s CPU      6.32s WALL (     648 calls)

     Called by *egterg:
     cdiaghg      :      0.87s CPU      0.92s WALL (    3020 calls)
     h_psi        :      5.51s CPU      5.87s WALL (    3164 calls)
     g_psi        :      0.03s CPU      0.03s WALL (    2444 calls)

     Called by h_psi:
     h_psi:calbec :      0.19s CPU      0.19s WALL (    3164 calls)
     vloc_psi     :      5.23s CPU      5.57s WALL (    3164 calls)
     add_vuspsi   :      0.07s CPU      0.08s WALL (    3164 calls)

     General routines
     calbec       :      0.18s CPU      0.19s WALL (    3164 calls)
     fft          :      0.01s CPU      0.03s WALL (      90 calls)
     ffts         :      0.00s CPU      0.00s WALL (       9 calls)
     fftw         :      5.71s CPU      6.10s WALL (   74052 calls)
     davcio       :      0.09s CPU      0.40s WALL (    2156 calls)
 
     Parallel routines
 
     PWSCF        :      8.49s CPU     10.39s WALL

 
   This run was terminated on:  10:20:23  15Nov2023            

=------------------------------------------------------------------------------=
   JOB DONE.
=------------------------------------------------------------------------------=
