
     Program PWSCF v.7.1 starts on 15Nov2023 at  8: 8: 1 

     This program is part of the open-source Quantum ESPRESSO suite
     for quantum simulation of materials; please cite
         "P. Giannozzi et al., J. Phys.:Condens. Matter 21 395502 (2009);
         "P. Giannozzi et al., J. Phys.:Condens. Matter 29 465901 (2017);
         "P. Giannozzi et al., J. Chem. Phys. 152 154105 (2020);
          URL http://www.quantum-espresso.org", 
     in publications or presentations arising from this work. More details at
     http://www.quantum-espresso.org/quote

     Parallel version (MPI), running on    24 processors

     MPI processes distributed on     1 nodes
     123169 MiB available memory on the printing compute node when the environment starts
 
     Reading input from pw_mp-1087_nscf_k260_E80.in
Warning: card &IONS ignored
Warning: card / ignored
Warning: card &CELL ignored
Warning: card / ignored

     Current dimensions of program PWSCF are:
     Max number of different atomic species (ntypx) = 10
     Max number of k-points (npk) =  40000
     Max angular momentum in pseudopotentials (lmaxx) =  4

     Atomic positions and unit cell read from directory:
     out/mp-1087.save/
     Atomic positions from file used, from input discarded
 
 
     R & G space division:  proc/nbgrp/npool/nimage =      24
     Subspace diagonalization in iterative solution of the eigenvalue problem:
     one sub-group per band group will be used
     scalapack distributed-memory algorithm (size of sub-group:  4*  4 procs)

 
     Parallelization info
     --------------------
     sticks:   dense  smooth     PW     G-vecs:    dense   smooth      PW
     Min          59      59     17                 1493     1493     232
     Max          60      60     18                 1498     1498     235
     Sum        1417    1417    421                35845    35845    5601
 
     Using Slab Decomposition
 


     bravais-lattice index     =            2
     lattice parameter (alat)  =      11.4291  a.u.
     unit-cell volume          =     373.2322 (a.u.)^3
     number of atoms/cell      =            2
     number of atomic types    =            2
     number of electrons       =        16.00
     number of Kohn-Sham states=         1688
     kinetic-energy cutoff     =      80.0000  Ry
     charge density cutoff     =     320.0000  Ry
     Exchange-correlation= PBE
                           (   1   4   3   4   0   0   0)

     celldm(1)=  11.429126  celldm(2)=   0.000000  celldm(3)=   0.000000
     celldm(4)=   0.000000  celldm(5)=   0.000000  celldm(6)=   0.000000

     crystal axes: (cart. coord. in units of alat)
               a(1) = (  -0.500000   0.000000   0.500000 )  
               a(2) = (   0.000000   0.500000   0.500000 )  
               a(3) = (  -0.500000   0.500000   0.000000 )  

     reciprocal axes: (cart. coord. in units 2 pi/alat)
               b(1) = ( -1.000000 -1.000000  1.000000 )  
               b(2) = (  1.000000  1.000000  1.000000 )  
               b(3) = ( -1.000000  1.000000 -1.000000 )  


     PseudoPot. # 1 for S  read from file:
     /usr/scratch4/magr4985/MG/HTDF/pseudo/SG15/S.upf
     MD5 check sum: f9d020296ee6110346977bfd66d424f6
     Pseudo is Norm-conserving, Zval =  6.0
     Generated using ONCVPSP code by D. R. Hamann
     Using radial grid of  602 points,  4 beta functions with: 
                l(1) =   0
                l(2) =   0
                l(3) =   1
                l(4) =   1

     PseudoPot. # 2 for Sr read from file:
     /usr/scratch4/magr4985/MG/HTDF/pseudo/SG15/Sr.upf
     MD5 check sum: 3f9bc8d6f3e8472da0cbe0e6a3044a9f
     Pseudo is Norm-conserving, Zval = 10.0
     Generated using ONCVPSP code by D. R. Hamann
     Using radial grid of  602 points,  6 beta functions with: 
                l(1) =   0
                l(2) =   0
                l(3) =   1
                l(4) =   1
                l(5) =   2
                l(6) =   2

     atomic species   valence    mass     pseudopotential
        S              6.00    32.06500     S ( 1.00)
        Sr            10.00    87.62000     Sr( 1.00)

     48 Sym. Ops., with inversion, found



   Cartesian axes

     site n.     atom                  positions (alat units)
         1           Sr  tau(   1) = (   0.0000000   0.0000000   0.0000000  )
         2           S   tau(   2) = (  -0.5000000   0.5000000   0.5000000  )

     number of k points=    16  Gaussian smearing, width (Ry)=  0.0005
                       cart. coord. in units 2pi/alat
        k(    1) = (   0.0000000   0.0000000   0.0000000), wk =   0.0092593
        k(    2) = (  -0.1666667   0.1666667  -0.1666667), wk =   0.0740741
        k(    3) = (  -0.3333333   0.3333333  -0.3333333), wk =   0.0740741
        k(    4) = (   0.5000000  -0.5000000   0.5000000), wk =   0.0370370
        k(    5) = (   0.0000000   0.3333333   0.0000000), wk =   0.0555556
        k(    6) = (  -0.1666667   0.5000000  -0.1666667), wk =   0.2222222
        k(    7) = (   0.6666667  -0.3333333   0.6666667), wk =   0.2222222
        k(    8) = (   0.5000000  -0.1666667   0.5000000), wk =   0.2222222
        k(    9) = (   0.3333333   0.0000000   0.3333333), wk =   0.1111111
        k(   10) = (   0.0000000   0.6666667   0.0000000), wk =   0.0555556
        k(   11) = (   0.8333333  -0.1666667   0.8333333), wk =   0.2222222
        k(   12) = (   0.6666667  -0.0000000   0.6666667), wk =   0.1111111
        k(   13) = (   0.0000000  -1.0000000   0.0000000), wk =   0.0277778
        k(   14) = (   0.6666667  -0.3333333   1.0000000), wk =   0.2222222
        k(   15) = (   0.5000000  -0.1666667   0.8333333), wk =   0.2222222
        k(   16) = (  -0.3333333  -1.0000000   0.0000000), wk =   0.1111111

     Dense  grid:    35845 G-vectors     FFT dimensions: (  45,  45,  45)

     Estimated max dynamical RAM per process >     160.21 MB

     Estimated total dynamical RAM >       3.76 GB

     The potential is recalculated from file :
     out/mp-1087.save/charge-density

     Starting wfcs are random

     Band Structure Calculation
     Davidson diagonalization with overlap

     ethr =  5.00E-06,  avg # of iterations =  7.7

     total cpu time spent up to now is     2499.2 secs

     End of band structure calculation

          k = 0.0000 0.0000 0.0000 (  4573 PWs)   bands (ev):

   -27.8248  -9.7674  -9.7674  -9.7674  -5.1090   5.6599   5.6599   5.6599
     9.2516  10.1065  10.1065  10.1065  10.9821  10.9821  15.4273  20.5688
    20.5688  20.5688  22.6134  22.6134  22.6134  24.0287  24.0287  27.8053
    27.8053  27.8053  28.2918  30.3057  30.3057  30.6243  30.6243  30.6243
    32.0092  32.0092  32.0092  38.9734  40.4675  40.4675  40.4675  41.7628
    41.9672  41.9672  41.9672  43.4519  43.4519  43.4519  44.2336  44.2336
    44.2336  45.7995  45.9722  45.9722  45.9722  47.1505  47.1505  47.1961
    47.1961  47.1961  47.8518  47.8518  49.3258  55.2016  55.2016  55.2016
    61.4463  61.4463  61.4463  63.6745  64.7095  64.7095  64.7095  65.9779
    65.9779  65.9779  66.4970  66.4970  67.7501  67.7501  67.7501  71.2808
    72.5153  72.5153  73.4347  73.4347  73.4347  74.1241  74.1241  74.1241
    75.1045  75.9489  75.9489  75.9489  76.4084  76.4084  76.4084  77.4680
    77.4680  77.4680  77.9695  77.9695  77.9695  79.0437  79.0437  79.2399
    79.2399  79.2399  79.8933  79.8933  81.3804  81.3804  81.3804  82.3613
    83.7700  83.7700  84.0791  86.8649  88.2101  88.2101  88.2101  91.8246
    91.8246  91.8246  92.5225  92.5225  92.5225  95.8766  95.8766  95.9724
    95.9724  95.9724  96.0476  96.0476  96.2352  96.2352  96.2352  96.3308
    96.3308  96.3308  97.0461  97.0461  97.0461  98.2410  98.4575  98.4575
    98.4575 100.1990 103.8423 103.9340 104.6752 104.6752 104.6752 105.4117
   105.4117 105.4117 106.1301 106.1301 106.1301 107.7506 107.7506 107.7506
   108.1742 108.1742 108.1742 112.6380 112.6380 112.7604 112.7604 112.7604
   112.9570 114.1403 118.0865 118.0865 118.2518 118.2518 118.2518 121.6626
   121.6626 121.6626 123.0958 123.0958 123.0958 123.4736 123.4736 123.4736
   124.0739 124.0739 128.3912 128.4578 128.4578 128.4578 129.6625 129.6625
   130.9591 130.9591 130.9591 134.1402 134.1402 134.1402 134.4915 134.8715
   134.8715 134.8715 135.2686 135.2686 135.2686 135.6352 135.6352 135.6352
   136.4381 136.4381 137.3435 137.5880 138.1629 138.1629 138.1629 139.2445
   139.2445 139.2445 139.3978 139.3978 139.3978 139.4947 140.1462 140.7176
   140.7176 142.5821 142.5821 142.5821 142.6805 142.6805 142.6805 143.9760
   143.9760 143.9760 144.5817 144.5817 144.6614 144.6614 144.6614 145.0004
   145.0004 145.0004 145.0988 145.0988 145.0988 145.3361 145.3361 145.3361
   145.4019 145.4019 145.6726 145.6726 145.6726 145.7374 145.7374 145.7374
   145.7567 145.7567 145.7877 153.6715 154.0735 154.0735 154.7432 154.7432
   154.7432 155.2420 155.2420 155.2420 155.6603 155.6603 155.6603 155.6634
   155.6634 155.6634 156.8472 156.8472 156.8472 162.0783 162.0783 162.0783
   162.5737 162.5737 162.6420 162.6420 162.6420 162.7399 163.0356 164.5924
   165.8596 165.8596 165.8596 168.8515 168.8515 172.8311 172.8311 172.8311
   172.9339 172.9339 172.9339 173.0287 173.1349 173.1349 173.1470 173.1470
   173.1470 173.3647 173.3647 173.3647 173.3868 173.3868 173.3868 174.6176
   175.4896 175.4896 175.8345 175.8345 175.8345 176.1933 176.1933 176.1933
   176.3400 176.3400 176.4876 176.4876 176.4876 176.8368 176.8368 176.8368
   177.2718 177.2718 177.2718 178.6602 178.6602 180.6364 183.8187 183.8187
   183.8187 187.3108 187.3108 187.3108 189.3354 189.3354 189.3354 189.7761
   190.0694 190.0694 190.0694 190.1142 194.0297 194.0297 194.3165 194.3165
   194.3165 194.6953 194.6953 194.6953 196.2453 197.2936 197.2936 197.2936
   197.8776 197.8776 198.7364 199.1327 199.1327 199.1327 200.7299 200.7299
   200.7299 203.8061 203.8061 203.8061 204.3440 204.3440 204.3440 204.5770
   204.5770 204.5770 204.6011 204.6011 204.6011 207.1805 207.3768 207.3768
   207.4470 207.4470 207.4470 208.0595 208.0595 208.0595 208.3371 208.3371
   208.4563 208.4563 208.4563 208.4635 208.4635 208.4635 208.9501 208.9501
   208.9501 209.1807 209.1807 209.1807 209.3435 211.2654 211.2654 211.2812
   211.2812 211.2812 211.3206 216.4426 216.4426 216.4426 217.5303 219.2125
   219.2125 219.2125 219.4927 220.4015 220.4015 220.6989 220.6989 220.6989
   222.2080 222.2080 222.4699 222.4699 222.4699 222.6893 222.6893 222.6893
   222.7951 222.7951 222.9161 222.9161 222.9161 222.9187 222.9187 222.9187
   223.5244 223.5244 223.5244 223.5443 227.6384 227.6384 227.6902 227.6902
   227.6902 227.7143 227.7143 227.7143 227.7143 227.7143 227.7143 227.7465
   227.7600 227.7600 227.7600 227.8749 227.8749 228.0590 228.0590 228.0590
   229.2043 229.2043 229.2043 229.4089 229.4089 229.4089 229.5026 229.5403
   229.6877 229.6877 229.6877 230.2739 230.2739 230.2739 232.2460 232.2460
   232.2460 233.3101 233.4873 233.4873 233.4873 233.8700 233.8700 234.3011
   234.3011 234.3011 234.7166 234.9157 234.9157 237.7623 237.7623 238.6059
   238.6059 238.6059 239.1350 239.1350 239.1350 239.1454 239.1454 239.1454
   240.0193 240.0193 240.0193 240.0220 240.0220 240.1217 240.5901 240.5901
   240.5901 240.6345 240.6345 240.9803 240.9803 240.9803 242.2418 242.2418
   242.2418 242.3904 242.3904 242.3904 242.5229 242.5759 242.5759 242.5759
   242.7074 242.7074 242.7074 243.6994 243.7709 243.7709 243.7709 243.8047
   243.8047 252.8773 252.8773 252.8773 260.3124 260.3124 260.3124 261.9378
   263.1352 263.1352 264.0321 264.0321 264.0321 265.0729 266.7102 266.7102
   266.7102 267.1491 267.1491 268.2576 268.3813 268.3813 268.3813 268.8317
   268.8317 268.8317 269.0187 269.4832 269.4832 269.4832 269.4918 269.4918
   269.4918 269.5346 269.5346 269.5346 269.5829 269.5829 269.5829 269.7126
   269.7126 269.7825 269.7825 269.7825 269.9325 269.9325 269.9325 270.4762
   270.5988 270.5988 270.5988 275.6859 275.6859 275.9840 275.9840 275.9840
   275.9908 275.9908 275.9908 276.1931 276.1931 276.2055 276.2055 276.2055
   276.4226 276.4226 276.4226 277.3791 277.3791 277.5115 277.5115 277.5115
   277.6601 279.3350 279.3350 279.3350 280.7246 280.7246 283.5830 283.5830
   283.5830 284.2382 284.7153 284.7153 284.7153 284.8034 284.8034 284.8034
   285.1961 285.1961 285.1961 285.6652 285.6652 287.1366 288.5358 288.5358
   288.5358 290.4744 290.7008 290.7008 290.7008 290.8128 290.8128 290.8215
   290.8215 291.3622 291.3622 291.3622 291.5307 291.5307 291.5307 291.5534
   291.5534 291.5534 292.0083 292.0083 292.0083 292.2929 292.2929 292.2929
   292.8080 296.9230 296.9230 298.5058 298.7507 298.7507 298.7507 299.7141
   299.7141 299.7141 300.4832 300.4832 300.4832 300.5739 300.5739 300.5739
   300.6497 300.6497 300.6497 300.8121 301.5435 303.2807 303.2807 303.2807
   304.4255 304.4255 304.4255 304.4491 304.4491 304.7243 304.7243 304.7243
   305.0535 305.5284 305.5284 305.5284 305.6549 305.6549 305.6598 305.6598
   305.6598 306.0571 306.9132 306.9520 306.9520 307.1136 307.1136 307.1136
   307.5103 307.5103 307.5103 307.5784 307.5784 307.5784 307.7852 307.7852
   307.7852 307.7858 307.7858 308.5157 308.5157 308.5157 308.5494 308.5494
   308.6007 308.6007 308.6007 308.6582 308.6582 308.6582 308.7063 310.6272
   310.6272 310.6272 312.5899 314.9566 314.9566 317.5922 317.5922 317.5922
   319.2543 319.2543 319.2543 319.7629 319.7629 319.7629 319.9330 319.9330
   319.9330 319.9440 319.9440 319.9440 320.0530 320.8674 321.0164 321.0164
   321.0164 321.0505 321.0505 322.7202 322.7202 322.7202 327.4713 327.4713
   327.4713 328.0994 328.7819 331.3793 331.3793 331.7445 331.7445 331.7445
   332.0243 332.0243 332.0243 332.3420 332.3420 332.3420 332.6286 332.6286
   332.6286 332.7656 332.7656 332.7794 332.7794 332.7794 334.9113 335.0881
   335.0881 335.0881 335.5016 335.5016 335.5016 335.5768 335.5768 335.5768
   335.6674 335.6674 335.6674 336.0782 336.0782 336.0782 336.4660 336.4660
   336.6806 336.6806 336.6806 336.7200 336.7200 336.9189 337.0801 337.0801
   337.0801 337.5117 337.5117 337.5117 337.8085 337.8085 337.8085 338.3858
   338.3858 338.5163 338.5163 338.5163 338.5294 338.5294 338.6051 338.6051
   338.6051 338.6111 338.6111 338.6111 338.8409 338.8409 338.8409 339.9945
   340.1073 340.1073 340.1073 340.1833 340.1833 340.1833 340.2325 342.7725
   342.7980 342.7980 342.7980 342.8188 342.8188 342.8188 342.8342 342.8342
   342.8661 342.8661 342.9364 342.9364 342.9364 343.0178 343.0178 343.0178
   343.0230 343.0230 343.0230 343.0924 343.0924 343.1463 343.2645 343.2645
   343.2645 343.3765 343.3765 343.3765 343.4743 347.4076 347.4076 347.4076
   348.6235 348.6235 348.6235 348.7944 348.8129 353.0247 353.0247 356.9155
   356.9155 356.9155 357.2888 357.2888 357.2888 357.8051 358.0152 358.0152
   358.1062 358.1062 358.1062 358.3773 358.3773 358.3773 358.5934 358.5934
   358.5934 358.6176 358.6176 358.7540 358.7540 358.7540 360.9529 360.9529
   360.9529 361.0061 361.0061 361.0061 361.3612 361.3612 361.3612 365.4916
   365.4916 365.6674 365.6674 365.6674 365.8105 370.3895 370.3998 370.3998
   370.3998 370.5757 370.5757 372.0373 372.0373 373.5939 373.5939 373.5939
   373.6983 373.6983 373.6983 373.7147 373.7147 373.7147 373.7353 373.7353
   373.7353 375.2006 375.2006 375.2138 375.2138 375.2138 375.2535 376.5243
   376.5243 376.5243 380.9646 382.1496 382.1496 382.1496 382.8028 382.8028
   382.8028 386.8166 386.8166 386.8166 386.8169 387.0105 387.0105 387.0105
   388.2262 388.2262 388.2491 388.2491 388.2491 388.3331 388.3331 388.3331
   388.5330 388.5330 388.8842 388.8842 388.8842 389.0634 389.9894 389.9894
   390.4469 390.4469 390.4469 390.7975 390.7975 390.7975 390.8535 391.2584
   392.6355 392.6355 392.6355 393.4832 393.4832 393.4832 394.0616 394.2228
   394.2228 394.2228 394.6432 394.6432 394.6432 395.0847 395.0847 397.3614
   397.3614 397.3614 398.2637 398.7193 398.7193 399.6759 399.6759 399.6759
   399.9013 399.9013 399.9013 400.1418 400.1418 400.4403 400.4403 400.4403
   400.6691 400.6691 400.6691 401.6785 401.6785 401.6785 401.7694 401.9412
   401.9412 401.9412 402.0446 404.2367 404.2367 404.2367 404.2481 404.2481
   404.3342 404.3342 404.3342 404.4520 404.4520 404.4520 404.4964 404.4964
   404.5437 404.5437 404.5437 405.7231 405.7231 405.7384 405.7384 405.7384
   405.7446 405.7446 405.7504 405.7504 405.7504 405.7518 405.7518 405.7518
   405.7731 405.7731 405.7731 405.7963 405.8332 405.8332 405.8332 405.8701
   405.8701 405.8701 405.8838 414.7542 414.7542 414.7542 415.7191 415.7191
   417.0365 417.0731 417.0731 417.0731 417.3227 417.3227 417.3227 417.4045
   417.4045 417.4045 417.4958 417.4958 417.4958 417.7112 418.4930 418.4930
   418.4930 419.0597 419.0597 419.0597 419.1211 419.1211 419.2286 419.2286
   419.2286 420.4479 420.6414 420.6414 420.6414 420.9102 420.9102 420.9280
   420.9280 420.9280 421.1597 421.1597 421.1597 422.4757 422.4757 422.9529
   422.9529 422.9529 424.5133 424.5133 424.5214 424.5214 424.5214 424.5543
   424.5543 424.5543 424.6376 424.6376 424.6376 424.6650 424.7048 424.8012
   424.8012 424.8012 424.8267 424.8267 424.9586 424.9586 424.9586 425.0040
   425.0040 425.0040 425.7310 425.7499 425.7499 425.8309 425.8309 425.8309
   425.9681 426.1078 426.1078 426.1078 426.2331 426.2331 426.2331 427.2574
   427.2574 427.2574 427.4377 427.4377 427.6284 427.6284 427.6284 427.9989
   427.9989 427.9989 428.1872 431.2986 432.0779 432.0779 432.0779 432.8802
   432.8802 432.8802 433.4192 433.4192 433.4239 433.4239 433.4239 434.6341
   434.7479 434.7479 434.7479 434.9057 434.9057 434.9057 434.9822 434.9822
   434.9822 435.0866 435.0866 435.0866 435.1031 435.1031 436.2010 436.3015
   436.3259 436.3259 436.3259 438.4815 438.4815 438.5592 438.5592 438.5821
   438.5821 438.5821 438.6025 438.7446 438.7446 438.7446 438.8029 438.8029
   438.8029 438.8044 438.8044 438.9179 438.9179 438.9179 439.0490 439.1152
   439.1152 439.1152 439.3355 439.3355 439.3355 439.3988 439.3988 439.3988
   439.4319 439.4319 439.4319 439.4778 439.5419 439.5419 439.5419 439.5450
   439.5450 439.5612 439.5612 439.5612 439.5630 439.5630 439.5630 439.6033
   439.7091 439.7091 439.7091 457.7188 457.7188 457.7188 458.6302 458.6302
   458.9798 460.3911 460.3911 460.3911 460.8669 460.8669 461.4945 462.2103
   462.2103 462.2103 462.8911 462.8911 462.8911 463.1593 463.1593 463.1593
   463.7270 463.7270 463.7270 463.8472 463.8472 463.8472 463.9850 464.0072
   464.0072 464.0103 464.0103 464.0103 464.0812 465.2614 465.2614 465.2614
   465.3880 465.3880 465.3880 466.3493 466.3493 466.3493 466.3683 466.3683
   466.3683 467.5222 467.9227 467.9227 467.9972 467.9972 468.1790 468.1790
   468.1790 468.2937 468.2937 468.2937 468.5039 468.8831 468.8831 468.8831
   469.0113 469.0113 469.0113 469.1446 469.1446 469.1446 469.4304 469.4304
   469.4837 469.4837 469.4837 469.6005 469.6005 469.6005 469.6036 469.6036
   469.6766 469.6766 469.6766 469.7588 469.7588 469.8207 469.8207 469.8207
   469.8507 469.8507 469.8507 469.8859 469.9286 469.9286 469.9286 469.9512
   469.9512 469.9512 469.9593 472.2642 472.2642 473.9911 473.9911 473.9911
   474.0276 474.0276 474.0276 474.0402 474.0402 474.1328 474.1328 474.1328
   474.1478 474.1478 474.1478 474.1958 474.1958 476.0556 476.0606 476.0606
   476.0606 476.0704 476.0704 476.0704 476.0853 476.5501 477.1007 477.1007
   477.1007 484.6473 484.8723 484.8723 484.8723 485.1692 485.1692 485.3533
   485.3533 485.3533 485.6462 485.6462 485.7281 485.7281 485.7281 485.7566
   485.7566 485.7566 485.8276 485.8276 485.8276 486.3779 486.9540 486.9540
   486.9540 488.9385 488.9385 488.9385 490.8231 490.8421 490.8421 490.8449
   490.8449 490.8449 490.9004 490.9004 490.9004 490.9741 490.9741 490.9741
   491.0323 491.0323 491.0323 491.0697 491.0697 491.0697 491.1289 491.1289
   491.2322 491.2322 491.2322 491.2823 491.3228 491.4257 492.0953 492.0953
   492.0953 499.0324 499.0324 499.0324 499.3194 499.3194 499.3194 499.5009
   499.5009 499.5009 499.5382 499.5382 499.5382 501.7524 501.7524 501.9655
   501.9655 501.9655 502.0247 502.0247 502.0247 502.1823 502.1823 502.1823
   502.2031 502.2031 502.2031 502.2165 502.2165 507.2392 507.2439 507.2439
   507.2439 507.2493 507.2493 510.5273 510.5273 510.5273 512.2070 512.3877
   512.3877 513.0872 513.0872 513.0872 513.4274 513.4274 513.4274 513.7182
   513.7182 514.4946 514.4946 514.4946 515.6176 516.5489 516.5489 516.5489
   519.3271 519.3271 519.3271 521.1204 521.1204 521.8879 521.8879 521.8879
   523.8668 524.2558 524.2558 524.2558 525.3549 525.3549 525.3549 525.7469
   525.7469 525.7469 526.1032 526.1032 526.1032 528.7419 528.9141 529.5947
   529.5947 529.5947 529.7731 529.7731 529.9765 529.9765 529.9765 530.0555
   530.0555 530.0555 530.6713 530.6713 530.6713 530.8359 530.8359 530.8359
   530.9192 530.9192 531.3960 531.3960 531.4555 531.4555 531.4555 531.6911
   531.6911 531.6911 531.8161 531.9422 531.9485 531.9485 531.9485 532.1858
   532.1858 532.1858 532.1879 532.1879 532.3243 532.3243 532.3243 532.6199
   532.6199 532.6199 532.8354 533.1754 533.1754 533.2137 533.9594 533.9594
   533.9594 534.4720 534.4720 534.5115 534.5115 534.5115 534.7694 534.7694
   534.7694 535.0319 535.0319 535.0319 535.0790 535.0790 535.0790 535.2050
   535.2050 535.2160 535.2160 535.2160 535.2446 535.3610 535.3940 535.3940
   535.3940 535.5950 535.5950 535.5950 535.6380 535.6380 535.6380 535.8471
   535.8471 537.5503 537.5503 537.6927 537.6927 537.6927 537.7624 537.7624
   537.7624 537.7955 537.7955 537.7955 537.8900 537.8900 537.8900 538.0075
   538.0075 538.1187 538.1187 538.1187 538.1342 538.1342 538.1342 538.1886
   538.1886 538.1886 538.2396 538.2396 538.2396 538.4214 538.5722 538.5722
   538.5722 538.5896 538.5925 538.5925 538.5925 538.7735 538.8576 538.8576
   538.8576 538.8915 538.8915 538.9198 538.9198 538.9198 538.9206 538.9206
   538.9206 539.7024 539.7024 539.7208 539.7208 539.7208 539.7551 545.0823
   545.0823 545.0823 545.4479 545.6781 546.0420 546.0420 546.0420 548.4192
   548.4192 549.6744 549.6744 549.6744 549.7372 549.7372 549.7372 549.8164
   549.8164 549.8164 549.9242 549.9458 549.9458 549.9458 550.1126 550.1198
   550.1198 550.1635 550.1635 550.1635 551.1864 551.1864 551.1864 555.6889
   555.6889 555.6889 555.6962 555.6962 555.6991 555.6991 555.6991 555.7088
   555.7088 555.7097 555.7097 555.7097 555.7321 555.7321 555.7321 559.8248

          k =-0.1667 0.1667-0.1667 (  4498 PWs)   bands (ev):

   -27.8206  -9.8669  -9.7729  -9.7729  -4.9194   4.8161   5.3378   5.3378
     9.8950  10.5351  10.5351  10.5575  11.7179  11.7179  16.4890  18.6893
    19.2667  19.2667  21.5845  21.5845  23.3632  24.8956  24.8956  25.9511
    27.2637  27.2637  29.6012  29.6012  30.4550  30.9363  31.6443  31.6443
    31.8616  34.1661  34.1661  37.5459  38.1522  38.1522  39.2859  39.9776
    41.4506  41.9930  41.9930  42.2347  42.3488  42.3488  44.4649  44.9728
    44.9728  45.1322  45.1322  47.0324  47.0324  47.5931  48.1343  48.1343
    48.2124  50.4781  52.2655  52.7961  52.7961  54.8308  57.1379  57.2664
    57.2664  58.2360  58.2360  62.1604  62.2762  62.2762  64.0785  64.0785
    65.5650  66.3314  66.3314  66.7534  67.4193  68.6891  68.6891  69.3202
    70.6177  70.6177  71.0516  71.6551  71.6551  72.1466  72.1466  73.9015
    73.9015  74.3170  74.9131  75.3953  77.2368  77.3775  77.3775  77.9398
    77.9398  77.9592  78.9465  78.9465  79.2726  79.2726  79.4486  80.6860
    80.9552  80.9552  80.9783  82.9616  82.9616  83.5911  85.0507  85.7530
    85.7530  86.4228  86.4228  87.1436  87.1436  87.4584  87.4584  88.4436
    89.2769  90.4529  91.0641  91.0641  91.2962  92.1609  92.9989  92.9989
    94.8483  94.8483  95.0346  95.8556  95.8556  96.0319  96.0319  96.3928
    98.3911  99.3469  99.3963  99.4004  99.4004  99.9394  99.9394 100.0891
   101.8363 101.9122 101.9122 102.0495 102.4943 102.4943 103.6966 106.1022
   106.2660 106.2660 107.1433 107.1433 107.8715 107.9516 107.9516 109.4240
   110.8095 110.8095 112.6132 112.6132 112.7406 112.8425 113.8711 113.8711
   114.4610 117.2064 117.2064 117.4599 117.4599 117.9163 119.5652 120.3135
   120.3135 121.1859 121.8668 122.2953 122.2953 122.5081 122.7722 122.7722
   123.6468 123.6468 125.4453 126.1336 126.6516 126.6516 128.4318 129.1828
   129.1828 129.2383 129.5749 130.0214 130.0214 131.6498 131.6498 132.5920
   132.7719 132.7719 133.0227 133.0227 133.7175 133.7175 134.5081 134.5414
   135.4721 136.3275 136.3275 136.9839 136.9839 137.8617 137.8910 137.8910
   138.4901 138.5409 138.8466 138.8466 139.7106 139.7106 140.0993 140.4081
   140.4081 140.8234 141.5607 141.5607 141.7029 142.2775 142.3109 142.3109
   142.9532 143.0146 143.0146 145.0625 145.0625 145.2357 145.5654 145.5654
   146.1573 146.6581 146.6581 146.9778 147.2568 147.2568 147.3266 148.1582
   148.1582 148.3220 148.8120 148.8120 148.9416 149.6132 149.7270 150.1934
   150.1934 150.4456 152.2770 152.3340 152.3340 153.3380 153.7342 153.7342
   155.5713 155.5713 155.6456 155.9829 155.9829 157.1143 158.2063 158.2414
   158.2414 158.6428 158.6428 159.0882 159.0882 161.2495 161.2495 161.7112
   161.8151 162.9076 162.9076 163.1112 163.5746 163.5746 165.3607 165.4009
   165.4009 165.6700 165.6700 166.7304 167.1053 167.3095 167.3095 168.3746
   168.3746 168.6916 168.9086 168.9086 169.0518 169.9040 169.9040 170.8220
   171.7060 171.7060 172.0125 172.0369 172.1238 172.1238 173.4005 173.4750
   173.4750 174.3592 177.4837 177.8230 177.8230 178.5610 178.7935 178.7935
   178.8242 179.7318 179.7318 180.4187 180.7618 180.7618 180.9236 182.1623
   182.1623 183.0006 184.2175 184.2175 184.6729 184.6729 184.7946 185.1092
   185.7536 187.1636 187.1636 187.2156 187.2156 189.1110 189.2198 189.2198
   189.7439 190.2637 190.2637 191.6592 191.6592 192.6225 192.9610 192.9610
   193.2410 193.4960 193.4960 194.2532 194.8443 195.0312 195.0312 195.3428
   195.3428 195.7285 196.2829 196.2829 196.4198 196.4198 196.4417 196.7003
   198.4380 198.4380 198.7774 199.2533 200.2440 200.2440 202.4055 202.4055
   202.4302 203.0504 204.5571 205.1743 205.1743 205.9337 206.9425 206.9425
   207.8496 207.9414 207.9414 208.4130 208.5254 208.5254 208.7564 208.7564
   208.8392 209.3004 209.4346 209.4346 210.1850 210.4076 210.4076 210.9625
   211.5732 211.5732 211.9369 211.9369 212.7052 212.7052 212.7224 213.5225
   213.5915 213.5915 213.9050 214.5404 214.8571 214.8571 215.0669 215.0669
   215.5408 216.0750 216.0750 216.2277 218.7889 218.7889 218.9101 219.0606
   219.7851 220.3070 220.3070 220.7339 220.7339 220.9118 220.9172 220.9172
   221.1122 221.1609 221.4937 221.4937 221.9015 221.9015 222.0512 222.0512
   222.4582 222.6753 222.6753 222.9333 223.1848 223.1848 224.3341 224.3341
   224.3985 224.5685 226.0148 226.4079 226.4079 226.7824 227.0083 227.0083
   227.2816 227.2816 227.8748 227.9787 227.9787 228.6661 228.6661 228.7503
   229.1422 229.4536 229.4536 229.7765 229.7765 230.0892 230.6007 230.6007
   230.6130 231.1611 231.2537 231.2537 231.5054 231.5054 231.5240 232.7296
   234.0245 234.6136 234.6136 234.9054 234.9054 235.5096 235.6505 235.8335
   235.8335 236.2825 236.6454 236.6454 236.8675 237.4205 237.7495 238.2793
   238.2793 238.4992 238.7845 238.7845 239.2000 239.2000 239.3504 239.3504
   239.4699 240.9905 240.9905 242.9071 243.6896 243.6896 243.9764 244.2694
   244.2694 244.9287 244.9287 245.6215 245.8674 246.4865 247.0910 247.0910
   247.5356 247.5356 248.0281 248.6023 248.6023 248.6055 249.3179 249.3179
   249.4213 249.5769 249.5769 249.7841 251.7855 251.7855 252.4884 254.4242
   254.4242 255.1607 255.4123 255.4123 255.4980 256.4294 256.5976 256.5976
   256.9361 256.9361 257.4875 257.8491 257.8491 258.1773 258.5300 258.5300
   258.9623 258.9623 259.2825 259.3531 259.3531 260.1872 260.1872 260.3437
   260.9616 264.1739 265.5519 265.5519 266.3607 266.3607 267.0885 267.0967
   267.0967 267.4341 268.2128 268.2128 268.4861 268.4861 268.6798 268.7697
   269.5988 269.5988 270.0033 270.5946 270.5946 270.6326 271.8684 271.8684
   272.0604 274.8298 275.1862 275.1862 275.5095 275.5095 276.2899 276.7751
   276.7751 277.8712 277.8712 277.9383 278.4818 278.4818 278.5576 279.0732
   279.3477 279.5230 279.8822 279.8822 280.6870 280.6870 280.7979 280.9621
   281.0676 281.0676 281.8053 281.8053 281.8243 282.1229 282.5956 282.5956
   283.4478 283.4478 284.0876 284.0876 284.3083 284.4824 284.4919 284.8175
   284.8175 285.4059 285.4059 285.6310 285.7699 286.2952 286.2952 286.4656
   286.6678 286.6678 287.0283 287.4467 287.4469 287.4469 287.7513 287.7513
   288.7486 289.1886 289.1886 289.4008 289.7170 289.7345 289.7345 292.3697
   292.3697 292.7104 292.7104 292.7819 292.9539 293.6217 293.6217 294.7112
   294.8843 294.8843 295.1681 295.1681 297.1892 297.2169 297.2169 297.7804
   298.7679 298.7679 299.6331 299.9497 299.9497 300.4384 300.4384 300.5027
   301.2324 301.3410 301.5654 301.5654 301.9966 301.9966 302.7821 302.7821
   302.8756 303.0375 303.0375 303.0803 303.2228 303.3047 303.3047 303.4351
   303.5036 304.0162 304.0162 304.2853 304.2853 304.4106 304.4324 305.1558
   305.1558 305.3274 305.3274 305.5489 306.7766 307.5490 307.5490 307.5968
   307.8670 307.8670 308.6818 308.6818 308.7417 308.8944 309.5486 309.5486
   309.7056 310.8325 310.8325 310.9705 310.9805 311.1153 311.1153 312.2726
   312.2726 313.5266 313.5266 314.2036 315.0269 315.0269 315.5635 315.5865
   315.5865 315.9778 316.1300 316.1300 317.0975 317.8783 317.8783 318.5503
   318.9888 319.0957 319.0957 319.9594 319.9594 319.9913 320.4924 320.4972
   320.4972 321.7290 321.7290 322.1009 322.1965 322.2455 322.3066 322.3066
   323.1050 323.1050 323.1944 323.1944 323.3469 324.0232 324.0232 324.2076
   324.2076 324.3502 324.4061 324.5312 324.5312 324.6950 324.8804 325.5168
   325.5168 325.6677 325.8888 325.8888 326.0903 326.2281 326.2281 326.3874
   326.3874 326.5467 326.7338 327.2187 327.3235 327.3235 327.7380 329.6419
   329.6419 329.8893 330.5456 330.5456 330.7494 331.7488 331.7488 332.2277
   332.6932 332.7520 332.7520 333.4364 333.4364 333.5636 333.5636 333.6761
   333.7173 334.0955 334.0955 334.1596 334.5270 334.5270 336.1318 336.5153
   336.5153 336.8041 336.9345 336.9345 337.4698 337.4698 337.8132 337.8674
   337.8674 338.0194 338.1645 338.1645 338.5743 339.4227 339.4227 340.4049
   340.4560 340.4560 340.8839 341.6143 341.6945 341.6945 342.2105 342.2105
   342.7787 343.1297 343.2055 343.2055 344.4913 345.1237 345.1237 346.0599
   346.0599 346.1424 346.1756 346.3675 346.3675 346.9948 346.9948 347.1792
   347.3248 347.3248 347.4288 347.7020 347.7047 347.7047 348.1734 348.1734
   348.3397 348.9521 350.3955 350.3955 350.4906 350.6238 350.7746 350.7746
   351.3239 351.3239 351.4165 352.9798 352.9798 353.2839 353.3050 353.3050
   353.4097 353.7491 353.7491 354.5830 354.5830 354.8216 354.8605 355.6411
   355.6411 355.8394 355.9012 356.0066 356.0066 356.2176 356.2176 356.2450
   356.4189 356.4189 356.7904 356.7904 356.9073 358.8229 358.8229 358.8579
   359.1783 359.1783 360.8205 361.7788 361.7788 361.9429 362.4846 362.4846
   362.8692 363.1367 364.0880 364.0880 364.2270 364.2270 364.2771 364.3027
   365.6479 365.6479 367.0151 367.0151 367.0754 367.1047 367.4653 367.4653
   368.4173 368.4173 368.5093 369.3944 369.3944 370.0672 370.8637 370.8637
   371.5148 371.9503 372.3687 372.3687 373.1320 374.9255 375.2155 375.2155
   377.4384 377.5889 377.9901 377.9901 377.9901 378.2513 378.2513 378.5188
   378.5188 379.1104 379.1104 379.5165 380.2567 380.2567 380.6975 380.8258
   380.8258 381.3222 381.4386 381.4386 382.2371 382.2661 382.2661 383.3252
   383.3252 383.5352 383.5431 383.5431 385.2613 386.3133 386.3133 386.7717
   386.8265 386.8265 386.8720 387.1263 387.1263 387.4073 387.8061 387.8061
   387.9431 388.5445 388.8867 388.8867 389.1471 389.6258 389.6258 389.8977
   389.8977 390.0351 391.1587 391.1587 391.6607 391.7117 391.7117 391.7481
   392.2545 392.2545 392.7472 393.2548 393.2548 393.3830 394.7199 394.7199
   395.0590 395.0590 395.0986 396.2107 396.7567 396.8700 396.8700 397.8881
   398.3477 398.3477 398.6538 398.6538 398.7176 398.9518 398.9518 399.3749
   399.3749 399.7287 400.5974 401.0359 401.0359 401.7354 401.7354 401.7900
   402.3690 402.5799 402.5799 403.2405 403.5969 403.5969 403.7805 403.8671
   404.2991 404.4366 404.4366 405.0486 405.0486 405.4234 405.6427 405.6427
   405.6877 405.9087 405.9087 406.0940 406.0940 406.1911 406.2965 406.2965
   406.3553 406.7131 406.8183 406.8489 406.8489 407.3005 407.3005 407.6983
   407.9301 407.9301 408.1333 408.1333 408.3707 408.3827 408.9569 408.9569
   409.2644 409.9483 409.9483 410.0195 411.2160 411.2160 411.3661 411.4164
   411.4164 411.7153 412.0810 412.0810 412.1797 412.8911 412.8911 413.0001
   413.4638 413.4638 413.9181 414.4003 414.6888 414.6888 415.2441 415.2441
   415.3805 415.7718 415.7718 415.7806 416.5470 416.5470 416.6356 417.2313
   417.8695 417.8695 418.1226 419.7362 419.7362 420.2344 420.2424 420.2424
   420.4930 420.4930 420.5512 420.6610 420.7901 420.7901 421.0801 421.0801
   421.2288 421.5136 421.5396 421.5396 421.5883 421.6452 421.6452 421.8648
   421.8648 421.9082 422.8930 423.1998 423.3689 423.3689 423.8761 423.8761
   423.9622 424.9764 424.9764 425.0898 425.0898 425.1638 425.4603 425.5747
   425.5747 425.8199 425.9015 425.9015 426.2092 427.4318 427.6029 427.6029
   427.8143 427.8143 428.1228 428.1228 428.3854 428.3854 428.4305 428.7377
   428.7753 428.7753 428.8772 429.6735 429.6735 429.7048 430.0678 430.0678
   430.0765 431.0279 431.0279 431.1157 431.2449 431.2449 431.2937 432.0759
   432.3520 432.3520 432.4884 432.4884 433.0823 433.3628 433.3628 433.5958
   434.1453 434.1453 434.2560 434.3096 434.3096 434.3873 436.1834 436.1834
   436.2006 437.2457 438.3521 438.3521 438.4067 438.9039 438.9039 438.9325
   439.0366 440.1395 440.1395 440.2711 440.2730 440.2730 441.1967 441.6419
   441.6419 441.8407 441.8618 441.8618 442.2791 442.2791 443.4374 443.4374
   443.7055 444.0821 444.0821 444.9564 444.9564 445.0222 445.0950 445.1286
   445.1286 445.3767 446.0567 446.0567 446.4763 446.6101 446.6101 446.9206
   446.9906 446.9906 447.2881 447.4622 447.4622 447.5650 447.7458 447.7458
   448.0540 448.0733 448.0733 449.0915 449.5064 449.5064 449.8598 449.9595
   449.9595 450.1118 450.1118 450.2957 450.4074 450.4074 450.8265 451.8543
   452.2362 452.2362 452.4007 452.8794 452.8794 453.1379 453.4820 453.4820
   453.5071 455.3645 455.9893 455.9893 456.5935 456.5935 456.7225 457.1219
   457.1219 457.2191 458.0668 458.3831 458.3831 458.4448 458.4448 458.6418
   458.7435 458.7530 458.7530 458.9210 459.0740 459.0740 459.5084 459.5084
   459.7469 459.7469 459.8146 459.9135 459.9135 460.2253 460.3475 461.1035
   461.4138 461.4138 461.9796 462.7037 462.7037 462.9498 464.0061 464.1017
   464.1017 464.1098 464.5353 464.5353 464.5513 464.8087 464.8087 465.9129
   467.2810 467.3542 467.3542 468.0618 468.0618 468.4013 468.7335 468.7335
   468.7401 469.5195 469.5195 469.5691 470.9504 470.9504 470.9584 471.0948
   471.0948 471.2883 471.2883 471.3395 471.5233 472.4210 472.4885 472.4885
   473.5314 473.5314 473.8863 473.8863 474.1216 474.1679 474.6004 474.6004
   475.1421 475.1421 475.1611 475.2462 476.0510 476.0510 476.4342 476.4342
   476.8884 477.6292 477.7895 477.7895 478.8364 478.8678 478.8678 478.9640
   478.9640 478.9993 480.2486 480.2486 480.3769 480.7524 480.7974 480.7974
   481.0836 481.0836 481.8373 483.0755 483.0755 483.1637 483.4412 483.4412
   483.4522 483.6173 483.7552 483.7552 484.0793 484.4485 484.4485 484.6990
   484.6990 484.7044 484.8375 484.8375 484.9204 485.8007 485.8007 485.8175
   485.9494 486.5649 486.5649 486.9451 487.0975 487.0975 488.6561 488.8238
   488.8238 488.9672 489.7249 489.7249 490.9036 491.2048 491.2048 491.7697
   491.8177 491.8177 492.3025 492.7745 492.7745 492.9195 492.9195 492.9420
   492.9809 492.9809 493.0631 493.3292 493.3292 493.4910 494.5090 494.5090
   495.1785 495.5224 495.5664 495.5664 496.9282 496.9282 496.9417 498.0774
   498.2906 498.2906 498.4016 498.4016 498.5586 498.9686 498.9686 499.6846
   499.6846 499.7890 501.0247 502.6274 502.6274 505.0971 505.8460 506.1701
   506.1944 506.1944 506.3229 506.3229 506.4218 506.7842 506.7842 506.8075
   506.9010 507.8076 507.8076 508.1421 508.1421 508.3958 509.0585 509.0738
   509.0738 509.7123 509.7123 510.1110 510.2794 510.4204 510.4204 511.3745
   511.3745 511.5100 511.5100 512.3622 512.3622 512.7260 512.8737 512.8779
   512.9842 512.9842 513.2252 513.2470 513.2470 513.5550 513.8556 513.8556
   514.2882 514.4076 514.4076 514.6608 514.6608 514.7598 514.7896 514.7896
   514.9380 515.1641 515.1641 515.1696 516.4858 516.4858 516.5252 516.8522
   517.2175 517.2175 517.3647 517.7657 517.8434 517.8434 518.3436 518.4648
   518.4648 518.6516 519.0473 519.0473 519.1140 519.9220 519.9220 520.2992
   520.4143 520.4629 520.4629 520.8293 520.8293 520.8760 522.1190 522.1190
   522.4108 522.4108 522.5982 522.7014 523.1274 523.1274 523.1372 525.7999
   525.8145 525.8145 527.8757 527.8757 528.3234 528.3234 528.4469 528.5620
   528.5620 528.6261 528.7099 528.7099 528.8007 528.8067 528.9295 528.9295
   529.0757 529.0757 530.8171 530.8171 530.8640 531.0856 531.0856 531.4417
   531.6655 531.6655 532.1499 532.4248 532.7076 532.7076 532.7345 533.0056
   533.0056 533.4931 533.8458 533.8458 534.4586 534.4586 534.8108 534.8724
   534.8724 535.2117 535.2117 535.2217 535.3892 535.7313 535.7313 535.7597
   535.8632 536.2377 536.2377 537.0775 537.1407 537.1407 537.3705 537.3705
   538.4682 538.7421 538.7686 538.7686 539.0242 539.0242 539.1462 539.4040
   539.5233 539.5233 539.7101 539.7271 539.7271 540.8253 540.8528 540.8528
   540.9242 540.9242 540.9768 541.4540 541.4540 542.5199 542.5199 542.5611
   542.9736 543.4976 543.4976 544.2878 544.2878 544.4715 544.5124 544.5574
   544.5574 544.7185 544.8403 545.0040 545.0040 545.0449 545.1232 545.1232
   545.1425 545.1425 545.2360 545.4071 545.4071 545.4864 545.8046 546.0090
   546.0090 546.5701 546.7086 546.7086 546.9640 547.0497 547.0497 548.2544
   548.2544 548.4751 548.6257 548.6257 548.8168 549.1757 549.1757 549.3188
   549.4439 549.4439 549.5685 549.5685 549.6889 549.7640 550.3010 550.5945
   550.7102 550.7102 550.7317 550.7317 550.8014 550.8014 550.9839 551.4107
   551.4107 551.5676 552.2901 552.2901 552.5375 552.9116 552.9116 553.0664
   553.5870 553.5870 553.9023 554.0748 554.0748 554.2754 555.1243 555.4192
   555.6009 555.6009 555.6245 555.6245 555.6966 556.1770 556.1770 556.2441

          k =-0.3333 0.3333-0.3333 (  4546 PWs)   bands (ev):

   -27.8121 -10.0499  -9.7838  -9.7838  -4.5399   3.6594   4.8302   4.8302
    10.3480  11.6599  11.6599  12.0831  13.4088  13.4088  16.1993  16.7995
    16.7995  19.7100  19.7761  19.7761  22.0860  24.6242  25.5956  25.5956
    27.0922  27.0922  29.7766  29.7766  30.9209  31.8213  32.1238  32.3363
    32.3363  34.8047  35.2204  35.2204  36.4603  37.9017  37.9017  40.4477
    41.2374  41.2374  41.3546  41.7333  41.7333  42.4726  42.4726  43.8876
    45.4682  47.0091  47.0091  48.8371  50.9369  50.9369  51.3266  51.7748
    51.7748  51.9474  52.3891  52.3891  52.4899  55.3118  57.6859  57.6859
    57.9726  59.5380  59.5380  60.9389  60.9389  61.3319  61.3319  61.9433
    62.4934  63.4104  63.4104  63.8220  65.7461  65.7461  67.2852  67.2852
    67.6471  68.9184  69.2139  70.1213  70.1213  71.4192  72.0197  72.0197
    73.3515  73.7501  73.7501  75.8501  76.3510  76.3510  77.2339  77.4906
    77.4906  80.0173  80.0173  80.3884  80.5920  80.5920  81.0530  81.4536
    82.7304  82.7304  83.2746  83.2746  83.4531  84.2437  84.3181  84.5523
    84.5523  86.7490  86.7490  87.0935  88.1842  89.6107  89.6107  91.2591
    91.2591  91.6384  92.0446  92.9824  93.0766  93.0766  93.7079  94.1781
    94.1781  95.7123  95.7254  95.7254  96.8593  96.8593  97.0653  97.0653
    97.8390  97.9753  98.8437  98.8437  99.0768 100.5056 100.5056 100.7790
   101.4507 101.4507 101.9351 102.1828 102.1828 104.1752 105.6174 105.6174
   106.3719 107.8344 108.0441 108.0441 108.2961 108.2961 108.5646 111.4978
   112.3555 112.9831 112.9831 113.8797 113.9359 113.9359 114.5534 114.5534
   117.0434 117.4979 118.7530 118.7530 118.9431 119.3467 119.3467 119.6101
   119.6101 119.9838 120.5139 120.5139 120.7803 120.7803 121.4095 122.1337
   122.1337 122.4049 122.4679 122.6290 122.6290 124.0374 124.0374 124.1651
   125.7798 125.7798 126.4135 126.7771 127.2693 127.2693 128.2085 129.0554
   129.2754 129.2754 130.2008 130.2008 132.0495 134.4731 135.5333 135.5333
   136.3823 136.5916 136.5916 136.9849 136.9849 137.0415 137.2734 137.3967
   137.9059 137.9059 138.2374 138.2374 138.5005 140.0940 140.4781 140.4781
   141.0744 141.0744 141.3993 141.3993 141.6545 142.1639 142.4865 142.4865
   142.7498 142.8541 142.8541 143.2414 144.5736 144.5736 146.3497 146.3774
   146.3774 147.4092 147.5474 147.5474 148.0989 148.0989 149.3741 149.7393
   149.7393 149.7971 149.9961 149.9961 150.5368 150.6547 151.5045 151.5045
   152.3567 152.4148 152.5964 152.5964 152.8787 152.8787 154.4919 154.4919
   155.2345 158.2982 158.2982 159.2374 159.4702 159.4702 159.9167 160.4821
   160.5988 160.5988 160.7432 160.7924 161.3284 161.3284 162.0639 162.0639
   162.2936 162.3873 162.8576 163.6861 163.6861 165.2828 165.2828 165.3320
   167.9469 168.0709 168.0709 168.4563 168.4563 168.6467 168.6467 168.9729
   169.7779 169.7779 169.9719 170.3233 170.4410 170.4410 170.5177 170.9751
   170.9751 171.4191 171.8822 171.8822 172.6399 172.8377 172.8377 173.8072
   174.6323 174.6323 177.5041 177.5041 177.8764 179.4360 179.5603 179.5603
   182.2264 182.2264 182.2664 182.2823 182.2823 182.5356 182.5356 182.8350
   183.1832 183.8851 183.8851 184.1888 184.4626 184.5796 184.5796 184.7331
   184.7331 184.8377 185.6289 185.7039 185.7039 187.2958 187.2958 188.1889
   188.5442 189.7690 190.7845 190.7845 191.3182 192.2245 192.2245 192.4928
   192.4928 193.3588 193.3588 193.9720 194.1428 194.2944 194.2944 194.3786
   195.2444 195.2444 195.3946 195.8535 196.1494 196.4766 196.4766 196.7413
   196.7413 197.7122 197.7122 198.2361 198.4850 198.7856 198.7856 200.9156
   200.9156 201.4539 201.4539 201.4570 202.0719 202.7715 203.1130 203.1130
   203.5618 203.8792 203.8792 203.8994 204.8385 204.8385 205.8271 205.8271
   205.9730 206.3266 206.3266 206.4401 206.4401 207.1569 209.1862 209.1862
   209.4884 210.1039 210.1039 210.2442 210.2442 210.3446 210.6805 212.1249
   212.5429 212.5429 212.8063 212.9454 212.9454 214.5440 214.5440 215.1741
   215.1741 215.9285 216.0063 216.2905 216.2905 216.7104 217.4085 217.4085
   217.5581 217.7766 217.7766 218.0839 218.8158 218.8158 218.8654 219.5735
   219.6334 219.6334 221.5726 221.8766 221.8766 222.2335 222.2335 222.3267
   222.6915 223.4113 223.4113 224.2301 224.7392 224.7392 224.9160 224.9980
   224.9980 225.4942 226.6773 226.6773 227.0721 227.6490 227.6490 227.7614
   227.9136 228.1899 228.1899 228.2482 229.6497 229.6497 229.7381 230.1768
   230.2673 230.2673 232.2745 232.7605 232.7714 232.7714 233.3205 233.4344
   233.4344 234.5011 234.5011 234.5492 234.5492 234.6010 235.2952 235.2952
   235.8652 235.8652 236.4206 236.5068 236.8345 237.6332 237.6332 237.9486
   237.9486 238.2219 238.2219 238.4936 238.4936 238.5297 238.5400 239.0438
   239.0438 241.9014 241.9035 241.9035 243.1509 244.0989 245.0099 245.0099
   245.1900 245.1900 246.3778 246.3778 246.6752 246.6843 247.5664 247.7106
   247.7106 248.5853 248.5853 249.1368 249.7061 249.7061 249.7104 250.1204
   250.1204 250.5825 251.0339 251.3543 251.3543 251.3895 251.6969 251.6969
   251.8890 252.3512 252.3512 252.8563 253.2593 253.2593 253.4023 254.0666
   254.0666 254.5778 254.8911 255.4716 255.4716 255.5020 256.5593 256.5593
   257.4866 257.4866 258.3154 258.3154 258.5114 258.6655 258.9079 258.9079
   259.4163 259.4163 260.6250 260.9042 260.9042 260.9377 261.1131 261.1131
   261.2243 261.2243 261.4530 262.0460 262.0460 262.4185 263.3342 263.7405
   264.4487 265.5518 265.5518 266.9941 267.8431 267.8431 268.2057 268.2057
   268.4344 268.6158 269.0545 269.0545 269.7117 269.8420 269.8420 270.3479
   270.3479 270.6323 270.6323 270.6657 271.1234 271.1234 271.1473 271.2975
   272.5783 272.5783 272.6253 272.7248 272.7248 272.9584 273.5357 274.2895
   274.2895 274.3112 276.7010 276.7010 276.8191 276.8191 278.0096 278.2048
   278.2048 279.0511 279.4654 279.4654 280.4657 281.4497 281.4497 281.4983
   281.4983 281.7423 283.0127 283.0127 283.7513 283.9805 284.4723 284.4723
   284.7907 284.7984 284.7984 286.1715 286.1715 286.1986 288.0305 288.2912
   288.3972 288.3972 288.8455 288.8455 289.0450 289.1314 289.2130 289.4508
   289.4508 289.6428 289.6704 289.6704 290.1187 290.4650 290.4650 291.0987
   291.0987 291.3269 291.5547 291.5547 291.9659 293.6033 293.6033 293.8934
   293.8934 293.9172 294.3793 296.2636 296.2636 297.5121 298.6026 298.6026
   300.0868 300.0868 300.5544 301.0723 301.0723 301.3622 301.6399 301.6399
   301.6858 301.6858 301.9180 302.1658 302.5375 302.5375 302.8341 303.0167
   303.1528 303.1528 303.3171 303.4892 303.4892 303.6435 303.7671 304.0457
   304.0457 304.3062 304.7617 304.7617 305.0384 305.0384 305.0476 306.1844
   306.1844 306.4577 306.4577 306.5208 307.3680 307.3680 307.3888 308.1925
   308.6311 308.7244 308.7244 309.8411 310.5502 310.5502 310.7204 311.2771
   311.3600 311.3600 311.8414 311.9347 311.9347 312.1738 312.1738 312.9195
   312.9195 313.1743 313.3988 313.4089 313.4089 313.6129 313.6129 313.6940
   313.9113 314.4495 314.4495 314.6941 314.6941 314.8513 314.9369 314.9369
   315.1482 315.3344 315.3389 315.3389 315.7285 315.7285 315.8613 315.9836
   315.9836 316.1921 316.1921 316.2770 317.3648 317.7472 317.7472 319.4208
   320.2759 320.2759 321.0501 321.0501 321.0647 321.5694 321.5694 322.1661
   322.8792 322.8792 323.4007 324.6131 324.6606 324.6606 325.1014 325.1014
   325.6593 325.7576 325.7576 326.0519 326.1809 326.1809 326.3885 328.1988
   328.1988 328.7267 328.7267 329.1433 330.9236 331.2537 331.2537 331.3216
   331.3216 332.0982 332.0982 332.3998 332.4570 332.4768 332.4768 332.6196
   332.6283 332.9659 332.9659 333.7126 333.8854 334.2875 334.2875 335.5113
   335.5113 335.5790 335.8749 335.8749 337.2691 337.2691 337.2779 337.6091
   337.9728 338.4727 338.4727 338.5381 340.0443 340.1173 340.1173 340.2029
   340.2029 341.0623 341.0623 341.3161 341.3465 341.8741 341.9594 341.9594
   342.0885 342.3464 342.3464 343.4280 343.6154 343.6493 343.6493 343.6645
   343.6645 343.7968 345.5087 345.5087 345.5938 345.8121 345.8121 345.8651
   347.1069 347.1069 347.1860 347.2104 347.2104 347.7711 348.1826 348.1826
   348.3618 348.3618 348.6370 349.5826 349.7019 349.7019 350.2403 350.2993
   350.2993 350.6738 350.6738 350.7124 351.5819 351.5819 352.4442 352.4442
   353.0406 353.3957 353.8525 354.0762 354.0762 355.0205 356.3620 356.3620
   356.4389 356.9120 356.9120 357.0137 357.3499 357.3499 357.6208 358.0959
   358.0959 358.4357 358.4357 359.0533 359.0533 359.1264 360.2640 360.2775
   360.2775 360.5915 360.5915 360.6038 361.0504 361.2935 361.2935 361.9420
   362.1225 362.1225 362.3338 362.3338 362.4590 363.4550 364.4745 364.4745
   364.5927 366.8613 366.8613 366.9681 367.1169 367.5050 367.5050 367.8608
   368.0188 368.0188 368.7144 369.2863 369.2863 369.3068 369.8158 369.8158
   369.8363 370.0484 370.0484 370.1608 370.2438 370.2438 371.0492 371.0492
   371.0605 371.0918 371.5117 371.5117 372.4993 373.6208 373.6208 373.8880
   375.3398 375.3398 376.1080 376.2198 376.2198 376.6670 376.6670 376.6924
   376.8019 378.4476 378.4476 379.6512 379.6512 379.6943 379.8565 379.8565
   380.0367 380.1460 380.1460 380.6204 380.6204 381.0107 381.8370 382.4490
   382.4490 382.6037 382.6037 382.7497 383.2309 383.4010 383.4010 383.5101
   384.8838 385.7062 385.7062 385.8352 385.8438 385.8438 386.4952 386.4952
   387.2079 387.2079 387.4353 387.8474 387.9621 387.9621 388.5889 388.6448
   388.7952 388.7952 389.0765 389.2999 389.2999 389.5014 389.5190 389.5190
   389.7049 389.9272 389.9272 390.3652 390.9780 390.9780 391.0263 391.1852
   391.1852 391.5492 391.5492 391.6303 392.2138 392.2138 392.2250 392.2663
   392.7481 393.1192 393.1192 393.1938 393.2561 393.2561 393.3800 393.7824
   394.4372 394.4372 394.8131 394.8131 395.1007 395.6543 395.6543 395.6792
   396.9071 396.9071 397.0866 397.0866 397.3509 397.4356 401.2587 401.2587
   401.4114 401.8310 401.8310 401.9789 402.4766 402.4766 402.6856 402.8665
   402.8665 403.0925 403.5346 403.5346 404.3198 404.3198 404.6729 405.6540
   405.6540 406.1425 406.1770 406.1770 406.1998 406.2547 406.2547 406.9339
   406.9339 407.0249 407.3270 407.3270 407.4369 408.4686 408.5890 408.6006
   408.6006 409.7835 409.7835 409.8914 409.8914 409.9190 410.5510 410.6274
   410.6274 411.0200 411.4979 411.4979 411.7745 412.4035 412.4035 412.4334
   412.5262 412.5262 412.9865 413.1712 413.7467 413.7467 413.8672 413.8672
   414.0373 414.1865 414.4232 414.4232 415.4392 416.1210 416.1210 416.5761
   416.5761 416.8838 417.2364 417.2583 417.8178 417.8178 418.5914 418.5914
   418.9665 419.3680 419.3680 419.8891 419.8891 420.2824 421.4799 421.5265
   421.5265 422.6235 422.6235 422.6276 423.0899 423.0899 423.2204 424.2566
   424.2566 424.3160 424.3160 424.3217 424.6636 424.7348 424.7376 424.7376
   424.8656 424.9467 424.9467 425.9463 425.9463 426.1248 426.1248 426.1428
   426.3847 426.3847 426.9834 427.1400 427.1400 427.1675 427.5657 427.5657
   427.8498 428.0708 428.1296 428.3422 428.5732 428.5732 429.5634 429.5634
   429.6688 429.9771 429.9989 429.9989 430.0275 430.0275 430.0582 430.7049
   430.7049 431.2087 431.2087 431.3947 434.0258 434.0258 434.8407 434.8687
   434.8687 434.9640 435.0511 435.0511 435.3863 435.7680 435.7680 436.4968
   436.4968 436.7378 437.3772 437.5144 438.1038 438.1038 438.8318 438.9577
   438.9577 439.0059 439.9544 439.9544 440.1735 440.6344 441.6616 441.6616
   442.2668 442.3810 442.3810 443.0220 443.1236 443.1236 443.3728 443.3964
   443.3964 443.7608 443.7608 444.0564 444.0564 444.1260 444.1595 444.2114
   444.2114 445.0080 445.0918 445.0918 445.6523 445.6740 445.7527 445.7527
   446.0496 446.1655 446.1655 446.3503 448.8611 448.8611 448.9481 449.4055
   449.4055 449.7048 449.8856 449.8856 449.9032 450.1345 450.1345 450.3777
   450.3777 450.5218 451.1893 451.3036 451.3036 451.5700 451.5700 451.7591
   451.7808 451.7831 451.7831 451.9537 451.9537 451.9731 451.9731 452.0734
   452.3391 452.3391 452.5821 454.8482 455.0638 455.0638 455.7325 455.7325
   455.8109 456.1604 456.1604 456.2285 456.3985 456.3985 456.4660 456.5448
   456.6472 456.6472 456.8588 456.8588 456.9266 457.9837 457.9837 458.0078
   459.3537 459.3537 459.4614 461.1009 461.1009 461.3735 462.1224 462.1224
   462.7836 463.2116 464.1952 464.1952 464.4195 464.7095 464.7095 465.7052
   465.7052 466.2960 466.3716 466.6772 466.6772 467.6619 467.6619 467.7270
   468.0710 468.0813 468.0813 468.2289 468.2289 468.2625 468.3261 468.3261
   468.5138 468.8073 468.8073 468.8299 468.9069 468.9069 469.0463 469.2269
   469.2437 469.2437 469.6583 469.6583 469.8437 469.8437 469.8916 469.9655
   469.9655 469.9927 470.2202 470.4055 470.4055 470.6088 471.4314 471.6479
   471.6479 471.7718 471.7718 472.4687 473.6404 474.1569 474.1571 474.1571
   474.7920 474.7920 477.1568 477.4081 477.4081 477.6481 478.0314 478.0314
   478.3886 478.4394 478.4394 478.9720 478.9720 479.0220 479.1765 479.1765
   479.3734 480.0823 480.0823 480.1536 480.9530 480.9530 481.3755 481.6404
   481.6404 481.6495 482.5547 482.9128 482.9128 483.1149 483.5069 483.5069
   483.6124 484.4732 484.4732 484.8821 484.8821 484.9776 484.9776 485.2074
   485.4135 485.8027 485.8027 485.9604 485.9604 486.1665 486.4009 486.5922
   486.6678 487.0012 487.4314 487.4314 487.7495 487.8563 487.8563 488.2867
   488.2867 488.9907 488.9907 489.0533 489.5912 489.5912 489.7034 489.7036
   489.7036 490.2518 491.2419 491.2419 491.4835 492.6084 493.4777 493.4777
   494.1428 496.6561 496.6561 496.9087 496.9087 497.1364 497.3356 497.9625
   498.0617 498.0617 498.1881 498.1881 498.6258 498.6258 498.6453 498.7897
   498.7897 498.9741 499.1829 499.2236 499.2236 499.2893 500.4884 500.5044
   500.5044 501.7148 501.7148 502.3288 502.3288 502.6636 502.8982 502.8982
   503.0380 503.6519 503.6519 503.6733 504.4101 504.6071 504.6071 504.8473
   504.8473 505.5775 505.8290 505.8290 505.9545 505.9545 506.8828 507.0365
   507.0781 507.0781 507.1661 507.1661 507.2832 507.4981 507.6348 507.6348
   507.7341 508.2948 508.6746 508.6746 508.7730 508.7730 508.8652 509.0191
   509.6891 509.6891 509.8986 510.1615 510.3341 510.3341 510.9403 510.9874
   510.9874 511.2052 511.2225 511.2225 511.8611 511.8611 511.9713 512.3250
   512.3250 513.4230 513.5583 513.5583 514.5533 514.9107 515.1800 515.1800
   515.5598 515.5598 515.5945 515.9485 515.9485 516.0393 516.6658 517.1663
   517.1663 517.5730 517.5730 517.6925 517.7697 517.7697 517.7870 518.0524
   518.0524 518.0802 518.5757 518.5757 519.6090 519.6090 519.6183 520.6175
   520.6704 520.6704 522.1710 522.6542 522.6542 523.3607 523.3607 523.5133
   523.5133 523.5776 523.6251 523.6492 523.6492 523.7419 524.5349 524.5349
   524.9626 524.9626 525.0617 526.1005 526.1005 526.2967 526.6763 527.9320
   527.9320 528.4875 528.9203 528.9618 528.9618 530.1792 530.1792 530.2209
   530.2268 530.2268 530.4619 530.5219 530.6382 530.6382 530.8889 531.1264
   531.1264 531.9274 531.9389 531.9389 531.9851 532.0028 532.0028 532.3368
   532.5042 532.5042 532.7967 532.8431 532.8431 533.0039 533.0039 533.1052
   533.1717 533.2359 533.2359 533.4542 533.4542 533.5981 533.5981 533.5992
   533.6911 534.0453 534.0454 534.0454 534.4312 534.4312 534.5220 535.4774
   535.6728 535.6728 535.7397 535.9001 535.9001 536.0681 536.0681 536.0846
   536.5089 536.5089 536.6584 536.7291 536.7291 536.9223 537.2974 537.2974
   538.5284 539.2941 539.5328 539.5328 539.7774 540.3628 540.3628 540.3784
   540.4151 540.4151 540.5035 541.2703 541.6335 541.6335 543.7336 543.7336
   543.8014 543.9012 543.9132 543.9132 544.1251 544.8479 544.8479 544.9376
   544.9510 544.9510 544.9873 545.5882 545.5882 545.5996 546.4675 546.4675
   546.8752 548.0632 548.0632 548.5239 548.7300 548.7300 549.0653 551.0829
   551.0829 551.3284 552.0766 552.1635 552.1635 552.5266 552.5266 552.6397
   552.8555 552.9749 552.9749 554.1634 554.1634 554.5187 554.9256 554.9256
   555.8441 555.8441 555.9391 555.9475 555.9475 555.9967 556.0926 556.4819
   556.4819 557.0377 557.0377 557.5803 557.5803 557.6419 558.2224 559.5833
   559.5833 559.6081 559.9068 560.0554 560.0554 560.6788 560.6788 560.6921

          k = 0.5000-0.5000 0.5000 (  4476 PWs)   bands (ev):

   -27.8078 -10.1349  -9.7893  -9.7893  -4.3469   3.1876   4.6190   4.6190
    11.0040  12.0481  12.6993  12.6993  14.6542  14.6542  15.1949  15.1949
    16.3715  18.4692  18.4692  19.9382  22.1566  24.6830  25.8447  25.8447
    27.4383  27.4383  28.7663  29.8768  29.8768  30.7404  31.6067  31.6067
    32.6720  34.9519  36.6215  36.6215  36.9074  36.9074  37.8134  40.3108
    40.8940  40.8940  40.9825  40.9825  41.4181  44.3095  45.6493  45.6493
    46.1438  46.4054  46.4054  48.4334  49.4967  50.2300  50.2300  51.4420
    52.6197  52.6197  55.8431  55.8431  56.7817  56.7817  57.3327  57.3327
    57.4460  57.4460  57.5231  57.7803  58.2475  58.2511  62.0405  62.0727
    64.1955  64.1955  65.0639  65.0639  66.3399  66.3399  67.3091  67.3091
    68.2750  68.2750  68.3349  68.7943  69.2339  70.6409  70.6409  71.0931
    71.0931  71.9722  71.9722  72.7109  72.7867  72.9294  77.3587  78.3296
    78.4655  78.4655  79.0063  79.0063  80.9872  83.0562  83.0562  83.3332
    83.3535  83.5804  83.5804  83.8750  85.1859  85.1859  85.3014  86.8632
    86.9767  86.9767  87.2712  87.2712  87.4128  87.4128  88.0559  89.2383
    92.3674  92.3674  92.3930  92.3930  92.8977  94.3301  95.4065  95.4065
    96.0645  96.1228  96.1228  97.1882  97.1882  97.6590  97.7109  98.7216
    98.7216  98.8944  99.0540  99.0540  99.9185 100.3177 100.3177 101.5497
   101.7463 103.7886 104.7929 104.7929 104.8403 104.8403 105.3008 105.3258
   105.3258 107.3252 107.3490 107.8684 107.8684 108.5939 108.5939 109.8233
   109.8233 111.7259 112.1166 112.7906 112.7906 113.1154 113.1154 115.3591
   115.3591 115.7463 115.8661 115.9166 115.9166 116.1997 116.7878 116.7878
   117.7712 119.7350 119.7350 121.6232 121.8505 122.7056 122.8936 123.0640
   123.0640 123.4210 123.4210 123.9891 125.0577 125.0577 125.6049 126.9004
   126.9004 127.2053 127.6029 127.7177 127.7177 128.9462 128.9462 129.3951
   129.3951 129.5410 129.5643 130.1016 130.1016 130.6914 131.4810 131.4810
   131.9113 131.9113 135.7940 136.3469 136.3469 136.8312 136.8628 136.8628
   137.2423 137.6626 138.6559 139.0386 139.0386 139.1723 139.1723 140.0785
   140.2111 140.2111 140.9207 140.9207 141.0711 141.0711 141.1967 142.1949
   142.1949 142.9026 144.1322 144.5580 144.5580 144.9079 145.8081 145.8262
   145.8262 146.0269 146.4604 146.4604 146.5333 149.0393 149.0393 150.6166
   151.0716 151.0716 151.3787 153.1431 153.1431 153.5116 153.5116 154.2893
   154.8804 154.8804 154.9351 155.0039 155.0039 155.0803 155.5316 156.3483
   156.3483 156.6853 156.6853 156.8153 156.8568 157.0488 157.2992 157.2992
   158.1083 158.1083 158.3438 158.9946 158.9946 159.7730 160.0497 161.6369
   161.6369 163.0267 163.0267 166.2779 169.5240 169.7774 169.7774 170.0843
   170.0843 170.3902 170.4200 170.4200 170.4945 170.4945 171.1833 171.2306
   171.2314 171.2910 171.2910 171.3238 171.3931 171.3931 172.1207 173.2609
   173.5164 173.5164 175.5310 175.5310 175.6058 176.1079 177.2471 177.2471
   177.3318 177.4396 177.4467 177.4467 177.5277 177.9852 177.9852 178.0146
   178.0466 178.0466 178.3087 178.5458 178.5458 178.6856 178.6856 180.7440
   182.2532 182.2532 182.2588 182.2588 183.7342 183.7345 186.4440 186.4440
   186.5545 186.5545 188.1563 188.6002 188.6686 188.9752 188.9752 188.9966
   188.9966 189.7832 189.7832 190.4429 190.4429 190.5260 190.5260 190.5887
   190.5887 191.0975 191.2842 191.2842 191.6447 192.2081 193.1380 193.1380
   194.0610 194.0610 194.2401 194.2956 194.3326 194.5218 194.5218 194.6908
   194.9242 195.3515 196.2641 196.2641 197.4672 197.4672 198.0651 198.2440
   198.2440 198.6898 198.6898 199.3098 202.6935 202.6935 202.8917 202.8917
   202.9968 203.5510 204.3959 204.3959 204.7601 204.7601 205.0756 205.1280
   206.0964 207.2439 207.2439 208.2437 208.2437 208.4664 209.1463 209.1463
   209.4977 209.4977 209.5450 209.9579 210.6236 211.2184 211.2184 211.3052
   211.3052 211.8520 211.9826 212.6254 212.8587 212.8587 213.2536 213.2536
   213.6405 213.7865 215.0772 215.0772 215.1673 215.6997 215.6997 216.2120
   216.3067 217.1464 217.4859 217.4859 217.6126 217.6126 218.2947 218.3911
   218.8210 218.8210 219.3528 219.3528 221.5979 221.5979 221.7785 221.7785
   223.5467 223.5467 224.3429 224.4272 224.7313 224.7313 226.6517 226.7674
   226.7674 227.2895 227.2895 227.7539 228.4440 228.4440 229.4589 229.6644
   229.6644 230.1657 230.1657 230.4907 231.1422 231.1976 231.6394 231.6394
   231.7947 231.8623 231.8623 232.0897 232.0897 232.0975 233.8745 233.8745
   234.0951 234.3327 234.3327 235.2017 235.2290 235.2290 235.3287 235.4308
   237.9713 238.0939 238.1229 238.1229 238.7237 238.7237 238.9705 238.9705
   241.3439 241.3439 241.4893 242.2272 243.1440 243.2979 243.2979 243.3970
   243.3970 243.8099 244.0294 244.1514 244.6202 244.6202 244.6444 244.6444
   245.0833 245.0833 245.9060 245.9226 246.1006 246.1006 246.3343 246.3343
   246.7353 246.7353 247.1160 247.1411 247.3543 247.3543 247.8915 248.7063
   250.6440 251.4933 251.6330 251.6330 251.6364 251.6364 251.9803 251.9803
   252.2764 252.4310 252.4310 252.9253 252.9415 252.9693 253.6967 253.6967
   253.7449 253.7449 254.5325 254.5325 254.6142 254.6142 254.9418 254.9732
   259.0451 259.0451 259.8845 260.0901 260.3174 260.3174 260.5224 260.5224
   260.9913 261.3208 261.3208 261.3290 261.3290 261.3856 262.2368 262.2368
   262.2877 262.2877 262.4794 262.5789 263.7089 264.1011 264.1011 264.2646
   264.2757 264.5686 264.5686 266.7180 266.9934 266.9934 266.9952 266.9952
   267.1284 267.2541 267.9456 267.9456 268.8842 268.9971 268.9971 269.3151
   270.1057 270.1057 270.5821 270.7067 270.7067 271.8929 271.8929 272.3078
   272.7895 273.8371 273.8371 274.2657 274.2657 274.4855 274.5097 274.6877
   274.6877 274.7876 274.9175 274.9175 275.1155 275.1155 276.4264 276.4264
   277.0506 277.5978 279.2641 279.2641 279.9302 279.9302 279.9442 279.9499
   279.9499 281.0748 281.4072 281.4072 281.7858 281.7905 282.1685 282.5693
   283.0691 283.0691 284.6241 284.7740 284.7740 284.7763 284.7763 285.3862
   285.3862 285.4679 285.4948 286.8242 286.8242 287.0980 287.0980 287.9158
   288.5967 288.6992 289.0907 289.0907 289.1041 289.1041 289.3356 289.3359
   293.5380 293.5380 296.0036 296.0036 296.0198 296.0198 297.0769 297.0769
   297.1627 297.7359 297.7359 298.2858 298.2858 298.3339 298.4671 299.1102
   299.1851 299.1851 299.5745 299.5745 299.7487 299.7487 299.7730 299.9108
   300.1040 300.1705 300.1705 300.4670 300.7742 300.9518 301.3030 301.3030
   301.3675 301.3675 302.4279 302.4279 302.5242 302.6687 302.6687 302.7331
   303.1028 303.1028 303.2380 303.3620 303.3620 303.5006 303.8643 303.8818
   303.8818 304.2157 304.2157 304.5651 304.7664 304.7664 305.4035 305.4340
   305.9292 305.9292 306.2439 307.5390 307.5390 307.6075 307.6075 308.3890
   308.7528 309.2167 309.2167 309.8392 310.8014 310.8014 312.3292 312.3292
   312.7725 312.8523 312.9190 312.9190 314.7277 314.7277 315.7868 316.4306
   316.4306 316.9633 317.2353 317.2353 317.3037 317.4437 317.6307 317.6307
   317.7307 317.7307 317.8712 318.2112 318.2112 318.3620 318.3620 318.5981
   318.7201 319.2849 319.2849 319.7855 319.9202 319.9202 320.1285 320.4198
   320.4198 320.5523 320.5584 321.5977 321.8480 321.9044 321.9044 323.4008
   323.4008 323.6591 323.6591 323.7266 323.8247 325.3268 325.3268 325.4545
   326.3908 326.3908 327.1785 327.1954 327.1954 327.2511 327.2511 327.3770
   328.0594 328.0594 328.1404 328.1882 329.5901 329.5901 330.9775 330.9775
   331.1044 331.4603 331.4603 331.7421 333.4288 333.8112 333.8112 333.8644
   333.8644 334.8505 334.8505 335.5498 335.7276 335.7276 335.9114 336.0772
   337.2292 337.2292 337.3954 337.3954 337.5162 337.5238 337.5238 337.5892
   337.7809 337.7809 338.1791 338.1983 338.2815 338.2815 339.3038 339.4670
   339.4670 339.8683 339.8683 340.2139 340.3954 340.6666 340.6666 340.7037
   340.7037 341.1220 341.9606 341.9606 343.2075 343.2075 343.3153 343.3202
   343.3202 343.6754 344.9221 344.9221 344.9704 344.9745 345.2754 345.2754
   347.5693 347.5693 349.5096 350.0527 350.5677 350.5677 350.9193 350.9290
   350.9407 350.9489 350.9489 351.0023 351.0023 351.1341 351.5820 351.5820
   351.7314 351.7314 351.8217 352.0651 352.0664 352.0664 354.7596 355.0405
   355.0405 355.0447 355.0531 355.0531 355.0738 355.9896 355.9896 356.5709
   357.4127 357.4127 358.2964 358.2964 358.5687 358.8492 358.8492 358.8566
   358.9143 358.9143 358.9267 358.9469 359.3886 359.3886 360.9853 360.9853
   362.5413 362.6835 362.6835 362.6950 362.6950 362.8683 362.8693 363.5445
   363.5445 363.7935 363.9714 363.9714 364.0317 364.4119 365.4686 365.8081
   365.8668 365.8668 366.3016 366.4970 366.4970 366.6388 366.7460 366.7460
   369.8961 369.8961 370.1207 370.5213 370.5213 370.6266 370.9808 370.9808
   371.7868 371.7868 371.8064 371.8064 372.4338 372.4669 372.4852 372.4897
   372.7685 372.7685 372.8169 372.8169 372.8522 373.2946 373.2946 373.3547
   373.4504 373.4504 373.7361 373.7361 373.9657 374.0559 374.5218 374.7772
   375.0539 375.0539 375.1108 375.1108 377.8943 377.8943 377.9726 377.9726
   377.9826 378.1450 378.4345 378.4345 378.4763 378.4763 378.6105 378.6161
   380.9669 380.9669 381.2546 382.4923 383.4529 383.4529 384.3028 384.3028
   385.0612 385.0612 385.1324 385.1606 385.1606 385.1964 385.8548 385.8548
   385.8853 385.8853 385.9976 386.0349 386.4368 386.4368 386.4789 386.6351
   386.6351 386.6739 386.8104 388.9178 388.9178 389.0005 389.8057 390.5595
   390.5595 390.6556 390.6556 390.7153 390.9590 390.9590 391.1188 391.5224
   391.7277 391.7277 391.8948 391.9272 392.1967 392.1967 392.5778 392.5778
   392.6029 392.6191 392.6191 392.6337 392.8188 393.0289 393.0400 393.0400
   394.4383 394.9037 394.9037 395.2196 395.4282 395.4282 395.7669 395.7669
   395.8496 396.3156 396.8524 396.8524 397.2616 397.2616 397.3264 397.3264
   400.6720 400.6720 401.0474 401.0474 401.0719 401.2683 401.4677 401.4677
   401.9696 401.9696 402.0020 402.0939 402.3835 402.3835 402.4227 402.4227
   403.0226 403.0227 403.7973 403.7973 403.8160 403.8160 405.3751 405.3752
   406.7722 406.7722 407.8281 407.9183 407.9183 408.3334 408.3675 408.8872
   408.8872 409.4624 409.4624 409.5683 409.5683 410.4151 410.6785 410.7721
   410.7774 410.7774 411.2634 411.2634 411.4512 411.4512 411.5622 411.5667
   412.5868 412.5868 412.7724 412.7724 413.3040 413.3040 413.3203 413.7152
   413.8308 414.0590 414.0590 414.0639 414.3445 414.3445 414.3901 414.3901
   414.4219 414.5553 415.3576 416.3056 416.3056 416.7305 416.7883 416.8160
   416.8160 416.9020 420.5700 420.5700 422.0702 422.0702 422.6067 422.6067
   422.7662 422.8778 423.1984 423.2577 423.2577 423.8766 424.1616 424.1616
   424.2627 424.4840 424.5534 424.5534 424.6308 424.6308 424.8224 424.9858
   424.9858 425.0270 425.0526 425.2232 425.2232 425.3226 425.3226 425.4632
   426.2745 426.2745 426.3284 426.4343 426.4343 426.8142 427.0117 427.0333
   427.0333 427.2275 427.2275 427.2529 427.2529 427.3779 427.3779 427.4740
   427.6964 427.6964 428.6069 428.6069 428.7785 428.7785 428.8905 428.9927
   429.0244 429.0244 429.0273 429.0273 429.0298 429.0333 430.6814 430.6814
   431.9131 432.0377 434.0466 434.0466 434.3102 434.4707 434.7467 434.7467
   439.6732 439.6732 439.8520 439.8520 440.3352 440.3352 440.6404 440.7561
   440.7995 441.0469 441.1100 441.1100 441.2745 441.3180 441.3180 441.9498
   441.9498 441.9534 442.0033 442.0826 442.0826 442.0903 442.0903 442.0996
   443.8499 444.3134 444.7022 444.7022 445.1246 445.1246 445.5139 445.5609
   445.5609 446.0249 446.0249 446.3506 447.1500 447.8182 447.8182 448.2054
   448.7216 448.7216 448.9908 448.9908 449.3263 449.3332 449.6404 449.7005
   449.7005 449.7743 449.7743 449.8122 450.1415 450.1415 450.9965 451.0075
   451.0075 451.8010 452.6296 452.6296 455.4646 455.4646 455.4924 455.4924
   455.6744 455.6921 456.5555 456.5555 456.8840 456.8840 456.9348 456.9527
   457.5746 457.6806 457.6806 457.7013 457.7013 457.9454 459.5946 459.8357
   459.8357 459.8795 459.8795 459.9095 459.9764 459.9764 459.9807 460.0080
   460.0080 460.0347 460.0512 461.2283 461.5433 461.5433 461.9249 461.9249
   461.9522 462.3729 462.3729 462.4035 463.0026 463.4269 463.4269 463.4591
   464.0991 464.0991 464.3110 464.3110 464.8368 464.8368 465.7128 465.7128
   465.8787 465.8798 467.3019 467.3019 467.3111 467.3111 467.6120 467.6304
   467.6886 467.6949 467.8965 467.8965 468.0091 468.0091 468.7522 468.7728
   468.7753 468.7753 468.7841 468.7841 468.8286 468.8836 469.3322 469.3322
   469.4955 469.4955 469.5434 469.6008 470.4250 470.4250 470.5110 470.5331
   470.6435 470.6435 473.0670 473.0670 473.3839 473.3839 473.6762 473.6828
   473.9371 473.9607 474.1390 474.1390 474.1934 474.1934 476.7475 476.7475
   476.7931 476.7931 477.0419 477.1043 477.1043 477.1681 477.1681 477.2613
   477.7551 477.7551 477.7962 477.7962 477.8758 477.8781 479.2453 479.2453
   479.4010 479.4010 479.4053 479.5062 479.9532 479.9532 480.7207 480.7207
   480.7633 481.1986 482.9712 482.9712 483.0470 483.0470 483.2495 483.4082
   483.6571 483.9647 483.9647 484.0057 484.0887 484.0887 484.6332 484.6332
   484.6419 484.6419 484.6874 484.7351 485.4027 485.4027 486.0993 486.0993
   486.3091 486.3315 486.4768 486.4821 487.1574 487.1574 487.2446 487.2446
   487.5549 487.9202 487.9202 488.1864 488.4754 488.4754 492.5996 492.5996
   492.6698 492.9051 492.9051 493.1577 493.1577 493.2866 493.2866 493.2885
   493.4667 493.4734 494.7901 494.8942 494.8942 494.9140 494.9140 495.7360
   496.4412 496.4412 496.7769 496.9327 496.9327 497.3900 497.4440 497.4440
   497.4844 497.4844 497.5001 497.5559 497.6662 497.8017 497.8848 497.8848
   498.3835 498.3835 498.7309 498.8091 498.8091 498.8830 498.9639 498.9639
   499.0406 499.0825 499.0825 499.1072 499.1072 499.2013 499.8576 499.8585
   500.1449 500.1449 500.2443 500.2443 500.8580 500.8580 500.9055 500.9055
   501.1221 501.1249 506.4535 506.6554 506.6575 506.6575 506.7145 506.7145
   506.8685 506.8775 507.4737 507.4737 507.4935 507.4935 510.8372 510.8372
   511.0981 511.1175 511.1175 511.2063 511.2461 511.2461 511.7067 511.7117
   511.8188 511.8188 511.9374 511.9374 512.3459 512.6739 513.0593 513.5885
   513.5885 514.1028 514.6929 514.6929 514.7529 514.8761 514.8761 514.9641
   515.4194 515.4194 515.4694 515.4932 515.4932 515.5005 515.7367 515.7367
   515.7609 515.7698 516.1713 516.1713 517.5313 517.6572 517.6572 517.9821
   517.9821 518.0948 518.2631 518.2931 518.2931 518.8066 518.8224 518.8224
   519.9017 519.9017 520.0617 520.0617 520.6652 521.4782 522.4741 522.4741
   522.8822 522.8822 522.9327 523.1502 523.1502 523.3199 524.1160 524.1270
   524.1270 524.1856 525.8866 525.8866 525.9320 525.9325 525.9325 525.9360
   527.1635 527.1635 527.4997 527.7673 527.7973 527.7973 528.2481 528.2481
   528.3104 528.3104 528.5049 528.5100 529.7733 530.0948 530.0948 530.1577
   530.2085 530.2085 531.7086 531.8246 531.8246 531.8251 531.8251 531.8536
   532.9832 533.4546 533.4546 533.4744 533.4744 533.7106 534.7964 535.0080
   535.0080 535.1411 535.4246 535.6217 535.6701 535.6701 536.2763 536.2763
   536.4991 536.4991 537.1978 537.2488 537.2488 537.2814 537.2814 537.6729
   538.9859 539.3643 539.3643 539.4007 539.6705 539.6705 539.7334 539.8236
   539.8741 539.8741 540.0365 540.0413 540.0413 540.3476 541.9544 541.9544
   541.9980 541.9980 542.0005 542.0005 542.0316 542.0391 542.0391 542.0496
   542.1763 542.3071 542.6513 542.6513 542.7330 542.7330 542.8724 542.8729
   544.2074 544.2074 544.2394 544.2394 545.9709 545.9709 546.1670 546.2692
   546.2692 546.3253 546.8310 546.9465 546.9465 546.9902 546.9902 547.0602
   547.1563 547.3282 547.3282 547.3654 547.3654 547.4685 547.7238 547.7239
   547.7239 547.9256 547.9256 547.9439 548.1214 548.1214 548.2001 548.2286
   548.2286 548.3544 549.8121 549.8375 549.8375 549.8413 549.8413 549.9439
   550.3926 550.4522 550.4522 550.4706 550.6939 550.6939 550.7301 550.7301
   550.7703 550.7703 553.0057 553.0057 554.1009 554.3929 554.3929 554.4377
   554.5134 554.5134 557.2800 557.4513 557.4513 557.5769 557.7122 557.7122

          k = 0.0000 0.3333 0.0000 (  4516 PWs)   bands (ev):

   -27.8192  -9.8595  -9.7901  -9.7901  -4.8949   4.5278   5.4574   5.4574
     9.4355  10.0880  11.0908  11.0908  11.2207  12.7571  16.8283  18.5537
    18.5537  18.8330  20.8130  23.1805  23.7179  24.1193  24.1193  26.3822
    27.0834  27.0834  28.1641  30.2459  31.1563  31.1563  31.6235  32.1193
    32.1193  32.5772  35.6148  38.5908  38.8950  38.8950  40.0678  40.0678
    40.1652  40.3646  40.9408  40.9408  41.5589  42.3424  42.9295  43.1998
    43.7032  45.5711  47.3245  48.2075  48.2075  49.2153  49.7928  50.2037
    50.2037  50.3381  50.3381  53.1588  55.1660  55.1660  55.6767  56.9274
    57.0472  57.0472  60.2839  60.3040  60.6767  60.6767  61.2874  64.7515
    65.9552  66.4216  66.4216  66.9882  67.5738  67.5985  68.5220  69.8645
    69.8645  70.8711  70.8711  71.2900  72.4156  72.4156  72.4741  72.7974
    73.8950  73.8950  74.5631  76.3539  76.5349  76.5349  76.7864  76.7959
    77.5975  77.9594  79.1567  79.1567  79.2881  80.3710  80.3710  80.4701
    80.7696  82.1331  83.0660  83.0660  83.4049  84.3866  84.8411  86.0893
    86.0893  86.6331  87.1244  87.1244  87.7139  88.1872  88.8129  89.2351
    89.2351  90.7746  90.7746  91.2407  91.4663  91.4955  91.6493  91.6493
    92.3051  93.0821  93.0821  93.3745  94.7983  95.1402  96.7865  96.7865
    97.6562  97.6562  99.2311  99.6316 100.6566 101.8364 101.9034 102.1531
   102.1531 102.2543 103.6480 104.8613 104.8613 105.5146 105.5851 105.7971
   105.7971 106.0698 106.1937 106.5281 106.5281 107.2319 110.5441 110.5441
   110.7510 110.8958 111.4014 112.0773 112.0773 113.9727 114.1119 114.5242
   114.5242 115.4221 115.7172 116.8802 116.8802 117.0526 117.4693 117.8442
   120.0852 120.0852 120.5713 122.4002 122.4002 122.9142 124.3846 125.0694
   125.7918 125.7918 125.8730 126.8126 127.1431 127.2920 127.2920 128.1701
   128.5715 128.7082 128.7082 130.3125 130.4156 130.4156 130.8116 132.1437
   132.1437 132.8029 132.8922 132.9836 132.9836 133.5525 134.8691 134.8691
   134.8697 135.0378 135.1971 135.4795 135.5156 135.5156 135.6458 137.3677
   137.3677 137.5388 137.7237 138.0900 138.0900 138.7879 138.7879 138.8928
   138.9936 139.1744 140.7105 140.7105 141.4135 142.0205 142.6602 142.6613
   142.6613 142.7170 144.9341 145.1123 145.1123 145.5180 145.5180 145.8886
   146.2278 146.5496 146.7309 147.0793 148.1716 148.1716 150.0613 151.2025
   151.4708 151.4708 151.6348 151.8386 152.2141 152.2141 152.2929 153.2762
   153.4273 153.4273 153.7464 154.2511 154.2511 154.3998 154.9752 155.2922
   155.3370 155.3370 155.4308 155.5207 155.8720 157.0444 157.0444 157.0801
   157.9369 157.9369 158.1672 158.7060 158.9038 158.9038 159.3517 159.3584
   160.1043 160.2899 160.2899 161.3502 162.9149 163.1569 163.1569 164.0060
   164.5246 164.6405 164.6405 164.8677 165.5259 165.5259 165.6632 165.7897
   168.5008 170.0098 170.0414 170.0414 171.1702 171.6539 171.6539 171.8558
   171.8654 172.1666 172.1666 172.3598 173.2748 173.2748 173.4202 173.9607
   177.8990 178.0511 178.0511 178.4455 178.9943 178.9943 179.4107 179.4495
   180.5592 180.8680 180.8680 180.9683 181.3352 181.3352 181.3759 181.7584
   181.8657 182.6455 182.9793 182.9793 183.1553 183.9657 184.3336 184.3336
   184.7010 185.7302 185.7302 186.1522 186.1522 186.2720 186.4947 187.0023
   187.0023 187.3759 189.1420 191.8864 192.2400 192.2400 192.4049 192.5942
   193.9152 194.0387 194.0387 194.1906 195.0049 195.0049 195.0687 195.1701
   195.4691 195.7420 196.3359 196.3359 197.7622 198.6717 198.6717 198.8211
   200.9899 200.9899 201.4680 201.4680 201.6390 202.2473 203.3889 203.7568
   203.8797 203.9641 203.9641 204.0285 204.7331 205.0869 205.0869 205.8395
   205.9974 206.7806 207.4721 207.4721 208.6428 208.6428 208.8331 208.8637
   208.9538 208.9538 209.1326 209.2461 209.8361 209.8361 210.0583 210.3844
   210.6629 210.6629 211.2969 211.4898 211.4898 211.9467 212.2662 212.5716
   212.5795 212.6472 212.6472 213.3268 213.6696 213.6696 213.9229 214.0607
   214.9240 215.1543 215.2044 215.2044 215.8057 216.0439 216.4692 216.4692
   218.4097 218.9801 219.7318 219.9593 219.9593 220.0028 220.8517 221.6660
   221.6724 221.6724 221.9342 221.9342 222.0181 222.5040 223.1075 223.3072
   223.3072 223.3093 223.3093 223.3551 223.4882 223.7944 223.7944 223.9072
   223.9072 224.1101 224.5767 224.9078 226.0664 226.1822 226.1822 226.1909
   226.5370 226.5370 226.7305 227.0754 228.0496 228.0496 228.3317 228.7592
   229.6953 229.8093 229.8093 230.2649 230.8467 231.2075 231.2075 231.4777
   231.5154 231.5405 231.5602 231.5602 234.0408 234.3589 234.3589 234.7433
   234.7991 234.7991 234.9427 235.3449 235.7053 235.7133 235.7133 236.2772
   237.0744 237.3836 237.3868 237.3868 237.7958 238.0923 238.4065 239.8419
   239.8419 240.1775 240.1775 240.6099 241.1094 241.2185 241.2185 241.8333
   242.1585 243.0364 243.0364 243.6394 243.8300 244.0064 244.0064 244.2058
   244.7913 244.7913 244.9597 245.0817 245.2306 245.2306 245.3033 245.5220
   247.7673 247.7673 248.3193 248.6783 249.3685 249.3685 249.8905 250.3175
   250.3761 250.3761 250.8090 251.2881 251.2881 251.3397 251.7775 251.9889
   252.3934 252.3934 252.4385 253.9913 253.9913 254.0203 255.1091 256.0096
   257.8839 257.9434 257.9434 257.9899 258.7606 259.1255 260.6936 261.2509
   261.6810 261.6810 261.8261 261.8261 261.9093 261.9369 261.9369 262.1195
   262.2926 262.7857 262.7857 263.3372 265.5421 265.6509 265.6945 265.8786
   265.8786 267.1047 267.2091 267.3728 267.3728 268.0750 268.5438 268.6655
   268.6655 269.3519 269.3519 269.4386 269.9682 270.3184 270.3902 270.6292
   270.6292 271.5462 271.5462 271.6685 272.3438 272.4226 275.0566 275.0566
   275.3884 275.4958 275.4958 276.0160 276.2502 277.1962 278.0894 278.0894
   278.3173 279.1758 279.4249 279.4249 279.5154 279.9341 281.2098 283.2104
   283.4253 283.4619 283.4619 283.8476 283.8476 284.0441 285.4888 285.4888
   285.7923 285.8027 285.9374 285.9374 286.5602 286.6451 286.6451 286.6941
   286.7482 286.9784 287.0253 287.0253 287.0798 287.4616 287.4978 287.4978
   287.5301 287.6470 287.8743 287.9887 287.9887 288.8360 288.9560 289.0055
   289.0055 289.4447 289.6443 289.6443 289.6728 290.2154 290.2154 290.6856
   290.8051 290.9726 291.2542 291.2542 291.2891 291.8871 293.0864 293.1644
   293.3289 293.3289 294.3534 294.3846 294.3846 294.4192 296.2428 296.2428
   296.2669 296.3030 296.5086 296.8314 296.8314 296.8749 297.4491 297.6345
   297.6345 299.2970 299.2970 299.4486 299.8325 299.8325 299.9028 300.0525
   301.1813 301.2346 301.5381 301.7424 301.7424 301.9705 302.2148 302.2148
   302.6368 302.7137 305.2587 306.0226 306.0480 306.0480 307.6639 307.6730
   307.6730 307.9588 308.1753 308.6897 308.6897 308.9569 309.5508 309.8636
   309.8636 309.9144 310.0910 310.8524 310.8524 311.2952 311.5809 312.0377
   312.0377 312.1212 312.7215 312.7989 312.7989 313.3470 313.7021 313.7909
   313.7909 314.3344 314.3344 314.7389 315.2265 315.2265 315.5326 315.7361
   317.0710 317.2900 317.6708 317.6708 317.8160 317.8388 318.0496 318.0496
   318.1524 318.3818 318.6548 319.7096 319.7244 319.7244 319.7634 319.9315
   320.1272 320.1272 320.2161 320.2893 320.2893 320.6162 320.6162 320.7203
   320.8902 321.2602 321.3753 321.3753 321.5766 322.0712 322.0712 323.0045
   323.0337 323.0337 323.0366 323.1425 323.3240 323.5518 323.8160 323.8160
   323.8854 326.3706 326.3706 326.4064 326.7828 326.9414 326.9865 327.1271
   327.1271 327.2940 327.2940 327.4159 327.6231 328.5841 328.6060 328.8089
   328.8089 330.8323 330.9045 330.9045 330.9440 331.0019 331.0226 331.3502
   331.3502 331.6477 332.9107 333.3639 333.4106 333.4106 333.7462 334.2990
   334.2990 334.6685 334.8086 334.8086 334.8863 335.6592 335.7039 336.4353
   336.4353 336.5364 336.9040 336.9042 336.9402 336.9402 336.9651 336.9720
   336.9720 337.9839 338.7300 338.8941 338.8941 340.3887 341.0209 341.0209
   341.3286 341.8374 342.2786 342.5865 342.5865 342.7253 342.8943 343.0875
   343.3955 343.3955 343.4496 343.6433 343.6433 343.7864 344.2244 344.5054
   344.5054 344.5337 345.3126 345.5334 345.5334 345.8209 346.3290 346.6789
   346.6789 346.7680 346.7909 346.8376 346.8376 348.1150 348.1614 349.5052
   349.5092 349.5092 350.2827 350.2827 350.3312 350.9057 351.0067 351.6378
   351.6550 351.6550 352.0618 352.2153 352.2153 352.6644 352.7463 352.8460
   352.8780 352.8780 353.8382 353.8382 354.0634 354.1232 355.5444 356.1681
   357.0727 357.0727 357.9869 358.3414 358.3414 358.3964 358.4373 358.9404
   359.8508 359.8508 360.3382 360.3382 360.4400 360.7921 361.1206 361.4844
   361.4844 362.1385 362.5798 362.5798 363.4441 364.5037 364.5037 365.2037
   365.3120 365.3120 365.3900 365.7000 365.7000 365.9937 366.3354 366.3919
   366.3919 366.6352 366.6974 366.8779 367.6399 367.9306 369.3749 369.4047
   369.4047 369.4577 371.4817 371.4817 371.5778 371.8279 372.4754 372.6566
   372.6824 372.6824 373.4311 373.6141 373.6141 373.6636 373.9837 374.4203
   375.1776 375.3544 375.3544 375.4950 375.6388 375.6693 375.6857 375.6857
   376.1516 376.1516 376.4931 376.6458 377.1715 377.1715 377.8025 377.9111
   378.0830 378.3085 378.3085 378.5880 378.5880 379.4317 380.9517 381.8719
   382.1589 382.2147 382.2147 382.2552 384.1879 384.2085 384.9590 384.9590
   385.5725 385.5725 385.9633 386.2961 386.5475 386.5475 386.9425 387.1792
   387.2764 387.2764 388.0020 388.1237 388.5279 388.5279 388.9991 389.7424
   389.7424 389.7672 389.8747 390.5730 390.6441 390.6611 390.6611 390.7980
   391.3714 391.3714 393.3798 393.5265 393.5265 393.8927 393.8989 393.8989
   394.2522 394.2773 394.6565 394.6565 395.0029 395.5465 396.5666 396.5666
   398.3441 398.6312 398.7986 398.7986 399.1175 399.1175 399.2308 399.2750
   399.3799 399.7013 399.7448 399.7448 400.0009 400.2867 400.2867 400.3402
   400.3985 400.9702 400.9702 401.0671 401.0698 402.6799 402.7314 403.1049
   403.1049 403.2475 404.7561 406.0440 406.1010 406.1010 406.1926 406.2750
   406.4506 406.4506 406.6371 406.6371 406.7690 407.0185 407.0197 407.0197
   407.3827 407.4682 407.6035 407.6723 408.2063 408.2063 408.6329 408.6329
   409.1670 410.2349 410.3650 410.5953 410.5953 410.6231 411.3124 411.6145
   411.6761 411.7090 411.7090 411.9012 411.9298 411.9298 412.0739 412.3085
[...]
   505.2825 505.4593 505.6558 505.6930 506.2977 506.3599 506.4776 506.5348
   506.5404 506.6053 506.8619 506.9556 507.0722 507.4415 507.4975 507.5805
   508.0952 508.1472 508.1695 508.1727 508.4617 508.5444 509.0515 509.0554
   509.3944 509.4167 509.9686 509.9753 510.3859 510.4179 510.6544 510.6704
   511.4271 511.5004 512.0612 512.1224 512.2906 512.5861 512.8974 513.0867
   513.2773 513.4646 513.6129 513.7808 514.1538 514.2119 514.5156 514.5171
   514.8272 514.8411 515.1864 515.2575 515.5821 515.5929 515.9204 516.4268
   516.8190 516.8836 517.1054 517.1222 517.4725 517.5034 517.7437 518.1347
   518.3454 518.5007 518.9205 518.9616 519.6711 519.8956 521.2003 521.2253
   521.5872 521.6409 521.8799 521.9283 521.9713 522.1169 522.1665 522.3403
   522.4538 522.5042 522.6056 522.6951 523.2319 523.4739 523.8183 523.8336
   524.7380 525.3144 525.3393 525.4443 526.2858 526.3005 526.4403 526.4615
   527.4541 527.5762 527.9024 527.9601 528.2437 528.2941 528.4582 528.8669
   529.1870 529.4019 529.4378 529.7969 530.4139 530.6153 530.9425 531.0374
   531.2158 531.3818 531.4303 531.5397 531.7667 532.1817 532.3646 532.4505
   532.5536 532.7129 533.1087 533.1245 533.6768 533.8505 533.9004 534.0222
   534.1628 534.2418 535.9393 536.1107 536.3338 536.3825 536.7765 536.8824
   536.9404 537.0617 537.3040 537.4298 537.7341 537.9350 538.2112 538.2181
   538.3905 538.4094 538.9206 539.2455 540.1566 540.1655 540.2346 540.2915
   540.7658 540.9761 541.1627 541.2675 541.3692 541.5138 541.7162 541.7474
   541.8403 541.8531 542.0093 542.0284 542.9171 542.9233 543.0499 543.1925
   543.1969 543.6214 544.2508 544.3835 544.6102 544.6306 545.3963 545.5190
   546.6000 546.7534 546.8853 546.9133 546.9817 547.0915 547.5040 547.5116
   548.2410 548.2915 548.6850 548.8510 548.8888 549.1481 549.2574 549.3714
   549.7086 549.7344 550.0144 550.0969 550.5049 550.5156 551.2841 551.3088
   551.6989 551.7668 551.8900 551.9712 552.0234 552.1395 552.3462 552.4207
   552.5930 552.5953 552.7635 553.0078 553.2063 553.3067 553.5091 553.8464
   553.9523 554.1902 554.6872 554.6994 555.0537 555.1544 555.2036 555.2619
   556.0528 556.1904 556.2470 556.5228 556.6188 556.6430 558.1529 558.1888

          k =-0.3333-1.0000 0.0000 (  4496 PWs)   bands (ev):

   -27.8025  -9.9628  -9.8932  -9.8879  -4.6437   4.3690   4.5646   4.7841
     9.3919  11.8905  12.1707  12.9740  13.7723  13.9550  15.8668  17.4497
    17.5168  19.0714  19.2089  20.0058  23.1783  23.9378  24.6155  25.5391
    26.8525  27.0794  27.2397  27.4481  28.8462  30.2147  31.1714  31.4561
    31.9574  33.7578  36.3405  37.8487  37.9153  38.2656  38.7761  40.2867
    40.4897  40.7299  42.2787  43.1319  44.4342  44.8731  45.0300  45.6225
    47.1098  47.8882  49.0869  49.2263  49.3280  50.2825  50.4632  51.0871
    51.7861  53.1370  53.5951  55.0320  55.8392  56.2753  56.5357  56.6399
    56.7006  56.9005  57.9931  58.9274  59.3618  60.0603  60.0701  61.4814
    62.1535  63.3319  64.0731  64.7691  65.2030  65.7126  67.5072  67.7013
    68.0712  68.2114  68.4914  68.9649  69.4091  70.3030  70.5949  70.6488
    73.0047  73.6738  73.7190  74.0318  74.0741  74.8429  75.5902  76.4045
    76.4836  76.6601  76.7204  76.8937  78.0603  78.9276  80.3044  80.3833
    80.5983  80.8415  81.1993  83.3160  84.4212  85.9855  86.1494  87.9000
    88.0832  88.2797  89.4315  89.4543  90.1999  91.0729  91.8133  92.0585
    92.4240  93.0057  93.1855  93.2278  93.6588  94.0570  94.5723  95.4220
    95.9241  96.8522  97.0019  97.1894  97.7365  97.9264  98.4223  99.1338
    99.4935 100.3919 100.5492 100.9005 101.6908 102.3895 102.7068 103.3911
   104.0391 104.9056 105.6543 105.9378 106.3148 106.6030 106.7543 107.6309
   107.6748 107.8804 108.2191 108.3239 108.9135 109.4526 109.4879 109.8640
   110.1176 110.2455 110.5510 111.4248 112.2030 112.4731 112.7752 113.7124
   113.9812 114.1161 114.7503 114.9627 115.0728 116.5702 116.7771 117.4060
   117.8099 118.1938 118.4430 119.0425 119.3526 119.7961 119.8931 122.5048
   122.7681 122.8247 122.9140 123.6926 124.0649 124.0822 124.2636 124.6336
   125.4250 125.5701 125.6495 125.7665 125.9260 126.4245 126.5214 126.6052
   126.7281 126.9150 127.0963 127.8507 128.7508 129.1808 131.3975 132.3276
   132.5203 133.8562 134.2237 134.6101 135.2555 135.5613 136.1831 136.5382
   136.6482 136.8806 136.9692 137.7724 137.8321 137.8765 138.6029 139.4294
   139.8608 140.3711 141.0323 142.1426 142.5994 143.3432 143.4469 143.6007
   144.0240 144.3321 144.6781 144.8681 145.5086 145.9521 146.3278 146.6994
   147.0451 147.6614 147.7596 148.8864 149.2244 149.7277 150.0298 150.0772
   150.3779 150.4995 151.4065 151.9069 152.1360 152.5255 152.6589 154.5986
   155.0272 155.2909 155.6766 156.2103 156.4689 156.4782 156.9580 157.9286
   158.0752 158.6170 158.9964 159.1961 159.8599 160.1795 160.2060 161.1096
   161.2455 161.3393 161.8943 161.9560 162.8103 162.8857 163.2500 163.3351
   163.5778 164.9867 165.3668 165.5983 166.0605 167.5258 167.6750 167.7876
   167.8343 168.3590 168.8381 169.2535 169.3496 169.5351 169.5443 171.3502
   171.7992 172.1331 172.1801 172.3584 172.5206 173.1096 173.4239 173.7940
   174.7106 174.8029 174.8788 175.1451 175.1592 175.5206 175.7563 175.9417
   176.2724 176.3198 176.7160 176.8857 177.9291 178.0902 178.3518 178.6747
   179.0381 179.3693 179.3788 180.0784 180.4934 180.6679 181.1594 181.2428
   181.4574 182.3085 182.8755 183.1304 183.3743 184.0090 184.0442 184.2631
   184.5158 184.5986 184.6575 185.0414 185.2410 185.2479 185.7910 185.8676
   186.0263 186.3896 186.9497 187.2013 188.6650 188.8685 190.5167 190.8566
   190.8917 190.9009 190.9890 191.1379 191.5473 191.5853 191.6601 191.8667
   191.8683 192.5704 192.6743 193.2137 193.2803 194.2061 195.3509 195.6270
   196.7665 197.1231 197.1976 197.9785 198.2811 198.5744 199.6741 199.6855
   200.3970 200.5077 201.1224 201.3160 201.4226 201.7309 201.9990 202.4366
   202.9812 203.5628 203.6549 203.7624 203.9345 204.2703 204.3177 204.5335
   205.1579 205.9754 206.7160 206.7580 207.0358 207.4740 207.6211 207.9678
   208.4754 208.6089 208.8648 209.3173 209.4197 209.6590 209.8411 210.0946
   210.6138 211.2010 211.7438 212.1176 212.1811 212.2459 212.4026 212.7953
   213.2698 213.7155 213.9513 214.1649 214.2709 214.3265 214.8304 215.0933
   215.7242 216.5429 217.8673 217.9921 220.2006 220.4423 220.8959 221.3936
   222.0031 222.0626 222.0999 223.0914 223.5173 223.5896 223.7543 223.8490
   223.8780 224.1286 224.6690 224.8117 225.0309 225.1748 225.4383 225.6774
   225.9557 226.4735 226.7456 226.7832 227.8251 228.0187 228.0418 228.4468
   228.8886 229.4773 229.5961 229.8741 230.4991 230.5636 230.6008 230.7739
   230.8070 231.0328 231.2800 231.3369 232.1052 232.4426 233.0747 233.5974
   234.1467 234.2354 234.5994 234.7564 235.0666 235.8129 236.3959 236.9266
   237.1657 237.4838 237.5759 238.0072 238.6032 238.7572 239.0228 239.2748
   239.6169 239.7790 239.9514 239.9877 240.1104 240.4072 240.6825 241.3843
   241.6064 241.9295 242.0546 242.1380 242.3326 243.7297 243.7885 243.8886
   244.5845 244.9305 245.0630 245.5016 247.3948 247.7902 248.1975 248.3195
   248.7617 249.5502 249.6821 249.8767 250.1829 250.6405 250.9478 251.9747
   251.9858 252.1790 252.2233 252.4786 252.8463 252.9414 253.3328 253.6733
   253.8625 253.9411 255.0327 255.4356 255.4834 255.7673 256.2725 256.4009
   256.4864 256.4895 256.6959 256.8782 258.2654 259.0439 259.1465 259.1870
   259.8274 260.2576 260.4226 260.8174 261.0855 261.0971 261.1327 261.4826
   262.3719 262.5254 262.9469 263.4670 263.9731 264.1518 264.3498 264.4153
   264.5442 264.7580 265.5304 265.5588 266.3136 266.3189 266.3853 266.6093
   266.6432 266.9024 267.2167 267.2498 267.3101 267.4286 267.4472 267.8003
   267.9430 268.0047 268.2516 268.3455 268.5364 268.8384 269.3094 269.4256
   269.4468 269.7302 270.5365 270.7810 271.1192 271.4155 271.4166 271.4977
   271.5157 273.4530 274.1457 274.1533 274.2384 274.4435 274.4799 275.1084
   275.2903 275.5350 275.5449 275.7108 275.7891 275.9596 276.3404 276.7874
   276.9983 277.2623 277.4344 277.7149 277.8178 277.9755 278.1375 279.2139
   279.3599 279.5471 279.9719 280.0687 280.0834 280.9700 281.3593 281.7103
   282.4300 282.6100 282.7354 282.9222 282.9799 283.2191 283.4588 284.8358
   284.9639 285.7324 285.7743 286.5146 286.7655 286.9909 287.1987 287.6962
   287.7428 287.9683 288.0913 289.5864 289.6888 289.6941 289.7500 289.8321
   289.9775 290.0521 290.4178 290.7982 290.9079 291.0189 291.0703 291.2302
   291.2630 291.3258 291.4207 291.7871 292.2794 292.6120 292.7339 292.9673
   293.2640 293.2945 294.3835 295.3441 295.4226 295.5334 295.6978 295.9374
   296.4970 296.5265 296.7243 297.2352 297.2487 297.3345 297.6693 299.1958
   299.5584 299.9297 300.0167 300.0843 300.1432 300.2502 300.3286 300.4785
   300.8429 302.5990 303.1135 303.1759 303.2442 303.4844 303.8850 303.9196
   304.1627 304.8233 305.0604 305.0615 305.3576 305.8333 305.8713 305.9481
   306.0482 307.0129 307.0245 307.2078 307.7859 308.0108 308.9157 309.3361
   309.5692 309.5728 309.9339 310.2593 310.6120 310.6973 312.3200 312.3727
   312.3927 312.5445 312.5773 312.5964 313.2317 313.6319 313.9965 314.3105
   314.5988 314.6579 314.7065 315.2582 315.3065 315.5125 316.0878 316.2453
   316.3423 316.7992 316.9114 317.2229 318.3956 318.5380 318.5529 318.7163
   318.9954 319.1601 319.2869 319.4105 319.9351 319.9560 320.1747 321.7538
   321.7937 321.8102 323.8150 323.8873 325.4235 325.5977 326.6109 326.9661
   327.1612 327.4636 327.9112 328.1389 328.2377 328.6362 328.6821 329.5811
   329.6776 330.1724 330.3191 330.8179 331.3582 331.3930 332.1929 332.8315
   332.9566 333.0988 333.3898 333.6268 333.7433 334.0525 334.0930 334.3947
   334.5590 334.6159 334.7346 335.1968 335.4752 335.6819 335.8998 335.9006
   336.0356 336.1544 336.3657 336.3953 336.7299 336.8611 337.2684 337.3035
   337.8780 337.9631 337.9939 338.6039 338.6484 338.6823 338.8489 339.0982
   339.2421 339.7893 340.3637 340.7201 340.8963 341.4579 341.5703 341.8737
   342.1044 342.1862 342.2031 342.4229 342.4431 342.6557 342.9687 343.3006
   343.4043 343.6288 344.0465 344.3251 344.3834 344.4277 344.5224 345.0496
   345.2047 345.2118 345.2378 345.9532 346.1722 347.0165 347.1220 347.9857
   348.1233 348.7710 348.9865 349.7528 350.0040 350.3029 351.2582 351.3796
   352.0101 352.0609 352.1440 352.6610 352.7896 352.8842 352.9331 353.3605
   353.6907 353.7225 354.2220 354.2663 354.5081 354.5840 354.6712 354.9599
   354.9711 355.0841 355.2177 355.2903 355.4046 355.4697 355.5795 355.6281
   355.7843 355.9022 356.1507 356.2582 356.2813 356.3502 356.6592 356.6629
   356.7698 356.8394 356.8505 356.9339 356.9349 357.6531 358.0000 358.0084
   358.8769 358.9307 358.9838 359.1657 360.4186 360.4721 360.7108 361.1534
   361.6931 362.1947 362.1968 363.9317 364.4264 364.9242 365.0154 366.0602
   366.2271 366.9735 367.0837 367.0955 367.0992 367.5282 367.6225 367.6256
   368.6408 368.8553 369.1460 369.3223 369.7125 369.7200 369.8588 370.0922
   370.1114 370.2707 370.4069 370.9565 371.1011 371.2635 371.2870 371.3090
   371.4234 371.6095 371.8746 371.8855 372.2772 372.4086 372.5303 373.3338
   373.5982 373.8183 373.9623 374.1131 374.3120 374.4244 374.5096 374.7262
   374.7928 375.0994 375.4868 375.8753 376.1488 376.2905 376.4993 376.5528
   376.7904 377.0886 377.5742 377.7847 377.8352 378.1635 378.4530 379.3334
   379.8178 380.2671 380.9307 381.2439 381.5024 381.7768 382.0303 382.4921
   382.5654 382.6213 382.8226 382.9581 383.1784 383.2822 383.2879 383.4635
   383.5794 384.2611 384.3001 384.6366 384.8903 385.9578 385.9611 386.1019
   386.5162 386.7021 387.0076 387.1888 387.4162 387.4809 387.9786 388.1154
   388.7563 389.8817 389.9748 389.9819 390.0076 390.0105 390.1798 390.4798
   390.6733 390.7055 390.9613 391.0390 391.2177 391.3048 391.3222 391.3345
   391.5160 391.6988 392.0041 392.0384 392.0511 392.0528 392.2951 393.2682
   394.0851 394.3879 394.5445 395.1728 397.4109 398.0952 398.1833 398.2824
   398.4628 398.5360 398.6403 398.7809 398.8517 398.8571 399.2050 399.5591
   399.6038 399.7188 399.7415 399.8006 399.8419 400.1212 400.4489 400.6930
   400.9606 401.0977 401.4961 402.7526 402.7574 403.1515 403.1717 403.2197
   403.2261 403.3291 403.5363 403.6552 404.2749 404.4237 404.4929 404.5062
   404.6267 404.7719 404.8750 404.9142 405.2708 405.2786 405.8508 406.0089
   406.0406 406.1221 406.3752 406.4267 406.8559 406.8697 406.8771 406.8956
   409.1508 410.0457 410.7608 411.2092 411.3877 411.6959 411.7322 411.9546
   412.2514 412.3597 412.4034 412.6659 412.7475 412.7806 412.7862 412.9147
   413.2655 413.5325 413.8046 413.9361 414.1630 414.1829 414.2198 414.4276
   414.4363 414.5593 414.9330 416.1077 416.6299 416.8839 416.9471 417.8813
   418.7809 419.4062 419.7451 419.8623 419.9891 420.0297 420.2962 420.4167
   420.4229 420.4905 420.7969 422.1217 422.1638 422.1759 422.2859 422.3189
   422.4695 422.5778 422.6286 422.6469 422.7532 423.6762 423.9979 424.2804
   424.6922 424.7503 425.3443 425.3535 425.4377 426.8109 426.8852 426.9537
   427.2216 427.3082 427.4461 427.5427 427.6053 427.6941 427.7569 427.7659
   427.7857 428.0875 428.2572 429.2266 429.2431 429.5531 429.6631 430.7184
   431.6503 431.6560 431.7546 432.0911 432.2115 432.3325 432.6350 432.7284
   432.8087 433.2273 433.3127 433.3648 434.3307 434.3353 434.3560 434.4654
   434.7015 434.8141 434.8327 435.8293 435.8757 436.1970 436.4326 436.5235
   436.5257 436.9309 436.9565 437.1016 437.6784 437.8638 438.1099 438.6906
   439.1321 439.3048 439.8603 439.9820 440.1334 440.8662 441.2155 441.8611
   442.0051 442.1036 442.5297 443.9893 444.0476 444.3168 444.4588 444.4610
   444.4696 444.5623 444.9560 445.0231 445.3734 446.3371 446.3492 446.6580
   446.8406 447.0216 447.0405 447.3136 447.3323 448.0626 448.3758 448.7800
   448.8894 449.1165 449.2106 449.4298 449.4563 449.4713 449.9876 450.3126
   451.0132 451.2471 451.4011 451.4022 451.7928 451.8954 451.9145 452.1843
   452.2389 452.4942 452.8296 452.9959 453.0562 453.0623 453.2906 453.3119
   453.4776 453.5031 453.5311 453.8047 453.9186 454.7102 454.8487 454.9274
   454.9465 456.7435 456.7576 456.8319 456.8446 457.1253 457.1541 457.3078
   457.5883 457.8734 458.0154 458.1108 458.4979 459.5711 459.6114 459.7113
   459.7933 460.3143 460.3222 461.3281 461.3762 461.3768 461.9059 463.6275
   464.2594 464.5159 464.9164 464.9335 465.0292 465.6261 465.6328 465.6666
   465.8534 465.9496 466.1692 466.3479 466.3685 466.5897 467.0568 467.3478
   467.6094 467.6804 467.6939 467.7398 467.9924 468.2247 468.4134 468.7873
   468.9028 468.9635 469.1066 469.4036 469.7105 469.7213 469.9845 470.1936
   470.3029 470.5384 470.8453 471.1538 471.2295 471.4540 471.5460 471.6314
   471.7345 471.8384 471.9882 472.0831 472.1522 472.1572 472.3153 472.4054
   472.7628 472.7771 473.0156 473.3775 473.4128 473.5172 473.7199 474.0684
   474.2349 474.7538 475.4890 475.6888 475.7164 476.0207 476.0306 476.4290
   476.5640 476.5910 476.6979 476.7444 476.8616 477.2558 477.3160 477.4122
   477.4277 477.6056 477.8840 478.7068 478.7551 479.8691 479.9974 480.1305
   480.4760 480.6502 480.6774 480.9475 480.9871 481.1489 481.1665 481.3156
   481.5894 481.6076 482.5389 482.5733 482.6823 482.6884 484.9481 484.9688
   484.9990 485.0167 485.1717 485.4923 485.5317 485.7289 485.8315 486.0546
   486.3536 486.4637 486.6000 486.6201 486.8640 486.9980 487.1634 487.3147
   487.4049 487.5002 487.5850 487.8088 487.8494 487.9207 488.3931 488.3948
   488.4197 488.5019 488.6180 488.6501 488.8015 488.8557 489.0230 489.0927
   490.4842 490.7015 491.2975 491.3681 491.6913 491.7070 491.9158 492.4007
   492.4958 493.4170 494.1070 494.1267 496.0613 496.3050 496.5092 496.8248
   496.8904 496.9393 497.2176 497.3354 497.3568 497.5475 497.7744 497.8073
   497.8106 497.8455 497.8759 498.0335 498.0585 498.2730 498.3866 498.4113
   498.5445 498.7361 498.8516 498.9953 500.6921 500.8511 501.0581 501.8759
   502.4312 502.5510 502.9503 503.1240 503.2257 503.2342 503.3047 503.4353
   503.5614 503.7699 503.9186 503.9848 504.3156 504.3765 504.3928 504.7876
   504.9848 505.0887 505.2336 505.3084 505.3346 505.4003 505.5582 505.6647
   505.6792 505.8281 505.9229 505.9612 506.0214 506.2436 506.5877 507.0983
   507.2544 507.2782 507.6120 507.8685 507.8947 508.3003 508.4178 508.5944
   508.6345 508.9476 508.9851 509.0431 509.0577 509.3533 509.3751 510.1289
   510.1811 512.8667 512.9162 513.1239 513.1496 513.2577 513.4457 513.9203
   514.1787 514.4811 514.9566 515.0067 515.0896 515.2184 516.0333 516.3344
   516.4120 517.2263 517.3060 517.4900 517.6597 517.9626 517.9803 518.0435
   518.0455 518.0709 518.0719 518.6817 518.8644 518.9437 519.3404 519.6716
   519.6837 520.0278 520.0444 520.2539 520.3772 520.3851 520.5410 520.5536
   520.6789 520.7388 521.0070 521.1875 521.2802 521.3042 521.3871 521.5716
   521.5746 521.7378 521.7829 522.3727 522.3785 522.8707 523.2171 523.3509
   523.3695 523.4036 523.4548 523.4848 523.8446 523.8613 523.8640 524.0688
   524.2075 525.5625 525.6751 527.5259 527.5424 528.1189 528.2070 528.2434
   528.4413 528.4905 529.3722 529.5823 529.7913 529.8389 529.9111 529.9577
   530.4813 530.7784 531.0034 531.0189 531.0328 531.0614 531.0835 531.1323
   531.2023 531.4877 531.5932 531.6200 531.6468 531.6659 531.9947 532.1586
   532.1593 532.4707 533.1457 533.3507 533.4125 533.5953 534.9995 535.4594
   535.7699 535.9227 536.1786 536.2324 536.2329 536.2724 536.5602 536.6429
   536.6636 536.6773 536.8327 536.8747 537.2037 537.2736 537.2787 537.3697
   537.4197 537.4352 537.5832 537.6608 537.7284 537.9385 538.0274 538.2751
   538.2775 538.3754 538.4131 538.5424 539.3545 539.8458 540.1467 541.0201
   541.2145 541.3952 541.4179 543.0115 543.0903 544.8610 545.4351 545.4886
   545.5596 545.7445 545.8061 545.8841 546.1149 546.1830 546.2260 546.3367
   547.5349 548.3584 548.4071 548.5661 548.6976 550.1337 550.1620 550.6206
   550.6288 550.6873 550.7322 551.0615 551.0876 551.1843 551.2114 551.2304
   551.6929 551.7919 551.8055 551.8969 552.2137 552.8989 552.9354 552.9899
   553.4250 553.4405 553.5667 553.8169 553.9683 554.1246 554.2297 554.2951
   554.4248 555.9147 555.9827 556.2276 556.3146 556.8509 557.3940 558.1385
   558.5743 558.8979 558.8990 558.9818 559.2912 559.3081 559.4047 559.6398

     the Fermi energy is     6.6034 ev
     (compare with:     6.6034 eV, computed in scf)

     Writing all to output data dir out/mp-1087.save/
 
     init_run     :      0.02s CPU      0.07s WALL (       1 calls)
     electrons    :   2325.35s CPU   2498.26s WALL (       1 calls)

     Called by init_run:
     wfcinit      :      0.00s CPU      0.00s WALL (       1 calls)
     potinit      :      0.00s CPU      0.03s WALL (       1 calls)
     hinit0       :      0.01s CPU      0.03s WALL (       1 calls)

     Called by electrons:
     c_bands      :   2325.34s CPU   2498.23s WALL (       1 calls)
     v_of_rho     :      0.00s CPU      0.00s WALL (       1 calls)

     Called by c_bands:
     init_us_2    :      0.00s CPU      0.00s WALL (      16 calls)
     init_us_2:cp :      0.00s CPU      0.00s WALL (      16 calls)
     cegterg      :   2284.39s CPU   2454.18s WALL (      16 calls)

     Called by *egterg:
     cdiaghg      :   2194.76s CPU   2360.74s WALL (     139 calls)
     h_psi        :     24.50s CPU     25.69s WALL (     155 calls)
     g_psi        :      0.15s CPU      0.15s WALL (     123 calls)

     Called by h_psi:
     h_psi:calbec :      0.37s CPU      0.38s WALL (     155 calls)
     vloc_psi     :     23.55s CPU     24.71s WALL (     155 calls)
     add_vuspsi   :      0.28s CPU      0.29s WALL (     155 calls)

     General routines
     calbec       :      0.37s CPU      0.38s WALL (     155 calls)
     fft          :      0.00s CPU      0.02s WALL (      10 calls)
     fftw         :     22.02s CPU     23.11s WALL (  321776 calls)
 
     Parallel routines
 
     PWSCF        :  38m48.99s CPU  41m43.23s WALL

 
   This run was terminated on:   8:49:44  15Nov2023            

=------------------------------------------------------------------------------=
   JOB DONE.
=------------------------------------------------------------------------------=
