
     Program PWSCF v.7.1 starts on 22Dec2023 at  5:27:18 

     This program is part of the open-source Quantum ESPRESSO suite
     for quantum simulation of materials; please cite
         "P. Giannozzi et al., J. Phys.:Condens. Matter 21 395502 (2009);
         "P. Giannozzi et al., J. Phys.:Condens. Matter 29 465901 (2017);
         "P. Giannozzi et al., J. Chem. Phys. 152 154105 (2020);
          URL http://www.quantum-espresso.org", 
     in publications or presentations arising from this work. More details at
     http://www.quantum-espresso.org/quote

     Parallel version (MPI), running on    24 processors

     MPI processes distributed on     1 nodes
     123061 MiB available memory on the printing compute node when the environment starts
 
     Reading input from pw_mp-22916_scf_k3000_E75.in
Warning: card &CELL ignored
Warning: card / ignored

     Current dimensions of program PWSCF are:
     Max number of different atomic species (ntypx) = 10
     Max number of k-points (npk) =  40000
     Max angular momentum in pseudopotentials (lmaxx) =  4
 
     K-points division:     npool     =       2
     R & G space division:  proc/nbgrp/npool/nimage =      12
     Subspace diagonalization in iterative solution of the eigenvalue problem:
     a serial algorithm will be used

 
     Parallelization info
     --------------------
     sticks:   dense  smooth     PW     G-vecs:    dense   smooth      PW
     Min         107     107     31                 2568     2568     411
     Max         108     108     32                 2573     2573     414
     Sum        1285    1285    379                30827    30827    4957
 
     Using Slab Decomposition
 


     bravais-lattice index     =            2
     lattice parameter (alat)  =      11.1930  a.u.
     unit-cell volume          =     350.5745 (a.u.)^3
     number of atoms/cell      =            2
     number of atomic types    =            2
     number of electrons       =        16.00
     number of Kohn-Sham states=           16
     kinetic-energy cutoff     =      75.0000  Ry
     charge density cutoff     =     300.0000  Ry
     scf convergence threshold =      1.0E-10
     mixing beta               =       0.7000
     number of iterations used =            8  plain     mixing
     Exchange-correlation= PBE
                           (   1   4   3   4   0   0   0)

     celldm(1)=  11.193007  celldm(2)=   0.000000  celldm(3)=   0.000000
     celldm(4)=   0.000000  celldm(5)=   0.000000  celldm(6)=   0.000000

     crystal axes: (cart. coord. in units of alat)
               a(1) = (  -0.500000   0.000000   0.500000 )  
               a(2) = (   0.000000   0.500000   0.500000 )  
               a(3) = (  -0.500000   0.500000   0.000000 )  

     reciprocal axes: (cart. coord. in units 2 pi/alat)
               b(1) = ( -1.000000 -1.000000  1.000000 )  
               b(2) = (  1.000000  1.000000  1.000000 )  
               b(3) = ( -1.000000  1.000000 -1.000000 )  


     PseudoPot. # 1 for Br read from file:
     /usr/scratch4/magr4985/MG/HTDF/pseudo/SG15/Br.upf
     MD5 check sum: 5b50323dbf1c0ae0ed9e7f1e72c3f86c
     Pseudo is Norm-conserving, Zval =  7.0
     Generated using ONCVPSP code by D. R. Hamann
     Using radial grid of  602 points,  6 beta functions with: 
                l(1) =   0
                l(2) =   0
                l(3) =   1
                l(4) =   1
                l(5) =   2
                l(6) =   2

     PseudoPot. # 2 for Na read from file:
     /usr/scratch4/magr4985/MG/HTDF/pseudo/SG15/Na.upf
     MD5 check sum: 425b17ce8ead78efa4860b7b3310c7e3
     Pseudo is Norm-conserving, Zval =  9.0
     Generated using ONCVPSP code by D. R. Hamann
     Using radial grid of  602 points,  4 beta functions with: 
                l(1) =   0
                l(2) =   0
                l(3) =   1
                l(4) =   1

     atomic species   valence    mass     pseudopotential
        Br             7.00    79.90400     Br( 1.00)
        Na             9.00    22.98980     Na( 1.00)

     48 Sym. Ops., with inversion, found



   Cartesian axes

     site n.     atom                  positions (alat units)
         1           Na  tau(   1) = (   0.0000000   0.0000000   0.0000000  )
         2           Br  tau(   2) = (  -0.5000000   0.5000000   0.5000000  )

     number of k points=    72  Gaussian smearing, width (Ry)=  0.0005
                       cart. coord. in units 2pi/alat
        k(    1) = (   0.0000000   0.0000000   0.0000000), wk =   0.0011574
        k(    2) = (  -0.0833333   0.0833333  -0.0833333), wk =   0.0092593
        k(    3) = (  -0.1666667   0.1666667  -0.1666667), wk =   0.0092593
        k(    4) = (  -0.2500000   0.2500000  -0.2500000), wk =   0.0092593
        k(    5) = (  -0.3333333   0.3333333  -0.3333333), wk =   0.0092593
        k(    6) = (  -0.4166667   0.4166667  -0.4166667), wk =   0.0092593
        k(    7) = (   0.5000000  -0.5000000   0.5000000), wk =   0.0046296
        k(    8) = (   0.0000000   0.1666667   0.0000000), wk =   0.0069444
        k(    9) = (  -0.0833333   0.2500000  -0.0833333), wk =   0.0277778
        k(   10) = (  -0.1666667   0.3333333  -0.1666667), wk =   0.0277778
        k(   11) = (  -0.2500000   0.4166667  -0.2500000), wk =   0.0277778
        k(   12) = (  -0.3333333   0.5000000  -0.3333333), wk =   0.0277778
        k(   13) = (   0.5833333  -0.4166667   0.5833333), wk =   0.0277778
        k(   14) = (   0.5000000  -0.3333333   0.5000000), wk =   0.0277778
        k(   15) = (   0.4166667  -0.2500000   0.4166667), wk =   0.0277778
        k(   16) = (   0.3333333  -0.1666667   0.3333333), wk =   0.0277778
        k(   17) = (   0.2500000  -0.0833333   0.2500000), wk =   0.0277778
        k(   18) = (   0.1666667  -0.0000000   0.1666667), wk =   0.0138889
        k(   19) = (   0.0000000   0.3333333   0.0000000), wk =   0.0069444
        k(   20) = (  -0.0833333   0.4166667  -0.0833333), wk =   0.0277778
        k(   21) = (  -0.1666667   0.5000000  -0.1666667), wk =   0.0277778
        k(   22) = (  -0.2500000   0.5833333  -0.2500000), wk =   0.0277778
        k(   23) = (   0.6666667  -0.3333333   0.6666667), wk =   0.0277778
        k(   24) = (   0.5833333  -0.2500000   0.5833333), wk =   0.0277778
        k(   25) = (   0.5000000  -0.1666667   0.5000000), wk =   0.0277778
        k(   26) = (   0.4166667  -0.0833333   0.4166667), wk =   0.0277778
        k(   27) = (   0.3333333   0.0000000   0.3333333), wk =   0.0138889
        k(   28) = (   0.0000000   0.5000000   0.0000000), wk =   0.0069444
        k(   29) = (  -0.0833333   0.5833333  -0.0833333), wk =   0.0277778
        k(   30) = (  -0.1666667   0.6666667  -0.1666667), wk =   0.0277778
        k(   31) = (   0.7500000  -0.2500000   0.7500000), wk =   0.0277778
        k(   32) = (   0.6666667  -0.1666667   0.6666667), wk =   0.0277778
        k(   33) = (   0.5833333  -0.0833333   0.5833333), wk =   0.0277778
        k(   34) = (   0.5000000   0.0000000   0.5000000), wk =   0.0138889
        k(   35) = (   0.0000000   0.6666667   0.0000000), wk =   0.0069444
        k(   36) = (  -0.0833333   0.7500000  -0.0833333), wk =   0.0277778
        k(   37) = (   0.8333333  -0.1666667   0.8333333), wk =   0.0277778
        k(   38) = (   0.7500000  -0.0833333   0.7500000), wk =   0.0277778
        k(   39) = (   0.6666667  -0.0000000   0.6666667), wk =   0.0138889
        k(   40) = (   0.0000000   0.8333333   0.0000000), wk =   0.0069444
        k(   41) = (   0.9166667  -0.0833333   0.9166667), wk =   0.0277778
        k(   42) = (   0.8333333   0.0000000   0.8333333), wk =   0.0138889
        k(   43) = (   0.0000000  -1.0000000   0.0000000), wk =   0.0034722
        k(   44) = (  -0.1666667   0.3333333   0.0000000), wk =   0.0277778
        k(   45) = (  -0.2500000   0.4166667  -0.0833333), wk =   0.0555556
        k(   46) = (  -0.3333333   0.5000000  -0.1666667), wk =   0.0555556
        k(   47) = (   0.5833333  -0.4166667   0.7500000), wk =   0.0555556
        k(   48) = (   0.5000000  -0.3333333   0.6666667), wk =   0.0277778
        k(   49) = (  -0.1666667   0.5000000   0.0000000), wk =   0.0277778
        k(   50) = (  -0.2500000   0.5833333  -0.0833333), wk =   0.0555556
        k(   51) = (   0.6666667  -0.3333333   0.8333333), wk =   0.0555556
        k(   52) = (   0.5833333  -0.2500000   0.7500000), wk =   0.0555556
        k(   53) = (   0.5000000  -0.1666667   0.6666667), wk =   0.0555556
        k(   54) = (   0.4166667  -0.0833333   0.5833333), wk =   0.0555556
        k(   55) = (   0.3333333   0.0000000   0.5000000), wk =   0.0277778
        k(   56) = (  -0.1666667   0.6666667  -0.0000000), wk =   0.0277778
        k(   57) = (   0.7500000  -0.2500000   0.9166667), wk =   0.0555556
        k(   58) = (   0.6666667  -0.1666667   0.8333333), wk =   0.0555556
        k(   59) = (   0.5833333  -0.0833333   0.7500000), wk =   0.0555556
        k(   60) = (   0.5000000   0.0000000   0.6666667), wk =   0.0277778
        k(   61) = (   0.8333333  -0.1666667   1.0000000), wk =   0.0277778
        k(   62) = (   0.7500000  -0.0833333   0.9166667), wk =   0.0555556
        k(   63) = (   0.6666667   0.0000000   0.8333333), wk =   0.0277778
        k(   64) = (  -0.1666667  -1.0000000  -0.0000000), wk =   0.0138889
        k(   65) = (   0.6666667  -0.3333333   1.0000000), wk =   0.0277778
        k(   66) = (   0.5833333  -0.2500000   0.9166667), wk =   0.0555556
        k(   67) = (   0.5000000  -0.1666667   0.8333333), wk =   0.0277778
        k(   68) = (   0.6666667  -0.1666667   1.0000000), wk =   0.0277778
        k(   69) = (   0.5833333  -0.0833333   0.9166667), wk =   0.0555556
        k(   70) = (   0.5000000   0.0000000   0.8333333), wk =   0.0277778
        k(   71) = (  -0.3333333  -1.0000000   0.0000000), wk =   0.0138889
        k(   72) = (  -0.5000000  -1.0000000   0.0000000), wk =   0.0069444

     Dense  grid:    30827 G-vectors     FFT dimensions: (  45,  45,  45)

     Estimated max dynamical RAM per process >       5.05 MB

     Estimated total dynamical RAM >     113.79 MB

     Initial potential from superposition of free atoms

     starting charge      15.8534, renormalised to      16.0000
     Starting wfcs are random

     total cpu time spent up to now is        0.9 secs

     Self-consistent Calculation

     iteration #  1     ecut=    75.00 Ry     beta= 0.70
     Davidson diagonalization with overlap
     ethr =  1.00E-02,  avg # of iterations =  9.2

     Threshold (ethr) on eigenvalues was too large:
     Diagonalizing with lowered threshold

     Davidson diagonalization with overlap
     ethr =  2.66E-04,  avg # of iterations =  5.7

     total cpu time spent up to now is        2.9 secs

     total energy              =    -112.39156517 Ry
     estimated scf accuracy    <       0.03728071 Ry

     iteration #  2     ecut=    75.00 Ry     beta= 0.70
     Davidson diagonalization with overlap
     ethr =  2.33E-04,  avg # of iterations =  2.4

     total cpu time spent up to now is        3.5 secs

     total energy              =    -112.40158049 Ry
     estimated scf accuracy    <       0.00467925 Ry

     iteration #  3     ecut=    75.00 Ry     beta= 0.70
     Davidson diagonalization with overlap
     ethr =  2.92E-05,  avg # of iterations =  5.7

     total cpu time spent up to now is        4.2 secs

     total energy              =    -112.40261214 Ry
     estimated scf accuracy    <       0.00021064 Ry

     iteration #  4     ecut=    75.00 Ry     beta= 0.70
     Davidson diagonalization with overlap
     c_bands:  1 eigenvalues not converged
     ethr =  1.32E-06,  avg # of iterations =  7.2

     total cpu time spent up to now is        5.0 secs

     total energy              =    -112.40269099 Ry
     estimated scf accuracy    <       0.00000541 Ry

     iteration #  5     ecut=    75.00 Ry     beta= 0.70
     Davidson diagonalization with overlap
     ethr =  3.38E-08,  avg # of iterations =  3.3

     total cpu time spent up to now is        5.6 secs

     total energy              =    -112.40269410 Ry
     estimated scf accuracy    <       0.00000030 Ry

     iteration #  6     ecut=    75.00 Ry     beta= 0.70
     Davidson diagonalization with overlap
     ethr =  1.86E-09,  avg # of iterations =  4.4

     total cpu time spent up to now is        6.2 secs

     total energy              =    -112.40269435 Ry
     estimated scf accuracy    <       0.00000004 Ry

     iteration #  7     ecut=    75.00 Ry     beta= 0.70
     Davidson diagonalization with overlap
     ethr =  2.36E-10,  avg # of iterations =  2.5

     total cpu time spent up to now is        6.7 secs

     total energy              =    -112.40269436 Ry
     estimated scf accuracy    <          3.0E-09 Ry

     iteration #  8     ecut=    75.00 Ry     beta= 0.70
     Davidson diagonalization with overlap
     ethr =  1.86E-11,  avg # of iterations =  4.0

     total cpu time spent up to now is        7.2 secs

     total energy              =    -112.40269436 Ry
     estimated scf accuracy    <          1.3E-10 Ry

     iteration #  9     ecut=    75.00 Ry     beta= 0.70
     Davidson diagonalization with overlap
     ethr =  7.96E-13,  avg # of iterations =  3.7

     total cpu time spent up to now is        7.8 secs

     total energy              =    -112.40269436 Ry
     estimated scf accuracy    <          1.5E-10 Ry

     iteration # 10     ecut=    75.00 Ry     beta= 0.70
     Davidson diagonalization with overlap
     ethr =  7.96E-13,  avg # of iterations =  1.0

     total cpu time spent up to now is        8.2 secs

     total energy              =    -112.40269436 Ry
     estimated scf accuracy    <          1.7E-10 Ry

     iteration # 11     ecut=    75.00 Ry     beta= 0.70
     Davidson diagonalization with overlap
     ethr =  7.96E-13,  avg # of iterations =  2.0

     total cpu time spent up to now is        8.7 secs

     total energy              =    -112.40269436 Ry
     estimated scf accuracy    <          4.8E-10 Ry

     iteration # 12     ecut=    75.00 Ry     beta= 0.70
     Davidson diagonalization with overlap
     ethr =  7.96E-13,  avg # of iterations =  2.0

     total cpu time spent up to now is        9.2 secs

     total energy              =    -112.40269436 Ry
     estimated scf accuracy    <          8.7E-10 Ry

     iteration # 13     ecut=    75.00 Ry     beta= 0.70
     Davidson diagonalization with overlap
     ethr =  7.96E-13,  avg # of iterations =  3.5

     total cpu time spent up to now is        9.7 secs

     End of self-consistent calculation

          k = 0.0000 0.0000 0.0000 (  3839 PWs)   bands (ev):

   -47.8949 -19.8247 -19.8247 -19.8247 -11.1118   1.7466   1.7466   1.7466
     5.9533  11.6220  11.6220  11.6220  13.8209  13.8209  14.7633  16.5845

          k =-0.0833 0.0833-0.0833 (  3815 PWs)   bands (ev):

   -47.8947 -19.8258 -19.8248 -19.8248 -11.0928   1.5329   1.7260   1.7260
     6.2188  11.3507  11.7143  11.7143  13.6071  13.6071  15.2441  16.4756

          k =-0.1667 0.1667-0.1667 (  3801 PWs)   bands (ev):

   -47.8946 -19.8290 -19.8250 -19.8250 -11.0402   1.0393   1.6709   1.6709
     6.8352  10.9188  11.8781  11.8781  13.3575  13.3575  15.6109  16.9932

          k =-0.2500 0.2500-0.2500 (  3825 PWs)   bands (ev):

   -47.8946 -19.8332 -19.8253 -19.8253 -10.9666   0.4897   1.5981   1.5981
     7.4631  10.7620  11.8090  11.8090  13.6422  13.6422  15.2263  18.6348

          k =-0.3333 0.3333-0.3333 (  3855 PWs)   bands (ev):

   -47.8946 -19.8375 -19.8256 -19.8256 -10.8908   0.0225   1.5279   1.5279
     7.8254  11.0641  11.5677  11.5677  14.4722  14.4722  14.8655  19.7862

          k =-0.4167 0.4167-0.4167 (  3831 PWs)   bands (ev):

   -47.8945 -19.8406 -19.8258 -19.8258 -10.8338  -0.2855   1.4781   1.4781
     7.9291  11.3751  11.3751  11.6030  14.7017  15.6283  15.6283  18.4323

          k = 0.5000-0.5000 0.5000 (  3828 PWs)   bands (ev):

   -47.8944 -19.8417 -19.8259 -19.8259 -10.8126  -0.3928   1.4602   1.4602
     7.9410  11.3059  11.3059  11.8716  14.6979  16.8032  16.8032  17.3248

          k = 0.0000 0.1667 0.0000 (  3803 PWs)   bands (ev):

   -47.8947 -19.8258 -19.8250 -19.8250 -11.0866   1.5176   1.6931   1.6931
     6.3067  11.1933  11.7934  11.7934  13.1793  13.9170  15.4241  16.7684

          k =-0.0833 0.2500-0.0833 (  3823 PWs)   bands (ev):

   -47.8947 -19.8281 -19.8254 -19.8251 -11.0457   1.1495   1.6281   1.6495
     6.8075  10.8016  11.9346  11.9907  12.7518  13.8906  16.0575  16.9026

          k =-0.1667 0.3333-0.1667 (  3828 PWs)   bands (ev):

   -47.8946 -19.8318 -19.8257 -19.8253 -10.9797   0.6451   1.5505   1.5813
     7.4516  10.5580  11.6980  12.0411  13.0019  14.0751  15.8307  18.2028

          k =-0.2500 0.4167-0.2500 (  3837 PWs)   bands (ev):

   -47.8946 -19.8359 -19.8260 -19.8257 -10.9052   0.1743   1.4816   1.4938
     7.9279  10.7168  11.3302  11.8467  13.7604  14.7879  15.4628  19.7991

          k =-0.3333 0.5000-0.3333 (  3837 PWs)   bands (ev):

   -47.8945 -19.8393 -19.8262 -19.8261 -10.8422  -0.1705   1.4111   1.4382
     8.1100  11.0043  11.3411  11.6116  14.6595  15.3363  15.8771  18.3086

          k = 0.5833-0.4167 0.5833 (  3831 PWs)   bands (ev):

   -47.8944 -19.8410 -19.8264 -19.8261 -10.8091  -0.3369   1.3542   1.4302
     8.1458  10.9269  11.4636  11.8006  15.0575  15.9347  16.7848  17.4171

          k = 0.5000-0.3333 0.5000 (  3838 PWs)   bands (ev):

   -47.8945 -19.8407 -19.8266 -19.8259 -10.8160  -0.3022   1.3366   1.4592
     8.1476  10.9878  11.4473  11.6996  15.1460  15.4708  16.5987  17.0253

          k = 0.4167-0.2500 0.4167 (  3832 PWs)   bands (ev):

   -47.8945 -19.8383 -19.8266 -19.8255 -10.8607  -0.0716   1.3633   1.5187
     8.0886  11.0818  11.2551  11.5739  14.2552  15.2740  15.6279  18.2294

          k = 0.3333-0.1667 0.3333 (  3830 PWs)   bands (ev):

   -47.8946 -19.8346 -19.8263 -19.8251 -10.9297   0.3207   1.4303   1.5948
     7.8123  10.6729  11.5318  11.8243  13.3034  14.6024  15.5969  18.9051

          k = 0.2500-0.0833 0.2500 (  3834 PWs)   bands (ev):

   -47.8947 -19.8306 -19.8259 -19.8248 -11.0036   0.8073   1.5260   1.6676
     7.2385  10.6802  11.8193  12.0291  12.8034  13.9136  15.9922  17.4256

          k = 0.1667-0.0000 0.1667 (  3817 PWs)   bands (ev):

   -47.8947 -19.8274 -19.8253 -19.8247 -11.0628   1.2688   1.6353   1.7165
     6.6010  11.0179  11.8469  11.8585  13.0832  13.7002  15.8379  16.7042

          k = 0.0000 0.3333 0.0000 (  3839 PWs)   bands (ev):

   -47.8947 -19.8285 -19.8259 -19.8259 -11.0188   1.0263   1.5528   1.5528
     7.1355  10.4175  12.0618  12.2762  12.2762  14.1990  16.8956  17.3241

          k =-0.0833 0.4167-0.0833 (  3838 PWs)   bands (ev):

   -47.8946 -19.8311 -19.8264 -19.8262 -10.9659   0.6848   1.4676   1.4680
     7.6755  10.1087  11.4753  12.4918  12.7847  14.4306  17.0298  18.0341

          k =-0.1667 0.5000-0.1667 (  3848 PWs)   bands (ev):

   -47.8946 -19.8344 -19.8268 -19.8266 -10.9002   0.3023   1.3534   1.3952
     8.2062  10.0959  10.9954  12.3965  13.5151  15.0692  16.7097  19.1938

          k =-0.2500 0.5833-0.2500 (  3841 PWs)   bands (ev):

   -47.8945 -19.8374 -19.8272 -19.8269 -10.8389  -0.0085   1.2197   1.3530
     8.4981  10.4030  10.8086  12.1430  14.3058  16.1110  16.5364  18.2617

          k = 0.6667-0.3333 0.6667 (  3848 PWs)   bands (ev):

   -47.8945 -19.8393 -19.8279 -19.8268 -10.7994  -0.1876   1.1030   1.3503
     8.6086  10.3600  11.3429  11.9206  14.8077  16.5110  16.8031  17.5290

          k = 0.5833-0.2500 0.5833 (  3847 PWs)   bands (ev):

   -47.8945 -19.8395 -19.8284 -19.8264 -10.7933  -0.2070   1.0356   1.3878
     8.6725  10.3742  11.5450  11.8067  15.2140  15.4649  16.3171  17.8891

          k = 0.5000-0.1667 0.5000 (  3843 PWs)   bands (ev):

   -47.8945 -19.8382 -19.8285 -19.8259 -10.8226  -0.0693   1.0408   1.4571
     8.6744  10.5753  11.0468  11.8307  14.2267  16.1517  16.3843  17.3132

          k = 0.4167-0.0833 0.4167 (  3836 PWs)   bands (ev):

   -47.8945 -19.8357 -19.8281 -19.8253 -10.8784   0.1906   1.1321   1.5417
     8.4442  10.5236  10.9531  12.0028  13.2259  15.7727  16.6737  18.0492

          k = 0.3333 0.0000 0.3333 (  3849 PWs)   bands (ev):

   -47.8947 -19.8329 -19.8272 -19.8250 -10.9447   0.5074   1.3085   1.6195
     7.8723  10.4486  11.4305  12.2999  12.5177  14.7287  16.9105  17.2818

          k = 0.0000 0.5000 0.0000 (  3831 PWs)   bands (ev):

   -47.8946 -19.8317 -19.8271 -19.8271 -10.9286   0.5356   1.3741   1.3741
     7.9935   9.7080  11.2251  12.9953  12.9953  14.6440  18.2438  18.2438

          k =-0.0833 0.5833-0.0833 (  3855 PWs)   bands (ev):

   -47.8946 -19.8337 -19.8277 -19.8276 -10.8769   0.2963   1.2581   1.2950
     8.3346   9.5206  11.0010  13.1517  13.5578  15.1542  18.2047  19.0047

          k =-0.1667 0.6667-0.1667 (  3852 PWs)   bands (ev):

   -47.8945 -19.8358 -19.8285 -19.8278 -10.8245   0.0911   1.0764   1.2490
     8.6038   9.6733  10.8566  12.9279  14.2497  16.1623  17.9620  18.4261

          k = 0.7500-0.2500 0.7500 (  3855 PWs)   bands (ev):

   -47.8945 -19.8371 -19.8296 -19.8277 -10.7858  -0.0193   0.8667   1.2462
     8.7803   9.9942  10.9670  12.6321  14.5021  16.9085  17.5261  17.7898

          k = 0.6667-0.1667 0.6667 (  3853 PWs)   bands (ev):

   -47.8944 -19.8374 -19.8306 -19.8272 -10.7718  -0.0224   0.7018   1.2872
     8.9894  10.1058  11.2606  12.3943  14.2666  15.6565  17.5442  18.7007

          k = 0.5833-0.0833 0.5833 (  3849 PWs)   bands (ev):

   -47.8944 -19.8370 -19.8309 -19.8265 -10.7867   0.0415   0.6690   1.3630
     9.2105  10.1742  10.9744  12.2442  14.4796  14.7919  17.7252  18.5925

          k = 0.5000 0.0000 0.5000 (  3845 PWs)   bands (ev):

   -47.8945 -19.8364 -19.8300 -19.8259 -10.8260   0.1085   0.8331   1.4560
     9.0846  10.4289  10.5392  12.1488  13.6189  16.0242  17.3987  17.8930

          k = 0.0000 0.6667 0.0000 (  3856 PWs)   bands (ev):

   -47.8945 -19.8344 -19.8283 -19.8283 -10.8413   0.1674   1.2080   1.2080
     8.2872   9.1736  11.2890  13.8621  13.8621  15.1950  19.2195  19.2195

          k =-0.0833 0.7500-0.0833 (  3864 PWs)   bands (ev):

   -47.8945 -19.8354 -19.8290 -19.8286 -10.8028   0.0447   1.0797   1.1549
     8.3148   9.1071  11.5042  13.8940  14.3932  15.9310  18.2112  18.7394

          k = 0.8333-0.1667 0.8333 (  3846 PWs)   bands (ev):

   -47.8944 -19.8359 -19.8305 -19.8286 -10.7718   0.0144   0.8390   1.1471
     8.4602   9.3787  11.5706  13.5299  14.5252  16.9886  17.6241  17.6558

          k = 0.7500-0.0833 0.7500 (  3854 PWs)   bands (ev):

   -47.8944 -19.8353 -19.8324 -19.8281 -10.7571   0.1098   0.5419   1.1864
     8.6995   9.8652  11.5294  13.1154  13.9346  16.0932  18.2041  18.6969

          k = 0.6667-0.0000 0.6667 (  3833 PWs)   bands (ev):

   -47.8943 -19.8353 -19.8331 -19.8274 -10.7626   0.2421   0.3524   1.2643
     9.0344  10.2101  11.2068  12.6911  13.8716  15.1044  18.8743  18.9474

          k = 0.0000 0.8333 0.0000 (  3848 PWs)   bands (ev):

   -47.8944 -19.8359 -19.8292 -19.8292 -10.7797  -0.0475   1.0933   1.0933
     8.0684   8.8460  12.1058  14.7518  14.7518  15.7167  18.0971  18.4412

          k = 0.9167-0.0833 0.9167 (  3862 PWs)   bands (ev):

   -47.8944 -19.8361 -19.8299 -19.8292 -10.7614  -0.0714   0.9771   1.0775
     8.0938   8.8954  12.3210  14.5162  14.8701  16.5521  17.5950  17.7060

          k = 0.8333 0.0000 0.8333 (  3849 PWs)   bands (ev):

   -47.8944 -19.8355 -19.8315 -19.8289 -10.7532   0.0074   0.7392   1.1108
     8.3415   9.2806  12.1204  13.8568  14.2577  16.7981  17.7331  18.3619

          k = 0.0000-1.0000 0.0000 (  3892 PWs)   bands (ev):

   -47.8945 -19.8364 -19.8295 -19.8295 -10.7576  -0.1166   1.0526   1.0526
     7.9349   8.7359  12.6151  15.2458  15.2458  15.9512  17.3647  17.8217

          k =-0.1667 0.3333 0.0000 (  3840 PWs)   bands (ev):

   -47.8947 -19.8302 -19.8262 -19.8252 -10.9986   0.8372   1.4847   1.6152
     7.3343  10.4653  11.7587  12.2855  12.5352  14.1467  16.7113  17.1071

          k =-0.2500 0.4167-0.0833 (  3837 PWs)   bands (ev):

   -47.8946 -19.8334 -19.8270 -19.8254 -10.9328   0.4404   1.3410   1.5522
     7.9541  10.3266  11.2780  12.2524  12.9649  14.7868  16.5181  18.1501

          k =-0.3333 0.5000-0.1667 (  3837 PWs)   bands (ev):

   -47.8945 -19.8368 -19.8274 -19.8258 -10.8654   0.0764   1.2332   1.4729
     8.3688  10.5986  10.8857  11.9883  13.7987  15.7646  16.2040  18.1721

          k = 0.5833-0.4167 0.7500 (  3840 PWs)   bands (ev):

   -47.8945 -19.8392 -19.8276 -19.8262 -10.8149  -0.1728   1.1688   1.4077
     8.5000  10.5637  11.2847  11.7905  14.7254  16.0278  16.5531  17.1534

          k = 0.5000-0.3333 0.6667 (  3846 PWs)   bands (ev):

   -47.8945 -19.8401 -19.8276 -19.8264 -10.7961  -0.2610   1.1479   1.3824
     8.5189  10.4746  11.6561  11.7113  15.3085  15.6409  16.6714  17.1719

          k =-0.1667 0.5000 0.0000 (  3853 PWs)   bands (ev):

   -47.8946 -19.8330 -19.8275 -19.8264 -10.9136   0.4315   1.2936   1.4258
     8.1671   9.8652  11.0491  12.8423  13.0212  14.9581  17.7764  17.9358

          k =-0.2500 0.5833-0.0833 (  3848 PWs)   bands (ev):

   -47.8945 -19.8353 -19.8283 -19.8268 -10.8550   0.1770   1.1266   1.3514
     8.6373   9.9190  10.6707  12.6804  13.7085  15.8977  17.5633  18.2352

          k = 0.6667-0.3333 0.8333 (  3848 PWs)   bands (ev):

   -47.8945 -19.8373 -19.8289 -19.8272 -10.8059  -0.0114   0.9783   1.2901
     8.8852  10.1433  10.6740  12.4211  14.4199  16.6822  17.0274  17.5858

          k = 0.5833-0.2500 0.7500 (  3852 PWs)   bands (ev):

   -47.8945 -19.8382 -19.8294 -19.8272 -10.7803  -0.0951   0.8686   1.2785
     9.0211  10.0375  11.2227  12.2046  14.5518  16.1015  17.2325  17.6627

          k = 0.5000-0.1667 0.6667 (  3847 PWs)   bands (ev):

   -47.8944 -19.8380 -19.8298 -19.8268 -10.7857  -0.0645   0.8324   1.3204
     9.1174  10.0536  11.1443  12.1535  14.6303  15.4190  17.1647  18.1978

          k = 0.4167-0.0833 0.5833 (  3845 PWs)   bands (ev):

   -47.8945 -19.8368 -19.8295 -19.8263 -10.8206   0.0596   0.9025   1.3994
     9.0479  10.3035  10.5340  12.2537  13.9211  16.1745  17.2118  17.5660

          k = 0.3333 0.0000 0.5000 (  3838 PWs)   bands (ev):

   -47.8945 -19.8351 -19.8285 -19.8257 -10.8747   0.2380   1.0874   1.4874
     8.5995  10.2290  10.7536  12.3764  13.1679  15.8433  17.5881  17.8558

          k =-0.1667 0.6667-0.0000 (  3851 PWs)   bands (ev):

   -47.8945 -19.8350 -19.8287 -19.8279 -10.8321   0.1438   1.1166   1.2226
     8.5259   9.3882  10.9932  13.4226  13.9146  15.8551  18.2990  18.9470

          k = 0.7500-0.2500 0.9167 (  3853 PWs)   bands (ev):

   -47.8945 -19.8359 -19.8297 -19.8283 -10.7913   0.0547   0.9187   1.1593
     8.7327   9.5738  10.9624  13.1864  14.4854  16.7178  17.2063  18.6275

          k = 0.6667-0.1667 0.8333 (  3852 PWs)   bands (ev):

   -47.8944 -19.8361 -19.8311 -19.8283 -10.7657   0.0629   0.6797   1.1549
     8.9334   9.9345  11.0454  12.7632  14.4331  16.4558  17.2989  18.8004

          k = 0.5833-0.0833 0.7500 (  3843 PWs)   bands (ev):

   -47.8944 -19.8359 -19.8321 -19.8277 -10.7626   0.1383   0.5063   1.2078
     9.2153  10.0813  11.0795  12.4281  14.2682  15.4116  18.0343  19.2314

          k = 0.5000 0.0000 0.6667 (  3841 PWs)   bands (ev):

   -47.8944 -19.8362 -19.8315 -19.8270 -10.7828   0.1171   0.6035   1.2990
     9.5039  10.0051  10.6444  12.4234  14.4479  14.9244  18.3121  18.5887

          k = 0.8333-0.1667 1.0000 (  3855 PWs)   bands (ev):

   -47.8944 -19.8358 -19.8296 -19.8292 -10.7749  -0.0094   0.9947   1.0665
     8.3254   9.0893  11.7696  13.8903  14.8292  16.4930  17.3762  18.4624

          k = 0.7500-0.0833 0.9167 (  3851 PWs)   bands (ev):

   -47.8944 -19.8354 -19.8311 -19.8292 -10.7562   0.0359   0.7689   1.0504
     8.5317   9.3918  11.7749  13.2449  14.9128  16.8682  17.1155  18.2320

          k = 0.6667 0.0000 0.8333 (  3846 PWs)   bands (ev):

   -47.8944 -19.8342 -19.8332 -19.8286 -10.7517   0.1839   0.4795   1.1079
     8.8425   9.9022  11.5061  12.6015  14.4684  16.0420  18.0369  18.5752

          k =-0.1667-1.0000-0.0000 (  3862 PWs)   bands (ev):

   -47.8944 -19.8360 -19.8299 -19.8298 -10.7546  -0.0541   0.9516   1.0072
     8.1930   8.9880  12.3347  13.9123  15.3397  16.5459  17.4848  17.8458

          k = 0.6667-0.3333 1.0000 (  3866 PWs)   bands (ev):

   -47.8945 -19.8359 -19.8299 -19.8273 -10.8091   0.1035   0.8851   1.2633
     9.1537   9.9503  10.3224  12.8030  14.0877  16.3903  17.2820  18.6025

          k = 0.5833-0.2500 0.9167 (  3846 PWs)   bands (ev):

   -47.8944 -19.8362 -19.8309 -19.8279 -10.7751   0.0838   0.6972   1.1739
     9.4584   9.9284  10.5168  12.5645  14.6187  15.6461  17.7211  18.8643

          k = 0.5000-0.1667 0.8333 (  3846 PWs)   bands (ev):

   -47.8944 -19.8363 -19.8312 -19.8282 -10.7626   0.0867   0.6224   1.1370
     9.6299   9.7005  10.9639  12.2813  14.4918  16.0080  17.2948  18.9667

          k = 0.6667-0.1667 1.0000 (  3847 PWs)   bands (ev):

   -47.8944 -19.8354 -19.8308 -19.8292 -10.7643   0.0974   0.7469   1.0304
     8.9948   9.7460  10.9222  12.8636  15.0630  16.0267  17.5897  18.5046

          k = 0.5833-0.0833 0.9167 (  3845 PWs)   bands (ev):

   -47.8944 -19.8344 -19.8322 -19.8295 -10.7509   0.2213   0.5252   0.9844
     9.2349  10.1108  10.9255  12.1368  15.1756  16.2068  17.2198  18.4394

          k = 0.5000 0.0000 0.8333 (  3855 PWs)   bands (ev):

   -47.8944 -19.8346 -19.8325 -19.8289 -10.7549   0.2607   0.4482   1.0496
     9.4779  10.1950  10.6327  12.1436  15.1127  15.4615  17.9240  18.5451

          k =-0.3333-1.0000 0.0000 (  3840 PWs)   bands (ev):

   -47.8943 -19.8347 -19.8312 -19.8303 -10.7485   0.1250   0.6982   0.9199
     8.8517   9.6729  11.5906  12.4035  15.6253  16.7186  16.7780  17.8962

          k =-0.5000-1.0000 0.0000 (  3852 PWs)   bands (ev):

   -47.8944 -19.8329 -19.8329 -19.8306 -10.7455   0.3937   0.3937   0.8777
     9.3557  10.6164  10.6164  11.6182  16.1100  16.1100  16.7655  17.9227

     the Fermi energy is     2.9068 ev

!    total energy              =    -112.40269436 Ry
     estimated scf accuracy    <          5.2E-11 Ry
     smearing contrib. (-TS)   =      -0.00000000 Ry
     internal energy E=F+TS    =    -112.40269436 Ry

     The total energy is F=E-TS. E is the sum of the following terms:
     one-electron contribution =     -64.21581007 Ry
     hartree contribution      =      35.20716369 Ry
     xc contribution           =     -17.87649483 Ry
     ewald contribution        =     -65.51755315 Ry

     convergence has been achieved in  13 iterations

     Writing all to output data dir out/mp-22916.save/
 
     init_run     :      0.36s CPU      0.51s WALL (       1 calls)
     electrons    :      7.92s CPU      8.98s WALL (       1 calls)

     Called by init_run:
     wfcinit      :      0.31s CPU      0.43s WALL (       1 calls)
     potinit      :      0.01s CPU      0.01s WALL (       1 calls)
     hinit0       :      0.01s CPU      0.01s WALL (       1 calls)

     Called by electrons:
     c_bands      :      6.86s CPU      7.57s WALL (      14 calls)
     sum_band     :      0.97s CPU      1.16s WALL (      14 calls)
     v_of_rho     :      0.05s CPU      0.06s WALL (      14 calls)
     mix_rho      :      0.03s CPU      0.04s WALL (      14 calls)

     Called by c_bands:
     init_us_2    :      0.10s CPU      0.11s WALL (    1044 calls)
     init_us_2:cp :      0.10s CPU      0.11s WALL (    1044 calls)
     cegterg      :      6.14s CPU      6.40s WALL (     504 calls)

     Called by *egterg:
     cdiaghg      :      0.70s CPU      0.73s WALL (    2531 calls)
     h_psi        :      5.21s CPU      5.48s WALL (    2603 calls)
     g_psi        :      0.03s CPU      0.03s WALL (    2063 calls)

     Called by h_psi:
     h_psi:calbec :      0.12s CPU      0.14s WALL (    2603 calls)
     vloc_psi     :      4.97s CPU      5.22s WALL (    2603 calls)
     add_vuspsi   :      0.08s CPU      0.09s WALL (    2603 calls)

     General routines
     calbec       :      0.12s CPU      0.14s WALL (    2603 calls)
     fft          :      0.03s CPU      0.03s WALL (     140 calls)
     ffts         :      0.00s CPU      0.00s WALL (      14 calls)
     fftw         :      5.33s CPU      5.61s WALL (   56666 calls)
     davcio       :      0.11s CPU      0.60s WALL (    1750 calls)
 
     Parallel routines
 
     PWSCF        :      8.39s CPU     11.29s WALL

 
   This run was terminated on:   5:27:29  22Dec2023            

=------------------------------------------------------------------------------=
   JOB DONE.
=------------------------------------------------------------------------------=
