
     Program PWSCF v.7.1 starts on  8Dec2023 at  0:23:55 

     This program is part of the open-source Quantum ESPRESSO suite
     for quantum simulation of materials; please cite
         "P. Giannozzi et al., J. Phys.:Condens. Matter 21 395502 (2009);
         "P. Giannozzi et al., J. Phys.:Condens. Matter 29 465901 (2017);
         "P. Giannozzi et al., J. Chem. Phys. 152 154105 (2020);
          URL http://www.quantum-espresso.org", 
     in publications or presentations arising from this work. More details at
     http://www.quantum-espresso.org/quote

     Parallel version (MPI), running on    24 processors

     MPI processes distributed on     1 nodes
     121468 MiB available memory on the printing compute node when the environment starts
 
     Reading input from pw_mp-422_nscf_k260_E122.in
Warning: card &IONS ignored
Warning: card / ignored
Warning: card &CELL ignored
Warning: card / ignored

     Current dimensions of program PWSCF are:
     Max number of different atomic species (ntypx) = 10
     Max number of k-points (npk) =  40000
     Max angular momentum in pseudopotentials (lmaxx) =  4

     Atomic positions and unit cell read from directory:
     out/mp-422.save/
     Atomic positions from file used, from input discarded
 
 
     R & G space division:  proc/nbgrp/npool/nimage =      24
     Subspace diagonalization in iterative solution of the eigenvalue problem:
     one sub-group per band group will be used
     scalapack distributed-memory algorithm (size of sub-group:  4*  4 procs)

 
     Parallelization info
     --------------------
     sticks:   dense  smooth     PW     G-vecs:    dense   smooth      PW
     Min          59      59     17                 1481     1481     231
     Max          60      60     18                 1485     1485     234
     Sum        1417    1417    421                35557    35557    5577
 
     Using Slab Decomposition
 


     bravais-lattice index     =            2
     lattice parameter (alat)  =       9.2035  a.u.
     unit-cell volume          =     194.8967 (a.u.)^3
     number of atoms/cell      =            2
     number of atomic types    =            2
     number of electrons       =        10.00
     number of Kohn-Sham states=         1448
     kinetic-energy cutoff     =     122.0000  Ry
     charge density cutoff     =     488.0000  Ry
     Exchange-correlation= PBE
                           (   1   4   3   4   0   0   0)

     celldm(1)=   9.203539  celldm(2)=   0.000000  celldm(3)=   0.000000
     celldm(4)=   0.000000  celldm(5)=   0.000000  celldm(6)=   0.000000

     crystal axes: (cart. coord. in units of alat)
               a(1) = (  -0.500000   0.000000   0.500000 )  
               a(2) = (   0.000000   0.500000   0.500000 )  
               a(3) = (  -0.500000   0.500000   0.000000 )  

     reciprocal axes: (cart. coord. in units 2 pi/alat)
               b(1) = ( -1.000000 -1.000000  1.000000 )  
               b(2) = (  1.000000  1.000000  1.000000 )  
               b(3) = ( -1.000000  1.000000 -1.000000 )  


     PseudoPot. # 1 for Be read from file:
     /usr/scratch4/magr4985/MG/HTDF/pseudo/SG15/Be.upf
     MD5 check sum: dc1f98d164da9dc61a6fd2fad64b4ce2
     Pseudo is Norm-conserving, Zval =  4.0
     Generated using ONCVPSP code by D. R. Hamann
     Using radial grid of  602 points,  4 beta functions with: 
                l(1) =   0
                l(2) =   0
                l(3) =   1
                l(4) =   1

     PseudoPot. # 2 for S  read from file:
     /usr/scratch4/magr4985/MG/HTDF/pseudo/SG15/S.upf
     MD5 check sum: f9d020296ee6110346977bfd66d424f6
     Pseudo is Norm-conserving, Zval =  6.0
     Generated using ONCVPSP code by D. R. Hamann
     Using radial grid of  602 points,  4 beta functions with: 
                l(1) =   0
                l(2) =   0
                l(3) =   1
                l(4) =   1

     atomic species   valence    mass     pseudopotential
        Be             4.00     9.01220     Be( 1.00)
        S              6.00    32.06500     S ( 1.00)

     24 Sym. Ops. (no inversion) found



   Cartesian axes

     site n.     atom                  positions (alat units)
         1           Be  tau(   1) = (   0.0000000   0.0000000   0.0000000  )
         2           S   tau(   2) = (  -0.7500000   0.7500000   0.7500000  )

     number of k points=    16  Gaussian smearing, width (Ry)=  0.0005
                       cart. coord. in units 2pi/alat
        k(    1) = (   0.0000000   0.0000000   0.0000000), wk =   0.0092593
        k(    2) = (  -0.1666667   0.1666667  -0.1666667), wk =   0.0740741
        k(    3) = (  -0.3333333   0.3333333  -0.3333333), wk =   0.0740741
        k(    4) = (   0.5000000  -0.5000000   0.5000000), wk =   0.0370370
        k(    5) = (   0.0000000   0.3333333   0.0000000), wk =   0.0555556
        k(    6) = (  -0.1666667   0.5000000  -0.1666667), wk =   0.2222222
        k(    7) = (   0.6666667  -0.3333333   0.6666667), wk =   0.2222222
        k(    8) = (   0.5000000  -0.1666667   0.5000000), wk =   0.2222222
        k(    9) = (   0.3333333   0.0000000   0.3333333), wk =   0.1111111
        k(   10) = (   0.0000000   0.6666667   0.0000000), wk =   0.0555556
        k(   11) = (   0.8333333  -0.1666667   0.8333333), wk =   0.2222222
        k(   12) = (   0.6666667  -0.0000000   0.6666667), wk =   0.1111111
        k(   13) = (   0.0000000  -1.0000000   0.0000000), wk =   0.0277778
        k(   14) = (   0.6666667  -0.3333333   1.0000000), wk =   0.2222222
        k(   15) = (   0.5000000  -0.1666667   0.8333333), wk =   0.2222222
        k(   16) = (  -0.3333333  -1.0000000   0.0000000), wk =   0.1111111

     Dense  grid:    35557 G-vectors     FFT dimensions: (  45,  45,  45)

     Estimated max dynamical RAM per process >     126.83 MB

     Estimated total dynamical RAM >       2.97 GB

     The potential is recalculated from file :
     out/mp-422.save/charge-density

     Starting wfcs are random

     Band Structure Calculation
     Davidson diagonalization with overlap

     ethr =  5.00E-06,  avg # of iterations = 10.4

     total cpu time spent up to now is     1312.0 secs

     End of band structure calculation

          k = 0.0000 0.0000 0.0000 (  4477 PWs)   bands (ev):

   -93.6687  -8.1265   5.4807   5.4807   5.4807  11.1832  11.1832  11.1832
    11.2609  18.2746  18.2746  20.3276  22.0093  22.0093  22.0093  27.1144
    34.1439  34.1439  34.1439  38.6664  38.6664  38.6664  40.1657  40.1657
    45.4231  45.4231  45.4231  54.6643  54.6643  54.6643  54.9853  55.4263
    55.4263  56.9995  56.9995  56.9995  61.6198  61.6198  61.6198  65.1236
    65.2558  65.2558  65.2558  65.3773  65.3773  65.3773  65.5729  65.5729
    66.2760  66.2760  66.2760  70.9142  71.1359  71.1359  71.1359  73.3079
    73.3079  73.3079  76.2782  83.5156  89.1350  89.1350  91.6832  91.6832
    91.6832  94.9596  94.9596  94.9596  96.6334  99.7497 102.6687 102.6687
   105.2166 105.2166 105.2166 105.4358 105.4358 105.4358 109.2667 109.2667
   109.2667 114.0595 114.0595 114.0595 115.4387 115.4387 115.4387 115.6578
   115.6578 116.9838 117.0346 117.0346 118.6238 118.6238 118.6238 121.2460
   121.2460 121.2460 122.0763 122.0763 122.0763 122.5002 122.5002 122.5002
   123.9028 123.9028 123.9028 124.1297 125.0804 125.1554 125.1554 125.1554
   125.2311 125.2311 134.4444 134.4444 134.4444 137.9499 139.3628 139.3628
   140.6392 140.6392 140.6392 144.0182 144.0182 144.0182 145.2657 145.2657
   145.2657 145.9451 145.9451 145.9451 146.4746 146.4746 146.4746 147.1712
   147.1712 148.8626 155.9433 155.9433 159.1538 159.8696 159.8696 159.8696
   161.8759 161.8759 161.8759 162.5693 162.5693 162.5693 163.9094 165.9069
   165.9069 165.9069 165.9287 166.1037 166.1037 166.1037 166.4488 166.4488
   166.4488 166.6379 166.6379 166.7487 166.7487 166.7487 167.1356 167.1356
   167.1356 178.3808 181.4532 181.4532 181.4532 185.0995 185.0995 187.2137
   187.2137 187.2137 188.6075 189.0304 189.0304 189.0304 196.9059 196.9059
   196.9059 201.9117 201.9117 202.2056 202.2056 202.2056 204.7907 206.6822
   206.6822 206.6822 207.4058 207.4058 207.4058 210.6429 210.6429 210.6429
   211.1663 211.1663 211.1663 211.8995 211.8995 213.3871 214.4572 214.4572
   214.7931 214.7931 214.7931 214.8175 214.8175 214.8175 216.0049 216.0049
   216.0049 216.4002 216.9320 216.9320 216.9320 217.6167 217.6167 217.6167
   217.6558 217.6558 218.4197 218.4197 218.4197 218.9490 218.9490 218.9490
   219.3417 219.6171 220.3801 220.3801 220.3801 220.7877 220.7877 221.6437
   221.6437 221.6437 221.9140 224.9274 224.9274 224.9274 225.0280 225.0280
   225.1964 225.1964 225.1964 225.3016 225.3016 225.3016 225.6211 225.6211
   225.6298 225.6298 225.6298 236.5539 236.9910 236.9910 236.9910 238.4380
   238.4380 244.5087 244.5087 244.5087 245.7006 245.7006 245.7006 246.3638
   246.3638 246.3638 246.7640 246.7640 246.7640 250.0305 250.0305 250.0800
   250.0800 250.0800 250.1684 251.1587 251.6563 251.6563 251.6563 253.5913
   253.5913 253.5913 254.3112 261.3956 261.3956 261.4917 261.4917 261.4917
   263.1722 263.1722 263.1722 263.9020 263.9020 263.9020 263.9978 263.9978
   263.9978 264.8082 264.8082 268.3251 269.5702 269.5702 269.5702 272.3501
   272.3501 272.7232 272.7232 272.7232 273.4842 273.4842 273.4842 273.7019
   273.8513 273.8513 273.8513 273.9998 273.9998 273.9998 274.5719 274.5719
   274.5719 274.8758 274.8758 288.1313 288.1313 288.1313 289.8515 291.2715
   291.2715 291.2715 294.9004 294.9004 295.4510 297.9778 297.9778 297.9778
   298.5943 298.5943 298.5943 299.0304 299.8883 299.8883 299.8883 305.7531
   305.7531 305.7531 305.9602 305.9602 308.5848 310.6112 310.6112 310.6112
   312.3530 315.8750 315.8750 315.8750 316.0056 316.0056 316.0056 316.2246
   316.2246 316.8552 316.9963 316.9963 316.9963 317.0642 317.0642 317.0642
   317.5630 317.5630 317.5630 317.7153 317.7153 317.7153 318.0211 318.0211
   318.0211 319.0646 319.0646 323.0502 323.0502 323.0991 323.0991 323.0991
   323.3390 323.3390 323.3390 323.3908 323.3908 323.3908 323.4625 325.5253
   325.5253 325.5253 325.6056 326.3869 326.3869 326.3869 326.4859 326.4859
   326.4859 326.5091 326.5091 331.6655 331.6655 331.6655 332.6680 334.9832
   334.9832 334.9832 336.1866 339.9437 339.9437 341.1050 341.1050 341.1050
   341.2777 341.2777 341.2777 342.9389 342.9389 342.9389 343.0466 343.0466
   343.0466 344.2901 344.2901 347.6225 347.6225 348.1971 348.1971 348.1971
   348.5647 348.5647 348.5647 348.7230 348.7230 348.7230 349.3183 349.3183
   349.3183 349.6226 349.6226 350.1282 350.7326 350.7326 350.7326 351.0978
   351.0978 351.0978 351.3800 356.5819 356.5819 356.5819 358.2125 359.5504
   359.5504 360.5441 360.5441 360.5441 361.4470 362.3924 362.3924 362.3924
   363.6302 363.7183 363.7183 363.7183 364.2625 364.2625 364.2625 364.6593
   364.6593 364.6593 365.0245 365.0245 365.0245 366.7816 366.7816 366.7816
   367.5179 367.5179 367.6211 367.7033 367.7033 367.7033 368.0024 368.4702
   368.4702 369.1281 369.1281 369.1281 369.1974 369.1974 369.1974 369.5270
   369.5270 369.5819 369.5819 369.5819 369.8958 369.8958 369.8958 370.0715
   370.0715 370.0814 370.0814 370.0814 370.2709 370.2709 370.2709 370.3756
   370.3756 370.3756 370.7258 370.7258 370.7258 370.9298 371.1006 371.1006
   371.1006 371.1544 371.1544 393.8854 393.8854 394.5938 394.7500 394.7500
   394.7500 403.8719 403.8719 403.8719 404.0868 404.8305 404.8305 404.8305
   407.2285 408.6346 408.6346 410.5632 410.5632 410.5632 411.3566 411.3566
   411.3566 413.0173 413.0173 413.0173 413.0387 413.0387 413.0387 414.9806
   414.9806 417.1794 418.4784 418.4784 418.4784 419.3494 419.3494 420.3105
   420.3105 420.3105 422.3105 422.6167 422.6167 422.6167 422.8158 423.9709
   423.9709 423.9709 424.0034 424.0034 424.0034 424.1596 424.1596 424.1596
   424.4036 424.4036 424.4036 426.8386 426.8386 426.9410 426.9410 426.9410
   427.1849 427.1849 427.1849 427.3748 427.3797 427.3797 427.3797 427.3811
   427.3811 427.3988 427.3988 427.3988 427.4396 427.4396 427.4396 427.6073
   427.6073 435.9234 435.9234 435.9234 436.0796 436.0796 436.0796 436.4075
   436.5340 436.5340 437.3655 437.3655 437.3655 445.8592 445.8592 445.8592
   446.8250 446.8250 447.6686 448.5393 448.5393 448.5393 448.9353 448.9353
   448.9353 449.0646 449.0646 449.0646 449.3641 449.3641 449.3641 450.1556
   450.3877 450.3877 450.3877 450.4881 450.4881 457.5928 457.5928 457.5928
   458.4087 458.9916 458.9916 458.9916 459.6593 459.6593 459.6593 460.1141
   460.1141 461.3847 463.4956 463.4956 463.4956 464.2051 464.2051 464.2051
   465.6082 465.6082 465.6082 465.7442 465.7442 466.0731 466.0731 466.2537
   466.2537 466.2537 466.4765 466.4765 466.4765 466.6472 466.6472 466.6472
   466.8936 466.9567 466.9567 466.9567 467.8676 468.9023 469.1427 469.1427
   469.1427 471.2569 471.2569 471.2569 471.2692 471.2692 471.2692 471.3300
   471.3300 471.3300 471.4024 471.4267 471.4267 476.1317 476.1317 476.1317
   477.1307 477.1307 477.1307 477.1376 477.2269 477.2269 477.4581 477.4581
   477.4581 477.9195 477.9213 477.9213 477.9213 477.9490 477.9490 477.9506
   477.9506 477.9506 478.1261 478.1261 478.1261 492.4937 492.4937 493.0448
   495.9120 495.9120 495.9120 496.8736 496.8736 496.8736 498.0057 498.0057
   498.0057 498.6230 498.6230 498.6230 498.7203 498.7203 498.7203 499.8049
   499.8049 499.9979 499.9979 499.9979 500.1816 503.5850 503.5850 503.5850
   504.3775 506.0463 507.2992 507.2992 507.2992 507.6627 507.6627 509.4468
   509.7755 509.7755 509.7755 510.5790 510.5790 510.5790 511.2836 511.2836
   511.2836 511.4592 511.4592 511.4592 512.5551 512.5551 512.9546 512.9546
   512.9546 513.1853 513.1853 518.3667 518.3667 518.3667 518.4321 518.4321
   518.4358 518.4358 518.4358 518.4529 518.4529 518.4529 518.8070 518.8070
   518.8070 518.9218 518.9218 519.8616 519.8616 519.8616 520.4881 520.4881
   520.4881 520.5438 520.5438 520.5438 520.6163 520.7213 520.7213 520.7213
   520.8575 520.8575 520.8575 520.9322 520.9322 520.9322 521.0416 521.0624
   521.0624 521.0624 521.2274 522.0752 522.0752 523.9028 523.9028 523.9028
   525.3927 525.9297 525.9297 525.9780 525.9780 525.9780 526.0499 526.0499
   526.0499 526.2901 526.2901 526.2901 526.3487 526.3487 526.3487 526.6332
   526.6332 526.6332 526.6596 527.2653 527.2653 528.1560 528.1560 528.2786
   528.2786 528.2786 528.5687 528.7077 528.7077 528.7077 528.8066 528.8066
   528.8066 528.8661 528.8661 528.8661 529.0121 529.0121 529.0121 529.1586
   529.1586 529.3034 529.3034 529.3034 529.4272 544.4158 544.4158 544.4158
   545.0139 545.3761 546.2770 546.2770 546.2770 552.7655 552.7655 552.7704
   552.7704 552.7704 552.8213 552.8213 552.8213 552.9407 552.9407 552.9407
   552.9652 552.9652 552.9652 552.9695 552.9695 559.3007 559.3007 559.6047
   562.4303 562.4303 562.4303 564.2728 564.2728 564.2728 564.5393 564.5393
   564.5393 565.0623 565.0623 565.0623 566.1868 566.1868 566.1868 569.3861
   569.3861 569.3861 569.7052 569.7052 569.8473 569.8473 569.8473 570.0785
   571.1066 571.7659 571.7659 572.6148 572.6148 572.6148 572.6326 572.6326
   572.6326 572.7731 572.7731 572.7731 572.9113 572.9113 572.9113 573.5528
   573.5528 573.5528 573.5531 573.5566 573.5566 588.4106 589.9796 589.9796
   589.9796 593.2466 594.3401 594.3401 594.3437 594.3437 594.3437 596.2820
   596.2820 596.2820 597.0621 597.0621 597.0621 597.5154 597.5154 597.5154
   598.0896 598.0896 598.9421 598.9421 598.9421 602.6239 602.6239 602.6239
   602.6241 602.6241 603.7859 603.7859 603.7859 605.3458 607.6860 607.6860
   607.6860 613.8307 614.4272 614.4272 614.4272 614.8080 614.8080 614.8080
   615.7777 615.7777 615.9402 617.7583 618.4563 618.4563 618.4563 619.1887
   619.1887 619.1887 619.5048 619.5048 619.5048 619.5201 619.5201 619.5201
   620.2840 620.2840 620.2840 620.4141 620.4141 620.7666 620.7666 620.7666
   621.0102 621.0102 621.0877 621.0877 621.0877 621.2652 621.2652 621.2652
   621.3309 621.7808 621.7808 621.7808 622.3930 622.9812 622.9812 622.9812
   623.0692 623.0692 623.0814 623.0814 623.0814 623.1666 623.1666 623.2742
   623.2742 623.2742 623.3239 623.3239 623.3240 624.6783 624.8017 624.8017
   625.0942 625.0942 625.0942 627.1129 627.1160 627.1160 627.1160 627.1298
   627.1298 627.1298 627.2532 627.2532 627.2532 627.2795 627.2795 630.6572
   630.6572 630.6572 630.6883 630.6883 630.7025 630.7025 630.7025 630.8008
   630.8688 630.8688 630.8688 643.0609 643.6786 643.6786 644.5647 644.5647
   644.5647 644.8154 644.8154 644.8154 645.0354 645.0354 645.0354 645.5125
   645.5125 645.9571 646.4826 646.8721 646.8721 646.8721 647.5969 647.5969
   647.5969 647.8807 647.8807 647.8807 648.0371 648.0371 649.3756 649.3756
   649.3756 649.7206 649.7206 649.7206 650.3624 650.3624 650.3624 650.5745
   650.5745 650.5745 651.4452 651.4452 651.4778 651.9630 651.9630 651.9630
   652.6326 652.6326 652.6326 652.7205 652.7205 652.7205 652.9399 652.9399
   652.9399 653.4262 653.4262 653.4411 653.4411 653.4411 653.5558 653.5558
   653.5558 653.6311 653.6311 653.6311 653.7064 655.5273 655.5273 655.5620
   655.5620 655.5620 655.6257 667.6580 667.8421 667.8421 668.0163 668.0163
   668.0163 668.1237 668.1237 668.1237 668.3110 668.3110 668.3110 668.5299
   668.5299 668.5299 669.0350 669.0350 669.0822 669.0822 669.0822 669.4434
   669.4434 669.4434 669.5440 669.8193 670.2326 670.2326 670.2326 670.5424
   671.4151 671.4151 671.4438 671.4438 671.4438 671.6644 671.6644 671.6644
   672.0025 672.0025 672.0025 672.3753 672.3753 672.3753 672.4821 672.4821
   672.6186 672.6186 672.6186 673.6001 673.6001 673.6001 673.6840 673.6840
   673.6840 673.6866 673.6866 673.6866 673.7482 673.8293 673.8293 673.8293
   673.8714 673.8714 674.5115 674.5115 674.5115 674.5273 674.5347 674.5347
   674.5347 674.5468 674.5468 676.5228 676.8979 676.8979 676.8979 677.2131
   677.2131 677.2405 677.2405 677.2405 677.6173 677.6173 677.6173 677.6731
   677.7028 677.7028 677.7028 677.7749 677.7749 677.7749 677.8226 677.8226
   677.8226 678.0289 678.3135 678.3135 678.3135 678.7027 678.7027 678.7027
   678.8260 678.8260 679.0640 706.3933 707.4427 707.4427 707.4427 708.4638
   710.0776 710.0776 710.7351 710.7351 710.7351 711.4728 711.4728 711.4728
   712.2307 712.2307 712.2307 712.7304 712.7304 712.7304 714.0407 714.0407
   717.7940 717.7940 717.7940 720.1667 720.1667 720.5380 720.5380 720.5380
   720.8720 720.8720 720.8720 721.0476 721.0476 721.0476 721.2578 721.2578
   721.2578 721.5430 721.5430 721.7094 721.9793 721.9793 721.9793 722.2032
   722.2032 722.2032 722.3889 724.2788 725.6755 725.6755 725.6755 725.7150
   725.7150 726.2522 726.2522 726.2522 727.2415 727.2415 727.2415 727.2581
   727.2581 727.2581 727.4005 727.4657 727.4657 727.4657 727.7805 727.7805
   727.7805 728.1179 728.1179 728.1973 728.1973 728.1973 728.2881 728.6101
   728.6101 728.8780 728.8780 728.8780 728.9422 728.9422 728.9422 729.1178
   729.4683 729.4683 729.4683 729.6035 729.6035 729.6035 729.7685 729.7685
   729.9007 729.9007 729.9007 731.8136 731.8136 731.8136 731.8213 731.8213
   731.8288 731.8288 731.8288 731.8683 731.8683 731.8683 731.9171 731.9171
   731.9171 731.9286 731.9286 733.0487 733.0487 733.0487 733.0498 733.0524
   733.0524 733.0524 733.0615 748.5007 748.5007 748.6076 749.9638 749.9638
   749.9638 750.2996 750.2996 750.2996 750.4783 750.4783 750.4783 750.7335
   750.7335 750.7335 751.8876 751.8876 751.9212 751.9212 751.9212 752.0586
   752.1477 752.1477 752.1477 754.9173 754.9173 754.9696 754.9696 754.9696
   755.0813 755.8295 755.8295 755.8295 755.8692 755.8692 755.8692 755.8985
   755.8985 755.8985 755.9168 755.9168 755.9168 756.4319 756.4319 756.4441
   756.4441 756.4441 756.4665 762.2921 762.4091 762.4091 762.6342 762.6342
   762.6342 765.6079 765.6079 765.6079 765.9378 766.2420 769.0329 769.0329
   769.0329 774.0765 774.0765 774.0765 774.1739 774.1739 774.1739 774.2129
   774.2129 774.2536 774.2536 774.2536 774.2912 774.2912 774.2912 774.4184
   774.4184 774.4184 774.4486 774.4486 774.4486 774.5629 774.5629 774.6849

          k =-0.1667 0.1667-0.1667 (  4459 PWs)   bands (ev):

   -93.6687  -7.8221   3.6149   5.1606   5.1606  11.0585  11.7392  11.7392
    13.2690  17.3768  17.3768  20.0188  22.2909  24.3657  24.3657  28.8565
    31.9277  32.0159  32.0159  37.5844  37.5844  40.2807  40.2807  40.9022
    45.8390  47.7065  47.7065  49.5834  52.6162  52.6162  53.9959  53.9959
    54.6348  56.5590  56.5590  58.2410  59.6560  59.6560  60.1704  61.9241
    62.5311  62.5311  62.9342  65.2559  66.5434  66.5434  67.7643  67.7643
    69.3110  70.8197  70.8197  72.5128  72.6009  75.5077  75.5077  77.1707
    77.2533  77.2533  80.8309  84.0409  84.9833  84.9833  88.9182  88.9182
    89.3375  92.1519  94.5414  94.5414  96.8905 100.1561 100.1561 101.5175
   104.2919 104.2919 104.6715 105.4622 105.7744 105.7744 107.3832 107.3832
   109.1185 110.5781 110.5781 110.8431 110.9308 112.1091 112.1091 114.0977
   114.0977 115.6126 115.6126 115.6222 116.1647 119.3043 119.3043 120.0982
   120.2257 120.2257 121.0843 123.3365 123.4228 123.4228 123.8339 127.3542
   127.3542 127.3923 127.9060 127.9783 127.9783 129.1247 129.1247 131.6795
   131.6795 133.0066 133.0066 134.1194 136.0125 136.6790 136.6790 137.7721
   138.0091 138.0091 138.2827 141.3342 141.3342 142.3450 142.8055 142.8055
   143.7805 147.0423 147.0423 147.3455 148.9219 150.8627 150.8627 151.2320
   152.8561 152.8561 153.9091 154.2414 154.2414 154.5073 155.8417 155.8417
   156.4387 156.7852 158.9717 158.9717 159.5601 159.5601 159.5995 162.1075
   162.1075 163.5895 166.9886 166.9886 168.8821 168.8821 169.1602 170.7764
   172.4505 172.4505 173.5900 174.4397 174.4397 176.9837 176.9837 177.1147
   177.5605 179.3220 180.2576 180.2576 180.7450 183.0789 183.0789 183.9976
   187.3213 187.6866 187.6866 189.1439 189.1439 191.5491 193.1361 193.1361
   196.1119 196.1119 197.3759 198.0102 199.4983 199.4983 199.7187 200.7469
   200.7469 201.4121 201.6932 201.8804 201.8804 204.1989 204.1989 204.8876
   205.2336 205.2336 207.1604 207.7179 207.9916 207.9916 209.4312 209.4312
   209.7393 210.1289 210.1289 211.2365 211.2365 211.4151 213.4780 213.6302
   213.8910 213.8910 215.2280 215.2280 216.6427 217.5579 217.5579 217.7984
   218.3832 218.3832 219.8729 219.8729 220.0146 220.0690 222.8499 222.8499
   222.9407 223.1337 224.1797 224.1797 224.5892 224.5892 225.0126 226.1688
   226.1688 227.2713 227.5188 227.5188 229.9126 229.9553 229.9553 230.9464
   231.2178 231.3130 231.3130 231.8508 231.9485 231.9485 232.9984 233.8549
   233.8549 236.0447 236.0976 236.0976 236.2417 236.2417 236.4576 237.6941
   237.6941 237.7429 240.1107 240.1107 240.4987 240.7555 241.2619 241.2619
   243.0085 243.8653 243.8653 246.4314 246.4314 248.2055 248.6603 248.6603
   250.8252 251.3081 251.3081 252.9344 253.2866 253.2866 255.3354 255.3354
   256.8267 257.0963 257.9028 257.9028 258.9331 260.0836 260.0836 260.3770
   261.1258 261.1258 262.3404 262.3404 262.5407 262.5407 262.5580 262.6165
   265.5097 265.5097 266.0773 267.5235 268.0225 268.6127 268.6127 272.4446
   272.6113 272.6113 274.0066 274.0066 274.8488 275.1130 275.6736 275.6736
   276.3310 276.6499 277.0637 277.0637 283.7053 283.7053 284.2941 285.6677
   285.6677 286.0931 286.4655 286.5728 286.5728 287.1511 287.1511 287.3430
   287.3430 290.2098 291.8015 294.1737 295.0005 295.0005 295.8463 295.8463
   296.2298 296.2298 296.6711 297.3342 297.3342 297.8718 300.0961 300.6954
   300.6954 302.2458 302.5050 302.5050 303.8423 303.8423 304.6736 304.7137
   304.9872 304.9872 305.2393 306.1572 306.1572 306.6325 307.1194 307.1194
   309.4033 311.9467 312.9297 312.9297 314.6865 314.6865 314.9553 316.3952
   316.5871 316.5871 317.4421 317.4421 319.0888 319.8969 319.8969 321.6269
   321.6269 321.8687 321.9390 321.9684 321.9684 322.7540 323.1758 323.1758
   323.9953 323.9953 324.0947 325.8324 328.2240 328.2240 328.2961 328.7059
   328.8935 328.8935 329.7669 329.7669 330.1719 330.2066 330.5774 330.5774
   333.1184 333.1654 333.3110 333.3110 334.7734 334.9064 334.9064 336.1880
   336.2270 336.2270 336.8330 336.9506 336.9506 337.6316 337.6316 338.2643
   338.8897 339.7712 339.7712 340.0720 340.0720 340.7940 342.8941 342.8941
   342.9580 343.1533 343.1533 344.4660 344.4660 344.6975 345.2969 345.2969
   345.6257 346.6834 347.3307 347.3307 347.7532 347.9076 347.9076 347.9565
   348.2395 348.2395 349.1260 349.1260 349.2650 349.6324 349.6324 349.8241
   350.6018 351.3046 351.3046 352.3332 352.3889 352.3889 354.1950 354.1950
   354.3788 355.7446 355.7446 355.8816 357.3053 357.3053 357.3498 358.6254
   359.7024 359.7024 360.4683 361.2051 361.2114 361.2114 361.4046 361.4046
   362.1807 363.8755 363.9462 363.9462 364.1762 364.1762 364.2555 365.3035
   365.3035 366.1580 368.0799 368.0799 369.0194 369.2550 369.2550 370.4236
   370.4236 370.7288 374.3334 374.3334 374.4271 374.8207 374.8207 376.1240
   376.1956 376.1956 376.4229 376.5319 377.5507 377.5507 377.6224 378.1135
   378.1135 379.0592 379.0592 379.0715 379.5821 382.7630 383.2372 383.2372
   384.5778 384.8552 384.8552 385.6129 385.6129 386.8136 386.8136 386.8535
   387.7717 390.2435 390.2435 391.6839 392.5292 392.5292 392.5352 393.4988
   393.4988 393.6252 394.1056 395.7934 395.7934 397.5912 397.5912 398.2025
   398.6853 398.6853 399.7742 401.4726 401.4726 404.8068 404.8068 405.3044
   405.8154 406.2628 406.2628 407.2746 407.6283 407.6283 410.4098 410.4098
   411.1364 412.0420 412.2770 412.2770 412.8249 412.9564 412.9564 413.6847
   413.7321 413.7321 414.8740 414.8740 414.8880 415.1049 415.2881 415.2881
   420.7920 420.7920 421.4307 423.5237 423.5237 424.0163 424.0269 424.0269
   424.3033 426.0485 426.0485 426.1861 429.2054 429.3253 429.3253 430.3403
   431.3052 431.3052 431.7043 431.7043 431.7091 431.8047 432.6848 433.2512
   433.2512 433.3921 434.1554 434.1554 436.4357 436.7133 436.7133 436.7191
   437.2743 437.2743 437.5115 438.1342 438.1342 438.5409 439.1813 439.1813
   439.1824 439.8711 439.8711 440.7905 440.7905 441.1329 441.1652 441.1654
   441.1654 441.2474 441.3719 441.3719 441.8384 442.0217 442.0217 443.9062
   445.1508 445.1508 447.2529 447.2529 447.2544 447.3494 447.3494 447.6129
   448.4462 449.1266 449.1266 451.4087 453.9824 453.9824 454.0036 456.2882
   456.2882 456.4517 456.8174 456.8174 457.2193 457.2193 457.7210 458.3027
   458.3027 458.3283 459.3435 459.3435 459.6626 461.0293 461.0293 461.7949
   463.6551 463.6551 463.8926 464.3468 464.3667 464.3667 465.8198 465.8198
   465.8813 466.0286 466.3230 466.3230 467.5302 467.5302 467.8575 468.1091
   468.1302 468.1302 470.7787 471.1777 471.1777 472.7068 472.9365 472.9365
   473.1921 473.2269 473.2269 474.2998 474.2998 474.6022 474.6022 474.7637
   474.9198 475.0331 475.0331 475.5463 475.7915 475.8467 475.8467 476.4620
   477.6630 477.6630 477.8691 481.4453 481.4453 482.1708 482.1708 482.2269
   482.4524 482.4524 482.5263 484.4228 484.6897 484.6897 485.0421 485.5812
   485.5812 487.9756 487.9756 489.2023 489.2023 489.9911 490.1559 490.6994
   491.1641 491.1641 491.2637 491.5133 492.0061 492.0061 492.2478 492.5071
   492.5071 492.7431 492.7431 495.7535 495.9492 496.6044 496.6044 496.8192
   496.8192 497.8661 497.8661 498.0602 498.9479 499.2687 499.2687 499.6080
   499.6222 499.6222 499.7579 500.2780 500.4143 500.4143 502.1169 502.1249
   502.1249 502.4292 502.9190 502.9190 505.2195 505.2195 505.2398 505.8063
   505.9470 505.9470 505.9954 506.1359 506.1359 506.7952 506.8779 506.8779
   507.2137 507.2137 507.4261 507.6644 507.7150 507.7150 508.1246 508.2497
   508.2497 509.5318 510.5943 510.5943 511.9225 512.2195 512.2195 512.3010
   515.5278 515.5630 515.5630 515.9310 515.9310 516.2816 518.4784 518.5571
   518.5571 518.9452 518.9452 519.1973 519.6390 519.6390 520.1982 520.1982
   520.5435 521.0804 521.0804 523.2621 523.5653 524.2644 524.2644 525.6764
   525.6764 526.1011 526.1278 526.4578 526.4578 526.7960 527.1770 527.1770
   527.8746 528.0755 528.0755 530.5723 530.5723 530.8160 532.2416 532.3688
   532.3688 532.7853 532.8174 532.8174 534.3323 534.4010 534.4010 536.0154
   536.8584 536.8584 537.3332 537.5109 537.5109 537.9545 538.3581 538.3581
   539.1110 539.1110 539.1883 539.8130 540.0884 540.1903 540.1903 541.2302
   541.2302 541.2797 541.6661 541.6661 541.8468 542.3194 542.3194 542.5163
   542.5163 542.7465 543.7691 544.7611 544.7611 545.0150 545.0150 545.0255
   546.2237 546.8805 546.8805 547.3830 547.4648 547.4648 548.5810 548.6873
   548.6873 548.9103 549.0277 549.0277 550.4497 550.4497 551.9760 552.5026
   552.7621 552.7621 554.8220 554.8719 554.8719 555.4096 555.7943 555.7943
   556.0282 556.9707 556.9707 559.1252 559.1252 559.2738 559.2738 559.4476
   559.6462 561.1854 561.8364 561.8447 561.8447 562.3393 562.3393 562.3563
   563.8347 563.8347 568.8043 568.8644 568.8644 570.6612 570.6612 572.5091
   574.9941 575.4253 575.4253 578.4533 579.8349 579.8592 579.8592 579.8944
   580.7899 580.7899 581.0128 581.3761 581.3761 581.7266 584.4616 584.4616
   585.0931 585.4106 585.4327 585.4327 586.9666 586.9666 587.0963 587.0963
   588.8788 588.8788 589.0858 590.0499 590.0499 590.9593 591.5879 591.5879
   591.7336 592.0479 592.6386 592.6386 592.9466 593.9966 593.9966 595.5531
   597.0159 597.0469 597.0469 597.4153 597.4600 597.4600 598.3157 598.3157
   598.8340 600.1964 600.1964 600.3173 600.4247 600.4247 600.5196 600.7895
   600.7895 601.7998 601.7998 601.8700 602.3919 602.3919 602.5879 603.1721
   603.5685 603.5685 604.1367 604.1367 604.1599 604.7823 606.1903 606.1903
   608.7123 608.7123 608.7154 611.7917 612.7481 612.7481 613.6718 613.6718
   613.9361 614.9162 614.9162 615.0957 615.3201 615.4227 615.4227 615.9600
   616.0879 616.0879 618.6222 618.6222 619.3296 620.2542 620.2542 620.7021
   621.1047 621.1047 621.1602 621.3406 621.7352 621.7352 622.4564 622.4564
   622.7864 625.0362 625.2712 625.2712 625.8755 625.9036 625.9036 625.9104
   626.2725 626.2725 626.8879 627.0708 627.0708 627.1745 627.4554 627.4554
   628.6249 628.6249 628.8157 628.9724 629.2561 629.2561 632.6830 632.6921
   632.6921 632.9890 632.9890 633.0896 633.2739 633.2739 633.3153 633.9193
   634.0273 634.0273 635.2918 635.3812 635.3812 636.4027 636.4027 636.6899
   637.1932 637.2222 637.2222 637.6465 637.6465 637.7044 638.7635 638.7635
   638.9042 639.2032 639.2032 639.6335 639.6966 639.6966 639.8163 639.9389
   640.0865 640.0865 640.6146 640.8608 640.8608 640.9842 641.1760 642.0438
   642.0438 645.3548 645.3548 645.3672 645.4704 645.4924 645.4924 645.6010
   645.7295 645.7295 647.9532 648.3729 648.3729 648.4417 648.6423 648.6423
   648.8699 649.2829 649.2829 649.3920 649.6703 649.6703 649.6777 650.3828
   650.6118 650.6118 650.8821 650.8821 650.9578 651.3326 651.3326 652.4044
   652.4044 652.5513 653.7341 656.0932 656.0932 656.1207 656.2367 656.2367
   656.4923 657.0288 657.2184 657.2184 659.0582 659.0582 659.0982 659.1248
   659.2921 659.2921 659.4070 659.4070 660.9462 660.9502 660.9502 661.1186
   661.2133 661.2133 661.3101 661.5409 661.5409 662.7379 662.9177 662.9177
   664.3015 664.3015 664.3251 664.8639 665.5623 665.5623 666.4964 666.5648
   666.5648 667.0533 667.0533 667.2682 667.6336 667.6336 667.6876 667.9750
   667.9750 668.1625 670.2681 670.3343 670.3343 671.0637 672.5983 672.5983
   674.5056 674.5865 674.5865 676.3350 676.5148 676.5148 677.0412 677.1460
   677.1583 677.1583 677.5159 677.5159 677.8485 678.0462 678.3328 678.3328
   678.4583 678.4583 678.9102 678.9102 678.9516 679.8146 679.8146 680.1643
   681.2556 681.2556 681.9568 683.5170 683.5170 683.6505 683.8241 683.8241
   683.9671 685.1011 685.1011 686.4665 686.4665 686.4717 686.9485 689.2491
   689.4081 689.4081 689.8578 690.3348 690.3348 690.7009 691.3666 691.3666
   691.9527 691.9527 692.2701 692.4886 693.5601 693.5601 694.7057 694.7057
   695.8011 695.8011 695.8121 695.8392 696.9052 696.9230 696.9230 697.4674
   697.5908 697.5908 698.3382 698.3382 699.0189 699.0584 699.0584 699.2659
   700.1623 700.1623 700.3117 700.3393 700.3393 700.3495 703.6698 704.1182
   704.1182 704.1923 704.1923 704.3356 704.5162 704.7950 704.7950 704.8752
   705.2974 705.2974 706.7362 707.1921 707.3031 707.3031 708.0436 708.0436
   708.2732 708.6807 708.6807 709.3903 709.8704 709.8704 710.7365 710.8055
   710.8055 711.2050 713.8230 713.8230 715.0827 715.2082 715.2082 715.6615
   715.6976 715.6976 716.2063 717.2955 717.2955 717.3540 717.9717 717.9717
   718.2238 718.5182 718.5182 718.7648 720.8891 720.8961 720.8961 722.3093
   722.3093 722.3703 722.6871 722.7024 722.7024 726.0311 726.5951 726.5951
   727.0190 727.1495 727.1495 727.7460 727.8633 727.8633 727.8636 728.6405
   728.6405 728.6624 729.4945 729.9603 729.9603 730.0473 730.7800 730.7800
   732.8101 732.8101 733.2622 734.8989 734.8989 735.6851 735.6851 735.7355
   736.0930 736.7588 736.7588 737.5310 737.5774 737.5774 739.3197 739.3547
   739.3547 739.4507 739.8563 739.8563 740.6969 740.6969 740.9245 741.2377
   741.6075 741.6075 742.9192 742.9192 742.9596 743.5787 743.7835 743.7835
   744.1395 744.1395 744.3201 744.4488 744.4488 744.5903 746.6005 747.9037
   747.9037 747.9174 748.3501 748.3501 749.7474 749.8563 749.8563 751.1811
   751.1930 751.1930 751.6197 751.6197 751.6467 751.9004 752.2562 752.2562
   753.9257 753.9282 753.9282 755.5294 755.5294 755.6301 756.1713 756.1713
   756.2712 756.2712 756.3897 756.8398 757.7880 757.7880 759.2226 759.2226
   759.5043 759.6834 760.3138 760.3138 760.8903 761.4738 761.4738 762.0809
   764.2326 764.3044 764.3044 764.7006 764.7006 764.7203 765.3415 766.9155
   766.9155 769.8875 769.8875 769.8918 770.0671 770.1362 770.1362 770.3731
   770.3731 771.4106 775.7218 776.7137 776.7137 778.3142 778.7025 778.7025
   779.4424 779.4424 779.6597 779.7330 779.7923 779.7923 781.2990 781.2990
   782.5466 783.4320 783.4320 784.0338 784.4662 784.4662 784.8993 785.4201

          k =-0.3333 0.3333-0.3333 (  4462 PWs)   bands (ev):

   -93.6687  -7.0648   0.9802   4.6641   4.6641  10.9830  12.1673  12.1673
    15.8029  18.0902  18.0902  19.6872  23.2585  25.9762  25.9762  28.7184
    30.1754  30.1754  34.3406  37.4211  37.4211  40.0478  40.7258  40.7258
    44.3839  44.3839  46.9260  47.2266  49.0036  49.0036  51.0084  53.2071
    53.2071  54.5219  55.9839  58.6168  58.6168  59.8467  59.8467  61.8531
    62.5404  62.5404  62.8337  66.8201  68.9169  68.9169  71.6154  71.6154
    72.5186  75.8041  76.4034  76.4034  78.3184  79.7495  79.7495  80.3069
    80.5646  80.5646  82.5578  83.8488  84.1272  84.1272  86.9725  86.9725
    88.9356  89.1566  89.1566  93.5071  93.5071  96.1430  97.5272  98.1739
    98.7617  99.8229  99.8229 101.1932 101.3642 101.3642 105.1059 105.1059
   105.5597 106.0374 110.6368 110.6368 112.0908 112.0908 113.6728 114.4209
   114.4209 115.2559 115.2559 115.8507 116.6938 117.3417 117.3417 119.9129
   120.0573 120.0573 121.5916 122.3267 123.4721 123.4721 126.8960 127.8498
   127.8498 129.7242 129.7242 130.4566 131.0284 131.8555 131.8555 133.3746
   133.3881 133.3881 133.4024 135.7313 135.7313 137.2388 139.0067 140.2343
   140.2343 141.6010 141.8664 141.8664 144.6993 144.6993 145.4024 145.9874
   145.9874 147.0524 147.0524 147.6202 147.8148 147.8148 148.0043 150.0768
   151.1253 152.2932 152.2932 153.3191 153.3191 153.7861 154.7986 154.7986
   155.7564 156.8618 156.8618 159.7361 160.3738 160.3738 162.9366 163.1840
   163.1840 164.4888 169.2557 171.9465 171.9465 172.3541 174.4210 174.4210
   176.8289 176.8289 177.6644 178.2867 178.2867 179.1328 180.1734 180.1734
   180.5536 181.1571 181.8797 181.8797 183.9109 184.1886 184.1886 185.2446
   185.2446 185.5605 186.3769 186.4404 186.4404 188.3201 188.3201 188.9354
   189.6543 189.6543 190.4479 190.4479 191.0747 192.6709 195.1928 195.1928
   195.5671 196.3302 196.4175 196.4175 197.3825 197.3825 201.3397 201.8999
   201.8999 203.2696 203.7179 203.7179 203.9271 205.4840 206.4290 206.4290
   207.4327 208.9314 208.9314 209.5561 210.9240 210.9240 213.1330 213.3555
   214.0155 214.0155 215.1888 215.1888 215.7082 216.2960 216.3215 216.3215
   216.7064 216.7064 216.9414 219.5287 219.5287 219.5776 220.8190 220.8190
   222.3244 223.4667 223.4667 223.4772 225.0879 225.0879 226.4543 226.4543
   227.0849 228.0696 228.6778 228.6778 228.8946 231.5834 231.5834 231.8070
   232.8061 232.8061 233.3905 233.3905 233.7260 235.5793 235.9470 235.9470
   236.2379 236.4206 236.4206 236.4394 239.2790 239.2790 242.1362 242.1362
   242.7033 242.7033 243.2698 243.5730 245.3115 246.9001 247.1157 248.2419
   248.4365 248.4365 248.9185 248.9185 250.9670 251.3692 251.3692 252.0950
   252.0950 252.4608 252.7006 252.7006 255.9628 256.2714 256.2714 257.1541
   257.1541 257.2691 257.8352 257.8352 258.1135 258.7269 258.7269 259.2127
   261.3775 263.2868 263.2868 263.8893 266.5952 266.5952 266.9456 268.8322
   268.8322 270.1917 270.4436 270.4436 272.0525 272.8752 272.8752 275.2301
   275.2301 276.7080 277.6167 277.6896 277.6896 278.2848 279.1400 279.1400
   281.0249 281.0249 281.1920 282.3358 282.3358 282.6721 283.3886 283.3886
   283.5076 283.8070 284.4230 284.9429 284.9429 285.7531 285.9400 285.9400
   286.8286 286.8286 287.6183 287.6183 287.6551 288.0895 290.0951 290.0951
   290.1629 293.2971 293.2971 294.4790 294.6613 294.6613 296.2656 296.8163
   296.8163 298.3507 298.7433 298.7433 298.8474 300.0350 300.0350 300.3481
   300.3481 301.1410 301.1410 301.3276 301.4014 302.2918 307.0167 308.0199
   308.0199 309.3974 309.7137 309.7137 312.3170 312.3170 313.2990 314.3429
   314.3429 315.2231 315.5748 315.5748 316.0478 316.8707 316.8914 316.8914
   316.9696 317.2774 317.2774 319.4018 319.6320 319.6320 319.9815 319.9815
   321.5568 321.5568 321.8456 322.4994 322.4994 322.5070 324.4353 324.4353
   324.6693 327.6205 327.6205 328.0442 328.7130 329.0821 329.0821 329.9011
   329.9011 330.3594 330.5049 330.8498 330.8498 332.7176 332.7176 332.7414
   333.8797 333.8797 334.2578 334.7642 335.9014 335.9014 338.0140 338.1600
   338.1600 339.0859 339.2327 339.2327 339.9359 340.3579 340.3579 343.4698
   343.5279 343.5279 345.4147 345.4147 345.5112 347.4898 347.5449 347.5449
   347.9493 348.0140 348.0140 348.9379 349.0930 349.5582 349.5582 350.3501
   350.4072 350.5912 350.5912 350.8355 350.8355 351.0320 354.2791 354.2791
   355.0443 356.3433 356.3482 356.3482 356.5986 356.6275 356.6275 358.1566
   358.4150 358.4150 359.5468 359.6473 359.6473 359.7504 359.7504 359.8693
   360.1932 360.1932 362.1968 362.2339 362.2339 363.4832 363.4832 363.5797
   363.5843 364.4854 364.4854 367.4224 367.4224 367.4555 367.6833 370.8100
   371.1328 371.1328 371.3516 371.3516 375.7665 375.7665 376.3057 376.6145
   376.8848 376.8848 377.3070 377.3070 377.5676 379.7802 379.7802 379.8990
   380.6404 380.6404 382.6600 383.0868 383.0868 383.6450 383.8224 383.9014
   383.9014 384.1508 384.6924 384.6924 384.8727 386.0026 386.0026 386.5158
   387.3575 387.3575 387.8027 387.8060 389.0291 389.0291 389.8370 390.3598
   390.3598 390.6607 390.6752 390.6752 393.9590 393.9590 396.3182 396.6270
   396.6270 397.4535 397.5644 397.5644 399.3045 399.6068 399.6068 400.2574
   400.2574 400.5255 400.9677 400.9677 402.4188 402.4951 402.4951 403.1438
   403.5790 403.5790 403.5991 403.7329 405.8148 406.0104 406.0104 407.2102
   407.2102 407.3972 408.4856 408.7742 408.7742 410.7899 411.0252 411.0252
   412.2536 412.2536 412.3180 412.8869 414.1140 414.1140 414.6716 414.6716
   414.9992 416.0801 416.2991 416.2991 417.5381 417.5381 417.6498 418.1849
   418.1849 418.3404 419.2450 419.7885 419.7892 419.7892 421.8310 422.1831
   422.1831 424.3859 424.3859 424.6142 425.2397 425.2397 425.2436 426.4670
   426.4670 429.0837 429.1694 429.1694 430.6535 430.6535 431.4473 433.6260
   433.6260 434.2415 434.2808 435.1407 435.1407 435.4605 436.3216 436.3216
   437.7584 438.6879 438.6879 440.7587 441.2989 441.2989 443.3005 444.0571
   444.0571 444.7024 446.4836 446.4836 447.2359 447.6039 447.6039 448.0959
   448.2609 448.2609 450.6174 450.6174 450.9563 451.0587 452.2870 452.2870
   453.0471 453.1831 453.2864 453.2864 454.0214 454.0214 455.4955 455.4955
   455.7793 455.8752 455.8752 456.6576 456.8549 456.9729 456.9729 458.2441
   458.2441 460.2849 461.0420 462.3357 462.3357 462.7837 463.3394 463.3394
   464.1218 464.1218 464.3251 464.6523 465.3427 465.3427 465.4724 466.1159
   466.1159 466.9026 466.9026 467.0658 467.9638 468.1828 468.1828 468.9769
   469.6414 469.6414 470.0039 470.0307 470.3558 470.3558 470.8747 470.8747
   471.2370 471.9298 471.9298 472.9090 472.9090 473.8314 475.2073 475.2696
   475.2696 475.6793 475.9590 475.9590 477.5226 478.0390 478.0390 479.0340
   479.1143 479.1143 479.5664 479.8126 479.8327 479.8327 479.9697 480.7852
   480.7852 481.8064 483.2881 483.2881 483.6999 483.6999 484.0570 484.1759
   484.6880 484.6880 485.0582 485.2874 485.4229 485.4229 486.2768 486.2768
   486.3117 487.0811 487.0811 487.3404 487.4976 487.4976 487.6893 487.7111
   487.7111 488.1630 488.1630 488.7417 488.7417 488.7687 489.1320 489.1320
   489.1332 489.4915 489.4915 490.2106 491.7752 491.7752 492.0191 492.2636
   492.2636 492.2720 494.8736 495.1647 495.1647 495.8660 496.0423 496.0423
   501.4220 501.4220 501.9016 503.9116 503.9116 504.2672 505.2521 505.3177
   505.3177 508.3486 508.6916 508.6916 509.1867 509.6299 509.9188 509.9188
   510.4907 510.4907 512.2001 512.2001 512.4565 515.8854 515.8854 516.0544
   516.6783 516.6783 516.9711 517.0711 517.1665 517.1665 518.0693 518.0872
   518.0872 518.6458 518.6458 518.7540 518.9121 518.9190 518.9190 519.2118
   519.5024 519.5024 519.5188 520.4147 520.4147 523.0053 523.5624 523.5624
   524.5135 524.5813 524.5813 525.1369 525.1489 525.1489 525.2722 525.2722
   525.3726 526.3057 526.3057 526.6187 528.2750 528.3083 528.3083 528.3114
   531.6218 531.8842 531.8842 532.7577 532.7577 532.8467 534.8511 534.8511
   535.2638 536.6862 536.6862 536.8019 537.2408 537.5267 537.5267 537.8356
   537.8356 538.0040 538.0040 538.0718 538.2752 538.9400 538.9400 539.0572
   539.8640 540.1926 540.1926 541.5309 541.5309 541.5577 542.9606 542.9606
   543.2288 544.8301 544.8301 546.0888 547.7272 548.8738 548.8738 549.2927
   550.2458 550.2458 551.1627 551.3446 551.3446 551.5685 553.0855 553.0855
   553.1170 553.2264 553.2264 553.4711 553.7040 553.7040 553.8120 553.9798
   553.9798 554.8545 555.2151 555.2151 557.5689 557.7357 557.7357 558.3767
   558.3767 558.9542 559.4801 559.5763 559.5763 561.1235 561.1235 561.1898
   561.8081 562.3109 562.3109 565.1733 565.2298 565.2925 565.2925 565.6489
   565.6489 566.0536 566.8493 566.8493 567.8624 568.0612 568.0612 570.0869
   570.0869 570.1420 570.8006 571.0180 571.0180 571.0364 571.0661 571.2791
   571.2791 572.0112 572.0239 572.0239 574.2016 574.2016 574.2945 575.3892
   575.3892 580.4561 580.4561 580.6405 581.5401 581.6014 581.6014 582.7758
   582.7758 583.9867 584.0540 584.0540 584.1839 584.8584 585.6836 585.6836
   586.0424 586.5597 586.5597 586.9985 587.1265 587.1265 587.4650 587.9228
   587.9932 587.9932 588.6894 588.6894 589.0258 589.0258 589.1953 590.9954
   590.9954 591.6296 592.8968 593.3835 593.3835 594.2936 595.0539 595.0539
   595.0571 596.6577 596.6577 597.0742 597.0742 597.7372 598.8119 598.8119
   598.9347 599.3543 599.5115 599.5115 599.5345 599.9035 600.6178 600.6178
   601.5858 601.6903 601.6903 601.9715 602.6260 602.6260 602.7725 602.7725
   602.8560 603.5177 603.5177 604.6625 604.9095 605.0169 605.0169 605.3285
   606.2280 606.2280 609.6230 609.7071 609.7071 610.2441 610.2441 610.3084
   610.8890 610.8890 611.0284 611.7739 611.7739 611.9552 614.6738 615.7127
   615.7127 616.3775 616.9684 616.9684 617.4098 617.6913 617.7892 617.7892
   619.1673 619.1673 619.2275 619.3280 619.3280 619.4028 620.4441 620.4441
   620.5739 620.8775 620.8775 621.1564 621.3499 621.4315 621.4315 622.1488
   622.1772 622.1772 622.5157 622.5157 625.0703 625.0703 625.0707 625.8740
   625.8740 625.9632 626.2637 626.2637 626.2849 627.1374 627.3481 627.3481
   629.0231 629.0231 629.1175 630.5574 630.6449 630.6449 632.8805 633.5494
   633.5494 633.7847 633.8519 633.8519 634.0288 634.4231 634.5092 634.5092
   635.2121 635.2121 635.6891 635.7398 635.7398 637.2411 637.2998 637.2998
   637.4191 637.5761 637.5761 638.6217 638.6217 638.6798 638.9162 638.9162
   638.9726 639.3694 642.0498 642.0498 647.4635 647.9843 647.9843 649.0092
   649.4096 649.4299 649.4299 649.9925 649.9925 650.2365 650.2365 650.5396
   651.2693 651.2693 651.4166 651.5700 651.5700 651.8321 652.9528 652.9528
   653.6049 653.6619 653.6619 653.7423 654.1041 654.1041 654.2178 654.4158
   654.4158 654.6971 654.8799 654.9328 654.9328 654.9656 656.4653 656.4653
   658.7671 658.7671 658.9398 658.9398 659.4677 659.4677 659.5062 659.6333
   659.7809 661.0786 661.7404 661.7404 662.4685 662.4685 662.5211 662.6309
   662.6309 662.7920 662.7920 662.7980 662.8141 663.0414 663.0414 663.2999
   666.5130 666.5130 666.8068 667.8703 667.9157 667.9157 668.4314 668.4314
   668.6048 668.6048 668.8899 669.0209 669.2057 669.2057 669.2491 670.7805
   670.7805 671.3856 672.6570 673.3275 673.3275 674.2301 674.3551 674.3551
   680.9842 681.6078 681.6078 681.6705 682.2217 682.2217 684.5324 684.5455
   684.5455 684.8777 684.8777 685.0186 685.0977 685.0977 685.8278 686.3487
   686.3487 686.4075 686.6876 686.6876 686.7625 686.7825 687.1759 687.1759
   687.2966 687.4925 687.4925 688.0639 688.6047 688.6047 689.2075 689.6253
   689.7093 689.7093 689.7097 689.9055 689.9137 689.9137 690.2434 690.2434
   690.3145 691.5079 691.7656 691.7656 692.1006 692.1503 692.1503 692.7194
   692.7194 693.0155 695.2463 695.2463 695.2923 695.4437 695.4437 695.5034
   696.3971 696.3971 696.6867 696.6867 698.8663 699.0130 699.0130 700.8669
   700.8669 701.0869 702.0006 702.0677 702.0677 703.2432 703.2432 703.2762
   703.8524 703.8524 704.0621 704.2425 704.8044 704.8357 704.8357 705.2679
   705.2679 705.2846 705.3240 705.4231 705.4231 705.4533 705.5187 705.5187
   706.0607 706.0607 706.2308 706.3137 706.3137 706.7892 706.7892 706.9629
   712.5284 712.5923 712.5923 713.1913 713.8507 713.8507 714.2828 715.0304
   715.0304 716.3614 716.6044 716.6044 720.1734 720.1734 720.2159 720.3130
   720.3130 720.4992 720.5717 720.8257 720.8257 721.1012 721.2687 721.2687
   721.7016 721.7361 721.7361 721.9977 721.9977 722.1626 722.1977 722.1977
   722.2079 722.2556 722.3560 722.3560 724.6557 724.6557 726.3415 726.7250
   726.7250 727.3269 728.2818 728.2818 728.3964 728.3964 728.4310 728.7772
   728.9268 728.9268 730.0492 730.0705 730.0705 730.1004 731.5134 731.5134
   731.5150 734.5211 734.5424 734.5424 734.7851 735.5361 735.5361 736.3839
   736.3839 736.4368 737.1127 737.2822 737.2822 737.8609 737.8609 737.9128
   739.1715 739.1715 739.2774 739.6481 739.8744 739.9016 739.9016 739.9966
   740.0317 740.0317 740.2156 740.2156 741.4627 741.4783 741.4783 744.2975
   745.7161 745.7161 745.9380 745.9380 746.1518 746.6459 746.9478 746.9478
   747.6433 747.6433 748.7937 751.1141 751.3301 751.3301 752.3077 752.3077
   752.9836 753.7145 754.1841 754.1841 754.8252 754.9449 754.9449 755.0569
   755.4866 755.4866 755.5253 755.6105 755.7248 755.7248 756.7654 756.7905
   756.7905 758.8564 758.8564 758.9424 759.0916 759.0916 759.0991 759.3667
   759.3667 759.3821 760.6554 760.6554 760.6945 761.8440 762.5547 762.5547
   763.4866 763.4866 763.8372 763.9440 763.9440 764.3412 766.7835 766.8221
   766.8221 767.1277 769.6562 769.6755 769.6972 769.6972 769.8488 769.8488
   770.3602 770.9260 770.9260 774.0799 774.2608 774.2608 774.5761 774.5761
   774.5827 774.6591 774.6591 774.8258 774.9264 774.9264 777.0392 777.0392
   777.0760 778.6334 778.9353 778.9353 779.2069 780.7265 780.7265 783.6212

          k = 0.5000-0.5000 0.5000 (  4446 PWs)   bands (ev):

   -93.6686  -6.5550  -0.2260   4.4614   4.4614  10.9420  12.0771  12.0771
    16.6395  20.3218  20.3218  20.5720  22.2425  22.9089  22.9089  29.9278
    33.5687  33.5687  35.2267  36.8407  36.8407  39.3776  39.3776  41.7074
    42.6366  42.6648  42.6648  47.5051  47.5051  47.7353  49.4133  52.0803
    52.0803  54.1382  54.1912  59.3051  59.3051  60.6415  60.6415  61.6518
    63.7434  65.3037  65.3037  68.9630  71.1387  72.0792  72.0792  73.9790
    73.9790  74.2414  74.2414  75.6541  78.7695  78.7695  79.2588  82.2662
    82.2662  82.7180  84.1081  84.1081  86.1358  86.1358  88.7188  88.8383
    89.4407  90.2277  91.9080  91.9080  92.1378  92.1583  92.1583  94.8117
    97.1689  98.6517  98.6517  99.2883  99.2883  99.9608  99.9608 102.0876
   105.1330 105.6039 105.6039 110.4109 112.3916 112.3916 112.8748 114.8846
   114.8846 115.0276 115.4834 115.4834 116.5248 119.5757 119.5757 120.8241
   121.9029 122.5323 122.5323 123.6487 123.6487 124.5924 125.4830 126.3353
   126.3353 126.3825 126.7662 126.7662 127.2654 134.1228 134.1228 134.1618
   135.8802 136.5308 136.5308 137.2641 137.2641 139.0244 139.4103 139.4103
   139.7208 140.1216 141.2377 141.2377 143.5786 143.5786 144.4099 145.1870
   145.1870 145.4312 146.3521 146.3521 147.9425 151.9473 152.8542 152.8542
   153.0485 153.6129 153.6129 153.8835 156.5233 156.5233 157.4144 157.4144
   161.9074 161.9074 162.3349 162.3349 163.2567 163.8252 164.7103 165.1809
   165.2414 167.0133 167.0133 168.7278 168.7278 168.9010 168.9010 169.1296
   171.9147 171.9147 172.1900 172.1900 174.9009 175.4124 175.4124 175.9452
   177.4009 181.6698 181.6698 183.5076 185.7190 185.7789 185.7789 186.3934
   186.3934 186.6238 187.0624 187.0624 187.5942 188.5243 189.0032 189.7947
   189.7947 190.2667 190.2667 191.7341 195.2655 195.2655 196.3539 196.3539
   196.9352 198.2722 200.1857 200.1857 200.4232 201.3344 201.3344 201.5224
   201.5224 201.8850 202.1687 202.1687 202.3069 202.3069 202.7700 203.3779
   203.3779 203.5291 206.8199 207.5161 207.5161 208.7842 208.7842 208.8388
   211.4649 211.8452 213.5658 213.6131 213.6131 213.9902 213.9902 214.3242
   214.3242 215.1783 215.1783 215.6788 220.2356 220.7068 220.7068 222.8320
   223.2429 223.2429 224.1283 224.3823 225.1039 225.1039 226.4120 226.8329
   226.8329 227.5976 228.4373 228.6669 228.6669 228.9558 229.5974 229.5974
   232.9515 232.9515 234.1197 234.2681 234.2681 234.9641 235.5544 236.4971
   237.8220 237.8220 239.7478 239.8997 239.8997 241.1192 241.7603 241.7603
   242.2079 242.2079 243.4374 243.4374 243.4758 243.4758 243.6179 243.7177
   251.0690 253.6828 254.4963 254.4963 254.8015 254.8015 256.0954 256.0954
   257.0937 257.9044 257.9044 258.1605 260.1843 260.1843 260.7378 260.7378
   261.0516 261.7078 264.4015 264.4576 264.4984 265.0629 265.0629 265.2928
   265.5618 265.5618 267.0358 267.3909 267.6294 267.6294 269.0887 269.0887
   270.7231 270.7231 272.3032 272.3032 272.4881 272.9069 273.1864 273.1864
   273.5433 273.5433 275.0677 275.0677 275.6545 275.6545 275.7015 276.2885
   277.6185 277.6412 277.6412 277.6709 277.6709 278.1828 278.3658 278.3658
   278.5251 278.5251 279.7475 279.7589 283.6415 285.6168 286.4462 286.4462
   287.3817 288.1822 288.1822 288.7831 291.4382 291.4382 291.7945 291.7945
   292.2989 292.2989 292.4192 292.6393 292.6393 292.7908 295.5282 295.7151
   295.7151 297.7711 297.7711 297.9425 298.7457 298.7457 299.1342 300.1444
   300.1444 300.4509 300.6763 302.6486 302.6486 303.0260 303.0260 303.1160
   304.3841 304.3841 304.4417 304.4417 304.6661 304.8201 311.9797 312.6162
   312.6162 313.4374 314.4421 314.4421 314.8393 314.8393 314.9412 314.9412
   315.0993 315.2502 315.2502 315.3511 315.6193 316.8718 316.9796 316.9796
   321.4133 321.4133 322.0497 322.9271 323.2033 323.2033 323.6199 324.9904
   325.0280 325.3279 325.3279 326.2354 326.2354 327.2195 327.6998 328.1401
   328.1401 328.6906 328.7584 328.7584 333.0679 333.0679 333.4892 333.4892
   335.0118 336.0533 336.0533 337.0734 337.0734 337.8162 340.0688 340.0919
   340.2514 340.2514 340.6958 340.6958 340.9754 341.8530 342.4882 342.4883
   342.9189 344.3287 344.3287 344.6923 344.6923 344.7318 344.8144 344.8144
   348.3026 348.3969 348.3969 349.3738 349.3738 349.6070 350.7252 350.9491
   350.9491 351.2918 351.2918 351.4735 353.4798 353.4798 354.8588 355.2158
   355.4446 355.4446 357.7119 357.7724 357.7724 357.8439 357.8439 358.0217
   358.1079 358.2977 358.6107 358.6107 359.4366 359.4366 362.1881 362.1881
   362.9891 362.9891 363.4408 364.9324 366.2729 366.4236 367.6019 367.6019
   367.9637 367.9637 371.7375 372.5241 372.6181 372.6181 373.8223 373.8223
   374.2498 374.2498 374.3760 374.7803 374.8637 374.8638 375.1237 376.6600
   377.4469 377.4469 377.9140 377.9140 377.9146 378.1750 381.8513 383.4192
   383.4192 384.2897 384.5883 384.5883 385.2313 385.2313 385.5603 386.1140
   386.1140 386.4089 387.6700 387.7443 387.7443 388.1816 388.4928 388.4928
   390.6255 390.6255 390.7175 390.7175 390.8902 390.9646 392.1502 392.2305
   392.2305 392.4433 392.4433 392.5033 393.3956 393.3956 393.4176 393.4377
   393.4377 393.4969 395.0389 395.6151 395.6151 395.6520 395.7702 395.7702
   397.6700 398.2067 398.2067 398.6292 398.9333 398.9333 401.2669 401.2669
   402.2398 402.2648 402.2648 402.4597 402.6547 403.2135 403.2135 403.2432
   403.9905 403.9905 405.0282 405.0282 405.1656 405.2657 405.3189 405.3189
   410.6434 411.2804 411.2804 411.7200 411.7200 411.7778 413.6488 414.2749
   416.8249 416.8249 417.1248 417.2830 417.4217 417.4217 420.1814 420.1814
   420.7349 420.7349 426.7515 426.7515 426.8469 426.9074 426.9074 427.2713
   427.2713 427.7200 428.0898 428.1667 428.2038 428.2602 428.2602 428.7707
   428.7707 428.8448 429.0645 429.0645 430.3029 430.3030 430.3223 430.3223
   431.6759 431.6982 434.1697 434.1697 434.4503 435.0887 436.6089 436.6089
   437.1416 439.2680 439.3197 439.3197 439.9105 439.9105 439.9970 440.4983
   440.4983 441.8472 441.8472 442.2822 444.0293 444.0293 444.1085 444.1085
   444.2327 444.2551 448.1351 448.6440 448.6440 448.9551 450.1244 450.1244
   450.1452 450.5355 453.7309 453.7309 454.8668 454.8668 454.9197 455.3928
   455.8547 455.8547 456.4768 456.4768 456.6154 456.6154 457.1339 457.9032
   457.9171 457.9171 459.9058 459.9058 460.1288 460.6359 460.6359 460.7466
   461.1463 462.2879 462.2879 462.8682 463.8616 463.8616 464.4432 464.4721
   464.4721 464.9162 464.9849 464.9849 466.0768 466.2534 466.2534 466.4582
   466.4582 466.5811 467.9850 467.9850 468.2024 468.2024 468.4681 468.5389
   469.3959 469.6141 469.6141 470.1201 470.6993 470.6993 471.7667 471.7667
   471.8105 471.8768 471.9025 471.9025 476.8061 476.8061 476.8748 477.6717
   477.6717 477.9074 479.1247 479.4467 479.4467 479.9825 479.9825 480.3190
   480.9817 481.2264 481.2264 481.5000 481.5000 481.5608 484.7993 485.5470
   485.5470 486.1972 486.5009 486.5009 486.5672 486.5672 486.7346 486.9688
   487.4016 487.4016 487.4954 487.4954 487.6296 488.0238 488.0238 488.5859
   493.2450 493.2450 493.2977 493.2977 493.6037 493.6266 494.4501 494.4501
   495.0132 495.7045 495.9278 495.9619 495.9619 496.2064 496.2064 496.2257
   496.2491 496.4330 496.4330 498.6431 501.1807 501.1807 501.2173 501.2173
   502.3598 502.8155 502.8155 502.8709 503.0926 503.0926 503.8122 503.9706
   503.9706 504.4743 504.5553 504.5553 504.5620 504.6127 504.6334 504.6334
   504.9334 504.9334 509.5125 509.5468 509.5468 509.8752 510.6360 510.6360
   512.0940 513.4831 515.0215 515.0215 516.4908 516.4908 517.2244 517.5429
   517.6900 517.6900 518.0906 518.0906 518.1788 520.3039 520.3039 520.3499
   520.3499 520.6239 527.1338 527.1338 527.3863 527.8182 527.8182 528.1890
   528.6958 528.6958 528.9158 529.0585 529.0585 529.1534 529.2907 529.4563
   529.4563 529.5040 529.5717 529.5717 529.6802 529.6802 529.8766 529.8768
   529.8768 530.2444 532.5595 532.5595 532.5666 532.6325 532.6325 532.6791
   534.5250 535.6560 535.6560 536.5118 536.5118 536.8731 539.9869 539.9869
   540.5706 541.1317 541.4731 541.4731 542.4633 542.4633 542.5180 542.5180
   542.6080 542.6200 545.0108 545.0192 545.0192 545.2246 545.2246 545.2675
   546.9159 547.2968 547.6117 547.6117 547.6985 547.6985 548.4712 549.8136
   549.8136 549.8708 550.4713 550.5823 550.5823 551.0550 551.0550 551.1529
   551.2243 551.2243 551.3892 551.3892 551.7609 552.7591 552.8883 552.8883
   555.9519 555.9519 556.0802 556.0802 556.4808 556.4882 561.8421 561.8421
   562.0146 563.3857 563.6429 563.6429 564.3998 566.6027 567.5417 567.5417
   567.8586 567.8902 567.8902 567.9166 568.7156 568.7361 568.7361 568.8009
   569.0861 569.0861 569.4958 569.4958 569.6190 569.6190 570.6208 570.9472
   572.9599 572.9599 573.2408 574.0948 574.1715 574.1715 575.3294 575.3294
   575.8145 575.8171 575.8171 577.4815 577.6671 577.6671 578.4345 578.4435
   578.4779 578.7555 578.7555 578.9515 579.9603 579.9603 580.1154 580.1154
   581.0486 581.0678 581.0678 581.5880 581.5880 582.0575 582.0893 582.1296
   582.1296 582.3077 582.3607 582.3607 582.9655 583.0356 583.0356 583.0918
   583.2077 583.2077 583.2701 583.2956 583.2956 583.4484 583.4484 583.4495
   591.5165 592.8538 592.8538 593.1364 593.2349 593.2349 593.6635 594.0232
   594.0232 594.3212 594.3212 594.5170 594.5593 594.6152 594.7105 594.7105
   594.9464 594.9464 594.9531 595.2063 595.2063 595.8924 598.6101 598.9915
   598.9915 601.3379 601.3379 602.0668 602.5785 603.0266 603.0266 603.2144
   603.3055 603.3055 605.1503 605.2941 605.2941 605.9497 606.2974 606.2974
   606.5357 607.0103 607.0103 607.4315 607.7320 607.7320 608.1357 608.1357
   608.1506 608.1506 608.2513 608.3470 609.1962 609.1962 610.2777 610.2777
   610.5159 610.5955 610.5955 610.6815 616.0561 616.0561 616.0665 616.0665
   617.5599 617.5599 617.7910 617.8583 618.0375 618.2258 618.2258 618.2910
   618.4331 618.4331 618.4485 618.4982 619.1632 619.1632 620.2160 620.6213
   620.6213 621.2825 621.4235 621.4986 621.4986 621.7768 622.1638 622.1638
   622.3258 622.3258 624.1998 624.1998 624.2009 624.2009 625.0332 625.0338
   628.6517 628.6517 628.7472 628.8094 628.8094 628.8400 630.4106 630.5749
   630.5749 630.7777 631.1140 631.1140 639.5802 639.8181 639.8181 640.0343
   640.4158 640.4158 641.3475 641.3475 641.5466 641.9718 641.9718 642.3360
   642.3360 642.6779 642.7458 642.9468 642.9804 643.1839 643.1839 643.2482
   643.2482 643.8892 643.9838 644.0044 644.0044 644.5284 644.5284 644.9101
   644.9124 644.9124 645.3853 645.4038 645.4038 645.6773 645.7448 645.7448
   650.8583 650.9279 651.2144 651.2144 651.6142 651.6832 651.6832 651.7389
   651.9089 651.9089 652.1753 652.2325 652.4425 652.4425 652.6047 652.6047
   652.8170 653.5268 653.5268 653.6554 653.7261 653.7876 653.7876 653.8905
   654.2756 654.2756 654.6675 654.7410 654.7410 655.3979 655.3979 656.1000
   658.8080 658.8080 658.8333 658.8333 659.1562 659.1687 659.2420 659.2420
   659.2734 659.2734 660.9700 660.9700 661.0206 661.0206 661.0525 661.0525
   661.0585 661.1282 661.1577 661.3300 661.3300 661.4811 667.9864 668.0255
   668.0255 668.3026 668.3775 668.3775 672.0332 672.0468 672.0468 672.0765
   672.0791 672.0791 677.1803 677.4160 677.4160 677.9048 678.0205 678.0205
   678.1668 678.1668 678.3321 678.7158 680.3150 680.3150 681.5240 681.6867
   681.6867 682.4355 682.4355 682.5667 682.6813 682.6813 682.8038 682.8038
   682.8792 682.9816 688.4498 688.5910 688.5910 688.6216 689.4190 690.1550
   690.1550 691.0427 691.0427 692.2210 692.2210 693.5637 693.6267 693.6267
   693.9573 693.9573 693.9637 694.0630 694.2395 694.2395 694.2962 694.9154
   694.9735 694.9735 695.2661 695.2661 695.5334 695.8009 695.8009 695.8229
   696.0238 696.0238 696.0672 697.5160 697.5160 700.2023 701.8035 703.1353
   703.3961 703.3961 703.5091 703.5091 704.2207 704.4014 704.4014 705.1425
   705.1425 706.1634 707.0534 707.1312 707.1312 707.3452 707.4181 707.4181
   708.5012 708.5012 708.5395 708.9599 708.9599 708.9873 709.9795 709.9795
   709.9828 710.0610 710.0610 710.1125 711.2048 711.2048 711.3273 711.7294
   713.7735 713.7735 714.0337 714.0409 714.0409 715.1325 715.1325 715.5185
   718.3632 718.3632 718.5538 718.5538 718.7636 718.7636 718.9373 719.4683
   719.5829 719.5829 720.0627 720.1322 720.1395 720.4156 720.4156 720.4521
   720.5115 720.6697 720.7139 720.7139 720.8196 720.8196 720.9663 721.2063
   721.2063 721.2540 721.4446 721.4446 721.4863 721.4863 724.8417 724.8904
   725.0826 725.0826 725.4090 725.4090 727.3975 727.7614 728.2200 728.2200
   728.7390 728.8502 728.8502 729.1681 729.1681 729.3268 729.6400 729.9827
   729.9827 731.5902 732.1812 732.1812 732.3231 732.5016 732.5469 732.5469
   732.8046 732.8422 733.5099 733.5099 733.5158 733.5158 734.5508 734.5508
   734.6206 734.6206 734.8683 734.8707 735.1500 735.1500 735.1566 735.1566
   735.5495 735.5544 735.5544 735.5920 735.5999 735.5999 742.6497 742.6497
   742.9285 743.3348 743.8995 743.8995 744.6965 744.7207 744.8151 744.8553
   744.8553 744.8743 744.8743 744.9901 744.9901 745.8194 746.2485 746.2485
   746.8451 747.0464 747.0464 747.2402 747.3350 747.3350 747.4165 747.4739
   747.4739 747.7101 747.7541 747.7541 750.9880 751.7697 751.7697 752.0154
   752.0154 754.6851 755.8200 755.8200 755.8998 755.8998 756.4607 756.4623
   758.1674 758.4090 758.4090 758.8696 758.8696 759.2930 759.7231 759.7231
   759.7468 759.7694 759.8271 759.8271 761.5861 761.9800 761.9800 762.3207
   762.4716 762.4716 762.7312 762.7312 762.9149 763.8717 765.3172 765.3172
   768.4246 768.6217 768.6217 768.7310 769.3158 769.3158 769.3554 769.3554
   769.6804 770.2405 770.2405 770.2872 770.2872 770.3452 770.4417 770.6075
   770.6075 770.7224 772.1309 772.1309 772.1729 772.1729 772.2802 772.2823
   773.1459 773.3430 773.3430 773.3808 773.3808 773.5422 775.1587 775.1587

          k = 0.0000 0.3333 0.0000 (  4460 PWs)   bands (ev):

   -93.6687  -7.7209   3.9568   4.5683   4.5683  10.4993  12.6870  12.7298
    12.7298  15.8930  18.8521  21.3557  23.1775  23.1775  24.1141  29.8480
    30.6644  30.6644  34.0461  35.7828  37.2227  39.8808  39.8809  42.2417
    46.8776  46.8776  48.8972  50.0958  50.2777  51.6718  51.6718  54.8644
    56.4351  56.4351  56.7590  57.6884  59.3148  59.6897  59.6897  62.1721
    62.1721  62.2078  65.1149  65.5774  65.8852  65.8852  67.8316  68.0671
    69.5477  69.5477  70.7304  72.1010  75.2742  75.2742  75.9639  77.6250
    78.8189  81.4348  81.4348  81.9724  83.2432  87.8263  87.8857  87.8857
    92.6942  93.9852  95.2672  95.2672  96.3461  96.4714  98.7140  98.9704
    98.9704 103.7185 103.9198 105.1538 105.1538 105.6547 107.8238 107.8238
   108.2097 109.4593 110.8807 110.9187 110.9187 111.5785 111.5785 112.0685
   112.3220 115.4955 116.1813 116.4567 116.4567 119.7281 120.9270 120.9270
   121.6957 122.6771 122.8048 123.4346 123.4346 123.9659 126.0503 126.8329
   126.9430 126.9430 127.2683 127.2683 128.7247 128.8923 131.0044 132.5811
   132.5811 133.1667 134.0085 134.1864 134.6435 134.6435 135.2517 137.7671
   137.8276 137.8276 138.9354 139.5022 139.5022 141.8613 142.8846 144.3747
   144.6880 144.6880 146.6848 147.1348 147.1348 148.8807 150.0943 152.4453
   152.9767 152.9767 154.3932 154.6448 154.6448 155.5462 156.8660 157.8175
   158.6861 158.6861 160.8567 161.2861 161.2861 161.6991 161.6991 162.5990
   162.9676 166.2865 167.0259 167.0259 168.5327 168.5697 169.7799 170.1246
   170.1246 171.4129 171.4129 171.5853 171.6316 175.0756 176.4375 177.2656
   177.8434 177.8434 180.4911 181.9368 183.2061 184.9896 184.9896 186.3411
   187.3475 187.3475 188.6486 188.8215 188.8215 191.0910 193.2588 194.3839
   194.3839 196.1249 196.2551 196.2551 196.8562 197.0723 198.5072 200.0002
   200.0002 200.6017 200.6017 200.8585 201.7946 202.0191 202.4539 204.3493
   204.3493 204.5116 205.9391 206.4489 206.4489 207.3398 208.7935 209.3868
   209.3868 209.6944 209.9302 210.7353 211.1608 211.1608 211.8852 212.4551
   212.4551 212.5611 214.2734 216.2605 216.5577 216.5577 216.8925 217.9722
   218.1364 218.1364 219.1160 220.2971 220.5333 221.4555 221.4555 221.9706
   221.9706 222.4363 222.6603 222.6603 225.2272 225.5277 225.6671 226.9311
   227.6481 227.6481 228.7318 228.9998 229.3188 229.3188 231.6009 231.8352
   231.8352 232.9897 233.4218 233.5067 233.5067 234.3378 235.3255 235.5880
   237.2528 237.2528 237.5254 237.5593 237.5593 238.1524 238.4325 240.6643
   240.6643 241.2768 242.9522 243.3641 243.3641 243.7535 244.2566 244.7973
   244.7973 245.2379 245.7700 245.8434 246.2838 246.2838 246.8503 247.2697
   248.0839 248.0839 248.5831 249.9966 250.6119 250.6119 251.7630 252.1384
   252.6994 252.6994 253.5184 255.7286 255.8069 255.8069 255.9836 260.9693
   261.1138 261.1138 262.3888 263.8723 264.3618 265.0995 265.0995 265.8716
   266.3132 266.3132 266.4138 267.4439 269.2465 272.2862 272.2862 273.0651
   273.0651 273.3590 274.6719 274.6719 276.0876 276.2094 277.8100 278.8308
   278.9963 280.4850 280.5805 280.5805 281.7613 281.9559 281.9559 282.7370
   283.6123 284.2982 284.5259 284.5259 285.0899 285.2601 285.2601 285.9596
   287.8564 289.1494 289.1494 292.7557 293.5474 293.5474 294.2652 295.1354
   295.3471 295.3471 295.5369 296.1679 298.4206 298.4206 299.5010 299.8182
   300.6364 300.6364 300.6473 302.2879 304.0213 304.0213 305.8066 307.1285
   307.1285 308.0296 308.6340 308.6914 310.6496 310.6496 311.0167 311.0230
   311.0230 312.8517 314.1619 314.4430 314.4430 314.4801 316.2759 316.5581
   316.5581 316.6609 316.7266 317.4963 317.7701 317.7701 318.2610 321.0342
   321.1634 321.1634 321.6968 321.9777 321.9777 322.1172 322.3795 322.7254
   323.1889 323.1889 324.0593 324.2316 324.3137 324.3137 324.6496 324.7609
   325.6451 325.6451 326.3715 327.6583 327.6583 327.8517 328.4382 328.5289
   329.6721 329.6721 330.4815 331.3889 332.9640 334.8591 335.1222 335.1222
   336.0852 336.0852 336.4134 336.4419 337.1318 337.1318 337.5862 337.8670
   339.1989 340.9184 340.9355 340.9355 341.1543 341.2182 341.2182 342.1095
   342.5034 342.5034 342.9697 342.9697 343.1194 343.1496 343.2277 344.1595
   345.4688 346.7647 346.7647 347.8523 347.8523 348.2013 348.4511 348.7591
   348.9342 348.9342 349.1826 350.4813 350.5990 350.8940 350.8944 350.8944
   351.3021 351.3021 351.5646 354.3315 354.3562 354.3562 355.3005 355.7586
   355.7586 355.7786 356.3997 356.8303 356.8303 357.0695 357.3965 359.6738
   360.7634 360.7634 361.7950 362.1892 362.3984 362.9508 363.0042 363.0042
   363.4302 363.5128 363.6422 363.6422 363.8969 364.0516 364.0516 364.8945
   366.6940 368.0465 368.0465 369.7533 370.6268 370.6268 371.5324 371.6734
   372.0391 372.0391 372.1567 373.0434 374.3837 375.2279 375.2279 375.8460
   376.6582 378.3087 378.6408 378.6408 379.0226 379.3396 379.3396 379.4159
   379.5354 380.7884 380.7884 382.7708 382.8972 382.8972 383.3341 383.5139
   386.8438 387.0923 387.9910 387.9910 388.1218 390.3553 391.2871 391.2913
   391.2913 391.3610 391.3610 391.4992 391.5176 392.5206 392.5206 392.6528
   393.4788 394.0965 394.0965 394.2554 395.4511 395.4511 396.4252 397.3605
   397.9239 399.8627 400.0668 400.0668 400.3812 400.3812 400.9887 401.1352
   401.3171 401.3171 401.3587 401.6087 408.7187 409.0633 409.0633 409.7714
   410.4596 410.6183 410.6183 410.8719 411.6853 412.0180 412.0180 412.6296
   413.1978 413.1978 413.4165 415.2459 416.3054 416.9263 416.9263 417.4506
   418.9773 419.1323 420.1792 420.1792 420.6668 422.2764 422.2764 423.6426
   425.7100 425.7285 425.7285 426.0329 427.5247 427.9317 427.9317 428.3823
   428.8555 432.2854 432.7830 432.7830 433.4022 433.5984 433.5984 433.8555
   434.0033 434.5941 434.8471 434.8471 435.5062 436.3652 437.0660 437.0660
   437.7640 438.3788 438.3788 438.5284 438.6566 439.6056 439.6056 439.8178
   440.1748 441.8183 441.9212 441.9212 442.2369 442.7392 442.7392 442.7525
   442.9889 443.6961 443.7118 443.7118 444.1272 444.3136 444.3656 444.3656
   444.5703 445.1773 446.1278 446.1278 447.2772 447.4443 447.9803 447.9803
   448.2495 450.9877 452.4742 452.7029 452.7029 453.1533 453.2855 453.3205
   453.3205 454.0456 454.0538 454.0538 454.1232 454.1697 455.4447 455.5868
   455.5868 455.9619 457.5218 457.5218 457.7561 458.0972 458.0972 458.4026
   458.6193 458.7767 458.7767 459.6483 460.8727 461.1540 463.3572 463.4269
   463.4269 464.4633 464.6892 464.7574 464.7574 464.7818 465.5600 465.5600
   467.1003 467.9356 468.0923 468.0923 468.2536 470.9300 470.9300 471.4136
   471.8027 472.3792 474.2555 474.3353 474.3353 474.4595 477.6444 477.8879
   477.8879 479.3646 480.6933 480.9949 481.4072 481.4072 482.0944 482.6613
   482.6613 483.0270 483.6355 483.7130 483.7130 484.3922 484.4588 484.4588
   484.4628 485.0045 485.0045 485.0258 485.7571 487.5034 487.9579 488.1120
   488.1120 488.4044 488.4044 488.9629 489.6601 489.7860 489.9297 490.1415
   490.1415 490.4940 491.0041 491.7185 491.7185 492.8541 493.5765 493.5765
   493.6569 494.0213 494.0213 494.0802 494.2681 494.4534 494.9713 495.0749
   495.0749 496.4740 496.9423 496.9423 497.2451 497.9351 498.0417 498.0417
   498.1382 498.4605 498.5143 499.0881 499.0881 499.4481 499.5957 499.5957
   499.8632 503.1595 503.3238 503.3238 503.6508 503.7053 503.7494 503.8062
   503.8062 504.6607 504.7257 504.7257 504.7409 505.9027 505.9804 505.9804
   506.2003 507.1809 507.7777 507.7777 507.9669 510.1866 510.1866 510.4449
   510.5112 510.5936 510.7542 510.7542 510.9039 516.0416 516.0562 516.3292
   516.3292 516.8660 516.8660 516.9363 517.4375 518.4058 518.4058 519.1241
   519.4350 519.4576 519.4576 519.4910 519.6594 520.2123 521.1256 521.1256
   521.5215 522.4019 522.4221 522.7394 522.7394 522.7757 523.2530 523.2530
   523.4563 524.2530 525.6047 525.7923 525.7923 526.2464 527.5853 527.6607
   527.6607 527.8346 527.8868 527.8868 528.2506 528.4002 528.4002 528.4007
   530.2186 531.7059 531.7059 532.6185 532.7450 534.1181 535.2029 535.2029
   535.2337 535.3228 535.3837 535.3837 535.5726 535.8840 536.1033 536.1033
   536.2277 536.6166 536.6652 536.6652 537.0998 537.2459 537.2459 537.4721
   537.5795 538.2542 538.3153 538.3153 538.6206 542.0637 542.0637 542.0807
   542.6630 545.6340 545.8037 545.9063 545.9063 546.5182 546.8216 546.8216
   546.9856 547.7648 550.0502 550.2831 550.2831 550.4694 551.1106 552.0558
   553.2547 553.2547 557.3029 557.3029 558.5584 558.6519 558.6519 559.0216
   559.3704 559.4546 560.7395 560.9980 560.9980 561.5625 561.5625 562.1266
   562.8304 562.8304 563.1437 563.2912 563.6375 564.2945 564.4437 564.5470
   564.9924 564.9924 565.2960 565.6487 565.6487 566.1712 566.4553 566.4553
   566.7760 569.8962 571.9251 571.9251 572.5952 573.0038 573.9261 574.0207
   574.0207 574.5917 574.5917 574.8994 575.2191 575.4971 575.7806 575.7806
   575.9439 577.4288 578.1772 578.7838 578.8453 578.8453 578.9996 579.5494
   579.5494 580.7679 580.9601 581.2516 581.3751 581.3751 581.6954 582.1357
   582.1357 582.7779 583.4522 583.4522 583.7557 584.8868 585.5157 585.5157
   585.6535 585.9615 589.4093 589.7415 589.7415 590.7294 591.6546 591.9316
   592.2293 592.2293 596.1792 596.3939 596.3939 596.4771 597.4273 597.6499
   598.9053 598.9053 599.5060 600.4611 600.9426 601.9657 601.9657 602.2042
   602.3683 602.4757 602.4757 603.0778 603.3081 603.3081 603.5638 604.2516
   604.5623 604.5623 607.0029 607.7958 607.7958 608.0362 608.3774 608.4166
   608.4166 608.4854 608.8625 609.4169 609.7452 609.7452 611.4562 611.4562
   612.2708 612.8988 613.2348 613.3842 613.4237 613.8667 613.8667 614.4045
   614.4045 615.1208 615.2458 615.8307 615.8307 615.8649 616.3038 616.9068
   616.9068 617.2696 621.0342 621.0342 621.6630 622.0099 622.3842 622.5922
   623.7768 623.7768 624.5342 624.5342 624.7006 624.9777 626.4749 626.5649
   626.5649 626.6448 627.3902 627.5472 627.5472 627.7042 628.2535 628.8605
   628.8605 629.3412 629.9533 631.3230 631.3230 631.7311 631.8268 632.1443
   632.1443 632.6538 633.0318 633.0318 633.1916 633.4321 634.0718 634.0718
   634.2470 634.2641 634.4393 635.2329 635.2329 635.6034 635.9046 635.9046
   636.0687 636.6075 636.6101 637.3179 637.3179 637.8202 638.1433 638.4951
   638.4951 638.7726 639.1337 639.6635 639.7513 639.7513 640.4665 641.0306
   641.6685 641.6685 642.5354 643.0471 643.0609 643.2287 643.2287 643.5864
   643.5864 643.5985 644.4754 644.5765 644.5765 644.6540 644.7605 644.9030
   644.9030 645.0337 648.8149 648.8149 649.0075 649.0367 650.1981 650.2960
   650.2960 650.6099 650.6301 651.0508 651.0508 651.1683 651.6460 651.7148
   651.9532 651.9532 652.0726 652.0978 652.2748 652.3409 652.3409 652.3440
   652.8988 652.8988 653.5054 653.5054 653.6011 653.7579 654.7947 655.3805
   655.3805 655.7004 655.7315 655.7348 656.5591 656.5591 657.7471 658.7563
   658.7563 659.6586 660.3221 660.3221 660.5446 660.6204 660.9268 660.9310
   661.0563 661.0563 661.3231 661.3553 661.5534 661.5534 662.9106 663.1828
   663.1828 663.3330 666.6568 666.6766 666.7682 666.7682 666.8417 666.9500
   666.9893 667.2555 667.2555 669.6688 669.6688 669.8397 669.9210 670.7325
   670.7325 670.8052 670.8215 672.1737 672.8216 673.1416 673.1416 675.1360
   675.2351 675.2351 675.6314 675.8250 676.3150 676.3150 677.0100 677.0100
   677.0832 677.1334 677.3690 677.4007 677.4743 677.4743 677.7609 682.9707
   682.9707 683.0088 683.6968 683.7280 683.9528 683.9528 684.6138 684.8796
   684.8796 684.9087 684.9406 684.9875 685.4043 685.4891 685.5062 685.5062
   685.8326 685.8326 685.8367 686.0992 686.8598 686.8598 686.9411 687.0275
   687.0275 687.0992 687.4647 687.6421 690.1706 691.7184 691.7184 691.7378
   691.8363 692.0054 692.2881 692.2881 693.2689 693.4921 693.8634 693.8634
   694.5744 694.5744 695.5236 695.5539 695.8832 695.8832 696.1653 696.1789
   696.2898 696.2898 698.1511 698.2661 698.2661 698.3523 698.4879 699.5667
   700.2978 700.5770 700.5770 702.1507 702.3143 702.3143 702.5089 703.8743
   704.1371 704.2957 704.2957 704.4041 704.5208 704.6999 704.6999 706.2333
   706.4101 706.5861 706.5861 706.6577 706.7034 706.7797 706.7797 707.1067
   707.1131 707.1767 707.1767 707.2352 707.3983 707.3983 708.1056 709.3813
   709.3813 709.7368 710.5890 711.2542 711.4534 711.6499 711.6499 712.5046
   712.6203 712.6203 712.6993 713.5404 714.3134 714.3134 714.3893 714.3893
   714.4890 714.5516 714.9357 716.5415 716.5738 716.5738 716.6171 717.8074
   719.5034 720.3029 720.3029 721.5268 724.3664 724.6269 724.9185 725.6086
   725.6086 726.1657 728.1435 728.1435 728.6449 728.6449 729.5383 729.5786
   729.5786 729.7465 730.0464 730.6201 731.0509 731.0509 731.5074 735.5263
   735.6143 736.2183 736.2183 737.2286 737.2949 737.2949 737.2975 738.7004
   738.7481 738.7481 739.0074 739.4317 740.6209 740.7837 740.8501 740.8501
   741.6048 741.6128 741.6128 744.3149 744.3354 744.3354 745.1947 745.2867
   745.3259 745.5464 745.5464 745.6008 745.7518 746.0583 746.0583 746.1768
   746.2585 746.2585 746.3515 746.3780 746.3780 746.3859 746.7542 748.5907
   748.6306 748.6306 748.6870 748.7794 748.7794 748.8892 749.1536 752.5930
   752.6287 752.6438 752.6438 754.8969 755.0583 755.0583 755.3104 755.6213
   755.9024 756.1306 756.1306 756.3545 756.5944 756.5944 758.1610 758.3378
   759.2440 759.6490 759.6490 760.0168 761.2010 761.3115 761.3115 761.8286
   761.9183 762.8260 762.8260 763.6362 763.6362 763.7663 763.8881 764.2439
   764.8793 764.8793 765.0386 767.2273 767.2537 767.2537 767.3248 767.8168
   770.3334 770.5078 770.5078 770.6023 770.7616 770.7616 771.0993 771.1775
   771.1775 771.4471 771.4690 771.4690 771.6397 771.8918 772.3895 772.4030
   772.4030 772.4146 776.0849 776.7387 776.7586 776.7707 776.7707 777.2818
   778.8314 778.8314 779.5693 779.8211 779.8211 779.8721 780.0483 780.1073

          k =-0.1667 0.5000-0.1667 (  4452 PWs)   bands (ev):

   -93.6687  -7.1062   1.8405   4.0231   4.0518  10.6635  12.9189  13.2770
    13.6260  17.6178  19.4512  21.1972  23.5001  25.2788  27.1955  27.7327
    28.4188  31.1538  34.6431  34.8644  36.5798  40.1191  40.5320  40.8521
    44.7165  45.3405  47.3062  47.6505  49.7889  51.0344  51.2545  53.4909
    53.7649  54.5633  55.2470  56.9445  58.4672  60.2530  60.9788  61.7642
    62.0971  64.2789  64.9842  66.4008  66.6180  67.9842  68.5645  70.9068
    72.5346  73.0653  74.3378  76.0037  76.8678  78.6108  78.7408  80.7950
    81.4791  82.5468  82.7692  85.1028  86.0099  86.9310  88.3777  89.0431
    89.7147  90.0842  92.3404  92.7075  93.9162  95.3928  96.2151  96.3793
    96.8419  98.4770  99.7486 102.4730 103.1846 103.9625 104.1825 105.2617
   105.6849 106.7848 107.7090 108.8108 108.8837 111.4108 112.0057 112.2442
   114.5163 114.9469 116.4407 117.0749 117.1883 119.0963 119.3236 119.8238
   121.1626 121.3249 122.6396 122.6641 124.0120 126.0199 126.2017 127.0335
   127.1993 128.0813 128.4797 129.5158 130.5889 130.8736 131.5587 132.5057
   133.7408 134.4906 134.8694 135.3695 135.7960 136.5208 137.1158 138.4328
   139.2015 140.0283 141.0675 141.0906 143.4459 143.9317 144.5672 144.8685
   145.6956 145.8905 147.1650 147.2418 147.6096 148.3594 148.4592 150.6527
   151.6198 152.2178 152.3460 154.3471 154.6906 156.2669 157.1329 158.4473
   159.4315 160.1014 161.4228 161.6454 162.8831 163.4428 164.2318 165.1379
   165.9804 166.5726 167.9959 169.6244 170.3753 170.9542 171.1696 171.4172
   172.7813 173.8656 174.0235 174.7952 175.0720 177.4391 178.4815 178.9624
   179.7948 180.3421 181.2251 181.5238 182.5870 184.3329 184.6283 185.0336
   185.4558 185.8753 186.7532 187.2924 187.7534 188.1239 188.6390 189.0303
   189.7685 190.2463 190.3367 193.0790 193.2013 193.9986 194.8507 195.1569
   195.5427 196.9512 197.7250 198.2066 198.7036 198.9568 200.0055 200.4509
   201.4681 202.1419 202.8331 202.9846 204.1579 205.3700 205.8358 206.9970
   207.1461 207.4752 208.0771 208.2503 209.1497 210.1548 210.4905 211.4149
   212.8540 213.2739 213.5439 213.8676 215.2733 215.8918 216.0223 217.0718
   217.2309 217.5494 218.1362 219.1152 220.1416 220.4794 221.7584 221.8957
   224.3147 224.6374 225.1746 225.5763 226.1819 226.7791 226.9087 227.1522
   228.2749 229.5219 229.9593 230.0779 230.9551 231.4621 232.0777 232.6152
   233.5251 233.7066 234.4931 235.0086 235.9498 236.5278 237.2886 237.8596
   238.9505 239.0165 239.4315 239.5945 240.0731 241.0177 241.3787 241.8732
   242.2065 243.3422 243.8898 243.9466 244.1975 244.8436 245.2734 246.7044
   247.4475 247.7993 248.2805 248.6589 248.8613 249.0861 250.2816 250.4393
   250.7378 250.9477 251.9277 252.7794 253.2704 253.3699 255.7373 255.8508
   256.3518 256.9905 257.0099 257.6847 258.0828 258.0958 258.2785 259.4216
   261.9702 262.1917 263.2319 263.6873 264.6181 264.8991 265.9999 267.6504
   267.7083 268.5955 269.8131 269.9882 270.8102 271.2904 271.7438 273.5398
   273.5877 274.3830 274.5426 274.7020 275.0979 275.3452 275.7207 276.3146
   277.6352 278.0393 280.2465 280.2900 280.4966 280.7136 281.0930 281.1049
   283.5171 283.7484 285.0459 285.8130 286.2289 286.2472 287.0196 288.7290
   288.8277 289.7852 290.0777 290.6138 292.0502 293.7568 294.1637 294.4424
   295.1840 295.3929 296.2687 296.6770 296.7140 297.4898 298.4863 298.7025
   299.1092 299.6611 299.9792 300.1628 301.1833 301.8957 302.0814 302.6481
   302.9041 304.0597 304.4634 305.4750 306.5602 306.9750 308.0377 308.2178
   308.9672 310.1476 310.2211 311.1172 311.3067 311.3152 311.7620 312.1515
   312.1932 312.5571 312.7665 313.5716 313.8846 314.9330 315.0755 316.3885
   316.9684 317.1808 317.6069 317.8209 317.9367 318.7835 318.9037 319.9640
   320.3591 320.9971 321.3035 322.9498 322.9581 323.2865 324.4199 324.7558
   324.8285 326.0448 326.3642 327.5588 328.2644 328.5464 329.4351 329.6540
   330.1493 330.6487 330.6580 331.1494 331.5281 331.7348 332.0268 332.3538
   332.7450 333.4386 333.7970 334.8424 336.1848 336.3281 336.7737 337.3066
   337.4839 337.7999 338.0059 338.5039 338.9392 339.2862 340.2427 340.3542
   340.7429 341.0044 341.6982 341.8326 342.1173 342.5368 342.7483 342.8699
   343.1694 343.2911 346.1223 346.2863 347.8680 349.1355 349.4160 349.6440
   351.0386 351.0921 351.5911 352.7172 353.6582 353.6808 354.2747 354.6544
   354.7167 354.9806 355.3513 356.4298 356.6203 357.0473 358.3128 358.5199
   359.7188 359.7318 360.0593 361.1182 362.3528 362.4197 363.4652 363.5485
   363.9865 364.1632 365.0002 365.3900 365.6506 365.7826 366.5379 366.7614
   366.8670 367.1557 367.7550 367.8922 369.1768 370.7868 370.9866 371.0132
   371.1719 371.3282 371.9821 372.3863 372.4000 372.6153 373.2839 373.5549
   373.7900 375.4191 375.5251 376.3210 376.5862 377.6633 377.7125 379.1981
   379.3346 379.9120 381.0610 381.3144 381.5499 382.0005 382.1258 382.7364
   382.9661 383.2406 383.5136 384.0330 384.2402 384.4871 384.5936 386.3099
   386.6545 386.9905 387.2222 387.8891 388.2500 388.8908 389.7183 390.0493
   390.6536 390.9435 392.6044 393.8325 394.6084 394.6561 396.2304 396.2927
   396.6708 396.9163 396.9800 397.2029 398.8578 399.5335 399.8592 400.0564
   400.1422 400.3299 400.6272 401.1700 401.5772 401.6515 403.1662 405.2578
   405.2906 405.9285 406.0367 406.5185 407.1293 407.4781 408.2668 408.4377
   408.6616 409.0145 409.3106 409.8276 409.9151 410.5583 410.8598 411.4509
   411.5188 412.6372 413.8450 414.2280 414.2357 414.8501 415.0106 415.1035
   415.3671 415.9573 416.3146 416.9003 417.2538 417.4165 417.6631 418.9500
[...]
   596.1740 596.5877 597.1183 597.3834 597.8348 598.1952 598.2319 598.5455
   599.2553 599.3623 599.9309 600.2406 600.6705 600.8010 600.9069 601.1485
   601.7946 601.9609 602.9024 603.3174 603.4375 603.5250 603.9029 604.2731
   604.4500 604.5748 604.8896 604.9770 606.0491 606.3793 606.4900 606.8125
   607.6904 608.3752 610.6246 610.6704 611.2116 611.4619 611.6429 611.7038
   612.3443 612.4289 612.6903 613.1547 614.0051 614.2057 614.7855 614.9217
   615.2793 615.5179 615.6653 615.9656 616.4525 616.8096 616.8359 617.6386
   618.3695 618.9234 619.5200 619.6773 619.8063 620.0177 620.5660 620.6937
   621.0273 621.0743 621.2128 621.3974 621.7804 622.2304 622.5944 622.8918
   623.2539 623.5354 623.6905 623.8435 624.0805 624.1942 624.3577 624.5767
   624.8422 624.9290 627.8703 628.2054 629.4817 629.5696 629.6064 631.1557
   631.2866 631.5299 632.0537 632.2042 632.3440 632.4479 632.9705 633.0668
   633.5265 633.6883 633.9404 635.2778 635.5193 635.7045 636.1299 636.3784
   636.5281 636.8314 637.0785 637.7578 637.9283 638.0791 638.2794 638.3963
   638.5010 638.9005 643.3034 644.1253 644.2408 644.5030 644.6138 645.1981
   645.6722 645.7308 646.3195 646.4493 647.0791 647.2859 647.4351 647.6342
   647.9529 648.7999 648.8926 649.3257 650.2152 650.2784 650.4224 650.5964
   650.7300 650.8950 652.1315 652.1985 652.6063 653.1893 654.3758 654.4491
   654.9900 655.4499 656.3088 656.4872 656.9318 657.3157 657.3585 657.5463
   657.5719 657.8215 658.0795 658.1251 658.3684 658.5833 658.6946 658.9067
   659.1311 659.2010 660.1498 660.3120 661.0501 662.0756 662.3694 662.5415
   662.6429 663.1139 663.3434 664.3338 664.4996 666.1761 666.3053 667.1245
   667.2112 667.6047 667.7786 668.0092 668.6865 669.0802 669.1923 669.4909
   669.9114 670.1507 670.3726 670.4830 670.8437 671.4872 671.5555 671.6062
   671.7727 674.0688 674.1831 675.7793 675.9928 676.1534 676.1766 676.6105
   677.6602 679.0525 679.1982 679.7200 679.9056 680.0217 680.0963 680.9194
   681.4715 681.6465 681.8560 682.1136 682.4113 683.9622 684.4696 684.6438
   684.9075 684.9382 685.3927 685.7312 686.3045 686.4290 686.8918 687.0454
   687.4093 687.8084 688.3026 688.5652 689.3208 690.3272 690.4527 690.6342
   690.8723 691.8785 692.2096 692.3431 692.3932 692.9776 693.3161 693.4850
   693.5573 695.1124 695.4544 695.9428 696.3552 696.7203 696.8877 697.0269
   697.2957 697.3333 698.2257 698.3025 698.5426 698.7370 700.4346 700.5477
   700.8164 701.0132 701.2486 701.5208 702.7481 703.2679 703.4602 703.7837
   704.0018 704.4741 704.5737 704.8788 705.2769 705.8778 706.1443 706.3816
   706.5491 707.6931 707.7589 707.8572 708.3625 708.7372 709.0528 709.4781
   711.6094 711.7493 711.8185 712.0866 712.2681 712.3668 712.8756 712.9647
   712.9737 713.0686 713.4131 713.5664 715.2304 715.4500 716.2483 716.3906
   716.7591 716.8808 716.9811 717.0575 717.4023 717.6611 717.8997 718.8460
   719.7081 719.7894 720.6089 720.9083 721.4058 721.5209 721.6587 721.7531
   721.9271 722.4705 722.6141 722.7937 723.0462 723.6015 723.9118 723.9652
   724.3403 724.4478 724.9199 725.0085 725.3465 725.5250 725.7523 726.2666
   726.3698 726.8200 728.1417 728.5020 728.6536 728.8413 728.9950 729.8138
   730.5834 730.7647 730.9784 731.0648 731.4355 732.4871 733.0720 733.8377
   734.0788 734.4749 734.5144 734.5778 734.7231 734.8767 735.2051 735.6416
   735.6753 737.1025 737.1993 737.2587 737.3942 737.7129 738.6575 738.8395
   738.8863 739.3822 739.4649 739.6793 739.8305 739.8969 740.1350 740.3246
   740.4492 740.7451 741.1699 741.8374 741.8835 742.1978 742.2421 742.4026
   742.5444 742.9486 743.4802 743.6074 743.7825 743.8115 744.0145 744.1113
   744.3203 744.8898 745.2198 745.5588 746.6356 746.9939 747.9607 748.1380
   748.3871 748.5015 749.6101 749.6774 749.7942 749.9753 750.1142 750.1470
   750.2008 750.8377 751.2079 751.5361 753.0677 753.4412 753.5153 753.5794
   753.7495 754.3492 754.5811 755.0611 755.4574 755.6506 755.7915 756.0523
   756.3911 756.4465 756.7409 757.0751 757.0894 757.2472 757.7227 757.8872
   757.9979 758.2931 759.6366 759.7176 760.4282 760.5993 761.2711 761.3669
   762.2009 763.3345 764.2722 764.9268 765.1122 765.2371 765.5198 765.9068
   766.4738 766.5920 766.9074 766.9669 767.9080 768.0438 768.5257 768.7606
   768.9321 769.2877 770.6764 771.1136 771.6693 772.0055 772.5198 772.5920
   773.3807 773.5409 773.7442 774.2931 774.4677 774.9228 775.1347 775.2638
   775.5038 775.8103 776.2537 776.4851 776.6382 776.6569 777.2469 777.3754

          k =-0.3333-1.0000 0.0000 (  4428 PWs)   bands (ev):

   -93.6686  -5.9872   0.9424   2.1154   2.3433  10.6542  12.1844  15.4602
    15.9306  19.8484  19.8595  22.3214  23.7426  26.9788  27.4098  29.3129
    30.1152  31.4071  32.1482  34.5969  36.0022  36.5570  36.7568  40.3003
    41.1675  43.5316  45.1732  46.5590  48.5957  48.7516  50.4821  52.6032
    53.6449  55.4608  55.8109  56.9089  58.2935  60.4211  61.5955  62.6869
    64.2574  64.9304  66.8088  69.7373  71.0720  71.9837  72.0473  72.5679
    73.0231  73.8993  75.5458  75.9113  77.7377  80.0289  80.7219  81.0471
    82.8016  83.2634  83.7490  84.4254  85.7360  88.1238  88.5118  89.4152
    89.9450  91.2929  91.4708  93.2922  93.5308  95.2258  95.2507  95.8057
    97.8741  98.3578  98.7214 101.4711 102.1605 102.4615 103.8216 104.1176
   104.8492 105.4269 106.3189 106.7373 107.2622 108.2578 109.3494 109.3496
   112.2983 112.4777 112.9116 113.2778 113.5014 115.5491 115.7439 116.3667
   116.6969 117.5179 117.6994 119.6700 120.8805 120.9655 122.5605 123.8953
   125.3253 126.4615 127.2646 129.4162 130.3250 132.3218 133.1821 134.9184
   136.3577 136.5011 138.7628 139.8657 139.9700 141.0028 141.3220 143.1082
   143.2445 145.2239 145.5120 146.1020 146.4988 146.7145 148.7356 149.2538
   149.2831 150.8485 150.8937 151.6727 152.1060 152.9026 153.6108 155.1290
   155.3647 156.0964 156.1885 156.9006 157.4781 158.5983 158.9451 160.3090
   161.2891 162.0712 162.2733 163.0336 163.1409 163.9899 165.4490 165.7993
   166.3558 167.1157 167.3677 167.6235 168.1006 168.3166 170.3068 170.4761
   171.5013 172.5660 173.5193 174.2328 175.4981 176.0036 176.3490 177.6400
   177.8552 178.6005 179.2482 179.3092 179.7389 179.7644 180.2456 181.6915
   181.9047 182.3546 183.3367 184.6326 186.1708 186.6695 186.9818 187.8412
   188.1297 188.8074 189.3381 189.7270 189.9427 189.9684 190.5792 191.2094
   191.6471 191.7973 192.8825 193.7088 195.9499 195.9841 197.2375 198.1514
   198.3503 199.0010 199.0787 201.8354 202.1979 203.4625 203.6554 204.6276
   205.4666 206.4504 206.5809 207.6452 207.7174 208.3369 208.6491 209.3343
   209.7648 210.8241 213.5594 215.8081 216.6417 216.8868 218.1782 218.3755
   218.5333 219.1295 220.3931 220.9433 221.5816 222.1916 222.2697 222.8803
   223.5636 224.2692 225.6746 225.6819 226.4637 227.0785 228.4848 228.5141
   229.5854 229.6401 230.8129 231.0519 231.1974 231.7390 232.9430 233.8208
   234.6391 234.7832 235.8020 236.1433 236.3411 237.3511 237.8116 238.0404
   239.0384 239.1219 239.6482 239.7900 240.7285 241.8006 241.8795 242.0924
   243.3547 243.6607 243.7915 244.5068 245.0813 246.8722 247.1602 249.3005
   251.0474 252.4193 252.7388 252.9363 253.4391 253.8011 254.1564 254.7982
   255.7463 256.1816 256.4533 256.8344 258.1387 258.1558 258.5558 259.1593
   259.5263 259.6453 262.0666 262.3303 262.4842 262.7344 263.6333 263.7920
   264.7382 266.9553 267.6544 268.1008 268.5069 268.8122 269.0333 269.2188
   269.7945 270.0851 270.8504 270.9841 273.1330 273.5776 273.9451 274.3722
   275.7678 275.9592 276.2984 276.9175 277.2478 277.6310 278.0689 278.2008
   278.4565 278.7587 279.2785 279.6564 279.7489 280.0475 280.3200 280.5825
   281.4108 281.8024 282.1898 282.6451 282.9960 283.4083 283.4433 283.9863
   286.3975 286.9351 287.4137 287.4864 289.7076 290.1311 290.7228 291.0196
   291.1536 291.7007 292.0168 292.0868 292.2164 292.3388 294.4054 294.4109
   297.6735 298.2576 298.5795 298.6380 299.2391 299.4460 300.3563 300.6864
   300.8707 301.0988 301.2474 301.6305 302.0598 302.3373 302.5087 302.7402
   303.2244 304.0542 304.3435 304.6681 305.5341 305.8203 307.3599 307.4871
   308.0835 308.8396 309.1166 309.1954 312.1219 312.1802 312.9739 313.2433
   314.0094 314.8574 314.9205 315.7717 316.3193 316.9613 318.2701 318.5212
   318.6496 319.2791 319.5148 319.7557 321.2031 321.7098 322.2082 322.9077
   324.1964 324.7962 326.2043 326.5393 327.1551 327.3443 328.5872 328.6832
   329.3006 329.5478 329.6498 330.6935 330.9389 331.1022 332.5622 333.4058
   334.0988 334.3393 334.4725 334.8439 335.5739 336.0227 336.3241 337.6388
   337.6738 337.8617 338.3672 339.8163 339.9857 340.3780 340.4453 340.9168
   341.4781 342.5689 343.0017 344.4452 344.7418 344.9200 345.5693 345.6539
   346.1724 346.2045 346.3773 347.0376 347.1775 347.3676 348.0191 348.8979
   349.4660 349.8746 350.0263 350.0519 354.1748 354.2140 355.9736 356.8650
   357.1526 357.6421 358.3464 358.6708 359.3142 359.8705 360.0492 360.4214
   360.6757 360.7477 360.8363 361.4221 361.5916 361.7825 361.8249 362.7996
   362.8145 363.2109 365.1755 365.1848 365.5865 365.6520 365.7354 365.9930
   366.3063 366.4850 367.9595 370.1704 370.2673 370.3559 371.1838 372.1945
   372.2659 372.7388 373.7326 373.7405 375.1239 375.3518 375.3961 375.4150
   377.7749 377.8278 381.1033 381.4092 382.5759 382.8387 383.5831 384.0443
   385.1731 385.4147 385.9259 385.9315 386.7826 387.2991 387.4301 387.7971
   388.2470 388.4969 388.8881 388.9271 389.0002 389.2630 389.2938 389.9010
   390.3517 390.5099 391.2361 391.2571 392.3799 394.3916 394.8766 395.0332
   395.2674 395.4135 396.5193 397.1613 397.5956 397.9029 397.9608 399.5844
   400.7368 400.8566 401.0647 401.2465 402.5396 402.7745 403.3417 403.6869
   403.8330 403.9950 404.8878 405.9816 406.1392 406.4914 406.6431 406.6460
   407.0200 407.3962 407.6672 407.7489 408.1969 408.4674 408.5511 409.0389
   409.8182 409.9797 410.0597 410.2623 410.5629 410.5889 410.9307 411.3504
   411.3872 411.6832 414.4327 414.6419 414.7369 415.6311 416.3559 417.1141
   417.4948 417.8705 417.9946 418.1385 418.4975 418.5982 418.7105 418.9337
   419.1590 419.1804 419.2524 419.4551 419.4660 419.8869 420.1335 420.2641
   421.1669 421.2211 423.2017 423.2025 423.7211 424.6009 425.0874 425.5025
   427.1650 427.3890 427.5445 427.6098 427.7980 427.8236 428.3127 428.5811
   429.7174 429.7420 430.6346 431.1754 431.4305 432.0540 432.1414 432.3710
   432.9880 434.4567 435.0626 435.2893 435.3963 435.3990 435.7669 435.7839
   435.8640 439.6390 440.3906 441.2127 441.5668 441.9844 442.3676 442.6758
   443.9291 444.0886 444.1234 444.6434 444.6831 445.0542 445.3107 445.3571
   445.6824 445.8795 445.8887 446.8708 446.9202 447.0487 447.9847 448.7378
   449.7751 450.1695 450.3284 450.7790 451.1127 451.7573 452.7756 453.2422
   453.5859 453.7840 455.2579 455.7132 455.7915 456.0273 456.1427 456.5255
   457.2250 457.6488 457.6800 457.7204 457.8905 458.0851 458.3123 458.3667
   459.5949 459.6687 459.7555 460.0183 462.6288 462.9956 463.4844 464.5010
   464.6091 464.7537 465.2410 465.5814 465.6165 465.9341 466.2130 466.3416
   466.6889 466.8725 467.1143 467.2136 467.5544 470.3672 471.0121 471.1325
   471.2375 472.4239 472.9042 473.1522 473.3024 473.4086 473.4439 473.7038
   473.8630 475.5604 475.9732 477.6264 477.7417 478.0731 480.6713 480.8780
   481.8140 481.8257 482.3736 482.4753 482.5728 483.2597 484.8257 485.0314
   485.2315 485.5643 486.0460 486.5964 487.3399 487.6740 487.9750 488.5072
   489.3727 489.4915 489.7293 489.9460 490.5092 490.5484 491.1707 491.4404
   492.4881 492.7998 493.8172 494.0438 495.6589 496.4194 496.6947 496.7760
   497.2727 498.3225 498.9368 500.2784 500.9257 501.3319 501.7429 503.0342
   503.4905 504.1109 504.3846 504.6624 505.4190 505.5786 506.4638 506.5231
   507.1315 507.1769 507.8984 507.9349 508.2036 508.2995 510.2443 511.4843
   511.5303 511.7566 512.0621 512.9917 513.3950 514.5115 514.8858 515.0064
   515.3238 515.3801 515.8720 516.0896 516.2741 516.6550 516.7806 517.2664
   517.5651 517.5854 517.8633 518.6086 518.6124 518.9574 519.4860 520.2654
   520.5566 520.6903 520.8596 521.8265 522.7509 523.1125 524.7598 524.7641
   525.9719 526.3598 526.4536 526.7148 527.7194 527.8197 528.3934 528.4727
   528.6541 528.9371 529.2013 530.4464 530.6722 530.9984 531.0033 531.4084
   531.4663 532.3464 532.4122 532.5755 532.8006 532.9825 533.1433 533.2071
   533.5450 533.7576 534.3086 534.4172 534.9936 535.3354 536.0350 536.3871
   536.9101 536.9860 537.1313 537.3767 537.4559 538.2439 540.3122 540.3212
   540.8272 541.1629 541.2984 541.3196 541.5037 541.8873 542.0182 543.1290
   543.4089 543.4622 543.5161 543.7911 543.8055 544.0403 545.0324 545.2931
   545.6846 545.7786 545.8157 546.0034 546.0815 546.4056 546.6166 546.8245
   546.8856 547.2221 547.2962 547.5545 547.7992 548.5077 549.6685 549.9814
   550.1461 550.2647 550.7415 551.0239 551.2975 552.1302 552.4582 553.6741
   555.4880 556.3600 556.6375 557.7803 557.8854 558.0334 558.2504 558.3273
   559.6508 559.7479 559.7711 559.9408 560.5968 560.8020 560.9286 560.9429
   563.0107 563.1348 563.3508 563.8639 564.4530 564.5590 564.9143 565.4129
   566.5610 566.7453 567.4135 567.5347 568.4939 568.5459 569.0344 569.2092
   569.6941 569.9349 570.2408 570.5650 570.7077 571.7379 571.8149 571.8765
   572.0725 572.0846 573.0805 573.7032 573.8717 574.0756 575.6060 576.0434
   576.7959 576.8356 577.0458 577.2413 577.3416 577.6024 577.6399 578.5705
   578.8659 579.2068 579.3788 579.3919 579.5079 579.6612 580.5683 580.7361
   581.8652 582.1450 582.1487 582.4744 583.3370 583.4753 583.5394 583.8420
   584.9412 586.1661 586.6114 586.7118 587.0290 587.1353 587.3800 587.8160
   587.9721 588.5876 588.9169 589.0192 589.1892 589.6054 589.6689 589.7615
   589.9769 591.9880 592.1115 592.6057 592.6485 593.7583 594.3136 594.8270
   596.6792 596.7042 596.9306 597.0835 598.9413 599.0334 599.4057 599.4452
   599.5932 599.9180 600.3734 601.4375 601.5366 601.7874 602.1035 602.3890
   602.7031 602.8216 602.9446 603.1649 603.2302 603.7549 606.2970 606.5733
   607.1820 607.2878 607.3569 607.8649 608.0652 608.2151 608.3195 608.5090
   608.7206 609.2737 609.5462 609.9714 610.2158 611.1078 612.1736 612.4104
   612.7355 612.9430 613.4799 613.5563 614.4625 614.7328 614.8630 615.9532
   616.4600 616.9361 617.1612 617.5005 617.6935 617.7637 617.9132 618.1719
   618.4979 618.9454 619.5508 619.5766 619.6404 619.6886 619.7543 619.9823
   620.1907 620.6293 620.8646 621.6348 622.2315 623.1062 623.1356 623.1837
   624.9083 624.9166 625.3486 625.3605 625.8225 626.0460 626.1227 626.1952
   626.2498 627.3794 627.6367 627.7062 628.1179 628.2995 629.2924 629.6236
   630.1954 630.2545 630.5960 630.8072 630.9415 630.9668 632.1675 632.6173
   633.4997 633.6672 634.5537 634.7077 634.8366 635.0296 635.5198 635.9273
   636.1516 636.5039 637.8530 637.9250 638.3540 638.8999 641.0460 641.4593
   641.5939 641.8108 642.0166 642.2643 642.6482 642.9660 644.2765 644.4514
   644.5626 645.0877 645.7611 645.8438 646.6488 647.1643 648.4247 648.8373
   649.1462 649.3018 649.8335 650.4125 650.4689 650.8875 651.2215 651.3721
   651.5869 651.8071 652.4393 652.4721 652.9131 653.2817 653.6442 653.9723
   654.3470 654.5267 654.7322 654.7841 655.2540 655.2667 655.7247 655.9862
   657.5722 657.7106 657.8623 657.8807 657.9758 658.2563 658.6774 659.2489
   659.5114 659.6210 659.8215 659.8554 660.0855 660.0937 661.3492 661.5569
   662.2663 662.5007 663.9427 664.4407 665.8018 666.5755 666.8386 667.0685
   667.5223 667.6185 668.2085 668.5205 668.9964 669.2218 669.4310 669.7498
   669.9353 670.3044 670.4907 670.5384 670.6676 671.0727 671.6350 671.6879
   671.7110 671.9986 672.9701 673.1778 673.8765 673.9263 674.0919 678.2247
   678.2342 679.0966 680.6026 680.8211 680.9731 681.1930 682.4944 682.9023
   683.1875 683.4843 683.7722 683.8825 684.1264 684.1577 684.3985 685.2358
   686.0769 686.0917 686.3606 686.4519 686.5774 686.7654 686.8237 686.9259
   687.5424 687.6018 687.7193 687.7779 687.9047 688.3185 688.4972 688.9816
   689.5279 690.9644 692.0584 692.0943 693.6492 693.6814 694.2312 695.0530
   695.0806 695.3891 695.4515 695.6765 696.3612 696.6767 697.0312 697.4034
   698.0213 698.2238 698.3485 698.5637 699.3537 699.3910 699.7995 700.4093
   700.8478 701.1955 701.4437 701.6081 702.1462 702.7939 703.0037 703.5575
   703.7228 704.0737 704.1302 704.8043 705.0271 705.0537 705.3341 705.3908
   705.8928 706.1809 706.2017 706.2303 707.8639 707.9117 709.7243 709.7448
   709.8916 709.9132 710.0974 710.9745 712.8146 713.0252 713.2866 713.3891
   713.6870 713.7109 713.8076 714.5254 714.7542 714.8179 715.4519 716.4983
   716.6552 716.8354 716.8792 717.5407 717.8119 718.0516 718.2713 718.5086
   718.5623 718.9681 719.0993 719.7013 719.8405 720.4795 720.4804 720.6580
   720.9772 722.2145 722.4647 722.4955 722.7443 723.3819 723.4047 723.8213
   723.8859 724.3663 724.3738 724.4855 724.8981 724.9129 725.6668 725.6716
   727.0752 727.3548 727.5017 727.8447 728.0341 729.4087 729.4962 729.8034
   730.5088 730.6676 730.7499 730.8108 731.0285 731.2503 733.7608 734.1136
   734.1665 734.6583 735.0029 735.0357 735.2023 735.9072 736.6639 736.6840
   737.1420 737.6786 737.9259 738.1697 738.1894 738.3771 738.7570 738.7696
   740.1661 740.2748 740.5794 740.6352 740.7010 740.7787 740.9507 741.0073
   741.6863 741.8047 741.9981 742.4733 742.8852 743.8188 744.2758 744.9672
   745.0298 745.4150 745.6494 745.8334 745.8696 745.9390 746.1463 746.1733
   747.4339 747.4480 747.5452 747.6697 748.0395 748.1410 748.3383 748.5714
   748.6280 749.1166 749.1573 749.2197 749.2876 749.3616 749.9765 750.6746
   750.7279 750.9613 751.2680 751.3005 751.9304 752.0270 752.5649 753.1482
   753.4327 753.4965 753.6074 753.9840 753.9853 754.0861 754.6021 754.7868
   756.8751 757.1189 757.2554 757.3679 757.5026 757.5902 757.8140 758.2971
   758.8923 760.1184 761.3174 761.3561 761.4187 761.5558 761.7365 761.8284
   764.4739 765.1921 765.5850 765.7783 766.1310 766.3181 766.8309 767.0984
   767.1307 767.9917 767.9963 768.4785 768.5970 768.8922 769.2875 769.4153
   770.0246 770.2703 770.4450 770.5921 771.0475 771.1057 773.5478 773.6111
   773.7604 774.0471 775.2322 775.8454 776.2006 776.3472 777.0692 777.1090
   777.1802 777.4235 777.5533 777.7003 777.9852 777.9902 778.3698 778.6379

     the Fermi energy is     5.8672 ev
     (compare with:     5.8672 eV, computed in scf)

     Writing all to output data dir out/mp-422.save/
 
     init_run     :      0.02s CPU      0.03s WALL (       1 calls)
     electrons    :   1217.81s CPU   1311.18s WALL (       1 calls)

     Called by init_run:
     wfcinit      :      0.00s CPU      0.00s WALL (       1 calls)
     potinit      :      0.01s CPU      0.01s WALL (       1 calls)
     hinit0       :      0.01s CPU      0.01s WALL (       1 calls)

     Called by electrons:
     c_bands      :   1217.80s CPU   1311.15s WALL (       1 calls)
     v_of_rho     :      0.00s CPU      0.00s WALL (       1 calls)

     Called by c_bands:
     init_us_2    :      0.00s CPU      0.00s WALL (      16 calls)
     init_us_2:cp :      0.00s CPU      0.00s WALL (      16 calls)
     cegterg      :   1191.06s CPU   1282.41s WALL (      16 calls)

     Called by *egterg:
     cdiaghg      :   1114.40s CPU   1202.05s WALL (     182 calls)
     h_psi        :     21.02s CPU     22.00s WALL (     198 calls)
     g_psi        :      0.13s CPU      0.13s WALL (     166 calls)

     Called by h_psi:
     h_psi:calbec :      0.25s CPU      0.26s WALL (     198 calls)
     vloc_psi     :     20.31s CPU     21.27s WALL (     198 calls)
     add_vuspsi   :      0.20s CPU      0.20s WALL (     198 calls)

     General routines
     calbec       :      0.25s CPU      0.26s WALL (     198 calls)
     fft          :      0.00s CPU      0.00s WALL (      10 calls)
     fftw         :     18.97s CPU     19.87s WALL (  283866 calls)
 
     Parallel routines
 
     PWSCF        :  20m20.89s CPU  21m55.40s WALL

 
   This run was terminated on:   0:45:50   8Dec2023            

=------------------------------------------------------------------------------=
   JOB DONE.
=------------------------------------------------------------------------------=
