
     Program PWSCF v.7.1 starts on  7Dec2023 at 21:27:29 

     This program is part of the open-source Quantum ESPRESSO suite
     for quantum simulation of materials; please cite
         "P. Giannozzi et al., J. Phys.:Condens. Matter 21 395502 (2009);
         "P. Giannozzi et al., J. Phys.:Condens. Matter 29 465901 (2017);
         "P. Giannozzi et al., J. Chem. Phys. 152 154105 (2020);
          URL http://www.quantum-espresso.org", 
     in publications or presentations arising from this work. More details at
     http://www.quantum-espresso.org/quote

     Parallel version (MPI), running on     8 processors

     MPI processes distributed on     1 nodes
     121844 MiB available memory on the printing compute node when the environment starts
 
     Reading input from pw_mp-422_nscf_k10_E122.in
Warning: card &IONS ignored
Warning: card / ignored
Warning: card &CELL ignored
Warning: card / ignored

     Current dimensions of program PWSCF are:
     Max number of different atomic species (ntypx) = 10
     Max number of k-points (npk) =  40000
     Max angular momentum in pseudopotentials (lmaxx) =  4

     Atomic positions and unit cell read from directory:
     out/mp-422.save/
     Atomic positions from file used, from input discarded
 
 
     R & G space division:  proc/nbgrp/npool/nimage =       8
     Subspace diagonalization in iterative solution of the eigenvalue problem:
     one sub-group per band group will be used
     scalapack distributed-memory algorithm (size of sub-group:  2*  2 procs)

 
     Parallelization info
     --------------------
     sticks:   dense  smooth     PW     G-vecs:    dense   smooth      PW
     Min         177     177     49                 4444     4444     650
     Max         178     178     50                 4448     4448     652
     Sum        1417    1417    397                35557    35557    5209
 
     Using Slab Decomposition
 


     bravais-lattice index     =            2
     lattice parameter (alat)  =       9.2035  a.u.
     unit-cell volume          =     194.8967 (a.u.)^3
     number of atoms/cell      =            2
     number of atomic types    =            2
     number of electrons       =        10.00
     number of Kohn-Sham states=         2200
     kinetic-energy cutoff     =     122.0000  Ry
     charge density cutoff     =     488.0000  Ry
     Exchange-correlation= PBE
                           (   1   4   3   4   0   0   0)

     celldm(1)=   9.203539  celldm(2)=   0.000000  celldm(3)=   0.000000
     celldm(4)=   0.000000  celldm(5)=   0.000000  celldm(6)=   0.000000

     crystal axes: (cart. coord. in units of alat)
               a(1) = (  -0.500000   0.000000   0.500000 )  
               a(2) = (   0.000000   0.500000   0.500000 )  
               a(3) = (  -0.500000   0.500000   0.000000 )  

     reciprocal axes: (cart. coord. in units 2 pi/alat)
               b(1) = ( -1.000000 -1.000000  1.000000 )  
               b(2) = (  1.000000  1.000000  1.000000 )  
               b(3) = ( -1.000000  1.000000 -1.000000 )  


     PseudoPot. # 1 for Be read from file:
     /usr/scratch4/magr4985/MG/HTDF/pseudo/SG15/Be.upf
     MD5 check sum: dc1f98d164da9dc61a6fd2fad64b4ce2
     Pseudo is Norm-conserving, Zval =  4.0
     Generated using ONCVPSP code by D. R. Hamann
     Using radial grid of  602 points,  4 beta functions with: 
                l(1) =   0
                l(2) =   0
                l(3) =   1
                l(4) =   1

     PseudoPot. # 2 for S  read from file:
     /usr/scratch4/magr4985/MG/HTDF/pseudo/SG15/S.upf
     MD5 check sum: f9d020296ee6110346977bfd66d424f6
     Pseudo is Norm-conserving, Zval =  6.0
     Generated using ONCVPSP code by D. R. Hamann
     Using radial grid of  602 points,  4 beta functions with: 
                l(1) =   0
                l(2) =   0
                l(3) =   1
                l(4) =   1

     atomic species   valence    mass     pseudopotential
        Be             4.00     9.01220     Be( 1.00)
        S              6.00    32.06500     S ( 1.00)

     24 Sym. Ops. (no inversion) found



   Cartesian axes

     site n.     atom                  positions (alat units)
         1           Be  tau(   1) = (   0.0000000   0.0000000   0.0000000  )
         2           S   tau(   2) = (  -0.7500000   0.7500000   0.7500000  )

     number of k points=     3  Gaussian smearing, width (Ry)=  0.0005
                       cart. coord. in units 2pi/alat
        k(    1) = (   0.0000000   0.0000000   0.0000000), wk =   0.2500000
        k(    2) = (   0.5000000  -0.5000000   0.5000000), wk =   1.0000000
        k(    3) = (   0.0000000  -1.0000000   0.0000000), wk =   0.7500000

     Dense  grid:    35557 G-vectors     FFT dimensions: (  45,  45,  45)

     Estimated max dynamical RAM per process >     225.10 MB

     Estimated total dynamical RAM >       1.76 GB

     The potential is recalculated from file :
     out/mp-422.save/charge-density

     Starting wfcs are random

     Band Structure Calculation
     ParO style diagonalization

     ethr =  5.00E-06,  avg # of iterations =  5.7

     total cpu time spent up to now is     1670.7 secs

     End of band structure calculation

          k = 0.0000 0.0000 0.0000 (  4477 PWs)   bands (ev):

   -93.6687  -8.1265   5.4807   5.4807   5.4807  11.1832  11.1832  11.1832
    11.2609  18.2746  18.2746  20.3276  22.0093  22.0093  22.0093  27.1144
    34.1439  34.1439  34.1439  38.6664  38.6664  38.6664  40.1657  40.1657
    45.4231  45.4231  45.4231  54.6643  54.6643  54.6643  54.9853  55.4263
    55.4263  56.9995  56.9995  56.9995  61.6198  61.6198  61.6198  65.1236
    65.2558  65.2558  65.2558  65.3773  65.3773  65.3773  65.5729  65.5729
    66.2760  66.2760  66.2760  70.9142  71.1359  71.1359  71.1359  73.3079
    73.3079  73.3079  76.2782  83.5156  89.1350  89.1350  91.6832  91.6832
    91.6832  94.9596  94.9596  94.9596  96.6335  99.7497 102.6687 102.6687
   105.2166 105.2166 105.2166 105.4358 105.4358 105.4358 109.2667 109.2667
   109.2667 114.0595 114.0595 114.0595 115.4387 115.4387 115.4387 115.6578
   115.6578 116.9838 117.0346 117.0346 118.6238 118.6238 118.6238 121.2460
   121.2460 121.2460 122.0763 122.0763 122.0763 122.5002 122.5002 122.5002
   123.9028 123.9028 123.9028 124.1297 125.0804 125.1554 125.1554 125.1554
   125.2311 125.2311 134.4444 134.4444 134.4444 137.9499 139.3628 139.3628
   140.6392 140.6392 140.6392 144.0182 144.0182 144.0182 145.2657 145.2657
   145.2657 145.9451 145.9451 145.9451 146.4746 146.4746 146.4746 147.1712
   147.1712 148.8626 155.9433 155.9433 159.1538 159.8696 159.8696 159.8696
   161.8759 161.8759 161.8759 162.5693 162.5693 162.5693 163.9094 165.9069
   165.9069 165.9069 165.9287 166.1037 166.1037 166.1037 166.4488 166.4488
   166.4488 166.6379 166.6379 166.7487 166.7487 166.7487 167.1356 167.1356
   167.1356 178.3808 181.4532 181.4532 181.4532 185.0995 185.0995 187.2137
   187.2137 187.2137 188.6075 189.0304 189.0304 189.0304 196.9059 196.9059
   196.9059 201.9117 201.9117 202.2056 202.2056 202.2056 204.7907 206.6822
   206.6822 206.6822 207.4058 207.4058 207.4058 210.6429 210.6429 210.6429
   211.1663 211.1663 211.1663 211.8995 211.8995 213.3871 214.4572 214.4572
   214.7931 214.7931 214.7931 214.8175 214.8175 214.8175 216.0049 216.0049
   216.0049 216.4002 216.9320 216.9320 216.9320 217.6167 217.6167 217.6167
   217.6558 217.6558 218.4197 218.4197 218.4197 218.9490 218.9490 218.9490
   219.3417 219.6171 220.3801 220.3801 220.3801 220.7877 220.7877 221.6437
   221.6437 221.6437 221.9140 224.9274 224.9274 224.9274 225.0280 225.0280
   225.1964 225.1964 225.1964 225.3016 225.3016 225.3016 225.6211 225.6211
   225.6298 225.6298 225.6298 236.5539 236.9910 236.9910 236.9910 238.4380
   238.4380 244.5087 244.5087 244.5087 245.7006 245.7006 245.7006 246.3638
   246.3638 246.3638 246.7640 246.7640 246.7640 250.0305 250.0305 250.0800
   250.0800 250.0800 250.1684 251.1587 251.6563 251.6563 251.6563 253.5913
   253.5913 253.5913 254.3112 261.3956 261.3956 261.4917 261.4917 261.4917
   263.1722 263.1722 263.1722 263.9020 263.9020 263.9020 263.9978 263.9978
   263.9978 264.8082 264.8082 268.3251 269.5702 269.5702 269.5702 272.3501
   272.3501 272.7232 272.7232 272.7232 273.4842 273.4842 273.4842 273.7019
   273.8513 273.8513 273.8513 273.9998 273.9998 273.9998 274.5719 274.5719
   274.5719 274.8758 274.8758 288.1313 288.1313 288.1313 289.8515 291.2715
   291.2715 291.2715 294.9004 294.9004 295.4510 297.9778 297.9778 297.9778
   298.5943 298.5943 298.5943 299.0304 299.8883 299.8883 299.8883 305.7531
   305.7531 305.7531 305.9602 305.9602 308.5848 310.6112 310.6112 310.6112
   312.3530 315.8750 315.8750 315.8750 316.0056 316.0056 316.0056 316.2246
   316.2246 316.8552 316.9963 316.9963 316.9963 317.0642 317.0642 317.0642
   317.5630 317.5630 317.5630 317.7153 317.7153 317.7153 318.0211 318.0211
   318.0211 319.0646 319.0646 323.0502 323.0502 323.0991 323.0991 323.0991
   323.3390 323.3390 323.3390 323.3908 323.3908 323.3908 323.4625 325.5253
   325.5253 325.5253 325.6056 326.3869 326.3869 326.3869 326.4859 326.4859
   326.4859 326.5091 326.5091 331.6655 331.6655 331.6655 332.6680 334.9832
   334.9832 334.9832 336.1866 339.9437 339.9437 341.1050 341.1050 341.1050
   341.2777 341.2777 341.2777 342.9389 342.9389 342.9389 343.0466 343.0466
   343.0466 344.2901 344.2901 347.6225 347.6225 348.1971 348.1971 348.1971
   348.5647 348.5648 348.5648 348.7230 348.7230 348.7230 349.3183 349.3183
   349.3183 349.6226 349.6226 350.1282 350.7326 350.7326 350.7326 351.0978
   351.0978 351.0978 351.3800 356.5819 356.5819 356.5819 358.2125 359.5504
   359.5504 360.5441 360.5441 360.5441 361.4470 362.3924 362.3924 362.3924
   363.6302 363.7183 363.7183 363.7183 364.2625 364.2625 364.2625 364.6593
   364.6593 364.6593 365.0245 365.0245 365.0245 366.7816 366.7816 366.7816
   367.5179 367.5179 367.6211 367.7033 367.7033 367.7033 368.0024 368.4702
   368.4702 369.1281 369.1281 369.1281 369.1974 369.1974 369.1974 369.5270
   369.5270 369.5819 369.5819 369.5819 369.8958 369.8958 369.8958 370.0715
   370.0715 370.0814 370.0814 370.0814 370.2709 370.2709 370.2709 370.3756
   370.3756 370.3756 370.7258 370.7258 370.7258 370.9298 371.1006 371.1006
   371.1006 371.1544 371.1544 393.8854 393.8854 394.5938 394.7500 394.7500
   394.7500 403.8719 403.8719 403.8719 404.0868 404.8305 404.8305 404.8305
   407.2285 408.6346 408.6346 410.5632 410.5632 410.5632 411.3566 411.3566
   411.3566 413.0173 413.0173 413.0173 413.0387 413.0387 413.0387 414.9806
   414.9806 417.1794 418.4784 418.4784 418.4784 419.3494 419.3494 420.3105
   420.3105 420.3105 422.3105 422.6167 422.6167 422.6167 422.8158 423.9709
   423.9709 423.9709 424.0034 424.0034 424.0034 424.1596 424.1596 424.1596
   424.4036 424.4036 424.4036 426.8386 426.8386 426.9410 426.9410 426.9410
   427.1849 427.1849 427.1849 427.3748 427.3797 427.3797 427.3797 427.3811
   427.3811 427.3988 427.3988 427.3988 427.4396 427.4396 427.4396 427.6073
   427.6073 435.9234 435.9234 435.9234 436.0796 436.0796 436.0796 436.4075
   436.5340 436.5340 437.3655 437.3655 437.3655 445.8592 445.8592 445.8592
   446.8250 446.8250 447.6686 448.5393 448.5393 448.5393 448.9353 448.9353
   448.9353 449.0646 449.0646 449.0646 449.3641 449.3641 449.3641 450.1556
   450.3877 450.3877 450.3877 450.4881 450.4881 457.5928 457.5928 457.5928
   458.4087 458.9916 458.9916 458.9916 459.6593 459.6593 459.6593 460.1141
   460.1141 461.3847 463.4956 463.4956 463.4956 464.2051 464.2051 464.2051
   465.6082 465.6082 465.6082 465.7442 465.7442 466.0731 466.0731 466.2537
   466.2537 466.2537 466.4765 466.4765 466.4765 466.6472 466.6472 466.6472
   466.8936 466.9567 466.9567 466.9567 467.8676 468.9023 469.1427 469.1427
   469.1427 471.2569 471.2569 471.2569 471.2692 471.2692 471.2692 471.3300
   471.3300 471.3300 471.4024 471.4267 471.4267 476.1317 476.1317 476.1317
   477.1307 477.1307 477.1307 477.1376 477.2269 477.2269 477.4581 477.4581
   477.4581 477.9195 477.9213 477.9213 477.9213 477.9490 477.9490 477.9506
   477.9506 477.9506 478.1261 478.1261 478.1261 492.4937 492.4937 493.0448
   495.9120 495.9120 495.9120 496.8736 496.8736 496.8736 498.0057 498.0057
   498.0057 498.6230 498.6230 498.6230 498.7203 498.7203 498.7203 499.8049
   499.8049 499.9979 499.9979 499.9979 500.1816 503.5850 503.5850 503.5850
   504.3775 506.0463 507.2992 507.2992 507.2992 507.6627 507.6627 509.4468
   509.7755 509.7755 509.7755 510.5790 510.5790 510.5790 511.2836 511.2836
   511.2836 511.4592 511.4592 511.4592 512.5551 512.5551 512.9546 512.9546
   512.9546 513.1853 513.1853 518.3667 518.3667 518.3667 518.4321 518.4321
   518.4358 518.4358 518.4358 518.4529 518.4529 518.4529 518.8070 518.8070
   518.8070 518.9218 518.9218 519.8616 519.8616 519.8616 520.4881 520.4881
   520.4881 520.5438 520.5438 520.5438 520.6163 520.7213 520.7213 520.7213
   520.8575 520.8575 520.8575 520.9322 520.9322 520.9322 521.0416 521.0624
   521.0624 521.0624 521.2274 522.0752 522.0752 523.9028 523.9028 523.9028
   525.3927 525.9297 525.9297 525.9780 525.9780 525.9780 526.0499 526.0499
   526.0499 526.2901 526.2901 526.2901 526.3487 526.3487 526.3487 526.6332
   526.6332 526.6332 526.6596 527.2653 527.2653 528.1560 528.1560 528.2786
   528.2786 528.2786 528.5687 528.7077 528.7077 528.7077 528.8066 528.8066
   528.8066 528.8661 528.8661 528.8661 529.0121 529.0121 529.0121 529.1586
   529.1586 529.3034 529.3034 529.3034 529.4272 544.4158 544.4158 544.4158
   545.0139 545.3761 546.2770 546.2770 546.2770 552.7655 552.7655 552.7704
   552.7704 552.7704 552.8213 552.8213 552.8213 552.9407 552.9407 552.9407
   552.9652 552.9652 552.9652 552.9695 552.9695 559.3007 559.3007 559.6047
   562.4303 562.4303 562.4303 564.2728 564.2728 564.2728 564.5393 564.5393
   564.5393 565.0623 565.0623 565.0623 566.1868 566.1868 566.1868 569.3861
   569.3861 569.3861 569.7052 569.7052 569.8473 569.8473 569.8473 570.0785
   571.1066 571.7659 571.7659 572.6148 572.6148 572.6148 572.6326 572.6326
   572.6326 572.7731 572.7731 572.7731 572.9113 572.9113 572.9113 573.5528
   573.5528 573.5528 573.5531 573.5566 573.5566 588.4106 589.9796 589.9796
   589.9796 593.2466 594.3401 594.3401 594.3437 594.3437 594.3437 596.2820
   596.2820 596.2820 597.0621 597.0621 597.0621 597.5154 597.5154 597.5154
   598.0896 598.0896 598.9421 598.9421 598.9421 602.6239 602.6239 602.6239
   602.6241 602.6241 603.7859 603.7859 603.7859 605.3458 607.6860 607.6860
   607.6860 613.8307 614.4272 614.4272 614.4272 614.8080 614.8080 614.8080
   615.7777 615.7777 615.9402 617.7583 618.4563 618.4563 618.4563 619.1887
   619.1887 619.1887 619.5048 619.5048 619.5048 619.5201 619.5201 619.5201
   620.2840 620.2840 620.2840 620.4141 620.4141 620.7666 620.7666 620.7666
   621.0102 621.0102 621.0877 621.0877 621.0877 621.2652 621.2652 621.2652
   621.3309 621.7808 621.7808 621.7808 622.3930 622.9812 622.9812 622.9812
   623.0692 623.0692 623.0814 623.0814 623.0814 623.1666 623.1666 623.2742
   623.2742 623.2742 623.3239 623.3239 623.3240 624.6783 624.8017 624.8017
   625.0942 625.0942 625.0942 627.1129 627.1160 627.1160 627.1160 627.1298
   627.1298 627.1298 627.2532 627.2532 627.2532 627.2795 627.2795 630.6572
   630.6572 630.6572 630.6883 630.6883 630.7025 630.7025 630.7025 630.8008
   630.8688 630.8688 630.8688 643.0609 643.6786 643.6786 644.5647 644.5647
   644.5647 644.8154 644.8154 644.8154 645.0354 645.0354 645.0354 645.5125
   645.5125 645.9571 646.4826 646.8721 646.8721 646.8721 647.5969 647.5969
   647.5969 647.8807 647.8807 647.8807 648.0371 648.0371 649.3756 649.3756
   649.3756 649.7206 649.7206 649.7206 650.3624 650.3624 650.3624 650.5745
   650.5745 650.5745 651.4452 651.4452 651.4778 651.9630 651.9630 651.9630
   652.6326 652.6326 652.6326 652.7205 652.7205 652.7205 652.9399 652.9399
   652.9399 653.4262 653.4262 653.4411 653.4411 653.4411 653.5558 653.5558
   653.5558 653.6311 653.6311 653.6311 653.7064 655.5273 655.5273 655.5620
   655.5620 655.5620 655.6257 667.6580 667.8421 667.8421 668.0163 668.0163
   668.0163 668.1237 668.1237 668.1237 668.3110 668.3110 668.3110 668.5299
   668.5299 668.5299 669.0350 669.0350 669.0822 669.0822 669.0822 669.4434
   669.4434 669.4434 669.5440 669.8193 670.2326 670.2326 670.2326 670.5424
   671.4151 671.4151 671.4438 671.4438 671.4438 671.6644 671.6644 671.6644
   672.0025 672.0025 672.0025 672.3753 672.3753 672.3753 672.4821 672.4821
   672.6186 672.6186 672.6186 673.6001 673.6001 673.6001 673.6840 673.6840
   673.6840 673.6866 673.6866 673.6866 673.7482 673.8293 673.8293 673.8293
   673.8714 673.8714 674.5115 674.5115 674.5115 674.5273 674.5347 674.5347
   674.5347 674.5468 674.5468 676.5228 676.8979 676.8979 676.8979 677.2131
   677.2131 677.2405 677.2405 677.2405 677.6173 677.6173 677.6173 677.6731
   677.7028 677.7028 677.7028 677.7749 677.7749 677.7749 677.8226 677.8226
   677.8226 678.0289 678.3135 678.3135 678.3135 678.7027 678.7027 678.7027
   678.8260 678.8260 679.0640 706.3933 707.4427 707.4427 707.4427 708.4638
   710.0776 710.0776 710.7351 710.7351 710.7351 711.4728 711.4728 711.4728
   712.2307 712.2307 712.2307 712.7304 712.7304 712.7304 714.0407 714.0407
   717.7940 717.7940 717.7940 720.1667 720.1667 720.5380 720.5380 720.5380
   720.8720 720.8720 720.8720 721.0476 721.0476 721.0476 721.2578 721.2578
   721.2578 721.5430 721.5430 721.7094 721.9793 721.9793 721.9793 722.2032
   722.2032 722.2032 722.3889 724.2788 725.6755 725.6755 725.6755 725.7150
   725.7150 726.2522 726.2522 726.2522 727.2415 727.2415 727.2415 727.2581
   727.2581 727.2581 727.4005 727.4657 727.4657 727.4657 727.7805 727.7805
   727.7805 728.1179 728.1179 728.1973 728.1973 728.1973 728.2881 728.6101
   728.6101 728.8780 728.8780 728.8780 728.9422 728.9422 728.9422 729.1178
   729.4683 729.4683 729.4683 729.6035 729.6035 729.6035 729.7685 729.7685
   729.9007 729.9007 729.9007 731.8136 731.8136 731.8136 731.8213 731.8213
   731.8288 731.8288 731.8288 731.8683 731.8683 731.8683 731.9171 731.9171
   731.9171 731.9286 731.9286 733.0487 733.0487 733.0487 733.0498 733.0524
   733.0524 733.0524 733.0615 748.5007 748.5007 748.6076 749.9638 749.9638
   749.9638 750.2996 750.2996 750.2996 750.4783 750.4783 750.4783 750.7335
   750.7335 750.7335 751.8876 751.8876 751.9212 751.9212 751.9212 752.0586
   752.1477 752.1477 752.1477 754.9173 754.9173 754.9696 754.9696 754.9696
   755.0813 755.8295 755.8295 755.8295 755.8692 755.8692 755.8692 755.8985
   755.8985 755.8985 755.9168 755.9168 755.9168 756.4319 756.4319 756.4441
   756.4441 756.4441 756.4665 762.2921 762.4091 762.4091 762.6342 762.6342
   762.6342 765.6079 765.6079 765.6079 765.9378 766.2420 769.0329 769.0329
   769.0329 774.0765 774.0765 774.0765 774.1739 774.1739 774.1739 774.2129
   774.2129 774.2536 774.2536 774.2536 774.2912 774.2912 774.2912 774.4184
   774.4184 774.4184 774.4486 774.4486 774.4486 774.5629 774.5629 774.6849
   774.6849 774.6849 774.6859 774.6859 774.6859 775.3958 775.3958 775.3958
   775.7429 775.9917 775.9917 788.1985 788.3214 788.3214 788.3214 788.4374
   788.4374 788.4486 788.4486 788.4486 796.3576 796.3576 796.3576 809.2460
   809.2460 809.2558 810.6220 810.6220 810.6220 811.1421 811.1421 811.1421
   811.9309 812.2937 812.2937 812.2937 813.3717 813.3717 813.3717 814.5125
   814.5125 814.6541 814.6541 814.6541 815.7340 816.4738 816.4738 816.4738
   816.5295 816.5295 816.5295 816.9863 816.9863 818.1272 818.1272 818.1272
   818.2761 818.2761 818.2761 819.6346 819.6346 819.6792 819.6792 819.6792
   819.7237 819.7237 819.7237 819.8749 820.0121 820.0121 820.0121 820.4577
   820.4577 820.4577 820.5262 820.5734 820.5734 820.5734 821.3404 821.3404
   821.3404 821.3509 821.3509 821.6912 821.6912 821.6912 821.9625 821.9625
   821.9625 821.9917 821.9917 822.1359 822.1359 822.1359 822.3546 822.3546
   822.3546 822.6414 822.6414 822.6414 822.8525 823.6900 823.6900 823.8101
   823.8101 823.8101 823.9869 824.4795 824.4795 824.4795 824.8690 824.8690
   825.0538 826.2116 826.2116 826.2116 826.2434 826.2434 826.2434 826.2779
   826.2980 826.2980 826.2980 826.3544 826.3544 826.3544 826.4298 826.4298
   826.4298 826.5153 826.5153 826.5153 826.6762 826.6762 826.6762 826.8398
   826.8398 827.0671 827.1225 827.1225 827.1225 827.1484 827.1484 831.0790
   831.1332 831.1332 831.1332 831.2618 831.2618 831.2618 831.3695 831.3695
   831.3695 831.4057 831.4057 831.6289 831.6289 831.6289 831.6837 831.6844
   831.6844 831.7059 831.7059 831.7059 831.8213 831.8213 831.8213 832.5327
   832.5327 832.5327 832.7660 832.7660 832.7660 832.8556 832.8556 832.8867
   832.8867 832.8867 832.9778 832.9778 832.9778 833.0448 833.0448 833.0642
   833.0875 833.0875 833.0875 833.3714 833.3714 833.3714 833.7303 848.1920
   848.1920 848.1920 848.2013 848.4288 849.3695 849.3695 849.3695 853.6151
   853.6151 853.6810 853.6810 853.6810 853.7134 853.7134 853.7134 853.8098
   854.0379 854.0379 854.0379 854.0865 854.0865 854.0865 854.1428 854.1428
   854.3127 854.3127 854.3127 854.4580 855.2589 855.2589 855.2589 856.8060
   856.8060 856.8711 856.8711 856.8711 856.9234 856.9234 856.9234 856.9388
   856.9388 856.9388 857.0093 857.0093 857.0093 857.0264 857.0264 866.4577
   866.6000 866.6000 866.6000 866.7354 866.7354 866.7481 866.7481 866.7481
   867.3373 867.4147 867.4147 867.4147 867.7930 867.7930 867.7930 868.0486
   868.0486 868.0486 868.2106 868.2106 868.8661 868.8661 868.8661 869.7659
   869.7659 870.9595 870.9595 870.9595 871.0237 871.0237 871.0237 871.0925
   871.0925 871.0925 871.9723 871.9723 871.9723 872.1643 872.1643 872.4033
   872.4422 872.9550 872.9550 872.9550 873.2033 873.2033 873.2033 873.3512
   873.4314 873.4314 873.4314 873.8153 873.8153 873.9525 873.9525 873.9525
   874.4787 874.4787 874.4787 874.5725 874.5725 874.5725 874.6997 874.6997
   874.6997 875.2334 875.2334 875.2334 875.4236 875.6719 875.6719 881.6601
   881.6601 881.6835 881.6835 881.6835 881.8831 881.8831 881.8831 882.0140
   882.0140 882.0140 882.1398 882.2352 882.2352 882.2352 882.3292 882.3292
   882.3292 882.4891 882.4891 882.5037 882.5037 882.5037 882.5249 882.8564
   882.8564 882.8564 882.8636 882.8636 882.8636 882.8662 882.8662 883.0600
   883.0600 883.0600 883.1725 883.2338 883.2338 883.2487 883.2655 883.2655
   883.2655 883.2692 883.2692 883.2692 883.2849 883.2849 883.2849 900.7661
   900.8457 900.8457 901.4754 901.4754 901.4754 904.4717 904.4717 904.4717
   904.5111 904.7705 905.2003 905.2003 905.2003 905.6948 905.6948 905.6948
   905.6979 905.6979 905.8188 905.8188 905.8188 905.9105 905.9105 905.9105
   905.9656 905.9656 905.9854 905.9854 905.9854 916.7700 916.7700 916.8373
   917.8796 917.8796 917.8796 919.5268 919.5268 919.5268 919.5805 919.5805
   919.5805 919.6007 919.6007 919.6007 920.0104 920.0104 920.0104 921.3498
   921.3498 921.4556 921.4556 921.4556 921.6505 923.3468 923.3468 923.3468
   923.3828 923.5777 923.7525 923.7525 923.7525 926.3228 926.3228 926.3228
   926.3291 926.3291 926.3556 926.7840 926.9124 926.9124 926.9124 927.0797
   927.0797 927.0797 927.1189 927.1189 927.1189 927.1660 927.1660 927.3866
   927.3866 927.3866 927.4041 927.4041 927.4041 927.6089 927.6089 927.6089
   928.0330 928.0330 928.0460 931.4079 931.4079 931.4079 931.4214 931.4214
   931.4214 931.4235 931.4235 931.4235 931.4385 931.4385 931.4385 934.7104
   934.7104 934.7112 934.7112 934.7112 934.7130 945.6212 945.6931 945.6931
   945.6931 946.0584 946.7059 946.7059 946.7059 947.8392 947.8392 947.9659
   947.9659 947.9659 948.0074 948.0074 948.0074 948.0874 948.0874 948.0874
   948.5496 948.5496 948.5496 948.5853 948.5853 954.6953 954.6953 954.6953
   954.7205 954.7904 954.7904 955.9568 955.9568 955.9568 955.9674 955.9674
   955.9674 956.0041 956.0041 956.0041 956.0300 956.0300 956.0300 956.4992
   956.4992 956.5685 956.5685 956.5685 956.6678 956.6678 956.6678 956.7413
   956.7413 956.7413 956.8513 956.8513 956.8513 956.8582 956.8582 957.1944
   957.2743 957.2743 957.2743 957.3326 957.3326 957.3326 957.3717 957.4911
   957.5019 957.5019 957.5019 957.5258 957.5258 970.5264 970.5264 970.5264
   970.6892 970.9231 970.9231 970.9231 970.9828 972.1382 972.1382 972.3498
   972.3498 972.3498 972.6849 972.6849 972.6849 972.7413 972.7413 972.7413
   973.0129 973.0129 973.0129 973.2770 973.2770 973.6332 974.1336 974.1336
   974.1336 974.3954 974.3954 974.3954 974.5372 974.5372 974.5372 974.6152
   974.6153 974.6153 974.6268 974.6268 974.9268 974.9268 974.9268 975.2218
   975.2218 975.2218 975.3345 975.3345 975.5286 977.2177 977.2177 977.2440
   977.2440 977.2440 977.4842 977.4842 977.4842 977.4913 977.6562 977.6562
   977.6562 977.6611 977.6611 977.6611 977.7399 977.7399 977.7486 977.7486
   977.7486 977.7541 977.7541 977.7541 977.8101 978.4770 978.4770 978.5026
   978.5026 978.5026 978.5264 978.5264 978.5264 978.5399 978.5399 978.5399
   978.5862 978.5862 978.5862 978.6068 978.6068 979.7981 979.8024 979.8024
   979.8024 979.8109 979.8109 979.8109 979.82321002.19481002.72351002.7235
  1002.76721002.76721002.76721002.89491002.89491002.89491003.05721003.0572
  1003.05721004.79191004.79191004.88001004.88001004.88001005.60801005.6080
  1005.60801006.07081006.07081006.07081006.51821007.51171007.73041007.7304
  1007.73041007.94691007.94691007.94691007.96581007.96581008.00731008.0073
  1008.00731024.17011024.47741024.47741024.47741024.74421024.74421024.7442
  1025.32301026.32071026.32071026.32071026.41631026.41631026.77491026.7749
  1026.77491027.10871027.10871027.10871027.38241028.23311028.23311028.2331
  1028.47191028.47191028.56891028.56891028.56891029.00031029.00031029.0003
  1029.02441029.02441029.02441029.13661029.44961029.44961029.44961030.2983
  1030.29831030.35181030.35181030.35181030.55401031.93981032.38201032.3820
  1032.38201032.68451032.68451032.83781032.83781032.83781032.90441032.9044
  1032.90441034.03541034.03541034.13751034.13751034.13751034.27041034.2704
  1034.27041034.30311034.30311034.30311034.30891034.30891034.38331034.3833
  1034.38331034.39711034.41541034.41541034.41541034.42741034.42741034.6890

          k = 0.5000-0.5000 0.5000 (  4446 PWs)   bands (ev):

   -93.6686  -6.5550  -0.2260   4.4614   4.4614  10.9420  12.0771  12.0771
    16.6395  20.3218  20.3218  20.5720  22.2425  22.9089  22.9089  29.9278
    33.5687  33.5687  35.2267  36.8407  36.8407  39.3776  39.3776  41.7074
    42.6366  42.6648  42.6648  47.5051  47.5051  47.7353  49.4133  52.0803
    52.0803  54.1382  54.1912  59.3051  59.3051  60.6415  60.6415  61.6518
    63.7434  65.3037  65.3037  68.9630  71.1387  72.0792  72.0792  73.9790
    73.9790  74.2414  74.2414  75.6541  78.7695  78.7695  79.2588  82.2662
    82.2662  82.7180  84.1081  84.1081  86.1358  86.1358  88.7188  88.8383
    89.4407  90.2277  91.9080  91.9080  92.1378  92.1583  92.1583  94.8117
    97.1689  98.6517  98.6517  99.2883  99.2883  99.9608  99.9608 102.0876
   105.1330 105.6039 105.6039 110.4109 112.3916 112.3916 112.8748 114.8846
   114.8846 115.0276 115.4834 115.4834 116.5248 119.5757 119.5757 120.8241
   121.9029 122.5323 122.5323 123.6487 123.6487 124.5924 125.4830 126.3353
   126.3353 126.3825 126.7662 126.7662 127.2654 134.1228 134.1228 134.1618
   135.8802 136.5308 136.5308 137.2641 137.2641 139.0244 139.4103 139.4103
   139.7208 140.1216 141.2377 141.2377 143.5786 143.5786 144.4099 145.1870
   145.1870 145.4312 146.3521 146.3521 147.9425 151.9473 152.8542 152.8542
   153.0485 153.6129 153.6129 153.8835 156.5233 156.5233 157.4144 157.4144
   161.9074 161.9074 162.3349 162.3349 163.2567 163.8252 164.7103 165.1809
   165.2414 167.0133 167.0133 168.7278 168.7278 168.9010 168.9010 169.1296
   171.9147 171.9147 172.1900 172.1900 174.9009 175.4124 175.4124 175.9452
   177.4009 181.6698 181.6698 183.5076 185.7191 185.7789 185.7789 186.3934
   186.3934 186.6238 187.0624 187.0624 187.5942 188.5243 189.0032 189.7947
   189.7947 190.2667 190.2667 191.7341 195.2655 195.2655 196.3539 196.3539
   196.9352 198.2722 200.1857 200.1857 200.4232 201.3344 201.3344 201.5224
   201.5224 201.8850 202.1687 202.1687 202.3069 202.3069 202.7700 203.3779
   203.3779 203.5291 206.8199 207.5161 207.5161 208.7842 208.7842 208.8388
   211.4649 211.8452 213.5658 213.6131 213.6131 213.9902 213.9902 214.3242
   214.3242 215.1783 215.1783 215.6788 220.2356 220.7068 220.7068 222.8320
   223.2429 223.2429 224.1283 224.3823 225.1039 225.1039 226.4120 226.8329
   226.8329 227.5976 228.4373 228.6669 228.6669 228.9558 229.5974 229.5974
   232.9515 232.9515 234.1197 234.2681 234.2681 234.9641 235.5544 236.4971
   237.8220 237.8220 239.7478 239.8997 239.8997 241.1192 241.7603 241.7603
   242.2079 242.2079 243.4374 243.4374 243.4758 243.4758 243.6179 243.7177
   251.0690 253.6828 254.4963 254.4963 254.8015 254.8015 256.0954 256.0954
   257.0937 257.9044 257.9044 258.1605 260.1843 260.1843 260.7378 260.7378
   261.0516 261.7078 264.4015 264.4576 264.4984 265.0629 265.0629 265.2928
   265.5618 265.5618 267.0358 267.3909 267.6294 267.6294 269.0887 269.0887
   270.7231 270.7231 272.3032 272.3032 272.4881 272.9069 273.1864 273.1864
   273.5433 273.5433 275.0677 275.0677 275.6545 275.6545 275.7015 276.2885
   277.6185 277.6412 277.6412 277.6709 277.6709 278.1828 278.3658 278.3658
   278.5251 278.5251 279.7475 279.7589 283.6415 285.6168 286.4462 286.4462
   287.3817 288.1822 288.1822 288.7831 291.4382 291.4382 291.7945 291.7945
   292.2989 292.2989 292.4192 292.6393 292.6393 292.7908 295.5282 295.7151
   295.7151 297.7711 297.7711 297.9425 298.7457 298.7457 299.1342 300.1444
   300.1444 300.4509 300.6763 302.6486 302.6486 303.0260 303.0260 303.1160
   304.3841 304.3841 304.4417 304.4417 304.6661 304.8201 311.9797 312.6162
   312.6162 313.4374 314.4421 314.4421 314.8393 314.8393 314.9412 314.9412
   315.0993 315.2502 315.2502 315.3511 315.6193 316.8718 316.9796 316.9796
   321.4133 321.4133 322.0497 322.9271 323.2033 323.2033 323.6199 324.9904
   325.0280 325.3279 325.3279 326.2354 326.2354 327.2195 327.6998 328.1401
   328.1401 328.6906 328.7584 328.7584 333.0679 333.0679 333.4892 333.4892
   335.0118 336.0533 336.0533 337.0734 337.0734 337.8162 340.0688 340.0919
   340.2514 340.2514 340.6958 340.6958 340.9754 341.8530 342.4882 342.4883
   342.9189 344.3287 344.3287 344.6923 344.6923 344.7318 344.8144 344.8144
   348.3026 348.3969 348.3969 349.3738 349.3738 349.6070 350.7252 350.9491
   350.9491 351.2918 351.2918 351.4735 353.4798 353.4798 354.8588 355.2158
   355.4446 355.4446 357.7119 357.7724 357.7724 357.8439 357.8439 358.0217
   358.1079 358.2977 358.6107 358.6107 359.4366 359.4366 362.1881 362.1881
   362.9891 362.9891 363.4408 364.9324 366.2729 366.4236 367.6019 367.6019
   367.9637 367.9637 371.7375 372.5241 372.6181 372.6181 373.8223 373.8223
   374.2498 374.2498 374.3760 374.7803 374.8637 374.8638 375.1237 376.6600
   377.4469 377.4469 377.9140 377.9140 377.9146 378.1750 381.8513 383.4192
   383.4192 384.2897 384.5883 384.5883 385.2313 385.2313 385.5603 386.1140
   386.1140 386.4089 387.6700 387.7443 387.7443 388.1816 388.4928 388.4928
   390.6255 390.6255 390.7175 390.7175 390.8902 390.9646 392.1502 392.2305
   392.2305 392.4433 392.4433 392.5033 393.3956 393.3956 393.4176 393.4377
   393.4377 393.4969 395.0389 395.6151 395.6151 395.6520 395.7702 395.7702
   397.6700 398.2067 398.2067 398.6292 398.9333 398.9333 401.2669 401.2669
   402.2398 402.2648 402.2648 402.4597 402.6547 403.2135 403.2135 403.2432
   403.9905 403.9905 405.0282 405.0282 405.1656 405.2657 405.3189 405.3189
   410.6434 411.2804 411.2804 411.7200 411.7200 411.7778 413.6488 414.2749
   416.8249 416.8249 417.1248 417.2830 417.4217 417.4217 420.1814 420.1814
   420.7349 420.7349 426.7515 426.7515 426.8469 426.9074 426.9074 427.2713
   427.2713 427.7200 428.0898 428.1667 428.2038 428.2602 428.2602 428.7707
   428.7707 428.8448 429.0645 429.0645 430.3029 430.3030 430.3223 430.3223
   431.6759 431.6982 434.1697 434.1697 434.4503 435.0887 436.6089 436.6089
   437.1416 439.2680 439.3197 439.3197 439.9105 439.9105 439.9970 440.4983
   440.4983 441.8472 441.8472 442.2822 444.0293 444.0293 444.1085 444.1085
   444.2327 444.2551 448.1351 448.6440 448.6440 448.9551 450.1244 450.1244
   450.1452 450.5355 453.7309 453.7309 454.8668 454.8668 454.9197 455.3928
   455.8547 455.8547 456.4768 456.4768 456.6154 456.6154 457.1339 457.9032
   457.9171 457.9171 459.9058 459.9058 460.1288 460.6359 460.6359 460.7466
   461.1463 462.2879 462.2879 462.8682 463.8616 463.8616 464.4432 464.4721
   464.4721 464.9162 464.9849 464.9849 466.0768 466.2534 466.2534 466.4582
   466.4582 466.5811 467.9850 467.9850 468.2024 468.2024 468.4681 468.5389
   469.3959 469.6141 469.6141 470.1201 470.6993 470.6993 471.7667 471.7667
   471.8105 471.8768 471.9025 471.9025 476.8061 476.8061 476.8748 477.6717
   477.6717 477.9074 479.1247 479.4467 479.4467 479.9825 479.9825 480.3190
   480.9817 481.2264 481.2264 481.5000 481.5000 481.5608 484.7993 485.5470
   485.5470 486.1972 486.5009 486.5009 486.5672 486.5672 486.7346 486.9688
   487.4016 487.4016 487.4954 487.4954 487.6296 488.0238 488.0238 488.5859
   493.2450 493.2450 493.2977 493.2977 493.6037 493.6266 494.4501 494.4501
   495.0132 495.7045 495.9278 495.9619 495.9619 496.2064 496.2064 496.2257
   496.2491 496.4330 496.4330 498.6431 501.1807 501.1807 501.2173 501.2173
   502.3598 502.8155 502.8155 502.8709 503.0926 503.0926 503.8122 503.9706
   503.9706 504.4743 504.5553 504.5553 504.5620 504.6127 504.6334 504.6334
   504.9334 504.9334 509.5125 509.5468 509.5468 509.8752 510.6360 510.6360
   512.0940 513.4831 515.0215 515.0215 516.4908 516.4908 517.2244 517.5429
   517.6900 517.6900 518.0906 518.0906 518.1788 520.3039 520.3039 520.3499
   520.3499 520.6239 527.1338 527.1338 527.3863 527.8182 527.8182 528.1890
   528.6958 528.6958 528.9158 529.0585 529.0585 529.1534 529.2907 529.4563
   529.4563 529.5040 529.5717 529.5717 529.6802 529.6802 529.8766 529.8768
   529.8768 530.2444 532.5595 532.5595 532.5666 532.6325 532.6325 532.6791
   534.5250 535.6560 535.6560 536.5118 536.5118 536.8731 539.9869 539.9869
   540.5706 541.1317 541.4731 541.4731 542.4633 542.4633 542.5180 542.5180
   542.6080 542.6200 545.0108 545.0192 545.0192 545.2246 545.2246 545.2675
   546.9159 547.2968 547.6117 547.6117 547.6985 547.6985 548.4712 549.8136
   549.8136 549.8708 550.4713 550.5823 550.5823 551.0550 551.0550 551.1529
   551.2243 551.2243 551.3892 551.3892 551.7609 552.7591 552.8883 552.8883
   555.9519 555.9519 556.0802 556.0802 556.4808 556.4882 561.8421 561.8421
   562.0146 563.3857 563.6429 563.6429 564.3998 566.6027 567.5417 567.5417
   567.8586 567.8902 567.8902 567.9166 568.7156 568.7361 568.7361 568.8009
   569.0861 569.0861 569.4958 569.4958 569.6190 569.6190 570.6208 570.9472
   572.9599 572.9599 573.2408 574.0948 574.1715 574.1715 575.3294 575.3294
   575.8145 575.8171 575.8171 577.4815 577.6671 577.6671 578.4345 578.4435
   578.4779 578.7555 578.7555 578.9515 579.9603 579.9603 580.1154 580.1154
   581.0486 581.0678 581.0678 581.5880 581.5880 582.0575 582.0893 582.1296
   582.1296 582.3077 582.3607 582.3607 582.9655 583.0356 583.0356 583.0918
   583.2077 583.2077 583.2701 583.2956 583.2956 583.4484 583.4484 583.4495
   591.5165 592.8538 592.8538 593.1364 593.2349 593.2349 593.6635 594.0232
   594.0232 594.3212 594.3212 594.5170 594.5593 594.6152 594.7105 594.7105
   594.9464 594.9464 594.9531 595.2063 595.2063 595.8924 598.6101 598.9915
   598.9915 601.3379 601.3379 602.0668 602.5785 603.0266 603.0266 603.2144
   603.3055 603.3055 605.1503 605.2941 605.2941 605.9497 606.2974 606.2974
   606.5357 607.0103 607.0103 607.4315 607.7320 607.7320 608.1357 608.1357
   608.1506 608.1506 608.2513 608.3470 609.1962 609.1962 610.2777 610.2777
   610.5159 610.5955 610.5955 610.6815 616.0561 616.0561 616.0665 616.0665
   617.5599 617.5599 617.7910 617.8583 618.0375 618.2258 618.2258 618.2910
   618.4331 618.4331 618.4485 618.4982 619.1632 619.1632 620.2160 620.6213
   620.6213 621.2825 621.4235 621.4986 621.4986 621.7768 622.1638 622.1638
   622.3258 622.3258 624.1998 624.1998 624.2009 624.2009 625.0332 625.0338
   628.6517 628.6517 628.7472 628.8094 628.8094 628.8400 630.4106 630.5749
   630.5749 630.7777 631.1140 631.1140 639.5802 639.8181 639.8181 640.0343
   640.4158 640.4158 641.3475 641.3475 641.5466 641.9718 641.9718 642.3360
   642.3360 642.6779 642.7458 642.9468 642.9804 643.1839 643.1839 643.2482
   643.2482 643.8892 643.9838 644.0044 644.0044 644.5284 644.5284 644.9101
   644.9124 644.9124 645.3853 645.4038 645.4038 645.6773 645.7448 645.7448
   650.8583 650.9279 651.2144 651.2144 651.6142 651.6832 651.6832 651.7389
   651.9089 651.9089 652.1753 652.2325 652.4425 652.4425 652.6047 652.6047
   652.8170 653.5268 653.5268 653.6554 653.7261 653.7876 653.7876 653.8905
   654.2756 654.2756 654.6675 654.7410 654.7410 655.3979 655.3979 656.1000
   658.8080 658.8080 658.8333 658.8333 659.1562 659.1687 659.2420 659.2420
   659.2734 659.2734 660.9700 660.9700 661.0206 661.0206 661.0525 661.0525
   661.0585 661.1282 661.1577 661.3300 661.3300 661.4811 667.9864 668.0255
   668.0255 668.3026 668.3775 668.3775 672.0332 672.0468 672.0468 672.0765
   672.0791 672.0791 677.1803 677.4160 677.4160 677.9048 678.0205 678.0205
   678.1668 678.1668 678.3321 678.7158 680.3150 680.3150 681.5240 681.6867
   681.6867 682.4355 682.4355 682.5667 682.6813 682.6813 682.8038 682.8038
   682.8792 682.9816 688.4498 688.5910 688.5910 688.6216 689.4190 690.1550
   690.1550 691.0427 691.0427 692.2210 692.2210 693.5637 693.6267 693.6267
   693.9573 693.9573 693.9637 694.0630 694.2395 694.2395 694.2962 694.9154
   694.9735 694.9735 695.2661 695.2661 695.5334 695.8009 695.8009 695.8229
   696.0238 696.0238 696.0672 697.5160 697.5160 700.2023 701.8035 703.1353
   703.3961 703.3961 703.5091 703.5091 704.2207 704.4014 704.4014 705.1425
   705.1425 706.1634 707.0534 707.1312 707.1312 707.3452 707.4181 707.4181
   708.5012 708.5012 708.5395 708.9599 708.9599 708.9873 709.9795 709.9795
   709.9828 710.0610 710.0610 710.1125 711.2048 711.2048 711.3273 711.7294
   713.7735 713.7735 714.0337 714.0409 714.0409 715.1325 715.1325 715.5185
   718.3632 718.3632 718.5538 718.5538 718.7636 718.7636 718.9373 719.4683
   719.5829 719.5829 720.0627 720.1322 720.1395 720.4156 720.4156 720.4521
   720.5115 720.6697 720.7139 720.7139 720.8196 720.8196 720.9663 721.2063
   721.2063 721.2540 721.4446 721.4446 721.4863 721.4863 724.8417 724.8904
   725.0826 725.0826 725.4090 725.4090 727.3975 727.7614 728.2200 728.2200
   728.7390 728.8502 728.8502 729.1681 729.1681 729.3268 729.6400 729.9827
   729.9827 731.5902 732.1812 732.1812 732.3231 732.5016 732.5469 732.5469
   732.8046 732.8422 733.5099 733.5099 733.5158 733.5158 734.5508 734.5508
   734.6206 734.6206 734.8683 734.8707 735.1500 735.1500 735.1566 735.1566
   735.5495 735.5544 735.5544 735.5920 735.5999 735.5999 742.6497 742.6497
   742.9285 743.3348 743.8995 743.8995 744.6965 744.7207 744.8151 744.8553
   744.8553 744.8743 744.8743 744.9901 744.9901 745.8194 746.2485 746.2485
   746.8451 747.0464 747.0464 747.2402 747.3350 747.3350 747.4165 747.4739
   747.4739 747.7101 747.7541 747.7541 750.9880 751.7697 751.7697 752.0154
   752.0154 754.6851 755.8200 755.8200 755.8998 755.8998 756.4607 756.4623
   758.1674 758.4090 758.4090 758.8696 758.8696 759.2930 759.7231 759.7231
   759.7468 759.7694 759.8271 759.8271 761.5861 761.9800 761.9800 762.3207
   762.4716 762.4716 762.7312 762.7312 762.9149 763.8717 765.3172 765.3172
   768.4246 768.6217 768.6217 768.7310 769.3158 769.3158 769.3554 769.3554
   769.6804 770.2405 770.2405 770.2872 770.2872 770.3452 770.4417 770.6075
   770.6075 770.7224 772.1309 772.1309 772.1729 772.1729 772.2802 772.2823
   773.1459 773.3430 773.3430 773.3808 773.3808 773.5422 775.1587 775.1587
   775.1949 775.2494 775.2934 775.2934 775.3981 775.3981 775.4344 775.4545
   775.5292 775.5292 780.8565 780.8948 780.8948 781.3676 782.0602 782.0602
   782.4488 783.7635 784.1314 784.1314 784.1769 784.1769 785.2933 785.4029
   785.4029 785.8362 785.8362 785.8905 787.1331 787.2566 787.2566 788.0886
   788.0886 789.2675 789.8426 789.9572 789.9572 789.9871 791.7068 791.7221
   791.7221 791.8217 791.8217 791.8629 795.6122 795.9249 796.0219 796.0219
   799.4472 799.6073 799.6073 799.8669 799.9214 799.9214 801.4174 801.4174
   801.4291 801.4472 801.4809 801.4809 804.0694 804.3305 804.3305 805.0124
   805.3963 805.3963 807.5824 807.5824 807.8552 807.9205 808.0317 808.0317
   808.2456 808.2947 808.2947 808.5458 809.3164 809.3164 810.7050 810.7982
   810.7982 810.9665 810.9665 811.1193 811.5699 811.5699 811.9459 812.0306
   812.0306 812.0783 815.3290 815.6666 815.6666 816.6754 816.7091 816.7091
   816.9697 817.4005 817.4005 819.1254 819.1254 819.3431 819.9365 819.9365
   820.3278 820.3278 820.4850 820.4850 820.6386 820.6497 820.9299 820.9299
   821.0973 821.1400 821.3764 821.5403 821.5403 821.9777 822.0139 822.0139
   824.2888 826.2101 827.2561 827.2561 827.2914 827.2914 828.9896 828.9896
   829.0026 830.1701 830.1701 830.8277 833.2888 833.2888 833.3235 833.5797
   833.5797 833.6556 833.8296 833.9407 833.9407 834.1097 834.3373 834.3373
   834.3662 834.4081 834.4081 834.5168 834.5168 834.6125 834.7700 834.7700
   834.8217 834.8217 834.8321 834.9114 834.9114 834.9872 835.0093 835.0141
   835.0141 835.0922 835.1108 835.1108 835.1611 835.1611 835.3017 835.3208
   835.3208 835.3393 835.3425 835.3977 835.8667 835.8667 841.5208 841.5747
   841.5747 841.7664 841.7664 841.8063 842.3794 842.4627 842.4627 842.6957
   842.9067 842.9067 843.5623 843.7603 844.1416 844.1416 844.4254 844.6605
   844.6605 845.1744 846.3001 846.3001 846.3023 846.3434 846.3434 846.4003
   846.4003 846.6816 846.8380 846.8380 848.7173 848.7186 848.7186 848.7227
   848.7369 848.7369 850.0178 850.0178 850.0187 850.0187 851.2245 851.2245
   851.2254 851.2310 851.2310 851.2373 851.3663 851.3663 851.4475 851.4541
   851.4743 851.5527 851.5527 851.7328 856.4574 856.4574 856.5670 856.5670
   856.5980 857.2915 861.0392 861.2196 861.2196 861.3124 861.3124 861.3134
   861.9213 861.9213 861.9432 861.9432 862.0195 862.0224 866.2625 866.4489
   866.4489 866.8843 868.2543 868.2543 868.6948 868.8504 868.8504 869.3484
   869.3484 869.3813 869.5795 869.5918 869.5918 869.6881 869.6881 869.7345
   873.2521 873.3238 873.3238 873.4064 873.4064 873.5095 876.1057 876.1057
   876.5596 877.7072 878.0324 878.0324 879.2456 879.7371 879.7488 879.7488
   880.3438 880.3438 882.6922 882.8472 882.8472 883.0167 883.0167 883.5110
   883.6845 883.6845 883.7740 883.7821 883.8040 883.8040 883.8227 884.0203
   884.0203 884.4301 884.4301 884.6066 885.5199 885.6180 885.6180 885.8361
   885.8361 886.0011 886.1132 886.1160 886.1160 886.1438 886.1438 886.1735
   886.1938 886.2475 886.2475 886.4585 886.4585 886.5772 887.2721 887.3565
   887.3565 887.4503 887.4503 887.6165 889.6549 891.8626 893.3049 893.3049
   894.1480 894.1480 894.7703 897.1712 897.7535 897.7535 897.8226 897.8226
   897.9196 897.9265 897.9667 898.0697 898.0697 898.1856 898.2417 898.2924
   898.2924 898.4408 898.4408 898.5135 898.5135 898.6957 898.7276 898.7276
   898.7439 898.7439 898.8831 899.0229 900.0183 900.0183 900.0258 900.0258
   905.9833 905.9833 906.0355 906.0442 906.3630 906.3630 907.2983 907.3109
   907.3109 907.4678 907.4678 907.5171 907.7667 907.7667 908.1282 908.1282
   908.2919 908.8435 909.5915 909.6002 909.6171 909.6255 909.6255 909.6642
   909.6642 909.7617 909.8983 909.8983 909.9608 909.9608 910.0964 910.0964
   910.1519 910.2843 910.2843 910.3357 913.0784 913.0784 913.0896 913.1264
   913.1264 913.1587 916.8821 917.2726 917.2726 917.2904 917.4172 917.4172
   920.3418 920.3418 920.4110 920.4726 920.4726 920.8671 922.8797 922.8914
   923.2701 923.2701 923.2764 923.2764 923.8963 923.9102 923.9102 923.9753
   923.9753 924.0030 924.0909 924.0909 924.1117 924.1268 924.1268 924.1275
   925.2918 925.2918 925.2994 925.2994 925.4939 925.4944 927.6684 927.9732
   928.0733 928.0733 928.0860 928.0860 930.2567 930.9630 931.2409 931.2409
   931.3661 931.3661 934.7403 934.7403 934.7484 934.9718 935.2053 935.2053
   935.8098 935.8767 935.8767 936.0666 936.0666 936.1534 936.2077 936.2077
   936.2264 936.2264 936.6628 936.6667 940.5485 940.8320 941.5362 941.5362
   941.5426 941.5426 946.4359 946.5095 946.5095 946.7280 947.0223 947.0223
   947.0589 947.0589 947.1843 947.1944 947.1944 947.2465 948.1864 948.2216
   948.2371 948.2371 948.5356 948.5356 949.9119 949.9362 949.9362 949.9661
   949.9661 949.9993 952.7260 952.7260 952.7441 952.7441 952.9120 953.0565
   954.4140 954.5197 954.5197 954.5813 954.5813 954.6640 957.8445 957.9085
   957.9085 958.0899 958.0899 958.1618 958.9101 958.9101 958.9301 959.0022
   959.0331 959.0331 959.0663 959.0767 959.0951 959.0951 959.1444 959.1444
   960.7745 960.7895 960.7895 960.8303 960.8303 960.8653 961.5679 961.6277
   961.6277 961.6671 961.6671 961.7178 962.7287 962.7387 962.7444 962.7444
   962.7583 962.7583 964.6097 964.6097 964.7331 964.7855 964.7855 964.8394
   966.6153 966.6445 966.6445 966.7045 966.7045 966.7275 972.3672 972.3672
   972.3795 972.4912 972.4912 972.5183 973.4844 973.4925 973.4925 973.5540
   973.6047 973.6047 973.6433 973.6433 973.7448 973.7528 973.7528 973.7606
   975.0313 975.0745 975.0800 975.0997 975.0997 975.1015 975.1258 975.1258
   975.1874 975.1874 975.2497 975.2497 978.1870 978.3923 980.7360 980.7360
   980.7888 980.8102 980.8102 980.9463 985.2052 985.2052 985.2185 985.2185
   985.6894 985.7752 986.9199 986.9437 986.9437 986.9850 986.9850 987.0136
   988.1188 988.1188 988.1380 988.1380 991.6662 991.6662 991.6936 991.6936
   992.6997 992.9463 993.8580 994.0806 994.0806 994.3244 994.3244 994.5398
   994.9348 994.9348 994.9486 994.9519 994.9646 994.9646 995.6290 995.6586
   995.6586 995.7257 995.7257 995.8359 997.8868 997.8868 997.9831 998.0290
   998.0290 998.0441 998.7121 999.2493 999.24931000.27041000.27041000.3581
  1000.48091000.48091000.69861000.69861000.70121000.80651001.42571001.4634
  1001.46341001.54251001.54251001.57601002.74401002.74401002.76501002.7650
  1003.08681003.27651004.34571004.39011004.39011004.41951004.43401004.4340
  1004.45671004.51491004.51491004.52661004.52661004.54761006.74771006.7477
  1006.78701006.90251006.90251006.95651008.80351008.89181008.89181009.0759
  1009.07591009.13011012.38181012.38181012.43241012.45291012.47211012.4721
  1018.04251018.04251018.05031018.07621018.07681018.07681021.45851021.4585
  1021.47961021.47961021.51941021.54441024.07991024.20651024.34061024.3406
  1024.46151024.46151024.77781024.77781024.89301024.89301025.01531025.1531
  1025.17011025.28611025.35811025.35811025.38701025.38701026.91071026.9331
  1026.93311026.96121026.96121026.96301027.10251027.10251027.18821027.3141
  1027.31411027.32741032.82431032.82431032.85521032.85521032.86551032.9458
  1033.47791033.64111033.64111033.75321033.82141033.82141034.67761034.6776

          k = 0.0000-1.0000 0.0000 (  4432 PWs)   bands (ev):

   -93.6686  -6.0264   0.5282   2.8787   2.8787   8.6439  10.4532  18.1673
    18.1673  20.8870  21.6988  22.2558  22.2558  22.7132  28.1418  28.9368
    31.1210  31.1210  32.9623  33.6184  34.5631  34.5631  35.5959  40.9747
    44.3310  44.3310  44.9326  48.1199  48.1199  49.7831  51.8105  52.5335
    55.4750  57.2037  57.3781  57.3781  58.0464  58.7114  58.7114  59.2949
    62.8176  63.6428  63.6428  68.3323  70.9251  71.6799  71.6799  73.0560
    74.2308  76.1782  76.1782  78.3409  79.5346  81.3791  82.1437  82.1437
    83.1767  83.5978  83.5978  84.4963  84.4963  85.1519  85.4727  86.9004
    88.2243  89.8602  96.4371  96.4371  96.5419  96.5642  96.9483  97.8164
    97.8164  99.9083 101.3881 101.3881 101.5276 101.9774 102.7972 102.7972
   103.3635 103.5699 104.4432 104.4432 104.7440 104.7836 108.9874 109.0243
   109.9453 109.9453 110.5542 110.5542 113.0459 114.3108 117.8172 117.8172
   119.6766 122.3324 122.3324 122.7809 122.7882 125.4151 125.4151 125.6999
   127.6171 128.3025 128.4557 128.4557 129.3525 130.3737 130.3737 131.0881
   133.3954 134.8936 135.7803 135.7803 136.0706 138.5373 138.5373 140.1063
   142.5992 143.0856 144.8531 145.6742 145.6742 147.2125 151.3648 151.3648
   151.4198 151.5246 153.1076 154.2118 154.2118 154.4399 155.2090 157.1655
   157.1655 157.2703 158.5730 158.6728 158.6928 159.2044 159.2044 159.9169
   160.2392 160.2392 160.6654 160.6654 161.5062 161.5736 164.8643 164.9170
   167.6146 167.6146 168.2070 168.2818 172.0567 173.3128 173.6220 173.6220
   174.2020 175.2426 175.2426 175.6284 176.1957 176.1957 177.0223 177.3234
   177.3234 177.4521 178.2928 178.2928 179.3404 180.7895 180.8045 180.9055
   181.7998 181.7998 183.1041 183.2823 183.8278 183.8278 184.7079 184.9948
   184.9948 186.0499 186.2984 186.7421 186.7421 186.9531 187.7190 188.4543
   190.8481 190.8481 191.9354 195.1837 196.6716 196.6716 197.9654 197.9654
   198.8304 199.3481 200.5902 200.5902 201.2607 202.2005 206.2801 206.9051
   207.1924 207.1924 207.4432 208.3431 208.3431 209.1023 209.1673 209.2418
   209.8377 209.8377 211.6523 212.1382 212.1382 212.3090 217.5671 218.0528
   219.1647 219.1647 220.8284 221.3804 222.6337 223.0052 223.0052 226.0795
   226.0795 226.3410 228.3485 228.3698 228.8287 229.6096 229.6096 230.1387
   232.1080 232.1080 232.5465 232.9149 232.9900 233.4037 233.4037 233.7329
   234.5290 234.5290 234.7971 234.9243 235.1188 235.1188 238.5745 239.1076
   239.2996 239.2996 239.8982 239.8982 241.0275 241.3859 245.9861 246.8780
   246.8780 247.8312 249.2596 249.6376 249.7838 249.7838 250.7507 251.8039
   251.8596 251.8596 251.9243 251.9760 252.1175 252.1175 254.1322 254.1322
   254.3770 254.5269 255.2361 255.4428 255.4428 255.5330 256.6551 256.9806
   256.9806 256.9890 257.6993 258.1239 258.1239 258.1339 260.4220 260.5272
   260.8088 260.8088 260.8559 260.8559 261.0566 261.1295 265.7472 266.0212
   269.2808 269.2808 270.0095 270.0095 272.0029 272.4133 276.4453 276.5374
   276.5374 277.1347 277.1347 277.1770 277.3080 277.6366 278.0067 278.0765
   278.4559 279.0894 279.0894 279.4337 279.4337 279.9189 280.0005 280.2359
   283.0624 283.0624 284.4428 284.4428 284.7609 285.8098 286.8847 286.9078
   286.9340 286.9340 287.7425 288.2674 288.2674 288.2861 288.6076 288.6076
   289.0523 289.0694 293.2556 294.4618 294.4618 294.6632 296.5744 297.3841
   297.3841 299.3853 300.2140 300.2140 300.6808 300.7730 300.9321 301.5154
   301.6167 301.6167 302.1751 303.0163 305.0176 305.5585 305.5585 305.9055
   307.2301 307.2301 307.5560 307.9514 309.0701 309.5490 309.5490 309.7628
   311.1970 311.1970 311.5975 311.9555 313.2702 313.2702 313.2941 313.2972
   313.3146 313.3146 313.4013 313.5165 317.6531 318.4384 319.6750 319.6750
   320.0473 321.0021 325.2303 325.3171 325.3171 325.7702 325.9513 325.9513
   326.0782 326.0782 326.1730 326.5702 326.5702 326.8749 330.5519 330.8149
   330.8149 331.1833 331.4160 331.4494 331.5473 331.5473 331.6701 331.9235
   332.0079 332.0079 332.0415 332.2907 332.3371 332.6057 332.7806 332.7806
   333.4250 333.4881 333.5955 333.5955 334.5407 334.5407 335.2613 337.0486
   337.5199 337.5714 337.5714 337.7712 337.8084 337.9250 337.9328 337.9328
   338.3577 338.4251 338.4251 338.4862 347.7714 349.6638 350.0944 350.0944
   350.8695 350.9226 350.9226 351.3059 353.3404 353.5420 354.3137 354.3137
   354.7758 354.7758 355.9589 355.9676 357.8178 358.6245 358.6245 358.6931
   359.1754 359.5209 359.5209 360.1992 362.4985 362.4985 362.6111 363.5404
   363.7118 364.0053 364.0053 364.6252 370.2146 370.4010 370.4010 371.5579
   372.2089 372.3882 372.3882 373.2112 376.2633 376.2633 376.3430 377.2377
   377.7412 377.7412 377.8248 378.4087 379.8832 382.6420 382.6420 382.9355
   384.3796 384.3796 384.4726 384.5443 384.5683 384.5683 384.5739 385.6660
   386.0464 386.5710 386.6136 386.6136 386.6836 386.9144 386.9144 387.3211
   387.6064 387.6064 387.7499 387.7711 387.8058 387.8277 387.8277 388.0128
   388.4488 388.4488 388.4575 388.5174 394.8524 396.0821 396.2996 396.7767
   397.1944 397.1944 398.3108 398.3108 398.9480 399.5112 399.9682 400.7024
   400.7024 401.3187 401.6622 402.0354 402.0354 402.1596 402.5684 402.5684
   403.1446 403.1892 404.8804 404.8804 405.1575 405.1575 406.1751 406.1805
   406.3456 406.4489 406.4489 406.7214 407.0797 407.5839 408.4594 408.4594
   408.8662 409.4248 410.4469 410.4952 410.6343 410.6343 411.7659 411.7659
   411.8964 411.9922 412.0795 412.2279 412.2953 412.2953 412.7066 412.9484
   412.9484 412.9716 412.9716 413.8641 414.4024 414.4024 414.5942 414.6715
   414.7082 414.7929 414.7929 414.9846 420.4412 421.8129 421.8129 422.2732
   422.2732 422.7424 423.1271 423.1500 423.9153 424.8905 425.2845 425.4223
   425.4223 426.8377 426.8377 427.8180 429.4893 429.6088 429.7557 429.7557
   430.4954 430.4954 430.6021 430.6021 431.1536 431.1546 431.6730 432.4387
   432.6379 432.6774 432.6774 432.8839 434.7669 435.1882 435.9323 435.9323
   435.9323 436.7244 436.8780 436.8780 437.4080 437.4957 438.1407 438.1407
   439.6647 439.6915 439.7496 439.7496 439.8413 439.8413 439.9150 439.9408
   451.5707 451.7175 451.7175 451.7958 452.4634 452.8893 452.9393 453.2021
   453.2021 453.4839 453.4839 454.0626 454.9500 455.7357 457.1741 457.1741
   457.8032 457.8032 457.8888 457.9425 457.9425 458.3403 458.5634 458.7419
   458.7419 459.0193 459.0444 459.1056 459.4526 459.4526 459.6419 459.8153
   459.8153 459.8805 460.8015 462.3622 462.4243 462.5971 462.5971 462.6030
   462.9198 463.5759 464.8960 464.8960 465.0849 465.0849 465.6669 465.6669
   465.8393 465.8402 465.9275 465.9904 474.8990 475.0225 475.0225 475.2358
   475.3764 476.7016 476.7016 476.8628 477.2934 478.5188 478.6941 478.6941
   478.9369 478.9369 480.1532 480.4762 480.5221 480.5221 480.7119 480.8780
   481.4225 481.4604 481.4604 482.0126 482.9237 482.9237 483.3642 483.5139
   483.5689 483.5723 483.5723 483.6324 483.6383 483.6383 483.6395 483.7258
   484.5741 484.5751 484.5751 484.6150 487.0781 487.1608 487.1608 487.3011
   488.9772 488.9845 488.9845 489.0009 495.4843 498.9327 498.9327 499.7109
   499.7109 500.4933 500.6740 500.6744 501.1094 501.7060 502.8071 502.8071
   503.1382 503.3629 503.5507 503.5507 504.0782 504.1319 506.0258 506.0258
   506.4492 506.5547 507.1414 507.1414 507.3331 507.6987 508.3055 508.5809
   508.6144 508.6144 508.8954 508.9306 508.9306 509.1334 509.1796 509.1796
   509.7081 509.8081 512.1584 512.6177 512.6177 513.5693 513.6934 513.8098
   513.8098 513.8518 514.5045 514.6327 514.6327 514.9012 515.1644 515.3145
   515.6897 515.6897 516.7645 518.1905 518.1905 520.3503 523.7046 525.5699
   531.3400 531.3400 531.4302 531.4302 531.4936 531.6299 532.9198 532.9198
   533.3541 533.3956 533.4380 533.4380 534.1073 534.7305 534.9597 534.9597
   535.0442 535.0448 535.0517 535.9164 535.9164 536.5255 536.5255 536.6880
   536.8010 536.9553 536.9590 537.9748 537.9748 538.4072 538.8133 538.8133
   539.1519 539.3234 539.4214 539.4621 539.4621 539.7016 539.8377 539.8377
   540.2327 540.2867 540.5197 540.6645 540.6645 540.7714 547.8564 548.4315
   549.2240 549.3229 549.3229 550.0518 550.0702 550.0702 550.3461 551.0712
   551.1945 551.1945 551.4404 551.4949 551.4949 551.8832 552.6319 552.6319
   552.6683 553.1269 553.4574 553.4600 553.4600 553.5659 554.2952 554.5885
   554.5902 555.0095 555.0095 555.2366 555.2366 555.5212 555.6386 557.0250
   557.0250 557.3233 557.3233 557.3770 557.6866 557.9940 558.0025 558.0025
   558.2952 558.4268 558.4344 558.4344 558.4817 558.5840 562.1061 562.2739
   562.2739 562.5663 562.6980 563.0440 563.0440 563.1823 563.2187 563.2530
   563.2530 563.5205 563.8714 563.8714 564.0445 564.0650 564.0710 564.1400
   564.1400 564.2259 564.6820 564.6820 564.7188 565.0040 566.5603 566.6660
   566.6783 566.6802 566.6802 566.8147 566.8239 566.8379 566.8379 566.9833
   567.0311 567.0311 567.0889 567.1266 567.1266 567.5135 576.9578 577.0223
   577.0223 577.3518 577.6376 578.5695 578.9021 578.9021 579.1126 579.3384
   579.6454 579.6454 579.7370 579.9177 579.9782 579.9782 586.1643 586.1702
   586.5767 586.5767 587.1144 587.1144 587.6504 588.4011 588.6435 588.8300
   588.8300 588.8968 589.1238 589.3025 589.3025 589.4445 589.5305 589.7750
   589.7750 589.8045 590.0360 590.5237 590.5237 590.6749 590.6884 590.7489
   590.7489 590.8512 590.9807 591.0514 591.0645 591.0645 598.7793 599.1007
   599.3841 601.5091 601.5091 601.9510 601.9510 604.2751 604.4175 604.4175
   605.0690 605.2165 606.1133 606.1133 606.6768 606.9946 606.9958 607.0909
   607.0909 607.4265 608.2149 609.3847 609.3981 609.6804 609.8068 609.8068
   610.1818 610.1818 610.2299 610.6225 610.7150 610.7150 610.7175 611.7235
   612.4425 612.4425 614.8387 614.8531 615.0060 615.0060 615.0160 615.0160
   615.1160 615.1188 616.2445 616.2445 616.3065 616.6918 616.6918 616.6935
   616.7010 617.0836 623.5447 624.0131 624.2382 624.5011 624.5011 625.0741
   626.3580 626.9575 627.0100 627.0100 628.9773 628.9773 629.0030 629.8014
   630.2077 630.2077 630.3550 630.5102 630.6732 630.6732 630.9563 630.9563
   631.0368 631.1438 631.3303 631.6044 631.9161 631.9161 632.7922 632.7922
   632.7956 633.4828 633.9556 634.3342 634.3350 634.7935 634.7935 634.7993
   634.8128 634.9227 634.9227 635.0454 635.1446 635.1446 635.4451 635.5946
   635.6742 635.7038 635.9754 635.9754 636.0663 636.0663 636.1299 636.1958
   636.1958 636.2181 636.4357 636.5174 641.4056 641.4056 641.4757 641.4757
   641.5893 641.5893 641.6871 642.1066 642.2228 642.5396 642.5937 642.7903
   642.7903 642.8732 648.8625 649.2040 650.4650 650.6494 650.6494 650.7278
   650.7278 651.2061 652.1246 652.4639 653.1429 653.1429 653.6080 653.9143
   654.6938 654.8678 654.8678 655.4415 656.3107 656.4658 656.4658 656.6074
   656.6159 656.6159 659.7514 659.7514 660.1711 660.3497 660.8601 660.8862
   660.8862 660.9114 664.3124 664.3394 664.5252 664.5252 664.6266 664.6960
   664.9522 664.9522 665.8632 665.8632 666.2849 666.3957 666.4581 666.5204
   666.5204 666.5439 666.7881 666.7958 666.7958 666.8283 667.1219 667.1219
   667.4880 667.6518 675.8675 676.0216 676.8091 676.8091 677.0336 677.5233
   677.5635 677.6904 677.6904 681.4742 681.7014 681.7014 682.0484 682.1035
   682.1035 682.2556 682.3150 682.3780 682.8261 682.8860 682.8860 683.0222
   683.0607 683.0607 683.2578 683.4270 683.4270 684.5128 685.4652 685.5849
   685.5849 686.4040 686.4040 686.4055 686.5041 687.2980 687.2980 688.5043
   688.6315 689.0400 690.7248 691.2275 691.2275 691.3816 691.3895 691.4304
   691.4330 691.4330 691.4874 691.7003 691.8509 691.8811 691.9551 691.9551
   692.2459 692.2459 692.3752 692.4300 692.4300 692.4934 692.7044 692.7473
   692.9473 693.0215 693.0215 693.0495 693.0611 693.1149 693.1149 693.1307
   693.1307 693.7516 693.7516 693.9703 693.9735 694.0835 694.1052 697.0559
   697.0559 700.8799 703.5124 703.5154 704.1645 704.1645 704.3663 704.3825
   704.3825 706.3252 706.5676 706.7184 708.0272 708.0272 708.2599 708.2599
   708.6213 708.9285 709.0145 709.2505 709.4390 709.4390 709.5984 709.6227
   709.6227 709.7145 713.5067 713.7971 713.7971 714.2907 714.3031 714.3031
   714.3154 714.9159 715.3823 715.4898 715.4898 715.6651 715.7030 715.9195
   716.2583 716.2583 716.6439 716.8120 716.8607 716.8607 716.9162 716.9162
   716.9204 716.9232 717.2880 717.4886 717.5061 717.6911 717.6911 718.0488
   718.0488 718.3981 728.4984 728.8196 728.8894 728.8894 729.1684 730.0540
   730.0540 730.0802 730.1714 730.4188 730.5403 730.5403 730.5417 730.5655
   731.4290 731.6648 731.6648 731.9203 731.9203 731.9366 732.1003 732.4343
   733.6039 733.6039 733.8841 734.9191 734.9191 735.2669 735.2669 735.3823
   735.4015 736.2155 736.8254 736.8437 736.8437 736.9720 736.9720 737.2019
   737.2895 737.4949 738.9160 740.0864 740.0864 740.1915 740.1915 740.3824
   740.7387 741.2461 741.2760 741.3859 741.3859 741.4013 741.4494 741.7788
   741.7788 741.9983 744.3159 744.3159 744.3653 744.6026 744.6105 744.6168
   744.6168 744.6427 752.5185 752.8594 752.8594 753.3228 753.4235 754.5919
   754.5919 755.2017 755.3240 755.3408 755.4548 756.3373 756.3373 756.5653
   756.5653 756.8061 756.8064 757.5638 757.5924 758.0580 758.4233 758.4233
   758.4408 758.6909 758.7633 758.7796 758.7796 760.0380 760.8177 760.8177
   761.8140 761.9978 761.9978 762.0183 762.0391 762.3052 762.3052 762.4046
   762.5686 762.5732 762.6969 762.6970 762.8309 763.2567 765.3223 765.3223
   767.9366 767.9465 767.9560 767.9560 767.9691 767.9691 768.0711 768.0760
   768.2351 768.2835 768.3411 768.3571 768.3571 768.6291 768.6291 768.7200
   768.8160 768.8160 768.8927 769.0635 775.7992 777.8591 778.9252 779.2281
   779.6605 779.6605 779.7751 780.7220 780.9080 780.9080 781.6060 782.1632
   782.1632 782.4968 782.7960 783.0929 783.0929 783.1890 783.2879 783.2879
   783.3713 784.0900 784.0900 784.4307 784.8541 784.9122 784.9122 785.2911
   785.3138 785.3138 785.6975 785.9269 786.0629 786.0629 786.4007 786.4100
   786.4100 787.1143 787.1660 787.2949 787.3428 787.3428 787.4348 787.4981
   787.5594 787.5594 787.6139 787.6899 788.6546 788.8383 788.8383 788.8745
   788.9148 789.3214 789.3214 789.4345 789.4345 789.7921 789.9345 789.9345
   789.9360 790.1232 790.1304 790.1655 790.2771 790.3578 790.3578 790.4398
   790.4625 790.4625 790.4862 790.5470 790.5475 790.5475 790.6132 790.6332
   790.6332 790.6563 790.6652 791.4355 791.6820 791.8101 793.5863 793.5863
   794.0138 794.0241 794.0257 794.1715 794.1720 794.1720 794.2344 794.2344
   794.2373 794.3142 794.3274 794.3623 794.3623 794.7748 795.3957 795.3957
   808.3610 808.9371 809.1810 809.1810 809.2462 809.4413 809.5190 809.5548
   809.6234 809.7406 809.7406 809.9970 809.9970 810.2299 810.2299 810.3511
   810.3511 810.7614 810.8221 810.8478 810.8478 810.8730 810.8774 810.9464
   810.9464 811.3945 811.3945 811.4092 811.4671 811.6179 811.6533 811.6604
   811.7178 811.7456 811.7456 811.7765 812.1668 812.1924 812.1924 812.2758
   812.3297 812.3297 812.3646 812.7053 814.8468 815.1084 815.1827 815.1827
   815.6605 816.2281 816.5446 816.5446 817.7911 817.8963 817.8963 818.0550
   821.0292 821.0292 821.0718 821.1096 825.3138 825.7456 825.7456 826.1488
   826.2225 826.8545 826.8545 830.0605 833.5072 833.6574 835.4721 835.4721
   835.5068 835.5157 835.7255 835.7255 835.9666 835.9703 836.1710 836.1710
   836.3365 836.5224 836.5224 836.7153 838.0760 839.2990 839.4311 839.4311
   839.7650 840.7062 840.7062 841.2593 841.4504 841.6169 841.7288 841.7434
   841.7434 841.8637 841.9251 841.9251 842.0351 842.0351 842.1493 842.3460
   842.4643 842.5987 842.6601 842.6601 842.7112 842.7112 842.7200 842.8328
   842.9994 842.9994 843.1165 843.1165 843.1632 843.3427 843.4926 843.8387
   843.8425 843.8827 843.8827 843.9188 845.4188 845.4201 845.6442 845.6442
   845.6619 845.6619 845.7834 845.7841 858.4576 858.6192 858.6230 858.9000
   858.9000 859.3217 859.3312 859.4603 859.4603 859.7252 860.0256 860.0256
   860.2198 860.2198 860.8426 860.8439 861.3122 861.4588 861.4795 861.4795
   862.3538 862.3538 862.4479 862.5930 862.6951 862.7875 862.8008 862.9962
   862.9962 863.8251 864.0484 864.0484 864.0555 864.1372 864.1644 864.1644
   864.5358 864.6077 864.6657 864.7915 864.7915 864.9886 864.9886 865.2984
   865.3258 865.5846 865.5846 865.8489 869.2518 869.2884 869.3934 869.3934
   869.4098 869.4098 869.5119 869.5202 869.9111 870.0082 870.0082 870.0323
   870.1770 870.1770 870.3963 870.4064 879.9784 880.0446 880.0446 880.4568
   880.4872 880.5081 880.6544 880.7425 880.7425 880.8330 880.9637 880.9974
   880.9974 881.2462 881.5721 882.3942 882.3942 883.0799 883.0799 883.3345
   883.3345 884.3867 884.7112 884.7283 887.7231 887.7406 888.8315 888.8315
   888.8500 888.8500 889.4927 889.4927 894.0151 894.0151 894.0823 894.1804
   894.2744 894.5178 894.5551 894.6081 894.6081 894.6666 894.6666 894.7965
   894.8505 894.8600 894.9001 894.9001 895.7542 895.7652 895.8111 895.8111
   895.8245 896.2492 896.2492 897.7519 901.3631 901.6945 903.2592 903.2592
   904.3802 905.6479 905.6479 905.7659 906.4429 906.5117 906.5387 906.5387
   906.6033 906.9890 907.4258 907.8805 907.8805 908.3950 909.0268 909.1237
   909.1237 909.2332 914.0862 914.0862 914.0984 914.1860 916.0828 916.1378
   916.2331 916.2331 916.2602 916.4472 916.4472 916.4533 916.5292 916.5292
   916.6299 916.6828 916.7258 917.2053 917.2053 917.4449 917.8730 917.9207
   917.9207 918.1458 918.3415 918.3888 918.4708 918.5172 918.5172 918.5888
   918.6285 918.6285 918.8028 918.8028 918.8362 919.0230 919.0732 919.4158
   919.4158 919.8019 919.8019 919.8259 919.8259 919.8518 919.8518 919.8592
   919.8594 919.8788 919.9322 919.9369 920.0379 920.0498 920.0498 920.0753
   920.0753 920.5265 921.4570 921.6561 922.1063 922.1128 922.1128 922.1180
   922.2029 922.2029 922.2139 922.2153 928.7978 929.3331 929.3331 929.8895
   929.8895 930.0055 930.4055 930.7625 932.0478 932.1238 932.5683 932.6123
   932.9306 932.9306 933.3045 933.3045 933.4294 933.4294 934.5351 934.6929
   934.7660 934.8746 934.9112 934.9112 934.9379 935.0010 935.5141 935.5141
   935.7412 935.7412 936.0437 936.0725 937.7297 937.7678 937.7678 937.9294
   937.9380 938.1090 938.1090 938.2672 939.3911 939.3911 939.3930 939.4195
   939.4639 939.4981 939.4981 939.5271 939.6174 939.6174 939.7916 939.8497
   939.9318 939.9318 939.9523 939.9667 940.2990 940.4884 940.6104 940.6104
   940.6734 940.6734 940.7765 941.0173 943.4681 943.4681 943.4826 943.5213
   943.6861 943.6937 943.6937 943.7701 944.3549 944.3639 944.3639 944.3798
   944.4085 944.4218 944.4218 944.4351 944.7169 944.7310 944.7310 944.7393
   944.7440 944.7440 944.7743 944.8525 947.3197 947.3226 947.5642 947.5731
   947.5731 947.6271 947.6271 947.7858 956.8876 957.0568 957.2694 957.2736
   957.2736 957.4798 957.5773 957.7905 957.7905 957.9516 959.3965 959.4116
   959.4672 959.4672 959.5229 959.5229 959.9191 959.9618 960.3543 960.3543
   960.4004 960.4004 961.3824 961.5592 961.7068 961.7094 961.7094 961.8428
   962.1658 962.1658 962.2099 962.2510 962.4405 962.4917 962.5489 962.5489
   962.6220 962.6220 962.6810 962.6959 963.1554 963.1560 963.5443 963.5443
   963.6028 963.6028 963.8489 963.9729 965.2816 965.3685 966.2513 966.2513
   966.2645 966.2645 968.9446 968.9463 970.6006 970.6075 970.7007 970.7007
   970.7077 970.7077 970.8329 970.8339 971.1587 971.1929 971.2388 971.2388
   971.3574 971.3585 971.3585 971.3588 971.4713 972.0099 972.2014 972.2014
   972.2444 972.2444 972.9285 972.9293 984.1933 984.3391 984.5070 984.5070
   985.8323 985.9153 985.9153 985.9922 985.9922 986.0701 986.1560 986.1667
   986.2278 986.2278 986.4924 986.4966 987.2202 987.2770 987.2770 987.2887
   988.1948 988.2415 988.2415 988.2983 991.3371 991.4136 991.8373 991.8373
   991.8568 991.8568 991.9880 992.0846 992.1545 992.1545 992.1799 992.1810
   992.2836 992.2836 992.3752 992.4497 992.6198 992.6869 992.8038 992.8038
   992.8216 992.8216 992.9071 992.9225 997.1605 997.1605 997.1874 997.2103
   997.2994 997.3042 997.3042 997.3313 999.2652 999.3502 999.6797 999.6797
  1005.06391005.06391005.08151005.31411005.71651005.87241005.87241005.9673
  1007.62001007.70491007.70491007.81201009.04231009.05901009.07961009.0796
  1010.35141010.41701010.41701010.54801010.78381010.80161010.80161010.8066
  1011.48601011.55651011.97501011.97501012.07301012.07301012.54071012.5457
  1012.79441013.10041013.36761013.36761013.43151013.43151013.46201013.4855
  1013.65151013.65261013.82791013.82791013.84181013.84181014.42201014.4427
  1014.45791014.45901015.01141015.01141015.02431015.02431015.31651015.3167
  1015.75641015.79771015.79771015.86371016.08841016.08841016.11571016.1714
  1018.96371018.97611019.47591019.47591019.54961019.54961019.71881019.7634
  1019.87121019.90451020.12661020.12661020.23641020.23641020.84631021.1012
  1021.43911021.50811021.50811021.62351021.71471021.81081021.81081021.8469
  1021.84791021.89721021.89721021.97661021.99661021.99661022.03441022.2492

     the Fermi energy is     7.6559 ev
     (compare with:     6.6145 eV, computed in scf)

     Writing all to output data dir out/mp-422.save/
 
     init_run     :      0.07s CPU      0.08s WALL (       1 calls)
     electrons    :   1555.37s CPU   1670.40s WALL (       1 calls)

     Called by init_run:
     wfcinit      :      0.00s CPU      0.00s WALL (       1 calls)
     potinit      :      0.02s CPU      0.02s WALL (       1 calls)
     hinit0       :      0.01s CPU      0.01s WALL (       1 calls)

     Called by electrons:
     c_bands      :   1555.36s CPU   1670.40s WALL (       1 calls)
     v_of_rho     :      0.01s CPU      0.01s WALL (       1 calls)

     Called by c_bands:
     init_us_2    :      0.00s CPU      0.00s WALL (       3 calls)
     init_us_2:cp :      0.00s CPU      0.00s WALL (       3 calls)
     paro_k       :   1503.01s CPU   1613.87s WALL (       3 calls)

     Called by paro_*:
     h_psi        :     12.72s CPU     13.13s WALL (     508 calls)
     g_psi        :      0.21s CPU      0.25s WALL (   52724 calls)

     Called by h_psi:
     h_psi:calbec :      0.17s CPU      0.18s WALL (     508 calls)
     vloc_psi     :     12.37s CPU     12.75s WALL (     508 calls)
     add_vuspsi   :      0.11s CPU      0.11s WALL (     508 calls)

     General routines
     calbec       :      0.17s CPU      0.17s WALL (     508 calls)
     fft          :      0.01s CPU      0.01s WALL (      10 calls)
     fftw         :     11.23s CPU     11.57s WALL (   86984 calls)
 
     Parallel routines
 
     PWSCF        :  25m56.06s CPU  27m51.60s WALL

 
   This run was terminated on:  21:55:20   7Dec2023            

=------------------------------------------------------------------------------=
   JOB DONE.
=------------------------------------------------------------------------------=
