
     Program PWSCF v.7.1 starts on  7Dec2023 at 22: 6:18 

     This program is part of the open-source Quantum ESPRESSO suite
     for quantum simulation of materials; please cite
         "P. Giannozzi et al., J. Phys.:Condens. Matter 21 395502 (2009);
         "P. Giannozzi et al., J. Phys.:Condens. Matter 29 465901 (2017);
         "P. Giannozzi et al., J. Chem. Phys. 152 154105 (2020);
          URL http://www.quantum-espresso.org", 
     in publications or presentations arising from this work. More details at
     http://www.quantum-espresso.org/quote

     Parallel version (MPI), running on     8 processors

     MPI processes distributed on     1 nodes
     121787 MiB available memory on the printing compute node when the environment starts
 
     Reading input from pw_mp-422_nscf_k60_E122.in
Warning: card &IONS ignored
Warning: card / ignored
Warning: card &CELL ignored
Warning: card / ignored

     Current dimensions of program PWSCF are:
     Max number of different atomic species (ntypx) = 10
     Max number of k-points (npk) =  40000
     Max angular momentum in pseudopotentials (lmaxx) =  4

     Atomic positions and unit cell read from directory:
     out/mp-422.save/
     Atomic positions from file used, from input discarded
 
 
     R & G space division:  proc/nbgrp/npool/nimage =       8
     Subspace diagonalization in iterative solution of the eigenvalue problem:
     one sub-group per band group will be used
     scalapack distributed-memory algorithm (size of sub-group:  2*  2 procs)

 
     Parallelization info
     --------------------
     sticks:   dense  smooth     PW     G-vecs:    dense   smooth      PW
     Min         177     177     52                 4444     4444     690
     Max         178     178     53                 4448     4448     691
     Sum        1417    1417    421                35557    35557    5521
 
     Using Slab Decomposition
 


     bravais-lattice index     =            2
     lattice parameter (alat)  =       9.2035  a.u.
     unit-cell volume          =     194.8967 (a.u.)^3
     number of atoms/cell      =            2
     number of atomic types    =            2
     number of electrons       =        10.00
     number of Kohn-Sham states=         2200
     kinetic-energy cutoff     =     122.0000  Ry
     charge density cutoff     =     488.0000  Ry
     Exchange-correlation= PBE
                           (   1   4   3   4   0   0   0)

     celldm(1)=   9.203539  celldm(2)=   0.000000  celldm(3)=   0.000000
     celldm(4)=   0.000000  celldm(5)=   0.000000  celldm(6)=   0.000000

     crystal axes: (cart. coord. in units of alat)
               a(1) = (  -0.500000   0.000000   0.500000 )  
               a(2) = (   0.000000   0.500000   0.500000 )  
               a(3) = (  -0.500000   0.500000   0.000000 )  

     reciprocal axes: (cart. coord. in units 2 pi/alat)
               b(1) = ( -1.000000 -1.000000  1.000000 )  
               b(2) = (  1.000000  1.000000  1.000000 )  
               b(3) = ( -1.000000  1.000000 -1.000000 )  


     PseudoPot. # 1 for Be read from file:
     /usr/scratch4/magr4985/MG/HTDF/pseudo/SG15/Be.upf
     MD5 check sum: dc1f98d164da9dc61a6fd2fad64b4ce2
     Pseudo is Norm-conserving, Zval =  4.0
     Generated using ONCVPSP code by D. R. Hamann
     Using radial grid of  602 points,  4 beta functions with: 
                l(1) =   0
                l(2) =   0
                l(3) =   1
                l(4) =   1

     PseudoPot. # 2 for S  read from file:
     /usr/scratch4/magr4985/MG/HTDF/pseudo/SG15/S.upf
     MD5 check sum: f9d020296ee6110346977bfd66d424f6
     Pseudo is Norm-conserving, Zval =  6.0
     Generated using ONCVPSP code by D. R. Hamann
     Using radial grid of  602 points,  4 beta functions with: 
                l(1) =   0
                l(2) =   0
                l(3) =   1
                l(4) =   1

     atomic species   valence    mass     pseudopotential
        Be             4.00     9.01220     Be( 1.00)
        S              6.00    32.06500     S ( 1.00)

     24 Sym. Ops. (no inversion) found



   Cartesian axes

     site n.     atom                  positions (alat units)
         1           Be  tau(   1) = (   0.0000000   0.0000000   0.0000000  )
         2           S   tau(   2) = (  -0.7500000   0.7500000   0.7500000  )

     number of k points=     8  Gaussian smearing, width (Ry)=  0.0005
                       cart. coord. in units 2pi/alat
        k(    1) = (   0.0000000   0.0000000   0.0000000), wk =   0.0312500
        k(    2) = (  -0.2500000   0.2500000  -0.2500000), wk =   0.2500000
        k(    3) = (   0.5000000  -0.5000000   0.5000000), wk =   0.1250000
        k(    4) = (   0.0000000   0.5000000   0.0000000), wk =   0.1875000
        k(    5) = (   0.7500000  -0.2500000   0.7500000), wk =   0.7500000
        k(    6) = (   0.5000000   0.0000000   0.5000000), wk =   0.3750000
        k(    7) = (   0.0000000  -1.0000000   0.0000000), wk =   0.0937500
        k(    8) = (  -0.5000000  -1.0000000   0.0000000), wk =   0.1875000

     Dense  grid:    35557 G-vectors     FFT dimensions: (  45,  45,  45)

     Estimated max dynamical RAM per process >     318.09 MB

     Estimated total dynamical RAM >       2.49 GB

     The potential is recalculated from file :
     out/mp-422.save/charge-density

     Starting wfcs are random

     Band Structure Calculation
     ParO style diagonalization

     ethr =  5.00E-06,  avg # of iterations =  5.8

     total cpu time spent up to now is     4560.3 secs

     End of band structure calculation

          k = 0.0000 0.0000 0.0000 (  4477 PWs)   bands (ev):

   -93.6687  -8.1265   5.4807   5.4807   5.4807  11.1832  11.1832  11.1832
    11.2609  18.2746  18.2746  20.3276  22.0093  22.0093  22.0093  27.1144
    34.1439  34.1439  34.1439  38.6664  38.6664  38.6664  40.1657  40.1657
    45.4231  45.4231  45.4231  54.6643  54.6643  54.6643  54.9853  55.4263
    55.4263  56.9995  56.9995  56.9995  61.6198  61.6198  61.6198  65.1236
    65.2558  65.2558  65.2558  65.3773  65.3773  65.3773  65.5729  65.5729
    66.2760  66.2760  66.2760  70.9142  71.1359  71.1359  71.1359  73.3079
    73.3079  73.3079  76.2782  83.5156  89.1350  89.1350  91.6832  91.6832
    91.6832  94.9596  94.9596  94.9596  96.6335  99.7497 102.6687 102.6687
   105.2166 105.2166 105.2166 105.4358 105.4358 105.4358 109.2667 109.2667
   109.2667 114.0595 114.0595 114.0595 115.4387 115.4387 115.4387 115.6578
   115.6578 116.9838 117.0346 117.0346 118.6238 118.6238 118.6238 121.2460
   121.2460 121.2460 122.0763 122.0763 122.0763 122.5002 122.5002 122.5002
   123.9028 123.9028 123.9028 124.1297 125.0804 125.1554 125.1554 125.1554
   125.2311 125.2311 134.4444 134.4444 134.4444 137.9499 139.3628 139.3628
   140.6392 140.6392 140.6392 144.0182 144.0182 144.0182 145.2657 145.2657
   145.2657 145.9451 145.9451 145.9451 146.4746 146.4746 146.4746 147.1712
   147.1712 148.8626 155.9433 155.9433 159.1538 159.8696 159.8696 159.8696
   161.8759 161.8759 161.8759 162.5693 162.5693 162.5693 163.9094 165.9069
   165.9069 165.9069 165.9287 166.1037 166.1037 166.1037 166.4488 166.4488
   166.4488 166.6379 166.6379 166.7487 166.7487 166.7487 167.1356 167.1356
   167.1356 178.3808 181.4532 181.4532 181.4532 185.0995 185.0995 187.2137
   187.2137 187.2137 188.6075 189.0304 189.0304 189.0304 196.9059 196.9059
   196.9059 201.9117 201.9117 202.2056 202.2056 202.2056 204.7907 206.6822
   206.6822 206.6822 207.4058 207.4058 207.4058 210.6429 210.6429 210.6429
   211.1663 211.1663 211.1663 211.8995 211.8995 213.3871 214.4572 214.4572
   214.7931 214.7931 214.7931 214.8175 214.8175 214.8175 216.0049 216.0049
   216.0049 216.4002 216.9320 216.9320 216.9320 217.6167 217.6167 217.6167
   217.6558 217.6558 218.4197 218.4197 218.4197 218.9490 218.9490 218.9490
   219.3417 219.6171 220.3801 220.3801 220.3801 220.7877 220.7877 221.6437
   221.6437 221.6437 221.9140 224.9274 224.9274 224.9274 225.0280 225.0280
   225.1964 225.1964 225.1964 225.3016 225.3016 225.3016 225.6211 225.6211
   225.6298 225.6298 225.6298 236.5539 236.9910 236.9910 236.9910 238.4380
   238.4380 244.5087 244.5087 244.5087 245.7006 245.7006 245.7006 246.3638
   246.3638 246.3638 246.7640 246.7640 246.7640 250.0305 250.0305 250.0800
   250.0800 250.0800 250.1684 251.1587 251.6563 251.6563 251.6563 253.5913
   253.5913 253.5913 254.3112 261.3956 261.3956 261.4917 261.4917 261.4917
   263.1722 263.1722 263.1722 263.9020 263.9020 263.9020 263.9978 263.9978
   263.9978 264.8082 264.8082 268.3251 269.5702 269.5702 269.5702 272.3501
   272.3501 272.7232 272.7232 272.7232 273.4842 273.4842 273.4842 273.7019
   273.8513 273.8513 273.8513 273.9998 273.9998 273.9998 274.5719 274.5719
   274.5719 274.8758 274.8758 288.1313 288.1313 288.1313 289.8515 291.2715
   291.2715 291.2715 294.9004 294.9004 295.4510 297.9778 297.9778 297.9778
   298.5943 298.5943 298.5943 299.0304 299.8883 299.8883 299.8883 305.7531
   305.7531 305.7531 305.9602 305.9602 308.5848 310.6112 310.6112 310.6112
   312.3530 315.8750 315.8750 315.8750 316.0056 316.0056 316.0056 316.2246
   316.2246 316.8552 316.9963 316.9963 316.9963 317.0642 317.0642 317.0642
   317.5630 317.5630 317.5630 317.7153 317.7153 317.7153 318.0211 318.0211
   318.0211 319.0646 319.0646 323.0502 323.0502 323.0991 323.0991 323.0991
   323.3390 323.3390 323.3390 323.3908 323.3908 323.3908 323.4625 325.5253
   325.5253 325.5253 325.6056 326.3869 326.3869 326.3869 326.4859 326.4859
   326.4859 326.5091 326.5091 331.6655 331.6655 331.6655 332.6680 334.9832
   334.9832 334.9832 336.1866 339.9437 339.9437 341.1050 341.1050 341.1050
   341.2777 341.2777 341.2777 342.9389 342.9389 342.9389 343.0466 343.0466
   343.0466 344.2901 344.2901 347.6225 347.6225 348.1971 348.1971 348.1971
   348.5647 348.5648 348.5648 348.7230 348.7230 348.7230 349.3183 349.3183
   349.3183 349.6226 349.6226 350.1282 350.7326 350.7326 350.7326 351.0978
   351.0978 351.0978 351.3800 356.5819 356.5819 356.5819 358.2125 359.5504
   359.5504 360.5441 360.5441 360.5441 361.4470 362.3924 362.3924 362.3924
   363.6302 363.7183 363.7183 363.7183 364.2625 364.2625 364.2625 364.6593
   364.6593 364.6593 365.0245 365.0245 365.0245 366.7816 366.7816 366.7816
   367.5179 367.5179 367.6211 367.7033 367.7033 367.7033 368.0024 368.4702
   368.4702 369.1281 369.1281 369.1281 369.1974 369.1974 369.1974 369.5270
   369.5270 369.5819 369.5819 369.5819 369.8958 369.8958 369.8958 370.0715
   370.0715 370.0814 370.0814 370.0814 370.2709 370.2709 370.2709 370.3756
   370.3756 370.3756 370.7258 370.7258 370.7258 370.9298 371.1006 371.1006
   371.1006 371.1544 371.1544 393.8854 393.8854 394.5938 394.7500 394.7500
   394.7500 403.8719 403.8719 403.8719 404.0868 404.8305 404.8305 404.8305
   407.2285 408.6346 408.6346 410.5632 410.5632 410.5632 411.3566 411.3566
   411.3566 413.0173 413.0173 413.0173 413.0387 413.0387 413.0387 414.9806
   414.9806 417.1794 418.4784 418.4784 418.4784 419.3494 419.3494 420.3105
   420.3105 420.3105 422.3105 422.6167 422.6167 422.6167 422.8158 423.9709
   423.9709 423.9709 424.0034 424.0034 424.0034 424.1596 424.1596 424.1596
   424.4036 424.4036 424.4036 426.8386 426.8386 426.9410 426.9410 426.9410
   427.1849 427.1849 427.1849 427.3748 427.3797 427.3797 427.3797 427.3811
   427.3811 427.3988 427.3988 427.3988 427.4396 427.4396 427.4396 427.6073
   427.6073 435.9234 435.9234 435.9234 436.0796 436.0796 436.0796 436.4075
   436.5340 436.5340 437.3655 437.3655 437.3655 445.8592 445.8592 445.8592
   446.8250 446.8250 447.6686 448.5393 448.5393 448.5393 448.9353 448.9353
   448.9353 449.0646 449.0646 449.0646 449.3641 449.3641 449.3641 450.1556
   450.3877 450.3877 450.3877 450.4881 450.4881 457.5928 457.5928 457.5928
   458.4087 458.9916 458.9916 458.9916 459.6593 459.6593 459.6593 460.1141
   460.1141 461.3847 463.4956 463.4956 463.4956 464.2051 464.2051 464.2051
   465.6082 465.6082 465.6082 465.7442 465.7442 466.0731 466.0731 466.2537
   466.2537 466.2537 466.4765 466.4765 466.4765 466.6472 466.6472 466.6472
   466.8936 466.9567 466.9567 466.9567 467.8676 468.9023 469.1427 469.1427
   469.1427 471.2569 471.2569 471.2569 471.2692 471.2692 471.2692 471.3300
   471.3300 471.3300 471.4024 471.4267 471.4267 476.1317 476.1317 476.1317
   477.1307 477.1307 477.1307 477.1376 477.2269 477.2269 477.4581 477.4581
   477.4581 477.9195 477.9213 477.9213 477.9213 477.9490 477.9490 477.9506
   477.9506 477.9506 478.1261 478.1261 478.1261 492.4937 492.4937 493.0448
   495.9120 495.9120 495.9120 496.8736 496.8736 496.8736 498.0057 498.0057
   498.0057 498.6230 498.6230 498.6230 498.7203 498.7203 498.7203 499.8049
   499.8049 499.9979 499.9979 499.9979 500.1816 503.5850 503.5850 503.5850
   504.3775 506.0463 507.2992 507.2992 507.2992 507.6627 507.6627 509.4468
   509.7755 509.7755 509.7755 510.5790 510.5790 510.5790 511.2836 511.2836
   511.2836 511.4592 511.4592 511.4592 512.5551 512.5551 512.9546 512.9546
   512.9546 513.1853 513.1853 518.3667 518.3667 518.3667 518.4321 518.4321
   518.4358 518.4358 518.4358 518.4529 518.4529 518.4529 518.8070 518.8070
   518.8070 518.9218 518.9218 519.8616 519.8616 519.8616 520.4881 520.4881
   520.4881 520.5438 520.5438 520.5438 520.6163 520.7213 520.7213 520.7213
   520.8575 520.8575 520.8575 520.9322 520.9322 520.9322 521.0416 521.0624
   521.0624 521.0624 521.2274 522.0752 522.0752 523.9028 523.9028 523.9028
   525.3927 525.9297 525.9297 525.9780 525.9780 525.9780 526.0499 526.0499
   526.0499 526.2901 526.2901 526.2901 526.3487 526.3487 526.3487 526.6332
   526.6332 526.6332 526.6596 527.2653 527.2653 528.1560 528.1560 528.2786
   528.2786 528.2786 528.5687 528.7077 528.7077 528.7077 528.8066 528.8066
   528.8066 528.8661 528.8661 528.8661 529.0121 529.0121 529.0121 529.1586
   529.1586 529.3034 529.3034 529.3034 529.4272 544.4158 544.4158 544.4158
   545.0139 545.3761 546.2770 546.2770 546.2770 552.7655 552.7655 552.7704
   552.7704 552.7704 552.8213 552.8213 552.8213 552.9407 552.9407 552.9407
   552.9652 552.9652 552.9652 552.9695 552.9695 559.3007 559.3007 559.6047
   562.4303 562.4303 562.4303 564.2728 564.2728 564.2728 564.5393 564.5393
   564.5393 565.0623 565.0623 565.0623 566.1868 566.1868 566.1868 569.3861
   569.3861 569.3861 569.7052 569.7052 569.8473 569.8473 569.8473 570.0785
   571.1066 571.7659 571.7659 572.6148 572.6148 572.6148 572.6326 572.6326
   572.6326 572.7731 572.7731 572.7731 572.9113 572.9113 572.9113 573.5528
   573.5528 573.5528 573.5531 573.5566 573.5566 588.4106 589.9796 589.9796
   589.9796 593.2466 594.3401 594.3401 594.3437 594.3437 594.3437 596.2820
   596.2820 596.2820 597.0621 597.0621 597.0621 597.5154 597.5154 597.5154
   598.0896 598.0896 598.9421 598.9421 598.9421 602.6239 602.6239 602.6239
   602.6241 602.6241 603.7859 603.7859 603.7859 605.3458 607.6860 607.6860
   607.6860 613.8307 614.4272 614.4272 614.4272 614.8080 614.8080 614.8080
   615.7777 615.7777 615.9402 617.7583 618.4563 618.4563 618.4563 619.1887
   619.1887 619.1887 619.5048 619.5048 619.5048 619.5201 619.5201 619.5201
   620.2840 620.2840 620.2840 620.4141 620.4141 620.7666 620.7666 620.7666
   621.0102 621.0102 621.0877 621.0877 621.0877 621.2652 621.2652 621.2652
   621.3309 621.7808 621.7808 621.7808 622.3930 622.9812 622.9812 622.9812
   623.0692 623.0692 623.0814 623.0814 623.0814 623.1666 623.1666 623.2742
   623.2742 623.2742 623.3239 623.3239 623.3240 624.6783 624.8017 624.8017
   625.0942 625.0942 625.0942 627.1129 627.1160 627.1160 627.1160 627.1298
   627.1298 627.1298 627.2532 627.2532 627.2532 627.2795 627.2795 630.6572
   630.6572 630.6572 630.6883 630.6883 630.7025 630.7025 630.7025 630.8008
   630.8688 630.8688 630.8688 643.0609 643.6786 643.6786 644.5647 644.5647
   644.5647 644.8154 644.8154 644.8154 645.0354 645.0354 645.0354 645.5125
   645.5125 645.9571 646.4826 646.8721 646.8721 646.8721 647.5969 647.5969
   647.5969 647.8807 647.8807 647.8807 648.0371 648.0371 649.3756 649.3756
   649.3756 649.7206 649.7206 649.7206 650.3624 650.3624 650.3624 650.5745
   650.5745 650.5745 651.4452 651.4452 651.4778 651.9630 651.9630 651.9630
   652.6326 652.6326 652.6326 652.7205 652.7205 652.7205 652.9399 652.9399
   652.9399 653.4262 653.4262 653.4411 653.4411 653.4411 653.5558 653.5558
   653.5558 653.6311 653.6311 653.6311 653.7064 655.5273 655.5273 655.5620
   655.5620 655.5620 655.6257 667.6580 667.8421 667.8421 668.0163 668.0163
   668.0163 668.1237 668.1237 668.1237 668.3110 668.3110 668.3110 668.5299
   668.5299 668.5299 669.0350 669.0350 669.0822 669.0822 669.0822 669.4434
   669.4434 669.4434 669.5440 669.8193 670.2326 670.2326 670.2326 670.5424
   671.4151 671.4151 671.4438 671.4438 671.4438 671.6644 671.6644 671.6644
   672.0025 672.0025 672.0025 672.3753 672.3753 672.3753 672.4821 672.4821
   672.6186 672.6186 672.6186 673.6001 673.6001 673.6001 673.6840 673.6840
   673.6840 673.6866 673.6866 673.6866 673.7482 673.8293 673.8293 673.8293
   673.8714 673.8714 674.5115 674.5115 674.5115 674.5273 674.5347 674.5347
   674.5347 674.5468 674.5468 676.5228 676.8979 676.8979 676.8979 677.2131
   677.2131 677.2405 677.2405 677.2405 677.6173 677.6173 677.6173 677.6731
   677.7028 677.7028 677.7028 677.7749 677.7749 677.7749 677.8226 677.8226
   677.8226 678.0289 678.3135 678.3135 678.3135 678.7027 678.7027 678.7027
   678.8260 678.8260 679.0640 706.3933 707.4427 707.4427 707.4427 708.4638
   710.0776 710.0776 710.7351 710.7351 710.7351 711.4728 711.4728 711.4728
   712.2307 712.2307 712.2307 712.7304 712.7304 712.7304 714.0407 714.0407
   717.7940 717.7940 717.7940 720.1667 720.1667 720.5380 720.5380 720.5380
   720.8720 720.8720 720.8720 721.0476 721.0476 721.0476 721.2578 721.2578
   721.2578 721.5430 721.5430 721.7094 721.9793 721.9793 721.9793 722.2032
   722.2032 722.2032 722.3889 724.2788 725.6755 725.6755 725.6755 725.7150
   725.7150 726.2522 726.2522 726.2522 727.2415 727.2415 727.2415 727.2581
   727.2581 727.2581 727.4005 727.4657 727.4657 727.4657 727.7805 727.7805
   727.7805 728.1179 728.1179 728.1973 728.1973 728.1973 728.2881 728.6101
   728.6101 728.8780 728.8780 728.8780 728.9422 728.9422 728.9422 729.1178
   729.4683 729.4683 729.4683 729.6035 729.6035 729.6035 729.7685 729.7685
   729.9007 729.9007 729.9007 731.8136 731.8136 731.8136 731.8213 731.8213
   731.8288 731.8288 731.8288 731.8683 731.8683 731.8683 731.9171 731.9171
   731.9171 731.9286 731.9286 733.0487 733.0487 733.0487 733.0498 733.0524
   733.0524 733.0524 733.0615 748.5007 748.5007 748.6076 749.9638 749.9638
   749.9638 750.2996 750.2996 750.2996 750.4783 750.4783 750.4783 750.7335
   750.7335 750.7335 751.8876 751.8876 751.9212 751.9212 751.9212 752.0586
   752.1477 752.1477 752.1477 754.9173 754.9173 754.9696 754.9696 754.9696
   755.0813 755.8295 755.8295 755.8295 755.8692 755.8692 755.8692 755.8985
   755.8985 755.8985 755.9168 755.9168 755.9168 756.4319 756.4319 756.4441
   756.4441 756.4441 756.4665 762.2921 762.4091 762.4091 762.6342 762.6342
   762.6342 765.6079 765.6079 765.6079 765.9378 766.2420 769.0329 769.0329
   769.0329 774.0765 774.0765 774.0765 774.1739 774.1739 774.1739 774.2129
   774.2129 774.2536 774.2536 774.2536 774.2912 774.2912 774.2912 774.4184
   774.4184 774.4184 774.4486 774.4486 774.4486 774.5629 774.5629 774.6849
   774.6849 774.6849 774.6859 774.6859 774.6859 775.3958 775.3958 775.3958
   775.7429 775.9917 775.9917 788.1985 788.3214 788.3214 788.3214 788.4374
   788.4374 788.4486 788.4486 788.4486 796.3576 796.3576 796.3576 809.2460
   809.2460 809.2558 810.6220 810.6220 810.6220 811.1421 811.1421 811.1421
   811.9309 812.2937 812.2937 812.2937 813.3717 813.3717 813.3717 814.5125
   814.5125 814.6541 814.6541 814.6541 815.7340 816.4738 816.4738 816.4738
   816.5295 816.5295 816.5295 816.9863 816.9863 818.1272 818.1272 818.1272
   818.2761 818.2761 818.2761 819.6346 819.6346 819.6792 819.6792 819.6792
   819.7237 819.7237 819.7237 819.8749 820.0121 820.0121 820.0121 820.4577
   820.4577 820.4577 820.5262 820.5734 820.5734 820.5734 821.3404 821.3404
   821.3404 821.3509 821.3509 821.6912 821.6912 821.6912 821.9625 821.9625
   821.9625 821.9917 821.9917 822.1359 822.1359 822.1359 822.3546 822.3546
   822.3546 822.6414 822.6414 822.6414 822.8525 823.6900 823.6900 823.8101
   823.8101 823.8101 823.9869 824.4795 824.4795 824.4795 824.8690 824.8690
   825.0538 826.2116 826.2116 826.2116 826.2434 826.2434 826.2434 826.2779
   826.2980 826.2980 826.2980 826.3544 826.3544 826.3544 826.4298 826.4298
   826.4298 826.5153 826.5153 826.5153 826.6762 826.6762 826.6762 826.8398
   826.8398 827.0671 827.1225 827.1225 827.1225 827.1484 827.1484 831.0790
   831.1332 831.1332 831.1332 831.2618 831.2618 831.2618 831.3695 831.3695
   831.3695 831.4057 831.4057 831.6289 831.6289 831.6289 831.6837 831.6844
   831.6844 831.7059 831.7059 831.7059 831.8213 831.8213 831.8213 832.5327
   832.5327 832.5327 832.7660 832.7660 832.7660 832.8556 832.8556 832.8867
   832.8867 832.8867 832.9778 832.9778 832.9778 833.0448 833.0448 833.0642
   833.0875 833.0875 833.0875 833.3714 833.3714 833.3714 833.7303 848.1920
   848.1920 848.1920 848.2013 848.4288 849.3695 849.3695 849.3695 853.6151
   853.6151 853.6810 853.6810 853.6810 853.7134 853.7134 853.7134 853.8098
   854.0379 854.0379 854.0379 854.0865 854.0865 854.0865 854.1428 854.1428
   854.3127 854.3127 854.3127 854.4580 855.2589 855.2589 855.2589 856.8060
   856.8060 856.8711 856.8711 856.8711 856.9234 856.9234 856.9234 856.9388
   856.9388 856.9388 857.0093 857.0093 857.0093 857.0264 857.0264 866.4577
   866.6000 866.6000 866.6000 866.7354 866.7354 866.7481 866.7481 866.7481
   867.3373 867.4147 867.4147 867.4147 867.7930 867.7930 867.7930 868.0486
   868.0486 868.0486 868.2106 868.2106 868.8661 868.8661 868.8661 869.7659
   869.7659 870.9595 870.9595 870.9595 871.0237 871.0237 871.0237 871.0925
   871.0925 871.0925 871.9723 871.9723 871.9723 872.1643 872.1643 872.4033
   872.4422 872.9550 872.9550 872.9550 873.2033 873.2033 873.2033 873.3512
   873.4314 873.4314 873.4314 873.8153 873.8153 873.9525 873.9525 873.9525
   874.4787 874.4787 874.4787 874.5725 874.5725 874.5725 874.6997 874.6997
   874.6997 875.2334 875.2334 875.2334 875.4236 875.6719 875.6719 881.6601
   881.6601 881.6835 881.6835 881.6835 881.8831 881.8831 881.8831 882.0140
   882.0140 882.0140 882.1398 882.2352 882.2352 882.2352 882.3292 882.3292
   882.3292 882.4891 882.4891 882.5037 882.5037 882.5037 882.5249 882.8564
   882.8564 882.8564 882.8636 882.8636 882.8636 882.8662 882.8662 883.0600
   883.0600 883.0600 883.1725 883.2338 883.2338 883.2487 883.2655 883.2655
   883.2655 883.2692 883.2692 883.2692 883.2849 883.2849 883.2849 900.7661
   900.8457 900.8457 901.4754 901.4754 901.4754 904.4717 904.4717 904.4717
   904.5111 904.7705 905.2003 905.2003 905.2003 905.6948 905.6948 905.6948
   905.6979 905.6979 905.8188 905.8188 905.8188 905.9105 905.9105 905.9105
   905.9656 905.9656 905.9854 905.9854 905.9854 916.7700 916.7700 916.8373
   917.8796 917.8796 917.8796 919.5268 919.5268 919.5268 919.5805 919.5805
   919.5805 919.6007 919.6007 919.6007 920.0104 920.0104 920.0104 921.3498
   921.3498 921.4556 921.4556 921.4556 921.6505 923.3468 923.3468 923.3468
   923.3828 923.5777 923.7525 923.7525 923.7525 926.3228 926.3228 926.3228
   926.3291 926.3291 926.3556 926.7840 926.9124 926.9124 926.9124 927.0797
   927.0797 927.0797 927.1189 927.1189 927.1189 927.1660 927.1660 927.3866
   927.3866 927.3866 927.4041 927.4041 927.4041 927.6089 927.6089 927.6089
   928.0330 928.0330 928.0460 931.4079 931.4079 931.4079 931.4214 931.4214
   931.4214 931.4235 931.4235 931.4235 931.4385 931.4385 931.4385 934.7104
   934.7104 934.7112 934.7112 934.7112 934.7130 945.6212 945.6931 945.6931
   945.6931 946.0584 946.7059 946.7059 946.7059 947.8392 947.8392 947.9659
   947.9659 947.9659 948.0074 948.0074 948.0074 948.0874 948.0874 948.0874
   948.5496 948.5496 948.5496 948.5853 948.5853 954.6953 954.6953 954.6953
   954.7205 954.7904 954.7904 955.9568 955.9568 955.9568 955.9674 955.9674
   955.9674 956.0041 956.0041 956.0041 956.0300 956.0300 956.0300 956.4992
   956.4992 956.5685 956.5685 956.5685 956.6678 956.6678 956.6678 956.7413
   956.7413 956.7413 956.8513 956.8513 956.8513 956.8582 956.8582 957.1944
   957.2743 957.2743 957.2743 957.3326 957.3326 957.3326 957.3717 957.4911
   957.5019 957.5019 957.5019 957.5258 957.5258 970.5264 970.5264 970.5264
   970.6892 970.9231 970.9231 970.9231 970.9828 972.1382 972.1382 972.3498
   972.3498 972.3498 972.6849 972.6849 972.6849 972.7413 972.7413 972.7413
   973.0129 973.0129 973.0129 973.2770 973.2770 973.6332 974.1336 974.1336
   974.1336 974.3954 974.3954 974.3954 974.5372 974.5372 974.5372 974.6152
   974.6153 974.6153 974.6268 974.6268 974.9268 974.9268 974.9268 975.2218
   975.2218 975.2218 975.3345 975.3345 975.5286 977.2177 977.2177 977.2440
   977.2440 977.2440 977.4842 977.4842 977.4842 977.4913 977.6562 977.6562
   977.6562 977.6611 977.6611 977.6611 977.7399 977.7399 977.7486 977.7486
   977.7486 977.7541 977.7541 977.7541 977.8101 978.4770 978.4770 978.5026
   978.5026 978.5026 978.5264 978.5264 978.5264 978.5399 978.5399 978.5399
   978.5862 978.5862 978.5862 978.6068 978.6068 979.7981 979.8024 979.8024
   979.8024 979.8109 979.8109 979.8109 979.82321002.19481002.72351002.7235
  1002.76721002.76721002.76721002.89491002.89491002.89491003.05721003.0572
  1003.05721004.79191004.79191004.88001004.88001004.88001005.60801005.6080
  1005.60801006.07081006.07081006.07081006.51821007.51171007.73041007.7304
  1007.73041007.94691007.94691007.94691007.96581007.96581008.00731008.0073
  1008.00731024.17011024.47741024.47741024.47741024.74421024.74421024.7442
  1025.32301026.32071026.32071026.32071026.41631026.41631026.77491026.7749
  1026.77491027.10871027.10871027.10871027.38241028.23311028.23311028.2331
  1028.47191028.47191028.56891028.56891028.56891029.00031029.00031029.0003
  1029.02441029.02441029.02441029.13661029.44961029.44961029.44961030.2983
  1030.29831030.35181030.35181030.35181030.55401031.93981032.38201032.3820
  1032.38201032.68451032.68451032.83781032.83781032.83781032.90441032.9044
  1032.90441034.03541034.03541034.13751034.13751034.13751034.27041034.2704
  1034.27041034.30311034.30311034.30311034.30891034.30891034.38331034.3833
  1034.38331034.39711034.41541034.41541034.41541034.42741034.42741034.6890

          k =-0.2500 0.2500-0.2500 (  4450 PWs)   bands (ev):

   -93.6687  -7.4745   2.2177   4.8940   4.8940  11.0214  12.0729  12.0729
    14.6674  17.3658  17.3658  19.7148  22.9184  26.0884  26.0884  29.0640
    30.1118  30.1118  32.3203  37.4203  37.4203  40.5576  40.5576  41.2397
    46.3266  46.6719  46.6719  47.7937  50.6605  50.6605  53.5915  54.3150
    54.3150  55.8024  56.4613  56.4613  57.8769  59.3023  59.3023  61.6737
    62.6500  62.6500  62.9792  65.3971  67.5785  67.5785  69.3097  69.3097
    71.4317  73.3398  73.3398  74.9731  76.2764  77.8177  79.6398  79.6398
    80.3731  81.0377  81.0377  82.4910  82.4910  85.6609  85.6609  85.7187
    88.8179  92.1866  92.1866  92.8126  96.8949  97.1383  97.1383 100.1763
   102.3402 102.3402 103.0160 103.8070 105.1248 105.1248 106.2134 106.2134
   106.8218 108.4185 108.4185 108.6706 110.8496 111.8606 111.8606 114.5079
   114.5079 115.4714 116.0855 116.0855 116.5960 119.2814 119.2814 120.0542
   120.8315 120.9689 120.9689 122.7276 122.7276 122.7943 125.9334 125.9507
   125.9507 128.4698 129.5049 129.5049 130.4470 130.5227 130.5227 133.3480
   133.3480 134.2908 134.7844 134.7844 136.7589 138.1408 139.2387 139.2387
   140.1323 140.5904 140.5904 141.8675 141.8675 142.8451 142.9004 143.9147
   145.0018 145.0018 145.4370 145.4370 146.7598 148.8157 148.8157 151.1893
   151.1893 151.4675 151.8780 153.4104 153.4104 154.1083 156.4181 156.4181
   157.3052 157.6794 157.6794 158.8109 158.8109 158.8822 159.3874 163.2280
   163.2280 164.6710 168.1887 169.3920 169.3920 172.1155 172.7713 172.7713
   174.0532 174.3293 174.3293 178.1477 178.5613 178.5613 180.8538 180.8763
   180.8763 181.4165 181.4165 182.6634 183.6798 183.6798 185.7300 186.6022
   186.6022 186.7846 187.2032 187.9819 187.9819 189.2313 189.2313 190.1483
   190.2908 190.2908 190.3809 193.3804 194.1379 194.1379 195.1660 195.4379
   195.4379 197.8624 199.0109 199.0109 200.7274 200.8602 200.8602 203.7554
   203.7554 204.6441 205.2736 205.8218 205.8218 206.7795 207.2269 207.2269
   207.8440 209.1156 209.1156 210.5924 211.0290 211.0290 213.4485 214.0269
   214.0269 214.5765 216.0181 216.0181 216.7844 217.1611 217.3443 217.3443
   218.6387 218.6387 218.8488 220.4699 220.4699 221.6245 222.0046 222.0047
   222.3991 223.7950 223.7950 223.9906 223.9906 224.1662 224.4337 225.8929
   228.4907 228.4907 228.7404 230.8642 230.8642 231.2187 231.2187 232.4354
   232.4354 232.4798 232.8628 233.0097 233.0097 234.9515 234.9515 235.1223
   236.3036 236.3036 237.1454 237.1942 238.8598 239.4088 239.4088 239.8221
   240.7102 240.7102 241.9411 241.9411 242.1823 242.4106 242.4106 243.4767
   244.9531 244.9531 246.1023 246.1023 247.3796 247.3796 247.7743 248.0013
   250.0668 252.2441 252.2441 252.6685 254.3822 255.2949 255.2949 256.6530
   256.7222 256.7222 257.3460 257.5288 257.5288 258.6318 258.6318 259.5269
   261.4861 261.4861 261.6667 261.7714 262.1617 262.1617 265.8149 266.7748
   266.7748 268.0970 268.5791 268.5791 270.4140 270.4140 270.4892 274.3097
   274.3097 274.9082 275.9462 276.5180 276.5180 278.1450 278.1450 278.9140
   279.9685 279.9685 280.1365 281.2340 281.5663 281.5663 282.5843 282.5843
   283.5441 284.5824 286.1123 286.1123 286.4349 290.7026 290.7026 290.8706
   291.6746 291.7733 291.7733 291.8860 292.5813 292.5813 292.9958 292.9958
   293.0995 295.1225 295.1225 295.4118 296.2619 296.5729 296.5729 296.6619
   297.2993 297.2993 298.0453 298.0453 298.6686 299.1885 299.1885 300.1920
   302.4237 302.5693 302.5693 304.9395 305.6144 305.6144 307.7201 307.7201
   308.9793 308.9793 309.0447 311.8717 311.8717 313.0494 313.0494 313.8802
   313.9461 316.0584 316.0584 316.0746 316.6712 317.0406 317.0406 319.8694
   319.9969 319.9969 321.1261 321.1261 321.3667 321.5385 322.7066 322.7066
   323.0441 323.3393 324.0533 324.0533 327.5479 328.2845 328.2845 328.8970
   328.8970 329.8007 330.4786 330.4786 331.1017 331.1017 331.2510 331.8489
   331.8489 331.9258 332.6163 332.6163 332.7668 333.8681 333.8681 334.2379
   335.0172 335.0172 335.3456 335.3972 336.9920 336.9920 337.3727 338.0033
   338.7154 338.7154 339.7064 339.9916 339.9916 340.6230 340.7100 340.7100
   340.9618 341.4615 341.4615 342.6908 342.6908 342.6974 345.6303 345.6303
   345.6425 346.2066 346.3459 346.3459 347.1100 348.6486 348.6941 348.6941
   348.9389 348.9389 349.8080 349.8080 349.8788 351.3882 351.3882 351.5778
   353.0116 353.0116 353.0860 355.3617 355.3617 355.4635 355.4635 355.5894
   355.7123 357.6374 357.6374 358.1237 358.6727 358.6727 358.6727 358.9975
   359.1944 359.1944 359.2056 359.8944 359.8944 361.5840 361.6281 361.6281
   361.8285 361.8285 361.8831 363.1247 368.8045 368.8953 368.8953 369.2798
   369.2798 371.1958 372.3346 372.7264 372.7264 373.3307 373.6714 373.6714
   374.3796 374.3796 374.9989 375.2880 375.2880 375.7158 378.8219 378.9674
   378.9674 380.1354 380.1354 380.2778 380.2815 380.6500 380.6500 383.4971
   383.4971 383.5319 384.4721 384.4721 384.5778 384.5778 384.5909 384.9023
   385.3662 385.3662 387.6311 387.6311 388.1068 388.1068 389.7534 390.9382
   391.1923 391.2151 391.2151 391.5403 393.6662 393.6662 395.0923 395.2592
   395.2593 395.6296 395.6296 396.0274 396.8025 396.8025 396.9275 398.1030
   399.8819 399.8819 400.3315 401.7898 401.7898 401.9436 402.2396 402.2396
   403.2171 403.4329 403.4329 405.3005 405.6780 405.6780 405.8271 407.9056
   407.9471 407.9471 409.0616 409.0616 409.1051 411.1091 411.2842 411.2842
   411.7196 411.7196 411.9099 411.9099 412.1425 412.7622 412.8225 412.8225
   417.5176 420.4920 420.4920 421.0998 421.4522 421.4522 422.4907 423.0726
   423.0726 423.6497 423.9201 423.9826 423.9826 424.8165 424.8581 424.8581
   426.2500 426.2500 426.6797 428.3222 428.3222 428.6579 429.9392 430.0923
   430.0923 432.0980 432.4925 432.4925 433.9181 434.0640 434.0640 434.8513
   435.5295 435.5295 436.0319 436.0319 436.0400 436.1101 436.2555 436.2555
   438.5810 438.7172 438.7172 439.0020 439.7271 439.7271 440.5619 440.7934
   440.7934 444.7387 444.7387 445.1987 445.6181 445.6181 445.6478 445.8303
   446.5191 446.5191 447.7711 448.2387 448.2387 448.2874 451.0127 451.0127
   451.9666 452.2623 452.2623 455.4524 456.1802 456.1802 456.8097 457.3501
   457.5668 457.5668 457.9211 457.9678 457.9678 458.4788 458.4788 458.6712
   459.0025 459.0025 461.1659 461.5130 461.5130 462.4181 462.4181 462.8480
   463.1721 463.5362 463.5362 463.8620 464.4448 464.6031 464.6031 466.3215
   467.0176 467.0176 467.2156 467.2156 467.2896 467.3749 467.4522 467.4522
   471.1848 471.1848 472.4599 472.4599 472.5082 472.8363 472.8363 473.1416
   473.1416 473.2932 473.9564 474.7579 474.7579 475.0428 475.7439 475.7439
   475.9664 476.4828 476.4828 476.6126 476.9889 476.9889 477.1649 477.5402
   477.5402 477.6343 477.8882 477.8882 478.4381 480.8741 480.8741 481.2031
   482.3813 482.3813 482.7965 483.0831 483.2883 483.2883 484.3322 485.0992
   485.0992 485.1739 485.1739 485.2337 485.9988 486.1796 486.1796 486.2610
   486.7412 486.7412 487.5033 487.9189 487.9189 488.0163 488.0163 488.4090
   489.2148 489.2148 489.4286 490.8925 491.1453 491.1453 493.4528 493.4528
   493.7141 494.7976 496.4085 496.4085 496.6707 497.6177 497.6177 497.9783
   498.1246 498.1246 498.1484 498.4861 498.4861 498.6324 499.3433 499.9026
   499.9026 500.7605 500.8894 500.8894 503.4706 503.4706 503.6822 503.6822
   503.9914 504.3100 506.1409 506.1409 506.9372 506.9372 506.9383 509.1579
   510.1993 510.1993 510.2530 510.5387 510.5387 510.7759 510.9973 510.9973
   511.3688 511.6175 511.6175 511.9274 511.9274 512.1353 512.6806 512.9333
   512.9333 514.0726 514.0726 514.2478 515.5463 518.2971 518.2971 518.3052
   519.2721 519.2721 519.3028 522.2132 522.2132 522.4660 522.7808 522.7808
   523.7023 524.0459 524.0459 524.6424 524.9616 524.9616 525.2094 526.7538
   526.7538 526.7544 529.2694 529.2694 529.4035 530.1038 530.1038 530.4999
   530.6819 530.6819 531.1341 531.4837 531.7638 531.7638 534.5243 534.5243
   534.5939 535.4113 535.4113 535.4580 535.8080 535.9533 535.9533 535.9846
   536.1485 536.1485 537.8998 537.9759 537.9759 538.3014 538.3014 538.7283
   539.4626 539.9123 539.9123 541.4880 541.4880 541.4889 543.2410 543.9115
   543.9115 544.4074 545.5409 545.7969 545.7969 546.0304 546.3867 546.3867
   546.4971 546.4971 546.6501 547.8317 547.8317 547.9956 548.0197 548.0197
   548.0463 548.2609 548.2609 549.2152 549.2314 549.2314 550.8288 550.8288
   550.8639 552.8945 553.5625 553.5625 554.0585 555.3832 555.3832 556.1428
   557.0559 557.0559 557.5406 557.5406 557.5584 559.1441 559.1441 559.2016
   559.6764 559.6764 559.8680 560.1395 560.1395 560.4968 561.3874 561.3874
   561.6730 563.5790 566.4652 566.4652 566.7661 566.7820 566.7820 568.5802
   569.9754 569.9754 570.6531 571.7680 571.7680 572.1197 572.6241 572.6241
   572.9357 573.2824 573.2824 574.0255 574.0255 574.1283 574.9182 574.9182
   575.4667 577.5083 577.5466 577.5466 577.9401 578.0208 578.0208 580.1399
   581.2096 581.2096 583.7106 583.7106 583.7532 586.7272 586.9980 586.9980
   587.6305 587.7452 587.7452 589.3153 590.1121 590.1121 591.6315 591.6446
   591.6446 592.3189 592.6053 592.6053 592.8741 593.0471 593.0471 593.0975
   594.2969 594.2969 594.6479 594.9401 594.9401 595.7436 596.3509 597.0120
   597.0120 597.8317 597.8317 598.0818 599.1053 599.1053 599.4662 599.6373
   601.0181 601.0181 602.4262 602.4366 602.4366 602.7267 602.7267 602.7854
   602.7854 603.2841 603.8842 604.3308 604.5040 604.5040 604.9894 604.9894
   605.0582 606.2178 606.2178 609.5537 610.1957 610.1957 610.5282 610.5282
   610.8190 611.2867 611.2867 611.2868 612.8516 612.8516 613.0441 613.5383
   613.5383 613.6722 614.5564 614.5564 614.5576 614.6024 615.3277 615.3277
   616.6970 616.6970 616.8603 617.0259 619.3213 619.3213 620.1119 620.1563
   620.1563 620.7376 620.7376 621.0126 621.9751 621.9751 622.2991 622.7499
   623.8072 623.8072 623.9021 624.1709 624.1709 624.6726 624.6873 624.6873
   624.8671 625.0109 625.4263 625.4263 626.4349 626.4349 626.4694 626.5068
   626.6053 626.6053 629.5435 629.5537 629.5537 629.6573 630.1068 630.1068
   630.6669 630.6669 630.7017 632.0949 632.2015 632.2276 632.2276 632.5187
   632.5187 634.2491 634.4044 634.4044 635.3099 635.3099 635.3109 635.5890
   635.6773 635.6773 637.0410 637.4609 637.4609 637.7958 638.0640 638.0640
   638.4281 638.4281 638.4851 642.1354 642.2273 642.2273 644.2864 644.4414
   644.4414 645.8233 645.8233 645.8521 646.3959 646.4355 646.4355 646.5076
   646.5533 646.5533 648.5526 648.5665 648.5666 649.0807 649.1910 649.1910
   649.2678 649.8501 649.8501 649.9608 650.1661 650.1661 650.3071 650.9158
   650.9158 651.2602 651.3242 651.3242 651.8422 651.9476 651.9476 655.6037
   656.1980 656.1980 656.8095 656.9243 656.9243 657.0631 657.2136 657.2136
   657.9751 658.2659 658.2659 659.2793 659.3401 659.3401 659.7993 659.7993
   659.9199 663.2546 663.3041 663.3041 663.4387 663.7016 663.7016 664.2913
   664.2913 664.3450 664.6717 664.6717 664.7837 665.1469 665.2457 665.2457
   665.4299 665.4848 665.4848 665.9378 666.3765 666.3765 667.5928 667.5928
   668.5081 668.5081 668.9616 669.0575 670.9995 672.4340 672.6443 672.6443
   672.6639 673.3378 673.6238 673.6238 674.0996 674.0996 676.5291 676.5291
   676.5489 676.5489 676.7468 677.6312 677.8848 677.8848 678.6535 678.6688
   678.6688 680.0287 680.0287 680.4676 680.8342 680.8342 681.3983 681.4194
   681.4563 681.4563 682.0488 682.1940 682.1940 682.2094 682.6223 682.6223
   682.7193 683.3175 683.3175 684.4286 685.0215 685.0215 685.8195 685.8195
   686.0152 686.3761 686.3761 686.8814 687.9568 687.9568 688.8334 689.1383
   689.2010 689.2010 689.5177 689.5177 689.6633 691.2589 691.8211 691.8211
   693.1513 693.1513 693.4213 695.6927 696.0257 696.0257 696.4083 696.7311
   696.7311 697.1493 697.3113 697.3113 697.3837 697.7160 697.7160 698.3122
   698.3549 698.3549 698.8907 698.9810 698.9810 700.9706 700.9706 701.0089
   701.4599 701.4599 702.1919 703.6570 703.6570 704.2351 705.8131 706.0881
   706.0881 706.1821 706.8726 706.8726 707.3601 708.2225 708.2225 708.4642
   708.9681 709.0958 709.0958 709.1290 709.3677 709.3677 709.4573 709.5294
   709.5294 710.1936 711.1940 711.1940 711.5947 711.5947 711.6438 713.3309
   713.3309 713.3469 713.7333 713.7333 713.8802 713.8917 713.9094 713.9094
   714.8484 714.9148 714.9148 715.5663 715.5663 716.1888 716.2307 716.2307
   716.5405 717.4369 717.4369 720.1287 720.1287 720.5015 720.5243 720.5243
   720.6357 721.1604 721.1604 721.2132 722.3711 722.3711 722.3741 723.6069
   723.8169 723.8169 725.3471 726.0099 726.0099 726.4843 727.0461 727.0461
   727.6386 727.6386 727.8959 729.5586 729.5794 729.5794 730.2710 730.2710
   730.2741 730.3557 730.3557 730.3713 732.3890 733.0276 733.0276 735.2911
   735.7909 735.9855 735.9855 737.1821 737.2386 737.2386 737.8167 737.9449
   737.9449 739.3289 739.3289 739.4957 740.2140 740.2140 740.5175 740.6685
   740.7376 740.7376 741.9759 741.9759 743.0717 743.8910 743.8910 744.4627
   744.4801 744.4801 744.4826 746.5651 746.6357 746.6357 746.7319 747.3910
   747.3910 747.7546 747.7546 747.8875 750.9140 750.9140 750.9371 751.4164
   751.4164 751.4349 752.8333 752.8333 753.0425 754.7502 754.7502 754.7811
   755.7131 756.2071 756.2071 757.1812 758.5946 758.5946 759.8105 759.8318
   759.8318 762.7176 762.7711 762.7711 764.0170 764.0170 764.4533 764.8358
   764.9917 764.9917 765.3032 765.3032 765.3509 766.5971 766.5971 767.4076
   768.4822 768.4822 769.4232 769.4448 769.4448 769.6250 771.5390 771.6569
   771.6569 772.0079 772.2170 772.2170 772.2951 772.2951 772.5209 773.4902
   773.4902 773.5727 775.8853 775.8853 776.0042 776.5025 777.1710 777.1710
   777.2155 777.2155 777.9144 778.0801 778.0801 778.1287 778.4340 778.4340
   778.7314 779.1069 779.1786 779.1786 779.2971 779.6226 779.6226 782.2084
   782.3907 782.4486 782.4486 783.1876 783.1876 784.2265 784.3747 785.0034
   785.0034 786.3036 786.3036 786.4599 786.6258 786.9571 786.9571 787.9397
   788.3373 788.3373 788.6940 789.6581 789.6581 790.1255 790.1255 791.0079
   791.1070 791.1070 791.1598 791.6450 791.9031 791.9031 792.5696 792.5696
   792.7091 792.8230 792.8230 792.8335 792.8646 793.6434 793.6434 793.9746
   794.7180 794.7180 795.0270 795.0270 795.6536 795.6960 795.6960 796.3790
   797.5882 797.5882 800.9061 800.9061 800.9930 801.9766 801.9892 801.9892
   802.1182 802.1593 802.1593 802.4611 802.5950 802.5950 802.9435 802.9435
   803.2546 804.2951 804.2951 804.6751 804.6751 804.7107 804.7786 804.7786
   804.9537 805.4101 807.6023 807.6023 807.6766 807.8288 807.8956 807.8956
   809.9662 809.9662 810.2114 810.3644 810.3693 810.3693 811.9738 812.5969
   812.5969 812.9532 813.1396 813.1396 814.2266 814.2266 814.7044 814.8520
   815.0790 815.0790 816.0911 816.2158 816.2158 816.8845 817.6600 817.6600
   819.2924 819.5938 819.5938 820.4484 820.4484 820.6216 820.9999 820.9999
   821.3788 821.8318 822.0574 822.0574 822.6293 822.6293 822.6457 823.9397
   824.0211 824.0211 825.9370 825.9370 826.0017 826.4989 826.4989 826.5000
   827.9300 828.5726 828.5726 828.6485 828.6573 829.0324 829.0324 829.8639
   829.8639 830.0899 830.3721 830.3721 830.4642 830.6367 830.8076 830.8076
   832.3243 832.3880 832.3880 832.4571 832.4571 832.6456 833.2298 833.2298
   833.2546 835.4891 835.4891 836.0640 836.2257 836.2257 838.1978 838.4035
   838.4035 838.6700 838.6700 838.7468 839.9777 839.9777 840.1050 840.1191
   840.1191 840.1263 840.3659 840.3659 840.4425 840.7736 840.7736 841.1669
   841.1995 841.1995 841.5560 842.4242 842.5444 842.5444 843.5295 843.5555
   843.5555 843.5694 843.7978 843.7978 843.9142 843.9142 844.0131 844.3053
   844.3053 844.4064 845.7746 846.3126 846.3126 847.8920 848.3653 848.3653
   848.6246 848.6246 848.9109 852.9361 852.9361 853.0304 853.0522 853.0522
   853.1229 854.5499 854.5609 854.5609 854.8202 855.1261 855.1261 857.5438
   858.0557 858.0557 858.4407 861.0667 861.0667 861.6796 862.4997 862.7249
   862.7249 863.4455 863.4455 863.7326 864.0845 864.0845 864.4046 864.6652
   864.6652 864.9906 864.9906 865.0672 865.1346 865.2644 865.2644 865.3079
   865.6099 865.8792 865.8792 866.0308 866.5890 866.5890 866.9277 867.1885
   867.1885 867.2031 867.5321 867.5321 868.6179 868.7179 868.7179 869.5392
   869.5392 869.5805 870.2702 870.2709 870.2709 870.3494 870.3494 870.5476
   870.5476 870.6088 870.6377 871.0344 871.0911 871.0911 871.2199 871.2199
   871.2287 871.6859 871.9410 871.9410 871.9425 871.9908 871.9908 872.8185
   873.2805 873.2805 874.5441 874.7014 874.7014 878.4745 878.4745 878.5922
   878.6863 878.7485 878.7485 878.8120 878.8120 878.9348 879.1820 879.1820
   879.4739 879.7544 880.0153 880.0153 880.1951 880.4781 880.4793 880.4793
   880.7928 880.7928 881.3778 881.3778 881.4060 883.6223 883.6223 883.6263
   884.0660 884.0660 884.2171 884.7099 886.7485 886.7485 887.2479 887.3614
   887.3614 888.1554 888.1846 888.1846 888.6381 888.6381 888.6733 888.9857
   889.0203 889.0203 889.3861 889.3931 889.3931 889.6755 889.9243 889.9243
   890.8457 890.8457 891.3959 891.6267 891.6267 891.6657 893.5149 893.6514
   893.6515 894.4721 894.4721 894.5043 894.5043 894.5265 895.1173 895.6157
   895.9077 895.9077 899.8986 899.9336 899.9336 901.6039 901.6039 901.6247
   901.6423 901.6423 901.6897 902.5557 902.7140 902.7140 903.1422 903.1422
   903.2065 904.0235 904.0385 904.0385 904.8071 904.8071 904.9013 905.5647
   905.5647 905.6909 905.9901 906.1025 906.1025 906.7014 908.9243 908.9243
   909.4394 909.4733 909.4733 909.6454 909.6881 909.6881 910.8232 910.8232
   910.9007 910.9858 910.9858 910.9998 911.4654 911.7748 911.7748 912.4480
   912.7185 912.7185 913.4385 913.4385 913.6676 914.2769 914.4083 914.4083
   914.4830 915.3128 915.3976 915.3976 916.1439 916.1963 916.1963 918.6383
   918.6383 918.7290 918.9475 919.0334 919.0334 919.3538 919.3538 919.4725
   919.5525 919.6047 919.6047 919.7252 919.7252 919.7390 921.1219 921.1219
   925.9515 926.0994 926.0994 927.3616 927.3616 927.4135 927.6008 927.7848
   927.7848 929.2080 929.3036 929.3036 929.3892 929.4206 929.4206 929.4744
   929.4744 930.9273 931.6776 931.6925 931.6925 933.1162 933.3546 933.3546
   935.6216 935.6216 935.7211 935.7696 935.8191 935.8191 935.9771 936.3466
   936.3466 939.3937 939.3937 939.4466 939.7528 939.7631 939.7631 941.0705
   941.0705 941.3197 941.7590 941.7590 942.1190 942.1832 942.4329 942.4329
   943.3465 943.5091 943.5091 944.1162 944.1162 944.1299 946.3978 946.5294
   946.5294 947.4985 947.5434 947.5434 948.4224 948.4224 948.4363 948.6344
   948.6344 948.7547 948.7656 948.7825 948.7825 948.8351 948.8351 948.9829
   949.1323 949.1323 949.1943 950.0874 950.0874 950.1963 954.5332 954.5332
   954.5433 955.3409 955.3409 955.4129 955.4546 955.4546 956.2725 956.6767
   957.2731 957.2731 957.4749 957.6878 957.6881 957.6881 958.1400 958.1400
   958.1405 959.7680 959.7680 959.8315 965.1935 965.2088 965.2088 965.8418
   965.8418 966.5252 966.5252 966.5724 967.1965 967.1965 967.2387 968.4526
   968.5860 968.5860 969.5106 969.9029 969.9035 969.9035 970.1271 970.1271
   970.2633 970.2671 970.2671 970.4363 970.6035 970.7002 970.7002 970.7684
   970.7684 973.3900 973.3900 973.7025 975.1645 975.3081 975.3081 976.2712
   976.3600 976.3952 976.3952 976.8281 976.8281 977.4098 977.4098 977.4526
   978.6665 978.6867 978.6867 978.6996 978.6996 978.8992 980.4960 980.4960
   980.5597 980.5873 980.6307 980.6307 980.7766 980.9162 980.9162 980.9378
   981.0019 981.0019 981.1745 981.1988 981.1988 981.6662 981.6722 981.6722
   984.1468 984.1468 984.2149 985.6655 985.6655 985.7104 988.0189 988.0189
   988.0730 988.1190 988.1190 988.2265 988.2402 988.2402 988.2509 988.3423
   988.4841 988.4841 989.8676 990.4629 990.4629 991.0106 991.6776 991.6776
   991.7353 993.1192 993.2474 993.2474 995.1071 995.1071 995.2500 995.2960
   995.3616 995.3616 995.8609 995.8609 996.1716 998.0383 998.1051 998.1051
   999.5452 999.5452 999.5614 999.5736 999.5736 999.58411001.38691001.4118
  1001.41181001.52491001.52491001.54731003.45271003.47511003.47511004.3501
  1004.38651004.41531004.41531004.69661004.69661004.72501005.26971005.2697
  1006.38261006.39861006.39861006.43161006.43161006.43971007.24921007.4693
  1007.46931008.15631008.22231008.22231010.22931010.22931010.22951011.2542
  1011.32601011.33591011.33591012.48681012.48681012.54461012.54461012.5543
  1012.61981012.98881012.98881014.36721014.36931014.36931016.51831016.5661
  1016.56611016.83031016.83031016.85791017.14291017.16431017.16431017.5130
  1017.54451017.54451017.92841017.92841018.13371018.35611018.36541018.3654
  1018.46221018.46221018.47171021.24761021.24761021.80341023.10431023.1379
  1023.13791025.31591025.45651025.45651025.61641025.65261025.65261027.0446
  1027.04461027.15241027.27031027.27031027.27341030.52781030.52781030.5325
  1031.07251031.10901031.10901031.27001031.27021031.27021032.27301032.2730
  1032.28271033.00331033.00541033.00541035.07141035.07141035.29891035.5545

          k = 0.5000-0.5000 0.5000 (  4446 PWs)   bands (ev):

   -93.6686  -6.5550  -0.2260   4.4614   4.4614  10.9420  12.0771  12.0771
    16.6395  20.3218  20.3218  20.5720  22.2425  22.9089  22.9089  29.9278
    33.5687  33.5687  35.2267  36.8407  36.8407  39.3776  39.3776  41.7074
    42.6366  42.6648  42.6648  47.5051  47.5051  47.7353  49.4133  52.0803
    52.0803  54.1382  54.1912  59.3051  59.3051  60.6415  60.6415  61.6518
    63.7434  65.3037  65.3037  68.9630  71.1387  72.0792  72.0792  73.9790
    73.9790  74.2414  74.2414  75.6541  78.7695  78.7695  79.2588  82.2662
    82.2662  82.7180  84.1081  84.1081  86.1358  86.1358  88.7188  88.8383
    89.4407  90.2277  91.9080  91.9080  92.1378  92.1583  92.1583  94.8117
    97.1689  98.6517  98.6517  99.2883  99.2883  99.9608  99.9608 102.0876
   105.1330 105.6039 105.6039 110.4109 112.3916 112.3916 112.8748 114.8846
   114.8846 115.0276 115.4834 115.4834 116.5248 119.5757 119.5757 120.8241
   121.9029 122.5323 122.5323 123.6487 123.6487 124.5924 125.4830 126.3353
   126.3353 126.3825 126.7662 126.7662 127.2654 134.1228 134.1228 134.1618
   135.8802 136.5308 136.5308 137.2641 137.2641 139.0244 139.4103 139.4103
   139.7208 140.1216 141.2377 141.2377 143.5786 143.5786 144.4099 145.1870
   145.1870 145.4312 146.3521 146.3521 147.9425 151.9473 152.8542 152.8542
   153.0485 153.6129 153.6129 153.8835 156.5233 156.5233 157.4144 157.4144
   161.9074 161.9074 162.3349 162.3349 163.2567 163.8252 164.7103 165.1809
   165.2414 167.0133 167.0133 168.7278 168.7278 168.9010 168.9010 169.1296
   171.9147 171.9147 172.1900 172.1900 174.9009 175.4124 175.4124 175.9452
   177.4009 181.6698 181.6698 183.5076 185.7191 185.7789 185.7789 186.3934
   186.3934 186.6238 187.0624 187.0624 187.5942 188.5243 189.0032 189.7947
   189.7947 190.2667 190.2667 191.7341 195.2655 195.2655 196.3539 196.3539
   196.9352 198.2722 200.1857 200.1857 200.4232 201.3344 201.3344 201.5224
   201.5224 201.8850 202.1687 202.1687 202.3069 202.3069 202.7700 203.3779
   203.3779 203.5291 206.8199 207.5161 207.5161 208.7842 208.7842 208.8388
   211.4649 211.8452 213.5658 213.6131 213.6131 213.9902 213.9902 214.3242
   214.3242 215.1783 215.1783 215.6788 220.2356 220.7068 220.7068 222.8320
   223.2429 223.2429 224.1283 224.3823 225.1039 225.1039 226.4120 226.8329
   226.8329 227.5976 228.4373 228.6669 228.6669 228.9558 229.5974 229.5974
   232.9515 232.9515 234.1197 234.2681 234.2681 234.9641 235.5544 236.4971
   237.8220 237.8220 239.7478 239.8997 239.8997 241.1192 241.7603 241.7603
   242.2079 242.2079 243.4374 243.4374 243.4758 243.4758 243.6179 243.7177
   251.0690 253.6828 254.4963 254.4963 254.8015 254.8015 256.0954 256.0954
   257.0937 257.9044 257.9044 258.1605 260.1843 260.1843 260.7378 260.7378
   261.0516 261.7078 264.4015 264.4576 264.4984 265.0629 265.0629 265.2928
   265.5618 265.5618 267.0358 267.3909 267.6294 267.6294 269.0887 269.0887
   270.7231 270.7231 272.3032 272.3032 272.4881 272.9069 273.1864 273.1864
   273.5433 273.5433 275.0677 275.0677 275.6545 275.6545 275.7015 276.2885
   277.6185 277.6412 277.6412 277.6709 277.6709 278.1828 278.3658 278.3658
   278.5251 278.5251 279.7475 279.7589 283.6415 285.6168 286.4462 286.4462
   287.3817 288.1822 288.1822 288.7831 291.4382 291.4382 291.7945 291.7945
   292.2989 292.2989 292.4192 292.6393 292.6393 292.7908 295.5282 295.7151
   295.7151 297.7711 297.7711 297.9425 298.7457 298.7457 299.1342 300.1444
   300.1444 300.4509 300.6763 302.6486 302.6486 303.0260 303.0260 303.1160
   304.3841 304.3841 304.4417 304.4417 304.6661 304.8201 311.9797 312.6162
   312.6162 313.4374 314.4421 314.4421 314.8393 314.8393 314.9412 314.9412
   315.0993 315.2502 315.2502 315.3511 315.6193 316.8718 316.9796 316.9796
   321.4133 321.4133 322.0497 322.9271 323.2033 323.2033 323.6199 324.9904
   325.0280 325.3279 325.3279 326.2354 326.2354 327.2195 327.6998 328.1401
   328.1401 328.6906 328.7584 328.7584 333.0679 333.0679 333.4892 333.4892
   335.0118 336.0533 336.0533 337.0734 337.0734 337.8162 340.0688 340.0919
   340.2514 340.2514 340.6958 340.6958 340.9754 341.8530 342.4882 342.4883
   342.9189 344.3287 344.3287 344.6923 344.6923 344.7318 344.8144 344.8144
   348.3026 348.3969 348.3969 349.3738 349.3738 349.6070 350.7252 350.9491
   350.9491 351.2918 351.2918 351.4735 353.4798 353.4798 354.8588 355.2158
   355.4446 355.4446 357.7119 357.7724 357.7724 357.8439 357.8439 358.0217
   358.1079 358.2977 358.6107 358.6107 359.4366 359.4366 362.1881 362.1881
   362.9891 362.9891 363.4408 364.9324 366.2729 366.4236 367.6019 367.6019
   367.9637 367.9637 371.7375 372.5241 372.6181 372.6181 373.8223 373.8223
   374.2498 374.2498 374.3760 374.7803 374.8637 374.8638 375.1237 376.6600
   377.4469 377.4469 377.9140 377.9140 377.9146 378.1750 381.8513 383.4192
   383.4192 384.2897 384.5883 384.5883 385.2313 385.2313 385.5603 386.1140
   386.1140 386.4089 387.6700 387.7443 387.7443 388.1816 388.4928 388.4928
   390.6255 390.6255 390.7175 390.7175 390.8902 390.9646 392.1502 392.2305
   392.2305 392.4433 392.4433 392.5033 393.3956 393.3956 393.4176 393.4377
   393.4377 393.4969 395.0389 395.6151 395.6151 395.6520 395.7702 395.7702
   397.6700 398.2067 398.2067 398.6292 398.9333 398.9333 401.2669 401.2669
   402.2398 402.2648 402.2648 402.4597 402.6547 403.2135 403.2135 403.2432
   403.9905 403.9905 405.0282 405.0282 405.1656 405.2657 405.3189 405.3189
   410.6434 411.2804 411.2804 411.7200 411.7200 411.7778 413.6488 414.2749
   416.8249 416.8249 417.1248 417.2830 417.4217 417.4217 420.1814 420.1814
   420.7349 420.7349 426.7515 426.7515 426.8469 426.9074 426.9074 427.2713
   427.2713 427.7200 428.0898 428.1667 428.2038 428.2602 428.2602 428.7707
   428.7707 428.8448 429.0645 429.0645 430.3029 430.3030 430.3223 430.3223
   431.6759 431.6982 434.1697 434.1697 434.4503 435.0887 436.6089 436.6089
   437.1416 439.2680 439.3197 439.3197 439.9105 439.9105 439.9970 440.4983
   440.4983 441.8472 441.8472 442.2822 444.0293 444.0293 444.1085 444.1085
   444.2327 444.2551 448.1351 448.6440 448.6440 448.9551 450.1244 450.1244
   450.1452 450.5355 453.7309 453.7309 454.8668 454.8668 454.9197 455.3928
   455.8547 455.8547 456.4768 456.4768 456.6154 456.6154 457.1339 457.9032
   457.9171 457.9171 459.9058 459.9058 460.1288 460.6359 460.6359 460.7466
   461.1463 462.2879 462.2879 462.8682 463.8616 463.8616 464.4432 464.4721
   464.4721 464.9162 464.9849 464.9849 466.0768 466.2534 466.2534 466.4582
   466.4582 466.5811 467.9850 467.9850 468.2024 468.2024 468.4681 468.5389
   469.3959 469.6141 469.6141 470.1201 470.6993 470.6993 471.7667 471.7667
   471.8105 471.8768 471.9025 471.9025 476.8061 476.8061 476.8748 477.6717
   477.6717 477.9074 479.1247 479.4467 479.4467 479.9825 479.9825 480.3190
   480.9817 481.2264 481.2264 481.5000 481.5000 481.5608 484.7993 485.5470
   485.5470 486.1972 486.5009 486.5009 486.5672 486.5672 486.7346 486.9688
   487.4016 487.4016 487.4954 487.4954 487.6296 488.0238 488.0238 488.5859
   493.2450 493.2450 493.2977 493.2977 493.6037 493.6266 494.4501 494.4501
   495.0132 495.7045 495.9278 495.9619 495.9619 496.2064 496.2064 496.2257
   496.2491 496.4330 496.4330 498.6431 501.1807 501.1807 501.2173 501.2173
   502.3598 502.8155 502.8155 502.8709 503.0926 503.0926 503.8122 503.9706
   503.9706 504.4743 504.5553 504.5553 504.5620 504.6127 504.6334 504.6334
   504.9334 504.9334 509.5125 509.5468 509.5468 509.8752 510.6360 510.6360
   512.0940 513.4831 515.0215 515.0215 516.4908 516.4908 517.2244 517.5429
   517.6900 517.6900 518.0906 518.0906 518.1788 520.3039 520.3039 520.3499
   520.3499 520.6239 527.1338 527.1338 527.3863 527.8182 527.8182 528.1890
   528.6958 528.6958 528.9158 529.0585 529.0585 529.1534 529.2907 529.4563
   529.4563 529.5040 529.5717 529.5717 529.6802 529.6802 529.8766 529.8768
   529.8768 530.2444 532.5595 532.5595 532.5666 532.6325 532.6325 532.6791
   534.5250 535.6560 535.6560 536.5118 536.5118 536.8731 539.9869 539.9869
   540.5706 541.1317 541.4731 541.4731 542.4633 542.4633 542.5180 542.5180
   542.6080 542.6200 545.0108 545.0192 545.0192 545.2246 545.2246 545.2675
   546.9159 547.2968 547.6117 547.6117 547.6985 547.6985 548.4712 549.8136
   549.8136 549.8708 550.4713 550.5823 550.5823 551.0550 551.0550 551.1529
   551.2243 551.2243 551.3892 551.3892 551.7609 552.7591 552.8883 552.8883
   555.9519 555.9519 556.0802 556.0802 556.4808 556.4882 561.8421 561.8421
   562.0146 563.3857 563.6429 563.6429 564.3998 566.6027 567.5417 567.5417
   567.8586 567.8902 567.8902 567.9166 568.7156 568.7361 568.7361 568.8009
   569.0861 569.0861 569.4958 569.4958 569.6190 569.6190 570.6208 570.9472
   572.9599 572.9599 573.2408 574.0948 574.1715 574.1715 575.3294 575.3294
   575.8145 575.8171 575.8171 577.4815 577.6671 577.6671 578.4345 578.4435
   578.4779 578.7555 578.7555 578.9515 579.9603 579.9603 580.1154 580.1154
   581.0486 581.0678 581.0678 581.5880 581.5880 582.0575 582.0893 582.1296
   582.1296 582.3077 582.3607 582.3607 582.9655 583.0356 583.0356 583.0918
   583.2077 583.2077 583.2701 583.2956 583.2956 583.4484 583.4484 583.4495
   591.5165 592.8538 592.8538 593.1364 593.2349 593.2349 593.6635 594.0232
   594.0232 594.3212 594.3212 594.5170 594.5593 594.6152 594.7105 594.7105
   594.9464 594.9464 594.9531 595.2063 595.2063 595.8924 598.6101 598.9915
   598.9915 601.3379 601.3379 602.0668 602.5785 603.0266 603.0266 603.2144
   603.3055 603.3055 605.1503 605.2941 605.2941 605.9497 606.2974 606.2974
   606.5357 607.0103 607.0103 607.4315 607.7320 607.7320 608.1357 608.1357
   608.1506 608.1506 608.2513 608.3470 609.1962 609.1962 610.2777 610.2777
   610.5159 610.5955 610.5955 610.6815 616.0561 616.0561 616.0665 616.0665
   617.5599 617.5599 617.7910 617.8583 618.0375 618.2258 618.2258 618.2910
   618.4331 618.4331 618.4485 618.4982 619.1632 619.1632 620.2160 620.6213
   620.6213 621.2825 621.4235 621.4986 621.4986 621.7768 622.1638 622.1638
   622.3258 622.3258 624.1998 624.1998 624.2009 624.2009 625.0332 625.0338
   628.6517 628.6517 628.7472 628.8094 628.8094 628.8400 630.4106 630.5749
   630.5749 630.7777 631.1140 631.1140 639.5802 639.8181 639.8181 640.0343
   640.4158 640.4158 641.3475 641.3475 641.5466 641.9718 641.9718 642.3360
   642.3360 642.6779 642.7458 642.9468 642.9804 643.1839 643.1839 643.2482
   643.2482 643.8892 643.9838 644.0044 644.0044 644.5284 644.5284 644.9101
   644.9124 644.9124 645.3853 645.4038 645.4038 645.6773 645.7448 645.7448
   650.8583 650.9279 651.2144 651.2144 651.6142 651.6832 651.6832 651.7389
   651.9089 651.9089 652.1753 652.2325 652.4425 652.4425 652.6047 652.6047
   652.8170 653.5268 653.5268 653.6554 653.7261 653.7876 653.7876 653.8905
   654.2756 654.2756 654.6675 654.7410 654.7410 655.3979 655.3979 656.1000
   658.8080 658.8080 658.8333 658.8333 659.1562 659.1687 659.2420 659.2420
   659.2734 659.2734 660.9700 660.9700 661.0206 661.0206 661.0525 661.0525
   661.0585 661.1282 661.1577 661.3300 661.3300 661.4811 667.9864 668.0255
   668.0255 668.3026 668.3775 668.3775 672.0332 672.0468 672.0468 672.0765
   672.0791 672.0791 677.1803 677.4160 677.4160 677.9048 678.0205 678.0205
   678.1668 678.1668 678.3321 678.7158 680.3150 680.3150 681.5240 681.6867
   681.6867 682.4355 682.4355 682.5667 682.6813 682.6813 682.8038 682.8038
   682.8792 682.9816 688.4498 688.5910 688.5910 688.6216 689.4190 690.1550
   690.1550 691.0427 691.0427 692.2210 692.2210 693.5637 693.6267 693.6267
   693.9573 693.9573 693.9637 694.0630 694.2395 694.2395 694.2962 694.9154
   694.9735 694.9735 695.2661 695.2661 695.5334 695.8009 695.8009 695.8229
   696.0238 696.0238 696.0672 697.5160 697.5160 700.2023 701.8035 703.1353
   703.3961 703.3961 703.5091 703.5091 704.2207 704.4014 704.4014 705.1425
   705.1425 706.1634 707.0534 707.1312 707.1312 707.3452 707.4181 707.4181
   708.5012 708.5012 708.5395 708.9599 708.9599 708.9873 709.9795 709.9795
   709.9828 710.0610 710.0610 710.1125 711.2048 711.2048 711.3273 711.7294
   713.7735 713.7735 714.0337 714.0409 714.0409 715.1325 715.1325 715.5185
   718.3632 718.3632 718.5538 718.5538 718.7636 718.7636 718.9373 719.4683
   719.5829 719.5829 720.0627 720.1322 720.1395 720.4156 720.4156 720.4521
   720.5115 720.6697 720.7139 720.7139 720.8196 720.8196 720.9663 721.2063
   721.2063 721.2540 721.4446 721.4446 721.4863 721.4863 724.8417 724.8904
   725.0826 725.0826 725.4090 725.4090 727.3975 727.7614 728.2200 728.2200
   728.7390 728.8502 728.8502 729.1681 729.1681 729.3268 729.6400 729.9827
   729.9827 731.5902 732.1812 732.1812 732.3231 732.5016 732.5469 732.5469
   732.8046 732.8422 733.5099 733.5099 733.5158 733.5158 734.5508 734.5508
   734.6206 734.6206 734.8683 734.8707 735.1500 735.1500 735.1566 735.1566
   735.5495 735.5544 735.5544 735.5920 735.5999 735.5999 742.6497 742.6497
   742.9285 743.3348 743.8995 743.8995 744.6965 744.7207 744.8151 744.8553
   744.8553 744.8743 744.8743 744.9901 744.9901 745.8194 746.2485 746.2485
   746.8451 747.0464 747.0464 747.2402 747.3350 747.3350 747.4165 747.4739
   747.4739 747.7101 747.7541 747.7541 750.9880 751.7697 751.7697 752.0154
   752.0154 754.6851 755.8200 755.8200 755.8998 755.8998 756.4607 756.4623
   758.1674 758.4090 758.4090 758.8696 758.8696 759.2930 759.7231 759.7231
   759.7468 759.7694 759.8271 759.8271 761.5861 761.9800 761.9800 762.3207
   762.4716 762.4716 762.7312 762.7312 762.9149 763.8717 765.3172 765.3172
   768.4246 768.6217 768.6217 768.7310 769.3158 769.3158 769.3554 769.3554
   769.6804 770.2405 770.2405 770.2872 770.2872 770.3452 770.4417 770.6075
   770.6075 770.7224 772.1309 772.1309 772.1729 772.1729 772.2802 772.2823
   773.1459 773.3430 773.3430 773.3808 773.3808 773.5422 775.1587 775.1587
   775.1949 775.2494 775.2934 775.2934 775.3981 775.3981 775.4344 775.4545
   775.5292 775.5292 780.8565 780.8948 780.8948 781.3676 782.0602 782.0602
   782.4488 783.7635 784.1314 784.1314 784.1769 784.1769 785.2933 785.4029
   785.4029 785.8362 785.8362 785.8905 787.1331 787.2566 787.2566 788.0886
   788.0886 789.2675 789.8426 789.9572 789.9572 789.9871 791.7068 791.7221
   791.7221 791.8217 791.8217 791.8629 795.6122 795.9249 796.0219 796.0219
   799.4472 799.6073 799.6073 799.8669 799.9214 799.9214 801.4174 801.4174
   801.4291 801.4472 801.4809 801.4809 804.0694 804.3305 804.3305 805.0124
   805.3963 805.3963 807.5824 807.5824 807.8552 807.9205 808.0317 808.0317
   808.2456 808.2947 808.2947 808.5458 809.3164 809.3164 810.7050 810.7982
   810.7982 810.9665 810.9665 811.1193 811.5699 811.5699 811.9459 812.0306
   812.0306 812.0783 815.3290 815.6666 815.6666 816.6754 816.7091 816.7091
   816.9697 817.4005 817.4005 819.1254 819.1254 819.3431 819.9365 819.9365
   820.3278 820.3278 820.4850 820.4850 820.6386 820.6497 820.9299 820.9299
   821.0973 821.1400 821.3764 821.5403 821.5403 821.9777 822.0139 822.0139
   824.2888 826.2101 827.2561 827.2561 827.2914 827.2914 828.9896 828.9896
   829.0026 830.1701 830.1701 830.8277 833.2888 833.2888 833.3235 833.5797
   833.5797 833.6556 833.8296 833.9407 833.9407 834.1097 834.3373 834.3373
   834.3662 834.4081 834.4081 834.5168 834.5168 834.6125 834.7700 834.7700
   834.8217 834.8217 834.8321 834.9114 834.9114 834.9872 835.0093 835.0141
   835.0141 835.0922 835.1108 835.1108 835.1611 835.1611 835.3017 835.3208
   835.3208 835.3393 835.3425 835.3977 835.8667 835.8667 841.5208 841.5747
   841.5747 841.7664 841.7664 841.8063 842.3794 842.4627 842.4627 842.6957
   842.9067 842.9067 843.5623 843.7603 844.1416 844.1416 844.4254 844.6605
   844.6605 845.1744 846.3001 846.3001 846.3023 846.3434 846.3434 846.4003
   846.4003 846.6816 846.8380 846.8380 848.7173 848.7186 848.7186 848.7227
   848.7369 848.7369 850.0178 850.0178 850.0187 850.0187 851.2245 851.2245
   851.2254 851.2310 851.2310 851.2373 851.3663 851.3663 851.4475 851.4541
   851.4743 851.5527 851.5527 851.7328 856.4574 856.4574 856.5670 856.5670
   856.5980 857.2915 861.0392 861.2196 861.2196 861.3124 861.3124 861.3134
   861.9213 861.9213 861.9432 861.9432 862.0195 862.0224 866.2625 866.4489
   866.4489 866.8843 868.2543 868.2543 868.6948 868.8504 868.8504 869.3484
   869.3484 869.3813 869.5795 869.5918 869.5918 869.6881 869.6881 869.7345
   873.2521 873.3238 873.3238 873.4064 873.4064 873.5095 876.1057 876.1057
   876.5596 877.7072 878.0324 878.0324 879.2456 879.7371 879.7488 879.7488
   880.3438 880.3438 882.6922 882.8472 882.8472 883.0167 883.0167 883.5110
   883.6845 883.6845 883.7740 883.7821 883.8040 883.8040 883.8227 884.0203
   884.0203 884.4301 884.4301 884.6066 885.5199 885.6180 885.6180 885.8361
   885.8361 886.0011 886.1132 886.1160 886.1160 886.1438 886.1438 886.1735
   886.1938 886.2475 886.2475 886.4585 886.4585 886.5772 887.2721 887.3565
   887.3565 887.4503 887.4503 887.6165 889.6549 891.8626 893.3049 893.3049
   894.1480 894.1480 894.7703 897.1712 897.7535 897.7535 897.8226 897.8226
   897.9196 897.9265 897.9667 898.0697 898.0697 898.1856 898.2417 898.2924
   898.2924 898.4408 898.4408 898.5135 898.5135 898.6957 898.7276 898.7276
   898.7439 898.7439 898.8831 899.0229 900.0183 900.0183 900.0258 900.0258
   905.9833 905.9833 906.0355 906.0442 906.3630 906.3630 907.2983 907.3109
   907.3109 907.4678 907.4678 907.5171 907.7667 907.7667 908.1282 908.1282
   908.2919 908.8435 909.5915 909.6002 909.6171 909.6255 909.6255 909.6642
   909.6642 909.7617 909.8983 909.8983 909.9608 909.9608 910.0964 910.0964
   910.1519 910.2843 910.2843 910.3357 913.0784 913.0784 913.0896 913.1264
   913.1264 913.1587 916.8821 917.2726 917.2726 917.2904 917.4172 917.4172
   920.3418 920.3418 920.4110 920.4726 920.4726 920.8671 922.8797 922.8914
   923.2701 923.2701 923.2764 923.2764 923.8963 923.9102 923.9102 923.9753
   923.9753 924.0030 924.0909 924.0909 924.1117 924.1268 924.1268 924.1275
   925.2918 925.2918 925.2994 925.2994 925.4939 925.4944 927.6684 927.9732
   928.0733 928.0733 928.0860 928.0860 930.2567 930.9630 931.2409 931.2409
   931.3661 931.3661 934.7403 934.7403 934.7484 934.9718 935.2053 935.2053
   935.8098 935.8767 935.8767 936.0666 936.0666 936.1534 936.2077 936.2077
   936.2264 936.2264 936.6628 936.6667 940.5485 940.8320 941.5362 941.5362
   941.5426 941.5426 946.4359 946.5095 946.5095 946.7280 947.0223 947.0223
   947.0589 947.0589 947.1843 947.1944 947.1944 947.2465 948.1864 948.2216
   948.2371 948.2371 948.5356 948.5356 949.9119 949.9362 949.9362 949.9661
   949.9661 949.9993 952.7260 952.7260 952.7441 952.7441 952.9120 953.0565
   954.4140 954.5197 954.5197 954.5813 954.5813 954.6640 957.8445 957.9085
   957.9085 958.0899 958.0899 958.1618 958.9101 958.9101 958.9301 959.0022
   959.0331 959.0331 959.0663 959.0767 959.0951 959.0951 959.1444 959.1444
   960.7745 960.7895 960.7895 960.8303 960.8303 960.8653 961.5679 961.6277
   961.6277 961.6671 961.6671 961.7178 962.7287 962.7387 962.7444 962.7444
   962.7583 962.7583 964.6097 964.6097 964.7331 964.7855 964.7855 964.8394
   966.6153 966.6445 966.6445 966.7045 966.7045 966.7275 972.3672 972.3672
   972.3795 972.4912 972.4912 972.5183 973.4844 973.4925 973.4925 973.5540
   973.6047 973.6047 973.6433 973.6433 973.7448 973.7528 973.7528 973.7606
   975.0313 975.0745 975.0800 975.0997 975.0997 975.1015 975.1258 975.1258
   975.1874 975.1874 975.2497 975.2497 978.1870 978.3923 980.7360 980.7360
   980.7888 980.8102 980.8102 980.9463 985.2052 985.2052 985.2185 985.2185
   985.6894 985.7752 986.9199 986.9437 986.9437 986.9850 986.9850 987.0136
   988.1188 988.1188 988.1380 988.1380 991.6662 991.6662 991.6936 991.6936
   992.6997 992.9463 993.8580 994.0806 994.0806 994.3244 994.3244 994.5398
   994.9348 994.9348 994.9486 994.9519 994.9646 994.9646 995.6290 995.6586
   995.6586 995.7257 995.7257 995.8359 997.8868 997.8868 997.9831 998.0290
   998.0290 998.0441 998.7121 999.2493 999.24931000.27041000.27041000.3581
  1000.48091000.48091000.69861000.69861000.70121000.80651001.42571001.4634
  1001.46341001.54251001.54251001.57601002.74401002.74401002.76501002.7650
  1003.08681003.27651004.34571004.39011004.39011004.41951004.43401004.4340
  1004.45671004.51491004.51491004.52661004.52661004.54761006.74771006.7477
  1006.78701006.90251006.90251006.95651008.80351008.89181008.89181009.0759
  1009.07591009.13011012.38181012.38181012.43241012.45291012.47211012.4721
  1018.04251018.04251018.05031018.07621018.07681018.07681021.45851021.4585
  1021.47961021.47961021.51941021.54441024.07991024.20651024.34061024.3406
  1024.46151024.46151024.77781024.77781024.89301024.89301025.01531025.1531
  1025.17011025.28611025.35811025.35811025.38701025.38701026.91071026.9331
  1026.93311026.96121026.96121026.96301027.10251027.10251027.18821027.3141
  1027.31411027.32741032.82431032.82431032.85521032.85521032.86551032.9458
  1033.47791033.64111033.64111033.75321033.82141033.82141034.67761034.6776

          k = 0.0000 0.5000 0.0000 (  4432 PWs)   bands (ev):

   -93.6687  -7.2578   2.7690   3.8960   3.8960   9.9657  12.1076  14.1765
    14.1765  16.6027  19.5412  22.3791  24.5283  24.5283  25.1756  28.2421
    28.2421  30.9887  33.0542  35.0823  37.6433  40.2702  40.2702  41.5682
    45.1604  45.1604  46.8770  48.8219  49.7945  51.9632  51.9632  53.4594
    55.1797  55.1797  58.0314  58.3969  58.8025  58.8025  59.2864  61.1362
    62.0672  62.0672  63.5691  66.5675  66.7721  66.7721  68.8596  70.3005
    72.2348  72.2348  73.1511  73.7417  74.7645  78.8642  79.1680  79.1680
    81.5450  83.2352  84.1533  84.1533  85.1903  88.4957  88.5094  88.5094
    90.8007  93.5756  93.5756  94.6148  94.6430  96.2857  96.9869  96.9889
    96.9889  98.4096 100.1484 100.1484 100.7643 102.0440 104.1155 105.3070
   105.3070 108.5776 108.5969 108.8172 108.8172 110.4617 111.9156 111.9156
   115.0619 116.7204 117.2234 117.2234 118.7717 120.8822 121.4267 121.8837
   121.8837 122.4053 122.4053 122.5429 124.4632 125.0797 125.9175 126.1705
   126.2525 126.2525 129.2212 130.2768 131.2833 131.2833 132.2763 133.0318
   133.3478 133.3478 134.7258 134.7695 134.7695 135.6832 135.9468 136.1961
   136.6208 136.6208 138.6818 138.6818 139.4522 140.4164 143.9461 145.3455
   145.3455 146.7784 148.0433 148.2765 148.2765 149.7445 150.9689 151.4825
   152.9615 152.9615 155.3170 157.0143 157.0143 159.2365 159.5608 159.6123
   159.6123 160.3256 160.4545 160.4545 161.3497 161.9569 163.3333 163.3333
   164.8753 166.5875 166.8562 169.4880 169.4880 171.2721 171.7788 171.8976
   172.2996 172.2996 173.1912 173.1912 174.3195 174.7454 177.1975 178.0773
   178.0773 178.7547 181.8458 183.3959 183.8771 184.4222 184.4222 185.3494
   185.6333 185.6333 186.5117 187.3233 188.0698 188.0698 189.0269 189.4863
   190.2036 190.6217 190.6217 193.6114 194.0515 194.0515 195.9560 196.8833
   197.5077 198.3547 198.3547 199.2143 199.2143 200.7101 201.5950 202.3217
   202.3217 202.7303 203.1451 203.4849 203.4849 203.8194 204.2865 205.8478
   207.2917 207.2917 207.7945 210.1761 210.1761 210.5795 210.5795 210.6503
   212.2642 212.7857 213.7968 214.1552 214.4805 214.4805 214.6524 216.0997
   216.0997 217.0930 219.4210 219.6452 219.6452 221.5858 223.2173 223.6900
   223.8467 223.8467 224.6543 225.0885 225.7376 225.7376 226.5910 229.3719
   229.3719 231.1269 232.0107 232.0884 232.0884 232.7875 233.1195 234.6857
   234.8040 234.8040 236.3216 236.4119 236.4119 236.7021 236.8023 237.1434
   237.8494 237.9365 237.9365 240.4680 240.4680 241.9923 242.3442 242.3442
   242.8901 243.3212 244.8786 245.5602 245.5602 245.6536 245.8245 246.7802
   246.8715 246.8715 247.7279 247.7279 247.7691 248.1868 248.8970 248.9136
   249.1095 249.1095 249.7680 250.7235 250.7235 251.3914 253.0075 253.6284
   253.6284 254.1034 256.4281 257.7167 257.7167 258.0850 259.0064 259.7106
   260.5621 260.5621 260.6195 261.0998 261.5798 261.8272 261.8272 262.3482
   264.6986 264.6986 268.2532 269.6873 271.1175 271.5633 271.5691 271.5691
   272.8861 273.2698 273.6328 273.6328 275.4746 275.7390 275.7390 276.6941
   278.9207 280.3950 280.3950 282.2162 282.8980 284.0925 284.0925 285.3576
   285.3576 285.7559 286.8917 287.6976 287.6976 288.1898 289.2874 289.5930
   289.7544 289.7544 289.9740 290.7619 290.9542 290.9542 291.3200 293.4969
   294.3194 294.3194 295.1324 295.3829 295.9163 295.9163 296.4751 297.6700
   298.7372 299.1310 299.1310 300.1359 302.2972 302.2972 303.6198 304.7133
   304.7133 305.4322 306.7283 307.9389 310.3418 310.3418 310.8293 311.6834
   311.6834 312.1024 312.1501 312.1501 312.6459 313.0398 313.3868 315.3983
   315.8409 315.8409 316.4126 317.1824 317.4989 317.4989 318.7860 319.6065
   319.9651 319.9651 320.4231 320.5001 320.7579 321.4430 321.4430 321.8908
   321.8908 322.0209 322.3121 322.7469 322.7469 323.4542 323.8837 324.2620
   324.3672 324.3672 325.3442 325.5473 325.7387 325.9223 325.9223 326.9809
   327.5436 327.5436 328.3088 329.3106 329.3106 329.3777 329.4600 330.6083
   330.8794 330.8794 331.4712 331.4881 331.6218 331.6218 332.0843 334.7358
   334.7715 334.7715 335.9272 337.4786 337.6128 337.6128 337.7637 339.5845
   339.5845 339.6694 339.7266 345.1122 345.6609 345.6751 345.6751 345.7422
   346.3300 347.6376 347.6376 347.6401 349.0760 349.8696 349.8696 349.9177
   350.9711 351.4139 351.4139 351.6971 351.8207 352.0132 352.5423 352.5423
   353.3298 353.5369 353.6371 353.6371 354.7423 358.3091 358.9524 358.9524
   359.6947 360.8722 361.3350 361.3350 361.9957 361.9957 362.1084 362.5527
   363.0524 363.1973 363.2601 363.2601 363.3779 363.8836 364.4486 365.1201
   365.1201 367.2124 367.2124 368.9913 369.7676 369.7676 370.3681 370.4606
   371.4730 372.7571 372.7571 372.8977 373.4696 373.4696 373.7858 374.2240
   375.4169 375.4250 375.6540 375.6540 375.8941 375.8941 376.3711 378.1496
   379.5078 380.5783 380.5783 381.8101 382.6414 383.1420 383.1420 384.0861
   385.5803 385.8011 385.8544 385.8544 386.8329 386.8329 386.9335 387.1545
   387.6050 388.5646 388.5646 388.9004 389.2711 390.0106 390.0106 390.1338
   390.6853 390.9160 390.9160 391.0106 391.6903 393.0092 393.0092 394.7055
   395.2570 397.3214 397.4061 397.4061 397.9614 397.9614 397.9826 398.8701
   399.2636 399.4697 399.4697 401.3615 401.5067 402.1571 402.1571 402.2791
   402.8124 402.8649 402.8649 402.9963 403.3281 403.3281 403.4716 403.6963
   405.0423 405.1527 405.1527 405.3201 405.3208 409.3528 409.3528 410.7618
   410.7618 411.2739 411.7627 412.7435 413.4806 415.9397 415.9397 416.7755
   419.6365 420.5412 420.5412 420.9600 421.4952 421.7135 421.9653 421.9653
   422.0709 423.8656 423.8656 424.4410 424.7816 425.3473 425.3473 425.7493
   429.6764 429.9976 430.1732 430.1732 430.2785 430.9623 431.0830 431.0830
   432.5671 432.9065 433.2520 433.2520 434.8067 434.8067 435.0436 435.0436
   435.5734 435.9780 436.0201 436.6892 437.7122 437.7313 437.7313 438.2753
   438.3057 438.4545 438.4545 438.5837 438.7447 439.0060 439.0060 439.3633
   440.2322 440.4386 440.4386 440.6586 441.9828 442.1221 442.1934 442.1934
   442.7741 443.2425 443.2425 443.4110 444.2071 446.3339 446.7001 446.7001
   447.1120 447.8396 449.8763 449.8763 451.2471 453.2869 453.4181 453.4181
   453.6566 455.0723 455.3632 455.3632 455.7976 456.2939 456.2939 456.8547
   457.1348 457.3885 460.6292 460.9175 460.9175 461.6488 462.6206 462.7442
   462.7442 463.3880 463.3880 463.4246 463.9238 464.1617 464.6344 464.6344
   464.8667 465.4148 466.3085 466.4683 466.5225 466.5225 467.4462 467.4462
   467.7567 468.5962 468.5962 468.6000 468.6521 470.2604 470.9872 470.9872
   471.6867 472.0947 472.1278 473.3408 473.3408 473.7963 474.2570 474.2570
   474.4286 474.5248 474.8556 475.1820 475.1820 477.0384 477.0384 477.0980
   477.1118 477.2285 477.6581 477.6581 478.0527 478.2544 478.2544 478.3043
   479.8381 480.9083 481.1636 481.1636 481.4294 483.5221 484.0251 484.0251
   484.0700 485.2267 485.6395 485.6395 486.0761 489.6092 489.7270 489.7270
   490.1751 494.5694 495.1424 495.2974 495.5057 495.5057 496.0217 496.7612
   496.7612 497.2194 497.2194 497.4059 497.5263 498.2378 498.8251 499.3469
   499.5785 499.5785 500.4521 500.4521 500.7740 500.7740 501.0687 501.3559
   501.3559 501.5117 501.6056 502.0432 502.3701 502.5237 502.5480 502.5480
   502.6490 502.7786 502.9362 502.9362 503.1559 503.2784 503.4675 503.4675
   503.7244 505.8820 507.6752 507.7961 507.7961 507.8188 508.2638 508.2638
   508.4294 508.4366 509.8563 509.8563 510.4508 511.1811 511.1811 511.3936
   511.8610 512.0172 512.0172 512.1088 514.4631 514.6265 514.6265 514.7062
   514.8793 515.0414 515.4487 515.4487 515.9115 515.9169 516.5457 516.5457
   516.6460 516.6795 516.7702 516.7702 517.1796 517.1954 517.2859 517.2859
   517.7507 518.0579 518.0685 518.0685 518.1151 519.0777 519.2119 519.2557
   519.2557 522.1043 522.2489 522.8384 522.8384 526.8748 527.1297 527.1297
   527.5368 527.7417 527.7417 527.8590 528.0274 528.1461 528.1461 528.1655
   529.0743 529.6837 530.1129 530.2749 530.2749 533.6264 533.8114 533.8114
   534.0730 542.1426 542.1426 542.5792 542.8230 543.3491 544.3548 544.4054
   544.4054 544.5217 544.8150 544.8150 545.5799 546.1589 546.3824 546.8160
   546.8160 546.8758 547.0608 547.4342 547.4342 547.5807 548.0284 548.4475
   548.4475 549.6858 550.0836 550.0836 552.0193 553.4326 553.4326 553.8271
   554.2822 554.8323 555.0342 555.0342 555.4878 555.9868 556.3643 556.3643
   556.8188 556.8407 558.3328 558.3328 558.9488 559.1754 559.3364 559.3364
   559.8326 561.8582 562.7960 563.0548 563.3985 563.5554 563.5554 563.9141
   564.6057 564.6057 565.4576 565.4576 565.4672 565.6339 565.8981 565.8981
   566.0453 566.0485 566.5251 568.9847 570.8710 570.8710 571.4532 573.9910
   573.9910 574.0110 574.6184 574.7034 575.3029 575.3029 575.9301 576.0276
   576.0361 576.0361 576.4265 576.7388 576.8935 576.8935 577.1206 577.2228
   577.2228 577.4296 577.4429 577.4429 577.4981 577.6343 578.1976 578.2875
   578.5680 578.7226 578.7226 579.7152 580.1783 580.1783 580.5147 580.5298
   580.5298 580.9343 581.2574 581.4761 581.4761 581.6056 584.0372 587.0907
   587.4028 587.4028 587.4406 588.4564 588.4754 588.4754 588.7630 589.1148
   589.6480 589.6781 589.6781 589.8349 589.8349 591.1220 591.3696 591.3696
   591.3849 592.4331 592.4452 592.4452 592.5552 592.8122 592.8122 592.8300
   592.8391 592.9879 592.9879 593.0492 593.2251 593.5664 598.1108 598.1108
   598.5919 598.6178 598.8344 599.0403 600.5892 600.9530 600.9530 601.2845
   601.4750 601.8312 601.8312 602.5743 602.5743 603.1121 603.1470 604.0985
   604.6173 604.6173 610.6812 612.3237 612.3237 612.4131 612.9406 613.1074
   613.1074 614.2216 614.3047 614.5232 614.5232 615.2201 616.1765 616.7741
   616.7741 616.9327 618.6694 618.8133 618.9048 618.9048 619.0465 619.8000
   620.3713 620.5714 620.5714 621.4662 622.5379 622.5379 623.2775 623.7086
   623.7086 623.8971 624.3522 624.3522 624.9254 625.3427 625.5223 625.5761
   625.5761 627.9343 628.2968 628.4664 628.5459 628.5459 628.6735 628.9088
   628.9960 628.9960 629.3046 629.5712 629.5712 629.5881 629.8287 631.3444
   631.3444 632.1714 632.9599 633.0562 633.3722 633.3722 635.5580 635.6835
   635.8941 635.8941 636.0842 636.5325 636.6609 636.6609 639.4334 639.8641
   639.8641 640.1299 640.4925 640.8110 640.8110 641.0248 641.0510 641.3478
   641.3478 641.5163 641.7420 641.7420 641.7442 641.8531 641.9145 641.9333
   641.9333 642.2430 643.5830 643.5830 643.6821 643.9769 645.0666 645.0666
   645.4390 645.7504 645.9961 649.3466 649.3466 650.9259 651.2722 651.5264
   651.6430 652.0050 652.0050 652.4062 652.4062 652.4152 652.9120 652.9679
   653.0713 653.0713 655.1805 655.1805 655.2146 655.3190 655.9270 656.0401
   656.0401 656.1183 657.2069 657.2070 658.1969 659.3552 660.2930 660.3715
   661.4020 661.4020 663.4927 663.6592 663.9960 663.9960 664.2200 664.9580
   665.0416 665.0416 665.2730 665.2730 665.4335 665.6536 665.7782 665.7782
   665.7921 665.8839 666.1679 666.3766 666.5863 666.5863 666.7451 666.8018
   666.8018 666.8378 667.0882 667.5246 667.6909 667.7284 667.7284 667.7933
   667.7933 667.8704 668.0978 668.0978 668.2073 668.2191 668.2467 668.4274
   668.4274 668.5707 670.2284 670.2364 670.2364 670.3807 675.5842 676.2088
   677.1648 677.1648 677.9272 677.9272 678.0249 679.3808 679.8556 679.8556
   679.8728 680.0230 680.1174 680.1890 680.1890 680.1920 680.2679 680.2758
   680.5692 680.6804 680.6804 680.7880 680.7880 680.9395 682.7885 683.3825
   683.7187 683.7187 683.9319 684.6064 684.6064 685.1373 685.8203 685.8786
   687.5040 688.2900 688.2900 688.9466 689.0357 689.0357 689.6113 689.8833
   689.8833 690.4095 690.4789 691.1217 691.1217 691.2055 691.6527 692.0584
   692.1693 692.1693 692.1796 692.2753 692.4190 692.4190 692.5726 693.3295
   694.1734 694.1734 694.7191 695.1757 695.3446 695.3446 695.5772 695.7181
   695.9367 695.9367 696.0352 696.0378 697.3514 697.4825 697.9071 697.9071
   700.4840 700.4840 700.5357 700.5803 700.8651 700.8651 701.0189 701.5218
   702.3447 702.8242 702.8242 702.9974 703.5150 703.5598 703.7162 703.7162
   703.9202 704.1803 704.5253 704.5253 706.2713 706.2713 707.0416 707.4247
   707.4247 707.7011 707.7835 707.9399 707.9399 708.1086 708.1696 709.5895
   709.6300 709.6300 709.7023 709.7833 714.0398 714.6567 714.6567 714.8585
   716.2858 716.2858 717.8585 718.0621 718.0621 718.2592 719.2573 719.4122
   719.4122 719.4284 720.3173 724.8590 725.0413 725.0731 725.0731 725.2153
[...]
   242.3308 243.4468 243.7073 244.1515 246.6059 246.9339 247.0644 248.0132
   250.9440 251.0501 251.5579 251.7126 253.2397 253.7138 255.4508 255.7782
   255.8505 256.2811 258.2746 258.6084 260.9993 262.2175 263.0305 263.0650
   263.2587 263.3234 263.9025 264.1416 264.6435 264.8694 265.3422 265.7506
   265.8362 265.9737 266.4736 266.9880 267.1894 267.4307 267.8201 268.0058
   268.3565 268.4026 268.5914 268.9601 269.0342 269.5874 269.6472 269.8050
   275.8666 276.2183 276.6152 276.8827 277.6029 278.1199 278.5546 278.6819
   279.3384 279.5760 279.6256 280.1769 280.5022 280.5417 280.5858 280.7058
   284.2679 284.4804 284.6229 285.6400 286.0804 286.2315 286.2924 286.3929
   286.6784 286.7250 288.4420 288.6979 290.3419 290.3500 290.3773 290.5581
   290.6096 292.4080 292.9981 293.0641 293.8762 294.0451 294.0790 294.4056
   295.0248 295.0445 295.2409 295.4481 295.9746 296.2965 296.3627 296.3737
   298.3172 298.6067 298.6477 298.8860 302.2155 302.2287 302.3059 302.6003
   303.0420 303.1070 303.1368 303.1804 307.2360 307.4030 307.5655 307.5686
   309.1901 309.3918 309.5443 309.8765 310.0164 310.0752 310.1267 310.7895
   312.6108 313.1345 313.2070 313.6514 316.0312 316.1964 317.0596 317.3069
   317.8058 317.9209 317.9694 318.1653 324.5319 324.5617 324.5959 325.3030
   325.6098 326.6432 326.8154 326.8836 327.7414 328.8753 328.8803 329.6400
   329.8058 330.1448 330.4112 330.5327 330.9202 330.9264 331.6986 332.0335
   334.1411 335.1602 335.2920 335.6329 337.1443 337.4771 337.5570 337.7691
   340.8655 341.3833 341.7621 341.8863 341.9205 342.1772 342.4502 342.5523
   343.2388 343.6217 343.7447 343.8327 344.8346 344.9431 345.6556 346.5049
   346.5936 346.6461 346.7324 347.0932 350.0578 350.1292 350.5634 350.9600
   350.9729 351.0170 351.4382 351.7273 351.7560 351.9099 352.2243 352.4240
   352.8253 352.9070 355.5107 355.7054 355.7454 355.8287 357.0102 357.5468
   362.0306 362.1705 362.1712 362.2300 362.7129 363.2882 363.3562 363.5059
   365.8591 365.9598 365.9889 366.0827 366.9725 367.3406 367.5724 367.9977
   369.6350 369.7436 369.9338 369.9568 370.3724 371.2484 371.4618 371.5777
   372.8723 373.0279 373.1417 373.3814 376.2353 376.4793 377.2687 377.4272
   378.2504 378.5323 379.1044 379.1132 379.3412 379.6720 379.7653 380.1524
   380.2943 380.3933 380.5446 380.6248 381.8481 382.1723 382.1753 382.3498
   383.6190 383.6749 383.6878 383.6984 389.3948 389.7001 390.7566 390.8680
   392.1115 392.7005 392.7645 392.9517 393.5207 394.5855 395.1886 395.7483
   397.2141 397.2823 397.3129 398.3878 398.5549 398.6984 399.0196 399.2105
   400.0476 400.9783 401.1299 402.2284 404.4815 404.7417 404.9511 405.1594
   405.2921 405.7236 405.8408 406.3362 406.8909 406.9092 407.1007 408.0290
   408.1763 408.6735 409.0790 409.2153 409.6825 409.7380 409.8829 409.8855
   410.0757 410.0964 410.1430 410.3021 413.6532 413.8374 413.8679 414.3609
   414.7699 415.0009 415.0018 415.1557 415.1610 415.2318 415.4209 415.4300
   415.7040 415.8039 415.9980 416.1053 416.7123 416.8170 416.8894 416.9544
   418.6652 418.8424 419.0041 419.2409 420.0358 420.1197 421.0181 421.5201
   422.5375 422.8065 422.8757 422.9080 423.0200 423.0943 423.2096 423.3170
   423.3687 423.3760 423.4517 423.6039 429.6586 430.1381 430.3058 431.7655
   432.1119 432.4225 432.5066 432.5628 432.7166 432.8184 432.9143 433.1939
   436.0574 436.9599 437.1655 437.2423 437.6036 437.8764 438.1174 438.5431
   439.4557 439.5418 440.1442 440.2059 441.0834 441.2038 441.4640 441.5855
   442.6526 442.7677 442.9148 442.9984 443.2715 444.2044 444.5141 444.5652
   444.9624 444.9635 445.0640 445.2048 446.0296 446.0848 446.4272 446.7563
   449.0366 449.7936 453.8893 453.8907 453.9334 454.0244 454.9407 455.0371
   455.2604 455.6066 455.9147 455.9915 456.0888 456.1073 456.1357 456.3075
   456.5449 456.5792 456.6752 456.8625 457.1101 457.4760 457.4921 457.8521
   458.0406 458.0871 458.3755 458.3940 458.4077 458.5052 458.7853 460.0933
   460.1034 460.1838 460.2488 460.3231 467.9505 468.6383 468.9384 468.9528
   469.0117 469.2983 470.1126 470.1906 470.3165 470.4344 470.4594 470.8044
   470.9958 471.0165 471.0567 471.2259 471.3165 472.3697 472.5027 473.8439
   476.9988 477.4684 477.6906 477.8949 478.2138 478.4078 479.0811 479.1745
   480.0216 480.2245 480.4650 480.5324 480.8290 481.3799 481.6157 481.9982
   482.7701 484.3133 484.6850 484.7839 485.0955 485.1089 485.2295 485.3104
   493.4184 493.4684 493.6254 493.8396 494.2329 494.2468 494.8435 494.8755
   495.4238 495.6654 495.9175 495.9204 498.3919 498.4270 498.8424 498.8466
   500.1446 500.5925 500.5947 501.3734 502.0493 502.3796 502.7708 503.4847
   503.6159 503.6799 504.8835 505.2000 505.7700 505.7822 506.3693 506.4691
   506.7764 506.7782 507.0871 507.3458 508.6439 508.6727 508.7119 509.0041
   509.0438 509.3224 509.3750 509.5661 513.6257 514.0414 515.0127 515.0309
   515.1835 515.1845 517.1530 517.6015 518.5974 518.7176 518.7770 518.8407
   519.0517 519.1416 519.2017 519.3486 520.3976 520.4038 520.6301 520.6530
   520.7186 520.7993 521.0248 521.1115 524.2552 524.9224 525.0940 525.4930
   525.7891 526.7110 527.2826 527.5622 527.9485 528.7804 529.2328 529.6614
   530.4323 530.8215 531.1288 531.2739 531.4249 531.6399 531.6749 531.8923
   531.9108 532.2358 532.5248 532.5327 532.6299 532.8197 532.8560 532.9835
   533.0080 533.1568 533.3037 533.8182 534.2933 534.4224 534.5808 534.7014
   534.9857 535.1484 535.6790 535.7685 535.9375 536.1594 536.3936 536.4148
   537.1281 537.1776 537.4505 537.4925 537.5232 537.7238 537.8017 537.8129
   542.4992 542.5023 542.7430 542.8603 543.9546 544.1521 544.8250 544.8745
   544.9386 545.4399 545.4906 545.6294 545.7606 545.7764 546.3351 546.4275
   546.5870 546.6239 546.6946 546.6990 546.7393 546.7539 546.8286 546.8967
   546.9458 547.0583 547.1507 547.1748 553.5785 555.1061 555.6274 555.6459
   555.9443 556.7085 556.9975 557.5263 557.6882 558.4477 558.7421 559.0174
   559.2316 559.7475 559.9987 560.1167 560.7866 561.1476 561.1749 561.5325
   564.1922 564.2879 564.7892 564.7928 564.9752 565.0879 565.5465 566.4675
   566.4923 566.6185 568.3411 568.9062 569.4430 569.6759 569.8221 569.8380
   570.2095 570.2691 570.4370 571.1829 571.4329 571.5502 571.7389 571.8271
   571.8563 572.1322 573.1862 573.7300 575.1061 575.3244 575.5756 575.6501
   575.6523 575.6933 575.7307 575.7749 576.5203 577.1885 577.8391 578.1080
   578.9574 579.1790 579.2309 579.6016 579.6641 580.3076 580.5144 580.9765
   583.5170 583.7698 583.8162 583.8823 584.3398 584.4978 584.5531 584.5612
   589.3405 589.5170 590.1141 590.3037 590.5758 592.7112 592.7155 592.9196
   592.9234 593.0799 593.3378 593.4054 593.4216 594.0223 594.0342 594.1271
   594.2551 594.2661 594.7477 594.8174 595.1524 595.8002 595.9957 596.3693
   596.8932 596.9706 597.0684 597.6034 597.9198 598.3192 598.8177 598.9845
   600.0354 600.1656 600.3439 600.4326 601.1404 601.4013 601.4944 601.8452
   602.2565 602.4057 602.4475 602.8967 603.0326 603.1036 603.2644 604.2444
   605.2392 605.6787 606.9763 607.1580 607.3070 607.4538 608.3397 608.4151
   608.5557 608.8854 609.2192 609.3808 609.5209 609.6093 609.7059 609.7283
   609.7398 610.0193 610.0233 610.1033 610.2018 610.2355 610.3686 610.5442
   610.5452 610.6002 610.9936 610.9968 612.9411 613.1467 613.3084 613.3971
   613.4201 613.5887 613.6817 613.8659 620.8767 621.2053 621.2753 621.3135
   621.4693 621.5724 622.3151 622.3432 622.4663 622.4906 622.8637 622.9804
   624.8755 625.7046 626.3271 626.5713 627.1487 627.2025 627.2203 627.2424
   627.3701 629.2615 629.2870 629.9146 630.1101 630.2986 630.4073 630.4623
   630.5145 630.6647 630.9443 631.1238 634.0044 634.0218 634.0824 634.0971
   636.6214 636.7085 637.1162 637.2324 637.8712 637.8846 638.0736 638.1357
   638.5635 638.9267 639.0042 639.1096 641.4109 642.4604 643.0866 643.5276
   643.6055 644.3884 644.4468 644.5999 644.6689 645.0810 645.1149 645.1280
   645.4658 645.5216 645.9257 646.0700 646.0937 646.1567 646.4881 646.5884
   646.7090 647.0112 647.1436 647.4893 647.4904 647.5597 647.8083 647.8102
   647.8771 647.9826 648.0369 648.0395 648.4580 648.7088 648.9110 648.9623
   648.9628 649.6091 649.7034 649.7475 649.8976 650.1997 650.4799 650.5807
   659.2843 659.3709 659.5308 659.7988 659.8177 659.8403 660.0957 660.4181
   660.5353 660.6720 660.8637 661.0118 661.7767 661.8472 661.8651 661.8731
   665.1022 665.3335 667.0380 667.2099 667.9044 668.9895 669.2095 669.2448
   669.4389 669.5938 669.6436 670.8610 671.4551 671.6044 672.0154 672.0769
   672.9527 672.9704 673.0047 673.0398 673.0969 673.1988 673.2401 673.3777
   673.9850 674.1045 674.6086 674.7508 675.0611 675.2276 675.2844 675.5051
   676.7835 677.0065 677.4695 677.7343 677.7423 678.2459 678.5409 678.5762
   678.6150 679.9765 680.2063 680.2737 682.8074 682.8434 682.8836 682.8887
   683.7709 684.0747 684.3968 684.4529 684.5283 684.6417 685.2153 685.2677
   688.7450 688.8403 689.0176 689.1301 689.3213 689.3435 689.5787 689.7187
   689.8266 689.8561 689.8941 690.1877 690.3906 690.4597 690.5194 690.6174
   690.6496 692.1831 692.1900 692.3004 694.9182 695.1166 696.1608 696.7943
   697.0093 697.0901 697.5773 697.8139 698.0536 698.3152 698.4113 698.5097
   698.7326 698.8927 700.1615 700.3158 704.3191 704.5687 704.5843 705.2935
   705.4098 705.9711 706.5533 707.2369 707.2384 708.4002 708.4275 709.2426
   712.4833 712.6250 712.8248 712.8525 713.1501 713.1648 713.3355 713.6403
   714.6984 715.2434 715.6875 715.7143 715.7921 716.3870 716.4389 717.3743
   717.5688 717.7737 717.7907 718.2040 719.1803 719.1912 719.9452 720.0336
   720.6634 721.2780 721.4683 721.7215 721.7224 721.8841 722.0886 722.3123
   722.4370 722.7213 722.7702 722.7772 723.1800 723.3688 723.3727 723.4474
   723.4908 723.6087 723.6860 723.8139 723.8710 723.9406 724.1095 724.1978
   724.3112 724.4008 724.4682 724.5413 724.7985 724.8744 724.8884 725.2979
   726.0426 726.4029 726.4657 726.7669 727.2691 727.2985 727.3120 727.3192
   727.8559 727.9216 727.9697 728.1062 729.8776 730.9956 731.0204 731.1681
   731.2055 731.7362 732.8433 733.0095 733.4002 733.5761 733.7172 733.7283
   733.8481 733.9265 733.9531 734.5464 735.4810 735.7219 735.8089 736.0641
   736.4374 736.5342 736.7236 736.8278 736.9033 737.0244 737.1090 737.1588
   737.3013 737.3821 737.5374 737.6467 741.1468 741.8115 742.0775 743.0360
   743.1029 743.4991 743.8002 743.8175 744.0778 744.9646 745.3185 745.4707
   747.4108 748.1255 748.1964 748.4213 748.9419 749.2245 749.2759 749.5354
   749.5477 749.6557 749.6897 749.8075 749.8193 750.0193 750.0252 750.3006
   750.4048 750.4954 750.5394 750.6658 752.4346 752.8228 752.9743 752.9906
   753.0061 753.0214 753.0792 753.4055 753.8809 754.2305 757.6537 757.6608
   758.1428 758.1605 758.2268 758.6877 760.7778 760.9605 761.0296 761.1134
   761.1619 761.1930 761.2679 761.3593 761.3796 761.4003 761.4437 761.5837
   761.6184 761.7147 761.8586 762.0689 762.1156 762.2289 762.3407 762.4780
   763.9760 764.0197 764.1421 764.2514 765.3033 765.3128 765.3497 765.4120
   770.6163 770.6387 770.9467 771.1707 771.2720 771.3144 771.3712 771.7077
   771.8266 772.5514 772.6235 772.6948 772.9509 773.2912 773.5509 773.5758
   774.1476 774.2611 774.4821 774.5049 775.1653 775.3152 775.5149 775.5483
   782.0801 782.1409 782.2381 782.5130 782.6263 782.8066 782.9545 783.1748
   783.2118 783.6611 784.1002 784.1554 784.3152 784.4205 785.3009 785.3541
   786.5108 786.6027 786.6154 786.8593 786.9093 787.0475 787.5049 787.6120
   787.7114 787.8961 787.9594 788.2375 788.2777 788.3345 788.4108 788.4438
   792.8070 792.9633 793.2826 793.2971 793.3038 793.8603 794.2759 794.5304
   794.5945 794.8261 794.9361 795.3316 795.3480 796.8025 796.8050 796.9186
   797.0784 797.2867 797.4179 797.7320 798.3998 798.4727 798.5001 798.5632
   798.5695 798.8147 798.9639 798.9760 799.2458 799.2886 799.3130 799.3223
   799.4586 799.4745 799.5705 799.6894 799.7304 799.7320 799.7872 799.8869
   799.9027 800.0468 800.2342 800.2465 800.3188 800.4255 800.4901 800.5156
   800.5362 800.6981 800.7992 800.9964 801.8936 801.9058 801.9323 802.0620
   802.6776 802.8180 802.8356 803.1259 809.1692 809.2465 809.3550 809.3620
   809.4576 809.5213 809.9345 810.0644 812.6231 812.7156 812.7470 812.8227
   812.9274 813.0250 813.0465 813.0470 813.2114 813.2499 813.4185 813.6601
   813.7047 813.7530 813.7950 813.8002 818.4435 818.8400 819.0676 819.3144
   819.3536 819.3959 819.4895 820.0612 820.2888 821.7264 821.9203 822.5306
   824.3812 824.5113 824.5306 824.6291 824.7516 824.7706 824.8228 824.9562
   824.9986 825.0605 825.1022 825.1265 825.1434 825.2249 825.3622 825.4652
   825.9589 826.0252 826.0328 826.0791 826.1181 826.1551 826.3454 826.3680
   827.8825 827.9244 827.9560 828.0655 828.8132 830.5548 835.5964 836.0556
   836.1498 836.1805 837.3116 837.3195 837.4268 837.4639 837.5633 837.5993
   837.7403 837.7980 837.9445 837.9703 838.0646 838.1123 838.1474 838.3663
   838.6196 838.7845 839.6857 839.8284 842.1333 842.5996 842.6190 843.0015
   843.5858 843.5902 843.6727 846.6836 846.8465 846.8650 846.8749 846.9305
   850.0345 850.0631 850.2388 850.3066 850.5744 850.7096 850.9776 851.0471
   851.1048 851.1063 851.4274 851.7950 852.4120 852.6657 852.8133 852.8896
   852.9135 853.5469 855.3191 855.5341 858.8536 858.8777 859.0326 859.7264
   859.9650 860.0454 860.6128 860.7464 860.7631 860.8582 861.0205 861.0288
   862.3867 862.4249 862.5184 862.6341 862.8936 862.9876 863.0626 863.0692
   863.2975 863.3540 863.3583 863.4385 863.4942 863.5250 863.5346 863.5805
   863.6511 863.6828 863.8256 863.8547 864.9284 865.4103 865.4941 865.4998
   866.7865 866.8070 866.8115 866.8290 867.0730 867.1189 867.1409 867.1855
   867.1942 867.2734 867.3698 867.4495 869.8386 870.0949 870.1246 870.1690
   870.8944 870.8957 870.9113 871.0120 875.2152 875.2888 875.3614 875.5097
   875.5529 875.6000 875.6707 875.7192 875.7732 875.8244 876.0089 876.0861
   876.4582 876.4660 876.5476 876.5738 876.7371 876.7468 876.7616 876.8666
   879.5164 879.5499 879.5657 879.6111 879.9719 880.0618 880.1019 880.1653
   882.3797 882.7582 883.1031 883.2744 884.2196 884.3113 884.4555 884.6641
   886.6612 886.8605 886.8897 887.0017 887.0918 887.2476 887.2769 887.3111
   887.3732 887.3822 887.5271 887.7537 887.8759 887.9678 888.0558 888.0633
   892.7057 892.8004 894.9502 894.9623 897.1179 897.1746 897.2445 897.6011
   898.6419 898.9528 899.0907 899.1985 899.2879 899.3063 899.3774 899.6330
   899.7548 899.7628 900.0200 900.0768 900.1412 900.1786 900.2468 900.3160
   900.3551 900.3568 900.4386 900.4865 900.9080 900.9487 901.0536 901.1175
   904.0060 904.0095 904.0546 904.1141 905.5349 905.5386 906.0763 906.0844
   908.7931 908.8945 908.9944 909.0800 909.4939 909.5665 909.7598 909.8062
   910.6155 911.2504 912.5146 912.5573 912.8105 912.8469 912.9036 912.9413
   912.9608 913.0072 913.4618 913.4711 913.5369 913.5818 913.6540 913.6731
   913.7081 913.7087 913.9320 913.9410 914.5276 914.5278 914.5381 914.5459
   914.5773 914.5920 914.6055 914.6181 914.8808 914.9765 915.0033 915.0506
   915.7583 915.7951 915.9661 916.1533 916.1897 916.2651 916.3072 916.6302
   923.5548 923.6582 923.7320 923.8252 923.9424 923.9787 924.0270 924.1507
   924.3970 924.4746 924.4866 924.5618 925.2779 925.3062 925.3509 925.4078
   927.1940 927.2190 927.2453 927.2753 927.3306 927.3891 927.4513 927.4571
   928.6936 928.7215 928.8686 928.8691 929.0258 929.1545 929.1965 929.1989
   933.2354 933.5730 933.5939 934.1121 936.2796 936.2900 936.6644 936.7305
   937.2049 937.2260 937.3100 937.5869 938.7025 938.8868 938.9971 939.2078
   939.8842 939.9343 939.9809 940.0651 940.8604 940.8735 940.9763 941.1767
   942.4436 942.7421 942.7968 943.2393 943.3418 943.3712 943.4917 943.5543
   945.2073 945.2199 945.2460 945.4595 945.9158 945.9325 946.0374 946.0484
   946.8002 946.8428 946.9635 947.1003 948.6997 948.7042 948.7599 948.7692
   948.9409 948.9993 949.0850 949.0928 949.7892 949.9393 950.0991 950.1033
   952.9839 952.9905 952.9930 953.0279 953.8291 953.8489 953.9331 953.9415
   955.6671 955.6735 955.7146 955.7615 955.7736 955.7834 955.8430 955.8639
   955.8655 955.8860 955.9210 955.9969 956.0095 956.0343 956.0599 956.1233
   962.5443 962.5666 962.7042 962.7200 963.0212 963.0909 963.0958 963.1229
   963.8524 963.8572 963.9044 963.9587 964.1350 964.1492 964.2824 964.3423
   969.3257 969.3312 969.3815 969.7103 969.8791 969.9281 970.0389 970.1774
   970.2384 970.3966 970.5273 970.5601 971.5014 971.5246 971.6405 971.6793
   972.8802 972.9419 972.9693 973.0211 973.0853 973.2172 973.2400 973.4035
   973.4851 973.5833 973.6494 973.7961 975.1947 975.5270 975.5715 975.9791
   976.3731 976.3909 976.3985 976.4282 976.6499 976.7785 976.8556 976.8738
   976.9905 977.1145 977.1455 977.1751 977.3603 977.4269 977.4966 977.5508
   977.7073 977.7192 977.7399 977.9382 978.0717 978.1021 978.1098 978.2083
   978.9765 979.1164 980.9290 980.9811 981.3550 981.3918 981.3942 981.4181
   981.8498 981.8733 982.5754 982.5889 982.5903 982.6042 986.4968 986.4995
   986.5090 986.5205 987.0048 987.0202 987.0683 987.0686 987.5257 987.5269
   988.1079 988.1399 988.2857 988.3083 988.4068 988.5017 988.6975 988.6985
   988.7361 988.7719 988.8552 988.9755 989.2438 989.3187 989.3351 989.3555
   989.3695 989.4310 989.6091 989.6808 989.8424 989.8918 990.1775 990.2042
   990.2375 990.3060 990.3405 990.3892 990.5554 990.5598 990.5672 990.6034
   990.7077 990.7606 990.7943 990.8792 990.8796 991.1113 991.3533 991.4152
   991.4511 991.6394 992.4650 992.5902 992.8193 992.8603 992.9234 992.9302
   994.1549 994.1717 994.1894 994.2869 995.0262 995.0429 995.0679 995.1104
  1000.14181000.18121000.23101000.32871001.14601001.16031001.16091001.3114
  1002.13891002.15591002.20251002.22551002.42041002.46361002.48951002.4999
  1002.53801002.54451002.57351002.57431003.74351003.77891003.82991004.0053
  1004.20801004.21341004.24181004.37441009.41681009.47601011.21071011.2439
  1012.15071012.15981012.16851012.22441012.36251012.36861012.39781012.4344
  1014.36991014.37141014.50281014.51541014.56171014.57721014.58361014.5864
  1015.42651015.46661015.54281015.54981015.66951015.67001015.85141015.8904
  1017.76691017.91491017.91711017.93111020.22371020.26831020.28041020.2978
  1022.15951022.18941022.20311022.25151026.06751026.07471026.10101026.1052
  1028.31261028.34011028.41221028.44861028.50171028.58601028.59151028.6695

     the Fermi energy is     7.7337 ev
     (compare with:     6.6145 eV, computed in scf)

     Writing all to output data dir out/mp-422.save/
 
     init_run     :      0.05s CPU      0.06s WALL (       1 calls)
     electrons    :   4252.31s CPU   4560.09s WALL (       1 calls)

     Called by init_run:
     wfcinit      :      0.00s CPU      0.00s WALL (       1 calls)
     potinit      :      0.01s CPU      0.02s WALL (       1 calls)
     hinit0       :      0.01s CPU      0.01s WALL (       1 calls)

     Called by electrons:
     c_bands      :   4252.31s CPU   4560.08s WALL (       1 calls)
     v_of_rho     :      0.01s CPU      0.01s WALL (       1 calls)

     Called by c_bands:
     init_us_2    :      0.00s CPU      0.00s WALL (       8 calls)
     init_us_2:cp :      0.00s CPU      0.00s WALL (       8 calls)
     paro_k       :   4112.89s CPU   4409.93s WALL (       8 calls)

     Called by paro_*:
     h_psi        :     35.20s CPU     36.23s WALL (    1406 calls)
     g_psi        :      0.60s CPU      0.68s WALL (  144557 calls)

     Called by h_psi:
     h_psi:calbec :      0.46s CPU      0.47s WALL (    1406 calls)
     vloc_psi     :     34.23s CPU     35.22s WALL (    1406 calls)
     add_vuspsi   :      0.31s CPU      0.31s WALL (    1406 calls)

     General routines
     calbec       :      0.45s CPU      0.47s WALL (    1406 calls)
     fft          :      0.01s CPU      0.01s WALL (      10 calls)
     fftw         :     31.12s CPU     31.99s WALL (  237646 calls)
 
     Parallel routines
 
     PWSCF        :      1h10m CPU      1h16m WALL

 
   This run was terminated on:  23:22:21   7Dec2023            

=------------------------------------------------------------------------------=
   JOB DONE.
=------------------------------------------------------------------------------=
