
     Program PWSCF v.7.1 starts on  5Dec2023 at  9:14:39 

     This program is part of the open-source Quantum ESPRESSO suite
     for quantum simulation of materials; please cite
         "P. Giannozzi et al., J. Phys.:Condens. Matter 21 395502 (2009);
         "P. Giannozzi et al., J. Phys.:Condens. Matter 29 465901 (2017);
         "P. Giannozzi et al., J. Chem. Phys. 152 154105 (2020);
          URL http://www.quantum-espresso.org", 
     in publications or presentations arising from this work. More details at
     http://www.quantum-espresso.org/quote

     Parallel version (MPI), running on    24 processors

     MPI processes distributed on     1 nodes
     121396 MiB available memory on the printing compute node when the environment starts
 
     Reading input from pw_mp-1541_scf_k3000_E97.in
Warning: card &CELL ignored
Warning: card / ignored

     Current dimensions of program PWSCF are:
     Max number of different atomic species (ntypx) = 10
     Max number of k-points (npk) =  40000
     Max angular momentum in pseudopotentials (lmaxx) =  4
 
     K-points division:     npool     =       2
     R & G space division:  proc/nbgrp/npool/nimage =      12
     Subspace diagonalization in iterative solution of the eigenvalue problem:
     a serial algorithm will be used

 
     Parallelization info
     --------------------
     sticks:   dense  smooth     PW     G-vecs:    dense   smooth      PW
     Min         106     106     31                 2512     2512     408
     Max         108     108     32                 2514     2514     410
     Sum        1285    1285    379                30155    30155    4909
 
     Using Slab Decomposition
 


     bravais-lattice index     =            2
     lattice parameter (alat)  =       9.7660  a.u.
     unit-cell volume          =     232.8564 (a.u.)^3
     number of atoms/cell      =            2
     number of atomic types    =            2
     number of electrons       =        10.00
     number of Kohn-Sham states=           10
     kinetic-energy cutoff     =      97.0000  Ry
     charge density cutoff     =     388.0000  Ry
     scf convergence threshold =      1.0E-10
     mixing beta               =       0.7000
     number of iterations used =            8  plain     mixing
     Exchange-correlation= PBE
                           (   1   4   3   4   0   0   0)

     celldm(1)=   9.765986  celldm(2)=   0.000000  celldm(3)=   0.000000
     celldm(4)=   0.000000  celldm(5)=   0.000000  celldm(6)=   0.000000

     crystal axes: (cart. coord. in units of alat)
               a(1) = (  -0.500000   0.000000   0.500000 )  
               a(2) = (   0.000000   0.500000   0.500000 )  
               a(3) = (  -0.500000   0.500000   0.000000 )  

     reciprocal axes: (cart. coord. in units 2 pi/alat)
               b(1) = ( -1.000000 -1.000000  1.000000 )  
               b(2) = (  1.000000  1.000000  1.000000 )  
               b(3) = ( -1.000000  1.000000 -1.000000 )  


     PseudoPot. # 1 for Be read from file:
     /usr/scratch4/magr4985/MG/HTDF/pseudo/SG15/Be.upf
     MD5 check sum: dc1f98d164da9dc61a6fd2fad64b4ce2
     Pseudo is Norm-conserving, Zval =  4.0
     Generated using ONCVPSP code by D. R. Hamann
     Using radial grid of  602 points,  4 beta functions with: 
                l(1) =   0
                l(2) =   0
                l(3) =   1
                l(4) =   1

     PseudoPot. # 2 for Se read from file:
     /usr/scratch4/magr4985/MG/HTDF/pseudo/SG15/Se.upf
     MD5 check sum: e78e48a4f5d8ce1f8dc76ec1271f249c
     Pseudo is Norm-conserving, Zval =  6.0
     Generated using ONCVPSP code by D. R. Hamann
     Using radial grid of  602 points,  6 beta functions with: 
                l(1) =   0
                l(2) =   0
                l(3) =   1
                l(4) =   1
                l(5) =   2
                l(6) =   2

     atomic species   valence    mass     pseudopotential
        Be             4.00     9.01220     Be( 1.00)
        Se             6.00    78.96000     Se( 1.00)

     24 Sym. Ops. (no inversion) found



   Cartesian axes

     site n.     atom                  positions (alat units)
         1           Be  tau(   1) = (   0.0000000   0.0000000   0.0000000  )
         2           Se  tau(   2) = (  -0.2500000   0.2500000   0.2500001  )

     number of k points=    72  Gaussian smearing, width (Ry)=  0.0005
                       cart. coord. in units 2pi/alat
        k(    1) = (   0.0000000   0.0000000   0.0000000), wk =   0.0011574
        k(    2) = (  -0.0833333   0.0833333  -0.0833333), wk =   0.0092593
        k(    3) = (  -0.1666667   0.1666667  -0.1666667), wk =   0.0092593
        k(    4) = (  -0.2500000   0.2500000  -0.2500000), wk =   0.0092593
        k(    5) = (  -0.3333333   0.3333333  -0.3333333), wk =   0.0092593
        k(    6) = (  -0.4166667   0.4166667  -0.4166667), wk =   0.0092593
        k(    7) = (   0.5000000  -0.5000000   0.5000000), wk =   0.0046296
        k(    8) = (   0.0000000   0.1666667   0.0000000), wk =   0.0069444
        k(    9) = (  -0.0833333   0.2500000  -0.0833333), wk =   0.0277778
        k(   10) = (  -0.1666667   0.3333333  -0.1666667), wk =   0.0277778
        k(   11) = (  -0.2500000   0.4166667  -0.2500000), wk =   0.0277778
        k(   12) = (  -0.3333333   0.5000000  -0.3333333), wk =   0.0277778
        k(   13) = (   0.5833333  -0.4166667   0.5833333), wk =   0.0277778
        k(   14) = (   0.5000000  -0.3333333   0.5000000), wk =   0.0277778
        k(   15) = (   0.4166667  -0.2500000   0.4166667), wk =   0.0277778
        k(   16) = (   0.3333333  -0.1666667   0.3333333), wk =   0.0277778
        k(   17) = (   0.2500000  -0.0833333   0.2500000), wk =   0.0277778
        k(   18) = (   0.1666667  -0.0000000   0.1666667), wk =   0.0138889
        k(   19) = (   0.0000000   0.3333333   0.0000000), wk =   0.0069444
        k(   20) = (  -0.0833333   0.4166667  -0.0833333), wk =   0.0277778
        k(   21) = (  -0.1666667   0.5000000  -0.1666667), wk =   0.0277778
        k(   22) = (  -0.2500000   0.5833333  -0.2500000), wk =   0.0277778
        k(   23) = (   0.6666667  -0.3333333   0.6666667), wk =   0.0277778
        k(   24) = (   0.5833333  -0.2500000   0.5833333), wk =   0.0277778
        k(   25) = (   0.5000000  -0.1666667   0.5000000), wk =   0.0277778
        k(   26) = (   0.4166667  -0.0833333   0.4166667), wk =   0.0277778
        k(   27) = (   0.3333333   0.0000000   0.3333333), wk =   0.0138889
        k(   28) = (   0.0000000   0.5000000   0.0000000), wk =   0.0069444
        k(   29) = (  -0.0833333   0.5833333  -0.0833333), wk =   0.0277778
        k(   30) = (  -0.1666667   0.6666667  -0.1666667), wk =   0.0277778
        k(   31) = (   0.7500000  -0.2500000   0.7500000), wk =   0.0277778
        k(   32) = (   0.6666667  -0.1666667   0.6666667), wk =   0.0277778
        k(   33) = (   0.5833333  -0.0833333   0.5833333), wk =   0.0277778
        k(   34) = (   0.5000000   0.0000000   0.5000000), wk =   0.0138889
        k(   35) = (   0.0000000   0.6666667   0.0000000), wk =   0.0069444
        k(   36) = (  -0.0833333   0.7500000  -0.0833333), wk =   0.0277778
        k(   37) = (   0.8333333  -0.1666667   0.8333333), wk =   0.0277778
        k(   38) = (   0.7500000  -0.0833333   0.7500000), wk =   0.0277778
        k(   39) = (   0.6666667  -0.0000000   0.6666667), wk =   0.0138889
        k(   40) = (   0.0000000   0.8333333   0.0000000), wk =   0.0069444
        k(   41) = (   0.9166667  -0.0833333   0.9166667), wk =   0.0277778
        k(   42) = (   0.8333333   0.0000000   0.8333333), wk =   0.0138889
        k(   43) = (   0.0000000  -1.0000000   0.0000000), wk =   0.0034722
        k(   44) = (  -0.1666667   0.3333333   0.0000000), wk =   0.0277778
        k(   45) = (  -0.2500000   0.4166667  -0.0833333), wk =   0.0555556
        k(   46) = (  -0.3333333   0.5000000  -0.1666667), wk =   0.0555556
        k(   47) = (   0.5833333  -0.4166667   0.7500000), wk =   0.0555556
        k(   48) = (   0.5000000  -0.3333333   0.6666667), wk =   0.0277778
        k(   49) = (  -0.1666667   0.5000000   0.0000000), wk =   0.0277778
        k(   50) = (  -0.2500000   0.5833333  -0.0833333), wk =   0.0555556
        k(   51) = (   0.6666667  -0.3333333   0.8333333), wk =   0.0555556
        k(   52) = (   0.5833333  -0.2500000   0.7500000), wk =   0.0555556
        k(   53) = (   0.5000000  -0.1666667   0.6666667), wk =   0.0555556
        k(   54) = (   0.4166667  -0.0833333   0.5833333), wk =   0.0555556
        k(   55) = (   0.3333333   0.0000000   0.5000000), wk =   0.0277778
        k(   56) = (  -0.1666667   0.6666667  -0.0000000), wk =   0.0277778
        k(   57) = (   0.7500000  -0.2500000   0.9166667), wk =   0.0555556
        k(   58) = (   0.6666667  -0.1666667   0.8333333), wk =   0.0555556
        k(   59) = (   0.5833333  -0.0833333   0.7500000), wk =   0.0555556
        k(   60) = (   0.5000000   0.0000000   0.6666667), wk =   0.0277778
        k(   61) = (   0.8333333  -0.1666667   1.0000000), wk =   0.0277778
        k(   62) = (   0.7500000  -0.0833333   0.9166667), wk =   0.0555556
        k(   63) = (   0.6666667   0.0000000   0.8333333), wk =   0.0277778
        k(   64) = (  -0.1666667  -1.0000000  -0.0000000), wk =   0.0138889
        k(   65) = (   0.6666667  -0.3333333   1.0000000), wk =   0.0277778
        k(   66) = (   0.5833333  -0.2500000   0.9166667), wk =   0.0555556
        k(   67) = (   0.5000000  -0.1666667   0.8333333), wk =   0.0277778
        k(   68) = (   0.6666667  -0.1666667   1.0000000), wk =   0.0277778
        k(   69) = (   0.5833333  -0.0833333   0.9166667), wk =   0.0555556
        k(   70) = (   0.5000000   0.0000000   0.8333333), wk =   0.0277778
        k(   71) = (  -0.3333333  -1.0000000   0.0000000), wk =   0.0138889
        k(   72) = (  -0.5000000  -1.0000000   0.0000000), wk =   0.0069444

     Dense  grid:    30155 G-vectors     FFT dimensions: (  45,  45,  45)

     Estimated max dynamical RAM per process >       5.22 MB

     Estimated total dynamical RAM >     118.02 MB

     Initial potential from superposition of free atoms

     starting charge       9.9572, renormalised to      10.0000
     Starting wfcs are random

     total cpu time spent up to now is        0.3 secs

     Self-consistent Calculation

     iteration #  1     ecut=    97.00 Ry     beta= 0.70
     Davidson diagonalization with overlap
     ethr =  1.00E-02,  avg # of iterations =  7.6

     Threshold (ethr) on eigenvalues was too large:
     Diagonalizing with lowered threshold

     Davidson diagonalization with overlap
     ethr =  3.01E-04,  avg # of iterations =  2.2

     total cpu time spent up to now is        1.3 secs

     total energy              =     -45.63347264 Ry
     estimated scf accuracy    <       0.03049716 Ry

     iteration #  2     ecut=    97.00 Ry     beta= 0.70
     Davidson diagonalization with overlap
     ethr =  3.05E-04,  avg # of iterations =  1.0

     total cpu time spent up to now is        1.6 secs

     total energy              =     -45.63502937 Ry
     estimated scf accuracy    <       0.00128074 Ry

     iteration #  3     ecut=    97.00 Ry     beta= 0.70
     Davidson diagonalization with overlap
     ethr =  1.28E-05,  avg # of iterations =  3.8

     total cpu time spent up to now is        2.0 secs

     total energy              =     -45.63513137 Ry
     estimated scf accuracy    <       0.00007154 Ry

     iteration #  4     ecut=    97.00 Ry     beta= 0.70
     Davidson diagonalization with overlap
     ethr =  7.15E-07,  avg # of iterations =  2.8

     total cpu time spent up to now is        2.4 secs

     total energy              =     -45.63514542 Ry
     estimated scf accuracy    <       0.00000390 Ry

     iteration #  5     ecut=    97.00 Ry     beta= 0.70
     Davidson diagonalization with overlap
     ethr =  3.90E-08,  avg # of iterations =  1.8

     total cpu time spent up to now is        2.8 secs

     total energy              =     -45.63514601 Ry
     estimated scf accuracy    <       0.00000004 Ry

     iteration #  6     ecut=    97.00 Ry     beta= 0.70
     Davidson diagonalization with overlap
     ethr =  4.26E-10,  avg # of iterations =  2.0

     total cpu time spent up to now is        3.4 secs

     total energy              =     -45.63514602 Ry
     estimated scf accuracy    <          1.1E-09 Ry

     iteration #  7     ecut=    97.00 Ry     beta= 0.70
     Davidson diagonalization with overlap
     ethr =  1.15E-11,  avg # of iterations =  2.0

     total cpu time spent up to now is        3.9 secs

     End of self-consistent calculation

          k = 0.0000 0.0000 0.0000 (  3719 PWs)   bands (ev):

   -94.4728  -8.3377   5.3827   5.3827   5.3827   9.6313  10.3889  10.3889
    10.3889  17.3798

          k =-0.0833 0.0833-0.0833 (  3755 PWs)   bands (ev):

   -94.4728  -8.2704   4.7176   5.2844   5.2844   9.8490  10.5544  10.5544
    10.8499  17.3541

          k =-0.1667 0.1667-0.1667 (  3750 PWs)   bands (ev):

   -94.4728  -8.0762   3.3912   5.0452   5.0452   9.8803  10.9362  10.9362
    12.1760  16.7218

          k =-0.2500 0.2500-0.2500 (  3744 PWs)   bands (ev):

   -94.4728  -7.7815   2.0232   4.7685   4.7685   9.8127  11.2757  11.2757
    13.6277  16.6645

          k =-0.3333 0.3333-0.3333 (  3753 PWs)   bands (ev):

   -94.4728  -7.4414   0.8566   4.5319   4.5319   9.7366  11.3983  11.3983
    14.7629  17.3388

          k =-0.4167 0.4167-0.4167 (  3762 PWs)   bands (ev):

   -94.4727  -7.1513   0.0533   4.3775   4.3775   9.6818  11.3748  11.3748
    15.2660  18.1189

          k = 0.5000-0.5000 0.5000 (  3750 PWs)   bands (ev):

   -94.4727  -7.0334  -0.2382   4.3243   4.3243   9.6621  11.3486  11.3486
    15.3559  18.8178

          k = 0.0000 0.1667 0.0000 (  3759 PWs)   bands (ev):

   -94.4728  -8.2479   4.8146   5.0867   5.0867   9.9303  10.5497  10.8395
    10.8395  16.4144

          k =-0.0833 0.2500-0.0833 (  3751 PWs)   bands (ev):

   -94.4728  -8.0959   3.7720   4.7877   4.9582   9.9942  10.7142  11.3247
    11.8353  15.6946

          k =-0.1667 0.3333-0.1667 (  3746 PWs)   bands (ev):

   -94.4728  -7.8339   2.4538   4.4953   4.7230  10.0686  10.9444  11.7515
    12.9429  15.7342

          k =-0.2500 0.4167-0.2500 (  3753 PWs)   bands (ev):

   -94.4728  -7.5058   1.2453   4.2782   4.4265  10.0530  11.1584  11.9084
    13.8144  16.6287

          k =-0.3333 0.5000-0.3333 (  3753 PWs)   bands (ev):

   -94.4727  -7.1921   0.3306   4.1561   4.1696  10.0163  11.2116  11.8283
    14.7297  17.3709

          k = 0.5833-0.4167 0.5833 (  3753 PWs)   bands (ev):

   -94.4727  -7.0089  -0.1321   3.9640   4.1800  10.0047  11.2409  11.6791
    15.3845  17.8602

          k = 0.5000-0.3333 0.5000 (  3763 PWs)   bands (ev):

   -94.4727  -7.0486  -0.0355   3.8791   4.3051  10.0301  11.3453  11.5610
    15.3937  17.9798

          k = 0.4167-0.2500 0.4167 (  3757 PWs)   bands (ev):

   -94.4727  -7.2893   0.5948   3.9162   4.5268  10.0854  11.4620  11.5072
    14.7499  16.8347

          k = 0.3333-0.1667 0.3333 (  3761 PWs)   bands (ev):

   -94.4728  -7.6194   1.6212   4.0803   4.8104  10.1519  11.2745  11.5718
    13.7531  16.0014

          k = 0.2500-0.0833 0.2500 (  3745 PWs)   bands (ev):

   -94.4728  -7.9321   2.8669   4.3685   5.0947  10.1885  10.9340  11.3027
    12.7057  15.8946

          k = 0.1667-0.0000 0.1667 (  3757 PWs)   bands (ev):

   -94.4728  -8.1607   4.0541   4.7979   5.2847  10.0758  10.6106  10.8487
    11.6194  16.4279

          k = 0.0000 0.3333 0.0000 (  3731 PWs)   bands (ev):

   -94.4728  -7.9889   3.6704   4.4420   4.4420   9.6509  11.4040  11.9394
    11.9394  14.9606

          k =-0.0833 0.4167-0.0833 (  3736 PWs)   bands (ev):

   -94.4728  -7.7689   2.7308   4.1216   4.1951   9.6282  11.4807  12.4903
    12.5256  15.2622

          k =-0.1667 0.5000-0.1667 (  3756 PWs)   bands (ev):

   -94.4728  -7.4709   1.6415   3.8761   3.8946   9.8041  11.7530  12.5313
    12.8254  16.5768

          k =-0.2500 0.5833-0.2500 (  3766 PWs)   bands (ev):

   -94.4727  -7.1606   0.7253   3.5080   3.7939   9.9121  11.9526  12.7869
    13.0806  17.7970

          k = 0.6667-0.3333 0.6667 (  3768 PWs)   bands (ev):

   -94.4727  -6.9387   0.1637   3.1903   3.8297  10.0092  11.8826  12.5770
    14.3207  17.5057

          k = 0.5833-0.2500 0.5833 (  3748 PWs)   bands (ev):

   -94.4727  -6.9055   0.0871   2.9863   3.9953  10.1799  11.8434  12.3373
    15.4049  16.8242

          k = 0.5000-0.1667 0.5000 (  3755 PWs)   bands (ev):

   -94.4727  -7.0784   0.5088   2.9382   4.2675  10.4138  11.8858  12.0871
    14.6965  16.5932

          k = 0.4167-0.0833 0.4167 (  3750 PWs)   bands (ev):

   -94.4727  -7.3734   1.2926   3.0947   4.6005  10.6168  11.7427  11.9497
    13.5558  15.6848

          k = 0.3333 0.0000 0.3333 (  3745 PWs)   bands (ev):

   -94.4728  -7.6835   2.1733   3.5576   4.9146  10.6089  11.2845  11.6810
    12.9821  15.4863

          k = 0.0000 0.5000 0.0000 (  3767 PWs)   bands (ev):

   -94.4728  -7.5954   2.4712   3.7708   3.7708   9.1516  11.1452  13.3446
    13.3446  15.4133

          k =-0.0833 0.5833-0.0833 (  3752 PWs)   bands (ev):

   -94.4727  -7.3413   1.7602   3.4259   3.5171   9.1160  10.9361  13.6540
    13.9099  16.6120

          k =-0.1667 0.6667-0.1667 (  3760 PWs)   bands (ev):

   -94.4727  -7.0601   1.0424   2.9477   3.3974   9.2970  11.3685  13.5538
    14.0395  18.1446

          k = 0.7500-0.2500 0.7500 (  3759 PWs)   bands (ev):

   -94.4727  -6.8342   0.5446   2.4618   3.4247   9.4637  12.4788  13.4130
    13.8474  17.9466

          k = 0.6667-0.1667 0.6667 (  3764 PWs)   bands (ev):

   -94.4727  -6.7537   0.3993   2.1056   3.5947   9.6958  13.2233  13.5124
    14.0708  16.4828

          k = 0.5833-0.0833 0.5833 (  3749 PWs)   bands (ev):

   -94.4727  -6.8562   0.6138   1.9922   3.8852  10.0385  13.0686  13.1495
    14.7195  15.9864

          k = 0.5000 0.0000 0.5000 (  3759 PWs)   bands (ev):

   -94.4727  -7.0930   0.9809   2.2976   4.2492  10.4337  12.4458  12.8560
    13.6253  15.8583

          k = 0.0000 0.6667 0.0000 (  3771 PWs)   bands (ev):

   -94.4727  -7.1396   1.4160   3.2306   3.2306   8.6253  10.2993  14.8572
    14.8572  17.0405

          k =-0.0833 0.7500-0.0833 (  3756 PWs)   bands (ev):

   -94.4727  -6.9101   0.9638   2.8520   3.0783   8.6268  10.2356  15.1692
    15.3303  18.2571

          k = 0.8333-0.1667 0.8333 (  3759 PWs)   bands (ev):

   -94.4727  -6.7182   0.6891   2.2305   3.0776   8.8828  10.8991  15.0729
    15.2643  18.4141

          k = 0.7500-0.0833 0.7500 (  3766 PWs)   bands (ev):

   -94.4727  -6.6325   0.7057   1.6071   3.2280   9.1789  12.2200  14.8330
    14.8994  16.7699

          k = 0.6667-0.0000 0.6667 (  3765 PWs)   bands (ev):

   -94.4727  -6.6868   0.8283   1.3696   3.5114   9.5648  13.8474  14.0841
    14.5973  15.2556

          k = 0.0000 0.8333 0.0000 (  3772 PWs)   bands (ev):

   -94.4727  -6.7483   0.6593   2.8882   2.8882   8.1945   9.7612  16.2735
    16.2735  18.6929

          k = 0.9167-0.0833 0.9167 (  3770 PWs)   bands (ev):

   -94.4727  -6.6245   0.4913   2.5527   2.8501   8.3180   9.8979  16.4700
    16.4844  19.0735

          k = 0.8333 0.0000 0.8333 (  3758 PWs)   bands (ev):

   -94.4727  -6.5818   0.5767   1.9548   2.9678   8.7263  10.7480  15.9426
    16.0953  17.6430

          k = 0.0000-1.0000 0.0000 (  3812 PWs)   bands (ev):

   -94.4727  -6.5881   0.3762   2.7715   2.7715   8.0255   9.5932  16.9892
    16.9892  19.8497

          k =-0.1667 0.3333 0.0000 (  3748 PWs)   bands (ev):

   -94.4728  -7.9095   3.0396   4.1662   4.8380  10.0744  11.0262  11.8223
    12.4256  15.3555

          k =-0.2500 0.4167-0.0833 (  3752 PWs)   bands (ev):

   -94.4728  -7.6283   1.9904   3.7105   4.6070  10.3044  11.2245  12.2604
    12.8181  15.8277

          k =-0.3333 0.5000-0.1667 (  3759 PWs)   bands (ev):

   -94.4727  -7.3062   0.9746   3.4628   4.3095  10.4167  11.2719  12.3857
    13.5398  16.7413

          k = 0.5833-0.4167 0.7500 (  3754 PWs)   bands (ev):

   -94.4727  -7.0344   0.2486   3.3525   4.0643  10.4461  11.1480  12.4032
    14.6293  17.3148

          k = 0.5000-0.3333 0.6667 (  3750 PWs)   bands (ev):

   -94.4727  -6.9248  -0.0174   3.3264   3.9671  10.4551  11.0770  12.3930
    15.4119  16.9303

          k =-0.1667 0.5000 0.0000 (  3754 PWs)   bands (ev):

   -94.4728  -7.5305   2.0843   3.5062   4.0495   9.6328  11.4867  12.5556
    13.2661  16.0053

          k =-0.2500 0.5833-0.0833 (  3757 PWs)   bands (ev):

   -94.4727  -7.2380   1.3001   3.0668   3.7907   9.9000  11.8016  12.3291
    13.7617  17.1003

          k = 0.6667-0.3333 0.8333 (  3755 PWs)   bands (ev):

   -94.4727  -6.9660   0.6300   2.7723   3.5724  10.0927  12.0340  12.7592
    13.8908  17.6823

          k = 0.5833-0.2500 0.7500 (  3761 PWs)   bands (ev):

   -94.4727  -6.8129   0.2855   2.5498   3.5428  10.2739  11.7751  13.6276
    14.3432  16.4353

          k = 0.5000-0.1667 0.6667 (  3748 PWs)   bands (ev):

   -94.4727  -6.8504   0.3735   2.4328   3.7096  10.5394  11.5641  13.5089
    14.7670  16.0842

          k = 0.4167-0.0833 0.5833 (  3757 PWs)   bands (ev):

   -94.4727  -7.0594   0.8400   2.5110   4.0099  10.8558  11.3689  13.0417
    13.7818  16.6644

          k = 0.3333 0.0000 0.5000 (  3753 PWs)   bands (ev):

   -94.4727  -7.3494   1.4569   2.9181   4.3527  10.7968  11.2877  12.5927
    13.0779  16.0401

          k =-0.1667 0.6667-0.0000 (  3748 PWs)   bands (ev):

   -94.4727  -7.0961   1.2746   2.9754   3.2977   9.1369  10.7459  13.7656
    14.8357  17.5519

          k = 0.7500-0.2500 0.9167 (  3759 PWs)   bands (ev):

   -94.4727  -6.8552   0.8509   2.4853   3.0928   9.4447  11.1996  13.5349
    15.2569  18.2153

          k = 0.6667-0.1667 0.8333 (  3760 PWs)   bands (ev):

   -94.4727  -6.6972   0.6378   1.9773   3.0988   9.7174  12.3515  13.2659
    15.1262  16.8826

          k = 0.5833-0.0833 0.7500 (  3760 PWs)   bands (ev):

   -94.4727  -6.6867   0.6845   1.6534   3.2951  10.0361  12.8423  13.9938
    14.4829  15.6861

          k = 0.5000 0.0000 0.6667 (  3763 PWs)   bands (ev):

   -94.4727  -6.8271   0.7950   1.8055   3.6261  10.4517  12.2871  13.4833
    14.6996  15.9400

          k = 0.8333-0.1667 1.0000 (  3757 PWs)   bands (ev):

   -94.4727  -6.7285   0.6960   2.6429   2.7807   8.7338  10.2306  15.1545
    16.2144  18.9008

          k = 0.7500-0.0833 0.9167 (  3762 PWs)   bands (ev):

   -94.4727  -6.6090   0.6476   2.0620   2.7565   9.1614  10.8937  14.8564
    15.9934  17.9705

          k = 0.6667 0.0000 0.8333 (  3757 PWs)   bands (ev):

   -94.4727  -6.5943   0.8310   1.4756   2.9542   9.5754  12.2409  14.2617
    14.9828  16.9105

          k =-0.1667-1.0000-0.0000 (  3762 PWs)   bands (ev):

   -94.4727  -6.5798   0.4779   2.5377   2.5918   8.5773  10.0689  16.2021
    16.4786  19.1881

          k = 0.6667-0.3333 1.0000 (  3754 PWs)   bands (ev):

   -94.4727  -6.9794   0.9870   2.4053   3.4706  10.4681  11.8317  12.1052
    14.7717  17.3526

          k = 0.5833-0.2500 0.9167 (  3760 PWs)   bands (ev):

   -94.4727  -6.7691   0.7123   2.0427   3.1548  10.9211  11.6104  12.8181
    15.1673  16.4166

          k = 0.5000-0.1667 0.8333 (  3766 PWs)   bands (ev):

   -94.4727  -6.6866   0.5924   1.9433   3.0257  11.0777  11.4418  14.0447
    14.3868  15.8482

          k = 0.6667-0.1667 1.0000 (  3759 PWs)   bands (ev):

   -94.4727  -6.6799   0.7874   2.0953   2.6575  10.1190  11.4445  13.1977
    15.7568  17.4813

          k = 0.5833-0.0833 0.9167 (  3761 PWs)   bands (ev):

   -94.4727  -6.5934   0.8750   1.6727   2.5250  10.6731  12.3602  12.9273
    14.4515  17.4324

          k = 0.5000 0.0000 0.8333 (  3763 PWs)   bands (ev):

   -94.4727  -6.6280   0.9082   1.5516   2.7442  11.0744  12.0905  13.2181
    14.1840  16.8890

          k =-0.3333-1.0000 0.0000 (  3760 PWs)   bands (ev):

   -94.4727  -6.5630   0.7617   2.0186   2.2832   9.9827  11.3100  14.2391
    14.9543  18.7166

          k =-0.5000-1.0000 0.0000 (  3736 PWs)   bands (ev):

   -94.4727  -6.5546   1.0294   1.6445   2.1471  11.5131  12.4586  12.7580
    13.3382  18.6260

     the Fermi energy is     5.6062 ev

!    total energy              =     -45.63514602 Ry
     estimated scf accuracy    <          1.4E-11 Ry
     smearing contrib. (-TS)   =      -0.00000000 Ry
     internal energy E=F+TS    =     -45.63514602 Ry

     The total energy is F=E-TS. E is the sum of the following terms:
     one-electron contribution =     -14.88588591 Ry
     hartree contribution      =       5.94786206 Ry
     xc contribution           =      -8.34302036 Ry
     ewald contribution        =     -28.35410181 Ry

     convergence has been achieved in   7 iterations

     Writing all to output data dir out/mp-1541.save/
 
     init_run     :      0.13s CPU      0.18s WALL (       1 calls)
     electrons    :      2.81s CPU      3.67s WALL (       1 calls)

     Called by init_run:
     wfcinit      :      0.10s CPU      0.13s WALL (       1 calls)
     potinit      :      0.01s CPU      0.01s WALL (       1 calls)
     hinit0       :      0.01s CPU      0.02s WALL (       1 calls)

     Called by electrons:
     c_bands      :      2.35s CPU      2.86s WALL (       8 calls)
     sum_band     :      0.42s CPU      0.68s WALL (       8 calls)
     v_of_rho     :      0.04s CPU      0.04s WALL (       8 calls)
     mix_rho      :      0.01s CPU      0.03s WALL (       8 calls)

     Called by c_bands:
     init_us_2    :      0.05s CPU      0.06s WALL (     612 calls)
     init_us_2:cp :      0.05s CPU      0.06s WALL (     612 calls)
     cegterg      :      1.95s CPU      2.05s WALL (     288 calls)

     Called by *egterg:
     cdiaghg      :      0.14s CPU      0.15s WALL (    1102 calls)
     h_psi        :      1.75s CPU      1.86s WALL (    1174 calls)
     g_psi        :      0.01s CPU      0.01s WALL (     850 calls)

     Called by h_psi:
     h_psi:calbec :      0.05s CPU      0.05s WALL (    1174 calls)
     vloc_psi     :      1.66s CPU      1.76s WALL (    1174 calls)
     add_vuspsi   :      0.03s CPU      0.03s WALL (    1174 calls)

     General routines
     calbec       :      0.05s CPU      0.05s WALL (    1174 calls)
     fft          :      0.02s CPU      0.02s WALL (      80 calls)
     ffts         :      0.00s CPU      0.00s WALL (       8 calls)
     fftw         :      1.85s CPU      1.96s WALL (   19654 calls)
     davcio       :      0.04s CPU      0.60s WALL (     988 calls)
 
     Parallel routines
 
     PWSCF        :      3.02s CPU      4.24s WALL

 
   This run was terminated on:   9:14:43   5Dec2023            

=------------------------------------------------------------------------------=
   JOB DONE.
=------------------------------------------------------------------------------=
