
     Program PWSCF v.7.1 starts on  5Dec2023 at  9:14:43 

     This program is part of the open-source Quantum ESPRESSO suite
     for quantum simulation of materials; please cite
         "P. Giannozzi et al., J. Phys.:Condens. Matter 21 395502 (2009);
         "P. Giannozzi et al., J. Phys.:Condens. Matter 29 465901 (2017);
         "P. Giannozzi et al., J. Chem. Phys. 152 154105 (2020);
          URL http://www.quantum-espresso.org", 
     in publications or presentations arising from this work. More details at
     http://www.quantum-espresso.org/quote

     Parallel version (MPI), running on    24 processors

     MPI processes distributed on     1 nodes
     121378 MiB available memory on the printing compute node when the environment starts
 
     Reading input from pw_mp-1541_nscf_k690_E97.in
Warning: card &IONS ignored
Warning: card / ignored
Warning: card &CELL ignored
Warning: card / ignored

     Current dimensions of program PWSCF are:
     Max number of different atomic species (ntypx) = 10
     Max number of k-points (npk) =  40000
     Max angular momentum in pseudopotentials (lmaxx) =  4

     Atomic positions and unit cell read from directory:
     out/mp-1541.save/
     Atomic positions from file used, from input discarded
 
 
     K-points division:     npool     =       2
     R & G space division:  proc/nbgrp/npool/nimage =      12
     Subspace diagonalization in iterative solution of the eigenvalue problem:
     one sub-group per band group will be used
     scalapack distributed-memory algorithm (size of sub-group:  3*  3 procs)

 
     Parallelization info
     --------------------
     sticks:   dense  smooth     PW     G-vecs:    dense   smooth      PW
     Min         106     106     30                 2512     2512     389
     Max         108     108     31                 2514     2514     393
     Sum        1285    1285    367                30155    30155    4693
 
     Using Slab Decomposition
 


     bravais-lattice index     =            2
     lattice parameter (alat)  =       9.7660  a.u.
     unit-cell volume          =     232.8564 (a.u.)^3
     number of atoms/cell      =            2
     number of atomic types    =            2
     number of electrons       =        10.00
     number of Kohn-Sham states=         1200
     kinetic-energy cutoff     =      97.0000  Ry
     charge density cutoff     =     388.0000  Ry
     Exchange-correlation= PBE
                           (   1   4   3   4   0   0   0)

     celldm(1)=   9.765986  celldm(2)=   0.000000  celldm(3)=   0.000000
     celldm(4)=   0.000000  celldm(5)=   0.000000  celldm(6)=   0.000000

     crystal axes: (cart. coord. in units of alat)
               a(1) = (  -0.500000   0.000000   0.500000 )  
               a(2) = (   0.000000   0.500000   0.500000 )  
               a(3) = (  -0.500000   0.500000   0.000000 )  

     reciprocal axes: (cart. coord. in units 2 pi/alat)
               b(1) = ( -1.000000 -1.000000  1.000000 )  
               b(2) = (  1.000000  1.000000  1.000000 )  
               b(3) = ( -1.000000  1.000000 -1.000000 )  


     PseudoPot. # 1 for Be read from file:
     /usr/scratch4/magr4985/MG/HTDF/pseudo/SG15/Be.upf
     MD5 check sum: dc1f98d164da9dc61a6fd2fad64b4ce2
     Pseudo is Norm-conserving, Zval =  4.0
     Generated using ONCVPSP code by D. R. Hamann
     Using radial grid of  602 points,  4 beta functions with: 
                l(1) =   0
                l(2) =   0
                l(3) =   1
                l(4) =   1

     PseudoPot. # 2 for Se read from file:
     /usr/scratch4/magr4985/MG/HTDF/pseudo/SG15/Se.upf
     MD5 check sum: e78e48a4f5d8ce1f8dc76ec1271f249c
     Pseudo is Norm-conserving, Zval =  6.0
     Generated using ONCVPSP code by D. R. Hamann
     Using radial grid of  602 points,  6 beta functions with: 
                l(1) =   0
                l(2) =   0
                l(3) =   1
                l(4) =   1
                l(5) =   2
                l(6) =   2

     atomic species   valence    mass     pseudopotential
        Be             4.00     9.01220     Be( 1.00)
        Se             6.00    78.96000     Se( 1.00)

     24 Sym. Ops. (no inversion) found



   Cartesian axes

     site n.     atom                  positions (alat units)
         1           Be  tau(   1) = (   0.0000000   0.0000000   0.0000000  )
         2           Se  tau(   2) = (  -0.2500000   0.2500000   0.2500001  )

     number of k points=    29  Gaussian smearing, width (Ry)=  0.0005
                       cart. coord. in units 2pi/alat
        k(    1) = (   0.0000000   0.0000000   0.0000000), wk =   0.0039062
        k(    2) = (  -0.1250000   0.1250000  -0.1250000), wk =   0.0312500
        k(    3) = (  -0.2500000   0.2500000  -0.2500000), wk =   0.0312500
        k(    4) = (  -0.3750000   0.3750000  -0.3750000), wk =   0.0312500
        k(    5) = (   0.5000000  -0.5000000   0.5000000), wk =   0.0156250
        k(    6) = (   0.0000000   0.2500000   0.0000000), wk =   0.0234375
        k(    7) = (  -0.1250000   0.3750000  -0.1250000), wk =   0.0937500
        k(    8) = (  -0.2500000   0.5000000  -0.2500000), wk =   0.0937500
        k(    9) = (   0.6250000  -0.3750000   0.6250000), wk =   0.0937500
        k(   10) = (   0.5000000  -0.2500000   0.5000000), wk =   0.0937500
        k(   11) = (   0.3750000  -0.1250000   0.3750000), wk =   0.0937500
        k(   12) = (   0.2500000   0.0000000   0.2500000), wk =   0.0468750
        k(   13) = (   0.0000000   0.5000000   0.0000000), wk =   0.0234375
        k(   14) = (  -0.1250000   0.6250000  -0.1250000), wk =   0.0937500
        k(   15) = (   0.7500000  -0.2500000   0.7500000), wk =   0.0937500
        k(   16) = (   0.6250000  -0.1250000   0.6250000), wk =   0.0937500
        k(   17) = (   0.5000000   0.0000000   0.5000000), wk =   0.0468750
        k(   18) = (   0.0000000   0.7500000   0.0000000), wk =   0.0234375
        k(   19) = (   0.8750000  -0.1250000   0.8750000), wk =   0.0937500
        k(   20) = (   0.7500000   0.0000000   0.7500000), wk =   0.0468750
        k(   21) = (   0.0000000  -1.0000000   0.0000000), wk =   0.0117188
        k(   22) = (  -0.2500000   0.5000000   0.0000000), wk =   0.0937500
        k(   23) = (   0.6250000  -0.3750000   0.8750000), wk =   0.1875000
        k(   24) = (   0.5000000  -0.2500000   0.7500000), wk =   0.0937500
        k(   25) = (   0.7500000  -0.2500000   1.0000000), wk =   0.0937500
        k(   26) = (   0.6250000  -0.1250000   0.8750000), wk =   0.1875000
        k(   27) = (   0.5000000   0.0000000   0.7500000), wk =   0.0937500
        k(   28) = (  -0.2500000  -1.0000000   0.0000000), wk =   0.0468750
        k(   29) = (  -0.5000000  -1.0000000   0.0000000), wk =   0.0234375

     Dense  grid:    30155 G-vectors     FFT dimensions: (  45,  45,  45)

     Estimated max dynamical RAM per process >     148.65 MB

     Estimated total dynamical RAM >       3.48 GB

     The potential is recalculated from file :
     out/mp-1541.save/charge-density

     Starting wfcs are random

     Band Structure Calculation
     Davidson diagonalization with overlap

     ethr =  5.00E-06,  avg # of iterations = 11.4

     total cpu time spent up to now is     1301.0 secs

     End of band structure calculation

          k = 0.0000 0.0000 0.0000 (  3719 PWs)   bands (ev):

   -94.4728  -8.3377   5.3827   5.3827   5.3827   9.6313  10.3889  10.3889
    10.3889  17.3798  17.9249  17.9249  19.9227  19.9227  19.9227  24.1256
    33.0885  33.0885  33.0885  37.6567  37.6567  37.6567  39.4040  39.4040
    39.5660  39.5660  39.5660  48.8296  49.6769  49.6769  49.6769  53.3547
    53.3547  53.3547  54.1843  54.1843  54.9879  54.9879  54.9879  56.1931
    57.4656  57.4656  57.4656  58.0326  58.0326  58.4499  58.4499  58.4499
    58.5133  58.5133  58.5133  63.2298  63.8943  63.8943  63.8943  65.2779
    65.2779  65.2779  68.4055  72.8429  83.7236  83.7236  83.7236  84.8130
    84.8130  87.7218  90.1175  90.1175  90.1175  91.3993  91.3993  91.3993
    95.4778  95.4778  95.8945  95.8945  95.8945  98.2610  98.2610  98.2610
   102.0707 102.0707 102.0707 102.0755 102.0755 102.0755 102.2812 102.2812
   102.4696 105.3776 105.3776 105.3776 105.5139 105.5139 107.0223 107.0223
   107.0223 108.3794 108.3794 108.3794 108.7271 108.7271 108.7271 109.9892
   110.0023 110.2825 110.2825 110.2825 111.1772 111.1772 111.1772 111.2977
   111.2977 120.5166 123.6172 123.6172 123.6172 125.3230 125.4913 125.4913
   125.4913 128.1809 128.1809 128.1809 128.3901 128.3901 128.3901 128.4228
   128.4228 128.9085 128.9085 128.9085 129.6953 129.6953 129.6953 130.1663
   130.1663 136.1338 140.0527 141.6301 141.6301 141.6301 141.7913 141.7913
   144.0104 144.0104 144.0104 145.6267 145.9442 145.9442 145.9442 147.1990
   147.1990 147.1990 147.2534 147.2534 147.2534 147.4173 147.4173 147.4173
   147.4291 147.6946 147.6946 148.1799 148.1799 148.1799 148.7852 148.7852
   148.7852 162.2742 165.0125 165.0125 165.0125 165.7373 166.6952 166.6952
   166.6952 166.7380 166.7380 168.5263 168.5263 168.5263 176.0475 176.0475
   176.0475 181.4156 181.4156 181.4156 181.5079 183.1778 183.1778 183.5286
   183.5286 183.5286 183.8203 183.8203 183.8204 186.3103 186.3103 186.3103
   186.5709 186.5709 186.5709 187.0026 187.0026 189.2776 189.6560 189.6560
   189.8067 189.8067 189.8067 189.9845 189.9845 189.9845 191.1519 191.1519
   191.1519 191.4250 192.3556 192.3556 192.3556 192.9434 192.9434 193.2344
   193.2344 193.2344 193.7454 193.7454 193.7454 194.0422 194.2947 194.2947
   194.2947 194.7042 195.1116 195.1116 195.1116 195.9016 195.9016 196.7165
   196.7165 196.7165 197.0701 199.5303 199.5303 199.5303 199.6065 199.6065
   199.8839 199.8839 199.8839 200.0422 200.0422 200.0422 200.3554 200.3554
   200.3554 200.3852 200.3852 211.1143 212.1640 212.1640 212.1640 213.7743
   213.7743 218.1203 218.1203 218.1203 218.4421 218.4421 218.4421 218.5012
   218.5012 218.5012 218.5038 218.5038 218.5038 221.8084 221.8084 221.8371
   221.8371 221.8371 221.9005 222.8638 224.6893 224.6893 224.6893 227.0389
   227.2019 227.2019 227.2019 232.3939 232.3939 232.3939 233.0722 233.0722
   233.2970 233.2970 233.2970 233.4979 233.4979 233.4979 233.7542 233.7542
   233.7543 234.1191 234.1191 237.6419 239.3441 239.3441 239.3441 242.2376
   242.2376 242.2376 242.2550 242.2550 242.6552 242.6552 242.6552 242.8184
   243.0743 243.0743 243.0743 243.0969 243.0969 243.0969 243.6768 243.6768
   243.6768 243.8993 243.8993 260.5033 260.5033 260.5033 260.5893 262.0829
   262.0829 262.0829 262.5388 265.3882 265.3882 265.4830 265.4830 265.4830
   265.7359 265.7359 265.7359 266.4958 266.4958 266.4958 266.5346 271.3643
   271.3643 271.4978 271.4978 271.4978 272.5105 275.1194 275.1194 275.1194
   275.5633 279.8120 279.8120 279.8120 280.0816 280.0816 280.0816 280.0874
   280.0874 280.9175 280.9175 280.9175 281.1531 281.2332 281.2332 281.2332
   281.4402 281.4402 281.4402 281.5362 281.5362 281.5362 281.9342 281.9342
   281.9342 282.8161 282.8161 286.3835 286.3835 286.4372 286.4402 286.4402
   286.4402 286.4845 286.4845 286.4845 286.5474 286.5474 286.5474 289.1333
   289.1687 289.1687 289.1687 289.9200 289.9200 289.9200 289.9462 289.9462
   289.9462 289.9530 289.9530 296.2320 296.2320 296.2320 296.6176 299.6488
   299.6488 299.6488 299.7425 302.9502 302.9502 302.9502 302.9763 302.9763
   302.9763 303.1728 303.1728 303.7300 303.7300 303.7300 303.8023 303.8023
   303.8023 304.4673 304.4673 308.1586 308.1586 308.5898 308.5898 308.5898
   308.8235 308.8235 308.8235 309.0214 309.0214 309.0214 309.6172 309.6172
   309.6172 309.9047 309.9047 310.3817 311.0357 311.0357 311.0357 311.4112
   311.4112 311.4112 311.6953 317.2666 317.2666 317.2666 318.6558 319.6881
   320.4003 320.4003 320.4003 320.9245 320.9245 322.1074 322.1074 322.1074
   322.8104 322.8104 322.8104 322.9654 322.9654 322.9654 323.2828 323.3197
   323.3197 323.3197 323.9589 323.9589 323.9589 325.3958 325.3958 325.3958
   325.8639 325.8639 325.9887 325.9887 325.9887 326.0391 326.1938 326.5882
   326.5882 327.4731 327.4731 327.4731 327.5134 327.5134 327.5134 327.8909
   327.8909 327.9108 327.9108 327.9108 328.2214 328.2214 328.2214 328.3214
   328.3214 328.4273 328.4273 328.4273 328.6414 328.6414 328.6414 328.7464
   328.7464 328.7464 329.0440 329.0440 329.0440 329.3057 329.4896 329.4896
   329.4896 329.5348 329.5348 351.0340 351.0340 351.0340 351.1922 351.2378
   351.2378 360.3879 360.3879 360.3879 362.1733 363.1120 363.2206 363.2206
   363.2206 365.3156 365.3156 365.3425 365.3425 365.3425 365.8709 365.8709
   365.8709 366.1074 366.1074 366.1074 366.1951 366.1951 366.1951 367.2082
   367.2082 370.1756 370.9621 370.9621 370.9621 372.0379 372.0379 372.7391
   372.7391 372.7391 374.1313 374.6187 374.6187 374.6187 375.0995 376.1084
   376.1084 376.1084 376.1265 376.1265 376.1265 376.1367 376.1367 376.1367
   376.6417 376.6417 376.6417 378.9870 378.9870 379.0438 379.0438 379.0438
   379.1981 379.2073 379.2073 379.2073 379.3161 379.3161 379.3300 379.3300
   379.3300 379.3408 379.3408 379.3408 379.3784 379.3784 379.3784 379.5108
   379.5108 387.9828 387.9828 387.9828 388.2964 388.2964 388.2964 388.3902
   388.3902 388.7141 388.7141 388.7141 389.0119 395.8762 395.8762 395.8762
   397.1705 397.5824 397.5824 398.0651 398.0651 398.0651 398.2424 398.2424
   398.2424 398.3630 398.3630 398.3630 398.6565 398.6565 398.6565 399.5010
   399.5372 399.5372 399.5372 399.5563 399.5563 405.5847 405.5847 405.5847
   407.7093 408.1771 408.1771 408.1771 408.4785 408.4785 408.6832 408.6832
   408.6832 411.0577 411.4988 411.4988 411.4988 411.9617 411.9617 411.9617
   412.6095 412.6095 412.6095 412.6391 412.6391 413.3015 413.3015 413.3015
   413.3111 413.3233 413.3233 413.3233 413.3269 413.3269 413.3269 413.3365
   413.3365 413.9895 413.9895 413.9895 414.7077 415.3653 415.7734 415.7734
   415.7734 418.1908 418.1908 418.1908 418.2185 418.2185 418.2185 418.2950
   418.2950 418.2950 418.3407 418.3407 418.3593 422.4734 422.4734 422.4734
   423.3147 423.3147 423.3147 423.3793 423.4476 423.4476 423.6990 423.6990
   423.6990 424.3918 424.3918 424.3969 424.3969 424.3969 424.3978 424.3978
   424.3978 424.4598 424.5094 424.5094 424.5094 441.0036 441.0036 441.0036
   441.3706 441.3815 441.3815 442.5409 442.5409 442.5409 442.6832 442.6832
   442.6832 442.7585 442.7585 442.7585 442.9105 442.9105 442.9105 443.4884
   443.4907 443.4907 443.4934 443.4934 443.4934 447.8676 447.8676 447.8676
   449.9906 450.7852 451.1198 451.1198 451.1198 451.6913 451.6913 451.6913
   451.7923 451.7923 452.2082 453.5364 453.5364 453.5364 453.6059 453.6059
   453.6059 453.6096 453.6096 453.6096 453.8923 453.8923 454.2306 454.2306
   454.2306 454.7492 454.7492 459.5773 459.5773 459.5773 459.6255 459.6255
   459.6255 459.6336 459.6336 459.6336 459.6520 459.6520 459.8982 459.8982
   459.8982 460.0145 460.0145 460.8665 460.8665 460.8665 461.6720 461.6937
   461.6937 461.6937 461.7167 461.7167 461.7167 461.8737 461.8737 461.8737
   462.0643 462.0643 462.0643 462.0709 462.0709 462.0709 462.1223 462.2005
   462.2005 462.2005 462.3227 463.2246 463.2246 464.6777 464.6777 464.6777
   466.0370 466.6001 466.7641 466.7641 466.7641 466.9288 466.9288 466.9288
   467.0172 467.0172 467.0172 467.0246 467.0246 467.1130 467.1130 467.1130
   467.2925 467.2925 467.2925 467.8107 467.8107 468.8446 468.8446 468.9585
   468.9585 468.9585 469.2207 469.3137 469.3137 469.3137 469.4206 469.4206
   469.4206 469.4635 469.4635 469.4635 469.6474 469.6474 469.6474 469.7396
   469.7396 469.9146 469.9146 469.9146 470.0431 483.2868 483.2868 483.2868
   484.3693 484.4193 484.8355 484.8355 484.8355 490.6806 490.6806 490.6806
   490.7044 490.7044 490.7152 490.7152 490.7152 490.7431 490.7431 490.7431
   490.7681 490.7681 490.7681 490.7888 490.7888 499.5219 499.5219 499.5219
   499.5369 499.5928 499.5928 501.5551 501.5551 501.5551 501.6025 501.6025
   501.6025 501.6892 501.6892 501.6892 501.7866 501.7866 501.7866 504.6184
   504.6184 504.6184 505.4554 505.4554 505.4715 505.4715 505.4715 505.5072
   506.2734 507.0094 507.0094 508.2060 508.2060 508.2060 508.2078 508.2078
   508.2078 508.3291 508.3291 508.3291 508.4716 508.4716 508.4716 509.1987
   509.1987 509.1993 509.1993 509.1993 509.2099 527.8445 527.8445 527.8445
   528.1974 528.8735 528.8735 528.8735 529.0414 529.9744 529.9744 529.9744
   530.0846 530.0846 530.0846 530.1006 530.1006 530.2935 530.2935 530.2935
   530.3187 530.3187 530.3187 530.4185 530.4185 535.3504 535.3504 535.3504
   535.4288 535.4288 535.5195 535.5195 535.5195 535.9643 535.9643 535.9643
   536.6893 544.7951 544.7951 544.7951 545.8870 546.2124 546.2124 546.2124
   546.4541 548.4942 548.4942 548.4942 548.9755 548.9755 549.2035 549.2035
   549.2035 549.7903 549.8235 549.8235 549.8235 550.0559 550.0559 550.0559
   550.1672 550.1672 550.3988 550.3988 550.3988 550.4577 550.4577 550.4577
   550.7227 550.7227 550.7227 551.0780 551.0780 551.0780 551.1181 551.1181
   551.2600 551.3271 551.3271 551.3271 551.5163 552.9430 552.9430 552.9430
   552.9846 552.9846 553.0653 553.0653 553.0653 553.1139 553.1139 553.1608
   553.1608 553.1608 553.1808 553.1808 553.1808 554.3043 554.3043 554.3043
   554.3572 554.4350 554.4350 555.9924 556.1260 556.1260 556.1260 556.2515
   556.2515 556.2515 556.3688 556.3688 556.3688 556.3975 556.3975 559.8812
   559.8812 559.8812 560.1256 560.1256 560.1256 560.1278 560.1278 560.2463
   560.2463 560.2463 560.2629 571.4961 571.4961 571.4961 573.1126 573.2149
   573.2149 573.5497 573.5497 573.5497 573.5859 573.5859 573.5859 573.8753
   573.8753 573.9214 573.9214 573.9214 574.2943 574.5614 574.5614 574.5688
   574.5688 574.5688 574.6112 574.6112 574.6112 574.7815 574.8469 574.8469
   574.8469 576.8685 576.8685 576.8685 577.1530 577.1530 577.1530 577.3027
   577.3027 577.3027 577.6626 577.9561 577.9561 578.3116 578.3116 578.3116
   578.8352 578.8352 578.8352 578.8806 578.8806 578.8806 579.1526 579.1526
   579.1526 579.6895 579.6895 579.6964 579.6964 579.6964 579.7740 579.7740
   579.7740 579.8325 579.8325 579.8325 579.8957 581.8188 581.8188 581.8578
   581.8578 581.8578 581.9284 592.3710 592.3710 592.3710 593.2812 593.4447
   593.4447 593.4447 593.4584 593.4584 593.4584 593.5394 593.5394 593.7288
   593.7288 593.7288 593.7790 593.7790 593.7790 593.8620 593.8620 594.0139
   594.0139 594.0139 594.1746 594.4732 594.4732 594.4732 595.6980 595.8288
   595.9067 595.9067 595.9067 596.0329 596.0329 596.0329 596.0382 596.0382
   596.2306 596.2306 596.2306 596.6252 596.6252 596.6252 596.8329 596.8329
   596.9009 596.9009 596.9009 597.8271 597.8271 597.8271 597.8538 597.8538
   597.8538 597.9861 597.9861 597.9861 598.0538 598.0538 598.0538 598.0963

          k =-0.1250 0.1250-0.1250 (  3758 PWs)   bands (ev):

   -94.4728  -8.1880   4.0841   5.1758   5.1758   9.8894  10.7331  10.7331
    11.4576  16.9873  16.9873  17.5549  19.6214  21.6884  21.6884  25.4208
    31.1814  31.6757  31.6757  35.9058  35.9058  38.7459  38.7459  39.6138
    39.7620  44.0368  44.0368  45.8252  48.3673  48.3674  49.5478  49.6870
    49.6870  52.7721  52.7721  53.3693  54.1830  54.2379  54.2685  54.2685
    56.6145  57.1845  57.1845  58.7177  59.2188  59.2188  60.0674  60.0674
    60.8581  62.3793  62.5736  62.5736  64.4228  64.7981  64.7981  67.8050
    67.8050  68.2901  71.8286  73.3624  79.2759  79.2759  81.0154  85.7159
    85.7159  86.9969  88.3703  88.3703  90.4928  90.4928  91.1879  91.6556
    93.9896  94.9437  94.9437  95.4525  95.4525  96.8212  96.8212  97.7569
    99.7276  99.7276 100.3375 100.7459 101.4690 101.4690 102.6035 102.6122
   102.6122 102.9743 103.5210 103.5210 105.7393 105.7493 105.7493 107.0345
   107.0345 107.5943 107.9644 109.4012 109.4013 111.0029 111.0029 111.4426
   112.1664 112.1664 112.3918 114.9640 114.9640 115.2910 116.7263 117.4558
   118.0150 118.0150 119.3207 119.3207 121.0135 121.0135 121.1854 123.3444
   123.6738 123.6738 124.9701 126.9163 126.9163 127.6088 128.4024 128.4024
   131.1431 131.9118 131.9118 131.9520 133.7789 134.4074 134.4074 134.5022
   135.3089 135.3123 135.3123 137.2483 138.7399 138.7399 140.0123 140.0123
   140.5865 140.5865 140.6729 140.9987 142.6647 142.6647 142.8458 143.1058
   143.1058 146.1865 147.7981 148.2594 148.2594 150.3409 150.3409 152.1528
   152.8184 152.8184 154.4403 154.7570 154.8598 154.8598 155.9527 155.9527
   156.6804 156.7682 156.7682 159.4578 162.0139 164.8438 165.0725 166.6968
   166.6968 167.5730 167.5730 171.8830 171.9328 171.9328 173.9137 173.9137
   176.2715 176.4536 176.4536 177.8652 177.8652 178.1278 178.6437 179.4016
   179.4016 180.3639 181.2162 181.2162 181.8262 182.7092 183.3266 183.3266
   184.7477 185.0100 185.3775 185.3775 186.1648 186.1648 186.8028 186.8028
   187.4349 187.6678 187.6678 188.6476 188.7712 188.7712 188.7818 188.8120
   189.6659 189.6659 190.0987 190.0987 191.3205 192.5981 192.5981 192.8200
   193.5513 193.5513 194.3685 194.8409 195.0221 195.0221 196.2865 196.2865
   197.6885 197.6885 197.9179 198.1416 198.1901 198.1901 198.4966 199.4155
   199.4155 200.8043 201.4139 201.4139 202.7164 202.8701 202.8701 202.9807
   203.4995 203.9325 203.9325 204.2886 204.2886 205.3353 205.3353 206.2111
   206.5590 207.9950 207.9950 208.7885 208.7885 208.8436 209.3912 210.4615
   211.6038 211.6038 212.2316 213.9321 213.9321 215.2325 215.2325 215.2836
   218.3896 218.3896 218.4119 219.4853 219.4853 220.0890 221.2401 221.2401
   225.3924 225.3924 225.4815 225.9120 225.9120 226.2195 226.2318 227.6594
   228.2323 228.2323 228.7133 228.7133 229.3123 229.4805 229.4805 231.4143
   231.5805 231.5805 232.0373 232.0373 232.1008 233.8907 234.3647 234.3647
   235.2976 235.2976 235.4232 236.3897 237.1353 237.1353 240.5666 240.7870
   240.7870 241.0570 241.8519 241.8519 242.0564 244.2947 244.5009 244.5009
   245.3234 248.2149 248.2149 249.4341 250.4228 250.4228 251.3385 251.3385
   251.3564 251.6477 251.6477 252.1136 255.7504 256.3929 256.8725 256.8725
   257.8763 257.8763 260.6354 260.6354 261.4071 262.9757 265.1079 265.1079
   265.3016 265.4805 265.4805 265.8448 265.8448 265.8653 268.3626 268.3626
   268.4865 269.5689 270.3511 270.3511 271.0432 271.7952 271.7952 272.7807
   272.7807 273.6193 273.8110 274.1801 274.1801 275.8487 276.2037 276.2037
   277.2343 277.8342 277.8342 278.5022 279.0215 279.0215 279.9911 280.1211
   280.3441 280.3441 281.0531 281.0531 281.3390 282.5294 285.4292 285.4292
   285.4893 285.8088 285.8156 285.8156 286.6481 286.6481 287.7645 288.6022
   288.6022 289.8379 290.4202 290.4202 290.4471 290.8279 290.8279 291.4098
   291.4289 291.4289 292.3762 292.3762 292.4059 292.5114 292.5790 292.5790
   294.0439 294.0439 294.0760 294.0933 294.1555 294.1555 295.7648 295.7648
   295.9023 298.9884 298.9884 299.3655 300.5637 300.5637 300.5671 301.1074
   301.1074 301.3043 301.9876 302.2547 302.3843 302.3843 303.9426 304.2075
   304.2075 304.7864 304.7864 304.8015 307.1725 307.1725 307.9017 307.9277
   307.9277 307.9885 309.0140 309.0140 309.2916 309.6397 309.8788 309.8788
   310.1409 310.1409 310.8797 310.8797 310.8961 311.0169 312.2462 312.2462
   312.4484 312.7995 312.7995 314.0307 314.0307 314.3726 314.9334 315.6486
   315.6486 315.6911 317.2113 317.2113 317.4168 317.8010 317.8010 317.8865
   319.0769 319.0769 319.1477 319.8889 319.8889 320.6595 320.6595 320.8007
   321.0248 321.3077 321.3077 321.9650 321.9822 321.9822 324.0301 324.1000
   324.1000 324.4526 324.4526 324.5312 326.1122 326.1122 326.2467 326.6546
   326.6546 327.1322 327.1322 327.2880 328.1276 330.2152 330.4483 330.4483
   331.9682 331.9682 332.3831 332.5081 333.1470 333.1470 334.0964 334.0964
   334.1570 335.7799 336.6813 336.6813 336.7638 337.4017 337.4017 338.7336
   338.9563 338.9563 339.1823 340.1510 340.1510 340.1643 341.3505 341.3505
   342.1698 343.8619 343.8619 343.8910 344.0515 346.6278 346.6278 348.0694
   348.0694 353.5522 353.7840 353.7840 355.1829 356.0733 356.0734 356.5275
   358.7585 359.2857 359.2857 360.2727 360.2727 362.3671 362.4467 362.4467
   362.7750 362.7750 363.3788 363.3788 363.4827 363.6960 364.2882 364.5593
   364.5593 367.3839 367.3839 367.4084 368.2238 368.2238 368.2776 369.7891
   369.7891 369.8000 370.9104 370.9104 370.9302 371.9015 371.9015 371.9152
   372.7848 372.9516 372.9516 375.7006 375.7006 375.7615 376.6403 376.6403
   376.7354 378.9640 379.1685 379.1685 380.3005 380.9826 380.9826 381.4717
   381.7225 381.7225 382.1661 384.3283 384.3283 385.1734 385.1734 385.7298
   385.7500 386.0706 386.0706 386.5870 386.7513 386.7513 386.7796 387.0363
   387.0363 388.0955 388.1209 388.1209 388.4720 388.9901 388.9901 389.2187
   389.2465 389.2465 389.3798 389.6641 389.6907 389.6907 391.2092 391.2092
   392.2650 392.2650 392.3448 392.7352 393.2979 393.2979 393.3797 394.3669
   396.3370 396.3370 396.4548 396.4701 396.4701 396.6200 399.0022 399.0022
   401.9421 401.9421 402.0129 403.2991 403.2991 403.5580 404.3153 404.5371
   404.5371 405.1302 405.1302 405.4140 405.6966 405.6966 406.2850 406.9484
   406.9484 407.3268 408.1354 408.1354 408.2943 409.5090 409.6319 409.6319
   409.7969 409.8869 409.8869 410.0901 410.1627 410.1627 411.6433 411.6433
   411.9556 412.0267 412.1426 412.1426 414.2145 414.2145 414.2490 414.3629
   414.3811 414.3811 415.5686 415.5686 415.5984 418.9668 419.0009 419.0009
   419.1818 419.1878 419.1878 420.7681 420.7681 421.3728 421.9881 421.9881
   422.2100 422.3658 422.4366 422.4366 423.5572 424.9069 424.9069 425.3709
   425.4633 425.4633 426.5540 426.6015 426.6015 426.7841 426.7841 426.8571
   427.0901 427.0901 427.1206 429.4691 429.9945 430.0103 430.0470 430.0470
   430.1769 430.1769 433.4879 433.4879 435.3429 435.6565 435.6565 435.7508
   435.7508 435.8231 435.8521 437.5490 437.5490 437.7164 438.2334 438.4326
   438.4326 439.1415 439.1415 439.6079 439.9066 439.9066 440.4291 440.5880
   440.5880 441.3619 443.4184 443.4184 443.4307 443.4487 443.8135 443.8135
   445.7629 446.7177 446.7177 447.1841 447.1841 447.4605 448.0521 448.4051
   448.4051 448.9170 448.9170 448.9172 449.1247 449.1247 449.5088 449.6789
   449.6789 449.9753 449.9753 450.0307 450.2255 451.1357 451.1357 451.3503
   451.4835 451.5322 451.5322 452.9462 453.1956 453.1956 453.5931 453.7619
   453.7619 454.6346 454.6346 454.7857 454.8367 454.9622 454.9622 458.4719
   458.4719 458.4950 459.2916 459.3331 459.3331 459.5406 459.5511 459.5511
   459.9710 459.9710 460.3641 460.4541 460.4794 460.4794 461.1047 461.1047
   461.1269 461.3442 461.9633 461.9633 462.2708 463.5685 463.5685 463.6815
   464.2117 464.4455 464.4455 465.7258 465.7258 465.9929 468.1687 468.1762
   468.1762 468.5062 468.5062 468.7132 468.7132 468.9885 470.1046 470.2157
   470.2157 471.1631 471.7747 471.7747 471.8049 472.7887 472.8766 472.8766
   473.3539 473.4003 473.4003 474.1852 474.1852 474.5586 474.5586 474.7356
   475.5546 475.5546 475.5968 476.1280 476.3735 476.3735 476.7914 476.8747
   476.8747 477.2121 477.6803 477.6803 480.8123 480.8123 481.8716 482.1361
   482.1361 482.3627 482.6798 482.6798 482.8970 482.8970 482.9654 483.0995
   483.2686 483.3439 483.3439 485.3863 485.3863 485.3944 485.9000 486.9774
   486.9774 487.0161 487.4171 487.4171 489.5641 489.5641 489.7296 489.9915
   489.9935 489.9935 490.9264 490.9264 491.1124 491.3510 491.4337 491.4337
   493.8460 493.9087 493.9087 495.6085 495.6085 495.6234 496.6179 496.6179
   496.6364 498.5511 498.5511 498.8093 501.1177 501.1898 501.1898 501.3566
   501.3566 501.3579 506.0695 507.0180 508.0582 508.0582 508.5161 508.5162
   508.5537 512.2209 512.2315 512.2315 513.4673 513.4673 514.9310 514.9310
   515.0812 515.0812 515.1936 515.4431 516.4595 516.4889 516.4889 518.7980
   518.9365 518.9365 519.3083 519.3191 519.3193 519.3193 519.4153 519.4153
   520.8883 520.8883 520.9025 522.3672 523.9064 524.0775 524.0775 526.6382
   526.6632 526.6632 528.4533 528.4533 529.3048 529.3048 529.3235 529.5908
   529.8652 529.8652 529.9996 530.1111 530.1111 530.7608 530.9574 530.9574
   534.5995 534.9481 534.9481 535.0383 535.0383 535.7488 536.2668 536.3860
   536.3860 536.9843 537.0081 537.0081 538.0817 538.0817 538.4091 538.5168
   538.8559 538.8559 540.3428 540.3428 540.4140 540.6753 540.6816 540.6816
   541.0722 541.0803 541.0803 542.0325 542.0820 542.0820 543.3309 543.3309
   543.3379 546.6257 546.6257 546.9587 547.8121 547.8121 547.8731 549.6657
   549.6657 550.5808 550.6769 550.6769 550.7349 550.8866 551.7616 551.7912
   551.7912 552.5640 552.5640 553.3398 553.3398 553.7578 554.4521 554.4521
   554.5172 555.3055 555.3055 555.5090 555.5704 555.5704 555.8285 555.8773
   555.8773 556.0371 556.3255 556.3255 556.5170 557.1903 557.5214 557.5214
   558.1783 558.3300 558.3300 560.2824 560.2824 560.2999 561.1798 561.1798
   561.2264 561.3607 561.3607 561.5016 561.7944 562.0973 562.0973 562.4131
   562.4148 562.4148 563.0432 563.0432 563.3312 563.3709 563.5616 563.5616
   563.9198 563.9198 563.9775 565.5696 565.5696 565.6480 567.8598 568.0451
   568.0451 569.1198 569.1398 569.1398 569.1850 569.8911 569.8911 569.9773
   570.3971 570.3971 570.5888 570.6195 570.7525 570.7525 571.8657 571.8657
   571.9692 572.3709 572.3709 572.6850 573.9736 573.9736 573.9926 574.2687
   574.6344 574.6344 575.6300 575.6300 575.8424 575.8763 575.8763 575.9743
   576.0000 576.2094 576.2094 576.5796 577.1051 577.1051 577.2939 577.2939
   577.4800 577.5149 577.5149 577.5202 578.5730 578.9304 578.9304 579.0100
   579.1245 579.1245 580.1622 580.1622 580.1888 581.2780 581.3498 581.3498
   581.7916 581.9122 581.9122 582.9671 582.9671 583.0931 583.1141 583.1275
   583.1275 585.9324 585.9324 585.9801 586.4862 586.4862 586.5234 586.7056
   586.7844 586.7844 589.0458 589.0458 589.0505 589.1737 589.1770 589.1770
   590.4471 590.4471 590.8712 590.8952 590.9010 590.9010 591.0733 591.4158
   591.4158 591.9354 591.9354 592.3026 592.6234 592.7917 592.7917 593.3556
   593.3556 593.5694 593.5895 593.5895 593.6831 594.1937 594.1937 594.2288
   594.4831 594.4831 594.6078 595.6015 595.9653 595.9653 596.7046 596.7046
   597.0878 597.8312 597.8312 597.8322 599.0763 599.0763 599.1594 599.3749
   599.3749 599.3872 600.3616 600.3616 600.7444 600.9593 600.9714 600.9714

          k =-0.2500 0.2500-0.2500 (  3744 PWs)   bands (ev):

   -94.4728  -7.7815   2.0232   4.7685   4.7685   9.8127  11.2757  11.2757
    13.6277  16.6645  16.6645  17.4122  20.2494  24.6364  24.6364  27.6168
    28.1852  28.1852  29.2915  35.6532  35.6532  39.1802  39.1802  39.9705
    40.3075  43.6942  43.7320  43.7320  46.0422  46.0422  48.2503  49.3487
    49.3487  49.6060  50.9618  50.9618  51.0853  53.8188  53.8188  54.2762
    56.1184  57.1349  57.1349  58.6749  61.6395  61.6395  62.9751  62.9751
    64.0933  65.4280  65.4280  66.6258  67.2668  70.6419  71.5809  71.5809
    72.0588  72.0588  72.4730  74.8686  74.8686  76.4900  78.6441  78.6441
    81.1139  84.1584  84.1584  84.5276  89.0128  89.4194  89.4194  89.9623
    92.3448  92.3448  92.6868  93.9907  94.6694  94.6694  95.1653  95.1653
    97.3020  97.3020  97.7865 100.3407 100.4490 100.4490 101.9640 102.6594
   102.6594 103.2019 104.5867 104.5867 106.3614 106.3930 106.3930 106.9249
   107.9999 107.9999 108.8830 110.7584 110.7584 111.9722 111.9722 112.7052
   115.2735 115.4008 115.4008 115.6160 117.3532 117.3532 118.6377 119.0374
   119.0374 119.5827 119.5827 120.9882 122.0302 123.5793 123.8426 123.8426
   126.1685 126.3090 126.3090 126.4474 127.2396 127.2396 127.8729 128.8509
   128.8509 128.9804 129.6127 129.6127 130.6573 132.4023 132.4023 134.5599
   134.6675 134.6675 135.1440 136.9826 136.9826 137.8837 139.1271 139.1271
   139.6826 140.5096 140.5096 140.8871 141.6567 141.6567 144.4820 146.2278
   146.2278 147.1437 149.4357 151.3158 151.3158 153.0245 154.0839 154.0839
   155.1787 155.1787 156.0848 158.7557 159.3409 159.3409 160.6598 160.6598
   161.7527 162.3992 162.3992 163.2768 164.5965 164.5965 164.8117 165.1150
   166.1747 166.4103 166.4103 167.1534 167.1534 168.0694 168.0694 168.0819
   169.1549 169.4170 169.4170 172.0024 172.0024 172.1166 172.7950 173.4884
   173.4884 175.4090 177.1513 177.1513 177.6967 178.7771 178.7771 181.5364
   181.7580 181.7580 181.7715 182.4569 182.4569 183.5737 184.2896 184.2896
   186.5247 186.7119 186.7119 188.1911 188.1911 188.2176 189.0292 189.5945
   189.5945 191.0471 191.3981 191.3981 191.9687 193.1230 193.5432 193.5432
   194.6108 194.6108 194.6809 195.4668 195.4668 196.2175 196.7640 196.7640
   197.7160 198.5719 198.5719 198.6415 198.7491 198.7491 199.0455 200.8226
   202.7940 202.7940 203.5948 204.4974 204.4974 205.8455 205.8455 206.4369
   206.4369 206.6337 206.6536 207.1023 207.1023 208.5241 208.5241 208.6492
   210.2381 210.2381 210.3068 211.3349 211.3885 212.6570 212.9457 212.9457
   214.0577 214.0577 214.4969 214.4969 214.9736 215.3952 215.3952 216.2651
   217.4782 217.4782 218.1422 218.1422 219.4935 219.4935 219.5045 219.7532
   222.2247 224.2879 224.7882 224.7882 226.9388 227.4701 227.4701 228.1228
   228.1228 228.3902 228.5528 228.5528 229.5699 230.7399 230.7502 230.7502
   231.9997 231.9997 232.0751 232.1049 232.3060 232.3060 238.4632 238.5559
   238.5559 238.7931 239.1526 239.1526 240.0953 240.0953 240.1647 243.5728
   243.5728 243.7100 245.2435 245.9453 245.9453 247.2113 247.3971 247.3971
   248.7285 249.2472 249.4162 249.4162 250.5669 250.5669 251.4948 251.4948
   252.0028 252.7390 253.5370 253.5370 256.0838 258.4987 258.4987 258.5195
   258.6139 259.1563 259.2676 259.2676 259.9265 259.9265 260.1623 260.2184
   260.2184 262.2796 262.2796 262.7113 262.9285 263.5335 263.5335 264.1293
   264.1293 264.7772 265.0418 265.0418 266.1965 266.3559 266.3559 266.3853
   268.2439 268.2439 268.3904 270.5258 271.1013 271.1013 273.2333 273.2333
   274.3123 274.3123 274.5123 276.4622 276.4622 277.8421 277.8421 278.2790
   278.3888 280.5439 280.7125 280.7125 280.7629 281.3288 281.3288 284.6001
   284.7426 284.7426 284.8312 284.8976 284.8976 285.6959 286.2147 286.2147
   286.2801 289.4594 289.4684 289.4684 291.9267 291.9267 292.8109 293.0384
   293.0384 293.2547 293.5763 293.5763 293.7539 293.7539 293.8933 294.1914
   294.3663 294.3663 295.5511 295.5511 295.6529 296.5721 296.5721 296.5924
   297.0914 297.0914 297.2221 297.2559 298.8698 298.8698 299.1334 299.3824
   300.7909 300.7909 301.9898 301.9898 302.1708 302.2828 302.3660 302.4828
   302.4828 302.7144 302.7144 304.1829 304.1829 304.2522 306.1585 306.5685
   306.5685 307.1178 307.3558 307.3558 307.9533 309.0037 309.0037 309.2364
   309.2623 309.2623 310.0953 310.0953 310.1327 312.1437 312.1437 312.1793
   313.1544 313.1544 313.2135 315.1437 315.1697 315.1697 315.4777 315.4777
   315.6061 317.6185 317.6185 317.7739 318.2282 318.3569 318.3569 318.5330
   318.6514 318.6514 319.0070 319.4856 319.4856 320.9051 320.9354 320.9354
   321.1881 321.1881 321.2319 325.3330 327.5092 327.9151 327.9151 329.0181
   329.0181 329.7210 330.9697 330.9697 331.5169 331.8217 331.8217 331.8914
   332.2561 332.2561 332.5314 332.6684 332.6684 333.8353 336.0726 336.1431
   336.1431 337.2335 337.2983 337.2983 337.4161 337.8829 337.8829 340.3954
   340.3954 340.4061 341.3266 341.3266 341.3287 341.4604 341.4604 343.3818
   343.5852 343.5852 344.2960 344.2960 345.6341 345.9288 345.9288 347.0141
   347.1474 347.2902 347.2902 347.6252 348.8809 348.8809 350.8448 350.8448
   351.0671 351.1773 351.2810 351.2810 352.0401 352.1294 352.1294 353.9858
   355.4187 355.4187 355.5490 356.6124 356.6124 357.2387 357.3636 357.3636
   358.0380 358.0380 358.1602 359.9583 360.0415 360.0415 360.1641 361.9509
   361.9677 361.9677 363.0713 363.0713 363.1040 365.2479 365.2479 365.3771
   365.5459 365.5459 365.6221 365.6221 365.6945 366.7414 366.7414 366.8271
   371.3552 373.5828 373.5828 374.1227 374.3950 374.3950 374.4579 376.0188
   376.0188 376.4433 376.5013 376.7145 376.7145 376.9322 376.9845 376.9845
   379.5955 379.5955 379.7699 379.9063 379.9063 380.0513 381.3121 381.5185
   381.5185 385.1980 385.1980 385.3027 385.3580 385.6334 385.6334 386.2091
   386.5779 386.5779 386.8293 386.8419 386.8419 387.6215 387.6215 387.9014
   389.2506 389.4136 389.4136 389.7783 389.8071 389.8071 390.7500 390.9991
   390.9991 394.5885 394.5885 395.0778 395.3816 395.4491 395.4491 395.4715
   396.2168 396.2168 397.8858 397.8858 397.9240 399.8171 401.0131 401.0131
   401.4450 401.5359 401.5359 404.1487 404.5274 404.5274 405.8408 405.9895
   405.9895 406.1651 406.2751 406.2751 406.8726 406.8726 406.9299 407.5079
   408.9169 408.9169 409.7665 409.8410 409.8410 410.5106 410.5106 410.5165
   411.1323 411.1323 411.1483 411.5940 411.7673 411.8356 411.8356 413.6956
   414.0132 414.0132 414.3844 414.3844 414.4862 414.6766 414.6766 414.7267
   419.2156 419.2156 419.2793 419.2794 419.8847 419.8847 420.0404 420.2033
   420.2904 420.2904 421.1143 421.3452 421.6027 421.6027 422.2057 422.2057
   422.2705 422.8580 422.8580 423.3088 423.5629 423.5629 423.6038 423.8041
   423.8587 423.8587 424.0604 424.5531 424.5531 427.1198 427.5822 427.5822
   428.2371 428.2371 428.5120 428.8300 429.0130 429.0130 430.2316 430.5170
   430.5170 430.5922 430.5922 430.6633 431.3913 431.4089 431.4089 431.5354
   431.7526 431.7526 432.7923 432.9359 432.9359 433.2059 433.2059 433.2321
   433.7028 433.7028 433.9142 435.4168 435.6752 435.6752 437.7272 437.7272
   437.9990 439.4238 440.4891 440.4891 440.7877 441.4468 441.6832 441.6832
   442.1824 442.1824 442.2684 442.4317 442.5165 442.5165 443.5649 443.5649
   443.7255 444.1913 444.2405 444.2405 446.7191 446.8068 446.8068 446.8513
   446.8513 448.4104 448.7600 448.7600 450.4462 450.4462 450.8736 452.6674
   452.6674 452.8621 453.1331 453.2000 453.2000 453.5808 453.6518 453.6518
   453.8502 454.1420 454.1420 454.3050 454.3050 454.3701 455.1672 455.1714
   455.1714 456.1483 456.1483 456.2181 457.3384 459.7750 459.7750 459.7884
   460.5012 460.5012 460.5294 463.4887 463.4887 463.7753 464.1939 464.1939
   465.0495 465.9734 466.1108 466.1108 466.2782 466.2941 466.2941 467.6074
   467.6074 467.6150 470.2896 470.2896 470.6225 470.6287 470.6287 470.6772
   471.4050 471.4616 471.4616 471.9226 471.9763 471.9763 474.8915 475.0898
   475.0898 475.2073 475.2478 475.2478 475.4977 475.7393 475.7393 475.7880
   475.8817 475.8817 477.4406 477.4406 477.5717 477.8507 477.8896 477.8896
   478.6749 478.8491 478.8491 480.6213 480.6213 480.6362 482.5254 482.8020
   482.8020 484.2732 484.2931 484.3583 484.3583 484.7000 484.7000 484.8586
   485.3132 485.3132 485.3395 486.1050 486.1050 486.1576 486.3786 486.3786
   486.3897 486.5357 486.5357 487.0927 487.1025 487.1025 488.7581 488.7581
   488.7811 491.1105 491.1105 491.2763 491.7743 492.9892 492.9892 493.9237
   494.8621 494.8621 494.8857 496.1145 496.1178 496.1178 496.2760 496.2760
   496.5335 496.5335 496.7040 497.0185 497.1105 497.1105 498.0697 498.0697
   498.2918 499.8750 502.2637 502.2637 503.0589 503.0589 503.0712 504.2240
   505.9516 505.9516 506.4099 507.9728 507.9728 508.1847 508.4762 508.4762
   508.7943 508.7943 508.7951 509.3844 509.3844 509.3932 510.4374 510.4374
   510.9878 512.0117 512.2229 512.2229 512.8900 512.9779 512.9779 516.5800
   516.5800 516.6685 517.6367 517.7934 517.7934 521.1476 521.1476 521.1488
   521.8517 521.9641 521.9641 524.6827 524.6827 524.7871 525.7554 525.7554
   526.0235 526.2369 526.2369 526.2463 526.4417 526.5033 526.5033 527.0819
   527.4636 527.4636 527.9575 527.9575 528.1359 529.5877 530.0120 530.0120
   530.1868 530.2949 530.2949 530.7141 531.6268 531.6268 531.8656 533.7520
   533.8625 533.8625 534.9565 534.9565 535.0667 535.2136 535.3266 535.3266
   535.6107 535.6107 535.7468 535.8388 535.8388 536.1023 536.7368 536.7368
   536.8999 536.9357 536.9357 540.6841 541.1671 541.1671 541.9515 542.1283
   542.1283 542.4993 542.5777 542.5777 543.8539 543.8539 544.0545 544.6116
   544.6116 544.7230 545.3972 545.4743 545.5062 545.5062 545.8252 545.8252
   547.1204 547.1204 547.4150 547.9856 549.5531 549.5531 550.0164 550.0164
   550.7609 550.8226 550.8226 550.8986 552.2119 552.6589 552.6589 552.8077
   553.6766 553.6766 553.7172 554.0378 554.0378 554.1554 554.4768 554.5370
   554.5370 554.7677 554.7677 554.8566 555.6180 555.6180 555.6408 555.7928
   555.8553 555.8553 558.7474 558.7474 558.7748 558.9947 558.9947 559.3077
   559.6379 559.6379 559.7660 560.8625 561.2379 561.2379 561.2379 561.3776
   561.3776 562.8324 563.0173 563.0173 563.9026 563.9026 564.0108 564.1836
   564.1836 564.3147 566.0637 566.0637 566.1801 566.2571 566.2571 566.3014
   566.5742 566.5742 566.6271 570.0992 570.1423 570.1423 573.0932 573.3327
   573.3327 573.3619 573.6091 573.6091 573.7421 573.7884 573.9065 573.9065
   574.2783 574.2783 576.1475 576.1475 576.3096 576.4482 576.4482 576.4835
   576.5718 576.5718 576.5733 576.8523 576.8523 576.8624 577.2344 577.2344
   577.3711 577.5937 577.5937 577.7474 577.7980 577.7980 577.8372 582.6117
   582.6117 582.6591 582.9035 582.9035 583.1044 583.2063 583.2254 583.2254
   583.5579 584.0602 584.0602 584.4282 585.1352 585.1352 585.3143 585.4752
   585.4752 588.5396 588.5396 588.6187 588.7113 588.7113 588.8014 589.5941
   589.5941 589.6254 589.9519 589.9519 590.1553 590.4017 590.4017 590.4962
   590.5388 590.7509 590.7509 590.9744 591.0233 591.0233 592.2096 592.2096
   593.3619 593.4268 593.6694 593.6694 595.4350 596.4214 596.7555 596.7555
   596.7708 598.1788 598.1788 598.3563 598.4546 598.4546 600.6820 600.6820
   600.8178 600.8178 600.8815 601.7149 601.7149 601.7264 602.4129 602.4129
   602.4219 604.4444 604.4444 604.4461 604.8416 604.8416 604.8653 605.2876
   605.2877 605.3069 605.3833 605.3834 605.4178 605.5710 605.5711 605.8433

          k =-0.3750 0.3750-0.3750 (  3762 PWs)   bands (ev):

   -94.4728  -7.2825   0.3997   4.4429   4.4429   9.7054  11.3946  11.3946
    15.0937  17.7098  17.9111  17.9111  20.8514  23.9953  23.9953  27.3957
    28.8358  28.8358  32.1763  35.8045  35.8045  36.1579  38.2554  38.2554
    40.4323  40.4323  41.0162  42.5427  44.5275  44.5275  46.0883  47.3062
    47.3062  48.6048  48.8357  53.5497  53.5497  53.8689  55.9485  55.9485
    56.6859  57.3470  57.3470  60.5254  63.6417  63.6417  65.2859  66.8545
    66.8545  67.5649  70.4542  70.4542  70.9597  70.9597  71.5723  71.5723
    72.4051  72.6855  73.3966  76.2968  76.2968  77.1689  78.5065  78.5065
    80.2109  80.2109  81.8078  82.8627  82.8627  84.7238  84.8635  87.8182
    87.8182  88.0272  91.2688  91.9265  92.4254  92.4254  94.5279  94.5279
    94.7560  98.1861  98.1861 100.6115 100.6115 101.2262 102.6231 102.6231
   103.3602 103.5456 103.5456 103.7141 105.8516 105.8516 106.7184 107.6420
   107.8090 107.8090 108.0564 111.7124 111.7124 112.0923 114.2684 114.2684
   114.4767 116.1709 117.2534 117.2534 118.3930 118.3930 119.2151 119.2151
   119.4184 119.5438 120.1435 120.2120 120.2120 123.4584 125.4729 125.4729
   126.3801 127.6966 127.6966 128.1584 128.6268 128.6268 128.9360 128.9989
   129.7603 129.7603 131.1366 131.1366 133.4166 133.5880 133.5880 135.6278
   135.6378 135.6378 136.0512 136.8903 137.0394 137.0394 138.2209 138.2209
   138.9366 139.0900 139.0900 141.6723 144.8398 144.9577 144.9577 147.7761
   147.7917 147.7917 149.9659 149.9659 153.9215 154.1820 154.1820 155.6639
   156.6552 156.6718 158.2331 158.2331 159.0935 159.6210 159.6210 160.7027
   160.7027 160.8168 161.6548 161.6548 162.4216 163.1708 163.1708 163.8141
   163.8141 165.1779 166.6182 167.0977 167.0977 167.3978 167.8580 167.8580
   169.3429 169.3429 170.3659 170.7762 170.7762 171.0048 171.3129 171.9748
   171.9748 173.1493 173.1493 175.9164 177.7638 177.7638 178.3127 178.8729
   178.8729 180.1325 180.2464 180.2464 181.5328 183.0632 183.1684 183.1684
   185.0588 185.0588 185.1979 185.5128 186.0419 186.0419 186.7597 188.4115
   188.8838 188.8838 189.5692 189.7244 189.7244 190.8327 190.8327 191.2977
   191.2977 191.5009 194.7941 195.5943 195.5943 196.4667 196.8169 196.8169
   198.9185 199.5699 199.5699 200.0481 200.2006 200.9547 200.9547 202.1924
   202.1924 202.3803 202.3803 202.5548 202.8472 203.2805 203.2805 205.8036
   205.8036 205.9428 206.7815 207.8365 207.8365 208.5061 209.5419 209.5419
   211.0251 211.0251 211.1730 212.9055 213.1671 213.1671 213.2861 214.3855
   216.4706 216.4706 218.1455 218.9510 218.9510 219.2280 219.2280 220.3153
   221.8132 221.8132 221.9996 222.4226 222.6017 223.7995 223.7995 225.7974
   225.7974 225.8436 226.3427 226.8457 226.8457 227.6334 227.6334 229.9471
   230.0018 230.0018 230.7161 230.8337 230.8337 231.8172 231.8172 233.5713
   234.3711 235.3473 235.3473 235.9584 238.0940 238.8471 238.8471 239.1143
   239.4712 239.4712 240.4697 240.4697 241.4469 241.9134 241.9134 242.3411
   243.6804 243.6804 245.6069 246.1599 246.7043 246.7043 247.1621 247.1621
   249.3612 250.3245 250.5252 250.5252 250.8418 250.9699 250.9699 251.8463
   251.8463 251.9385 252.0468 252.0468 252.2616 253.2570 253.2570 254.0827
   254.5223 254.5710 254.5710 255.3997 255.9521 255.9521 256.6568 256.6568
   258.0553 258.0553 258.3826 260.8178 260.8178 260.8615 261.1688 261.1688
   262.9459 265.4535 265.5905 265.5905 265.8126 265.8126 265.9913 267.6801
   267.9923 268.6062 268.6062 269.7771 269.7771 269.9351 271.3286 271.3286
   271.4205 273.6304 275.4645 275.4645 275.7366 275.7366 275.9784 277.9063
   277.9063 278.5892 279.4657 279.7681 279.7681 280.0277 280.0277 280.6851
   280.6851 280.7985 281.5792 281.8546 281.8546 283.2487 283.2487 283.3719
   285.8107 285.8625 285.8625 286.2953 286.4707 286.4707 286.5542 288.7459
   289.2577 289.2577 289.8382 289.8383 290.2009 290.2009 290.3639 290.9391
   290.9391 291.0992 292.8891 292.8891 292.9007 295.5840 295.6054 295.6054
   297.4402 297.4402 297.8193 297.9369 298.1470 298.1470 300.6211 300.8392
   300.8392 302.4983 302.4983 302.5806 304.3685 304.3685 304.5210 306.8390
   306.9322 306.9322 307.0903 307.3714 307.3714 307.8185 307.9583 307.9583
   307.9678 310.0860 310.1220 310.1220 310.5599 310.7168 310.7168 311.1013
   311.1013 311.2372 312.9657 312.9657 313.4656 313.6646 313.6646 314.4122
   314.4122 314.4688 315.3757 315.7807 315.9485 315.9485 318.4973 318.5629
   318.5629 318.6487 318.6487 318.6625 318.7366 320.0700 320.0759 320.0759
   320.7824 320.7824 321.0916 322.5345 323.3331 323.3331 323.6457 323.6457
   324.8647 324.9243 324.9243 324.9986 325.1288 325.1288 330.6835 330.6835
   330.7481 331.7211 332.3581 332.3581 334.4301 334.9311 334.9311 335.2790
   335.2790 336.5819 336.8623 336.8623 337.0629 337.5576 337.5576 337.6109
   337.8422 338.9197 338.9197 340.3160 340.3772 340.3772 340.7289 340.7398
   340.7398 340.8490 341.4606 341.4606 341.8164 341.9892 341.9892 342.9083
   342.9083 342.9522 345.0214 345.0214 345.0736 348.3322 348.3797 348.3797
   349.2364 349.4968 349.4968 349.5387 350.0358 350.0896 350.0896 350.2930
   350.2930 350.8942 350.8942 351.0269 351.2138 352.9282 354.7315 354.7513
   354.7513 355.6113 355.6113 355.8351 355.8445 355.8445 356.6391 356.9992
   356.9992 358.3425 358.5741 358.5741 361.4291 361.4291 362.5215 362.5235
   362.5235 363.3857 364.8449 364.8449 365.1779 365.2512 365.6480 365.6480
   365.8031 365.8466 365.8466 366.1459 366.1459 366.2490 366.2575 366.2659
   366.2659 367.1009 367.1009 367.1230 367.4655 367.9500 367.9500 368.6236
   369.0746 369.0746 371.6611 372.4993 372.4993 372.5150 373.4425 373.4425
   376.7756 376.7756 376.9272 377.6999 377.6999 377.9483 378.9701 382.4219
   382.4222 382.4222 383.3363 383.3363 383.5114 385.0457 385.0457 385.4472
   385.4472 385.5714 387.0157 387.0157 387.0303 388.0786 388.4374 388.4374
   388.7096 389.3224 389.3224 389.6876 391.8873 391.8873 394.6076 394.6076
   394.7108 394.8241 394.8241 394.9395 395.2510 395.9334 395.9334 396.0377
   396.3163 396.3163 397.2490 397.3060 397.3060 399.8959 399.8959 400.4389
   400.7960 400.7960 401.8204 403.2519 403.2519 404.6627 404.6627 404.7083
   404.7546 405.0583 405.0583 405.1427 405.4387 406.2767 406.2767 406.9117
   408.0127 408.0127 408.0511 408.4445 408.4445 410.7424 410.7424 411.1217
   411.5440 411.5541 411.5541 412.0547 412.0547 412.1988 413.0758 413.1542
   413.1542 413.6208 413.6208 413.7303 414.0449 414.0449 414.0932 416.2017
   416.3391 416.3391 416.9968 417.3159 417.3159 417.7398 417.7398 417.7489
   419.3101 419.6678 419.9679 419.9679 422.0691 422.0691 422.0911 422.1325
   422.6122 422.6234 422.6234 422.8939 422.8939 422.9262 423.1724 423.1724
   423.2126 424.8384 424.8384 425.5922 425.5922 425.7098 425.7098 426.0228
   426.4185 426.4185 426.9457 427.1399 427.2085 427.2085 428.2183 428.4503
   428.4503 429.2975 429.2975 429.2978 429.7636 429.8477 429.8477 430.2893
   430.2893 430.3403 432.9225 433.0381 433.0381 433.9534 434.1000 434.1000
   434.1882 434.5038 434.5038 434.6184 435.0625 435.1182 435.1182 435.6441
   435.6441 435.6806 437.4080 437.4080 437.6477 437.8760 437.9493 437.9493
   438.4290 438.4513 438.4513 439.9292 439.9292 441.3498 441.3498 441.4959
   445.3779 445.3779 445.7694 446.3161 446.3875 446.3875 449.1670 449.4684
   449.4684 451.3319 451.3319 451.3731 452.1199 452.1199 452.3500 453.0336
   453.0336 453.1245 454.0989 454.0989 454.1558 456.4100 456.4100 456.5253
   457.4742 458.3884 458.3884 458.8814 458.8814 458.8947 459.9628 459.9628
   459.9869 460.9561 461.2474 461.2474 461.4125 461.4898 461.4898 462.2201
   462.2249 462.2249 462.7377 462.7690 462.7690 463.3839 463.7664 463.8642
   463.8642 465.3383 465.3383 466.2784 466.2784 466.7496 467.8094 467.9596
   467.9596 469.7506 469.7506 469.7713 469.9317 470.3485 470.3485 472.2188
   472.2188 472.7395 473.5564 473.5564 473.6663 475.6038 475.6038 475.6641
   476.2362 476.2362 476.2370 476.5043 477.1763 477.1763 477.2330 477.3927
   477.3927 477.8781 477.8781 477.8912 478.2726 479.2522 479.2522 479.2829
   479.5190 479.9152 479.9152 480.0177 480.4605 480.4736 480.4736 483.5853
   483.5853 484.2191 484.2191 484.8111 485.1678 485.1678 485.4552 488.0480
   488.0660 488.0660 489.0638 489.0638 489.0844 489.4016 489.4059 489.4059
   492.5405 493.0086 493.0086 493.5353 493.5353 493.7208 493.9341 494.1698
   494.1698 495.1968 495.2785 495.2785 495.9136 495.9136 496.1557 497.0516
   497.4999 497.4999 498.1700 498.2167 498.2167 498.5050 498.6471 498.6471
   499.5595 499.6693 499.6693 499.8723 500.0324 500.0324 501.0747 501.0874
   501.0874 502.5991 502.5991 502.6420 503.8542 503.9266 503.9266 505.0421
   505.0421 505.1941 508.3967 509.0889 509.0889 509.6300 509.6300 509.6395
   510.0152 510.0152 510.0237 511.8207 511.8723 511.8723 512.1657 512.2533
   512.2533 512.6136 512.6255 512.6255 514.0263 514.0281 514.0281 514.9761
   515.0190 515.0190 515.0953 515.7624 515.7624 515.7626 517.7640 517.7640
   519.6310 519.6310 519.7918 524.0988 524.0988 524.2679 524.6698 524.6698
   524.8374 525.3150 525.3150 525.3900 525.4471 525.4471 525.4527 525.7578
   525.9402 525.9542 525.9542 527.0534 527.0534 527.2403 527.4767 527.4767
   528.3161 529.3238 529.4518 529.7032 529.7032 529.8217 529.9436 529.9436
   530.0509 530.0509 530.3776 530.4253 530.4253 531.5272 531.5272 531.6433
   531.6433 531.7862 531.8840 531.9813 531.9813 532.6695 534.6824 534.7211
   534.7211 534.7483 535.0886 535.0886 535.1970 535.2261 535.2261 535.3731
   535.3731 535.9791 537.3569 537.3569 537.4052 537.4290 537.5609 537.5609
   541.4449 541.4449 541.5818 542.4319 542.4319 542.6127 543.6712 544.1264
   544.1264 544.2042 544.2042 544.2202 544.6110 544.7798 544.7798 545.2298
   545.2298 545.3265 548.6291 548.6291 548.6410 550.2297 550.2297 550.9879
   551.1776 551.1776 551.3711 552.0836 552.1804 552.1804 552.8602 552.9145
   552.9145 553.5994 553.6392 553.6392 553.9050 556.0111 556.0111 556.2500
   556.2600 556.2680 556.2680 559.8511 560.4924 560.4924 560.6864 560.6864
   560.7236 560.8089 560.8632 560.8632 561.2335 561.2335 561.3935 562.1429
   562.1429 562.4221 562.4221 562.5430 562.6843 562.7171 562.7171 563.3385
   563.3385 563.4525 564.8514 564.8514 564.9534 565.0336 565.0380 565.0380
   566.4887 566.5100 566.5100 566.8833 566.8863 566.8863 568.0090 568.0090
   568.0476 568.3273 568.3273 568.4263 569.0963 569.0963 570.5297 573.1389
   574.8921 574.8921 575.0751 575.0778 575.0778 575.6011 575.6011 575.7399
   576.2695 576.3170 576.3170 577.1239 577.1239 577.6869 577.6869 577.9814
   578.0659 578.3202 578.3202 578.3212 578.7216 578.7216 579.2834 579.3090
   579.3090 579.3860 579.6622 579.6622 579.7813 581.3728 581.3728 581.5140
   584.8347 584.8347 584.8492 587.2441 587.2441 587.4303 587.4793 587.4793
   587.6057 587.6057 587.6582 587.7229 587.9057 587.9057 588.0001 588.0226
   588.2130 588.2130 588.4576 588.5018 588.5018 590.2651 590.2683 590.2683
   590.5121 590.5739 590.5739 592.4040 592.5302 592.5302 593.3554 593.3758
   593.3758 594.6888 595.1526 595.1526 596.0331 596.0331 596.0713 596.1733
   596.1735 596.1735 597.7659 597.8021 597.8021 599.7927 600.2430 600.2430
   601.5038 601.7255 601.7255 603.0879 605.4020 605.4020 605.4082 605.6606
   605.6888 605.6888 608.6533 608.6533 608.6799 608.7049 608.7246 608.7246
   609.7011 609.7011 609.7456 609.7525 609.7525 610.6093 610.6093 610.7278

          k = 0.5000-0.5000 0.5000 (  3750 PWs)   bands (ev):

   -94.4728  -7.0334  -0.2382   4.3243   4.3243   9.6621  11.3486  11.3486
    15.3559  18.8178  19.6398  19.6398  20.0464  21.5960  21.5960  28.4430
    32.4116  32.4116  32.5101  33.5046  33.5046  36.8500  36.8500  37.1918
    38.1745  40.5989  40.5989  41.3964  43.8835  43.8835  46.3074  46.3941
    46.3941  47.9408  48.7441  53.5607  53.6826  53.6826  55.6735  55.6735
    57.6617  60.9083  63.2336  63.2336  64.0553  64.0553  66.0732  66.2446
    66.2446  66.8603  67.2108  67.2108  71.7945  72.5931  72.5931  73.5492
    73.5492  74.8501  75.8415  75.8415  77.0399  77.0399  78.2437  78.9714
    79.4968  80.7119  81.7298  81.7298  82.1250  82.1250  84.7719  86.4036
    87.8227  87.8227  88.9867  88.9867  90.1714  91.6650  93.0024  93.0024
    94.8484  94.8484  99.2070 100.0235 100.4012 100.4012 101.7550 102.6321
   102.6321 103.2854 106.5590 106.5590 107.2472 108.1820 108.1820 108.2877
   109.9195 110.3476 110.3476 110.7366 110.7366 111.5835 111.7702 111.8541
   111.8541 111.9873 112.6680 112.6680 119.3218 120.4180 120.8984 120.8984
   121.7574 121.7574 123.2589 123.2589 123.8027 123.8854 123.8854 124.1666
   125.8517 126.3828 126.3828 127.0600 128.1075 128.1075 128.3552 129.4684
   129.4684 130.6616 130.8438 130.8438 131.7146 135.9520 135.9520 136.0512
   136.4597 136.5665 136.5665 137.2916 139.2259 139.2259 139.8222 139.8222
   143.5950 143.5950 143.9017 143.9017 145.0116 145.6335 146.1491 146.1764
   148.2808 149.7593 149.7593 149.7965 149.7965 150.6490 150.6490 150.9449
   152.6223 152.6223 154.7261 155.1812 155.1812 155.5708 155.6498 155.6498
   160.9937 162.4962 164.6754 164.8668 164.8668 165.3099 165.4507 165.4507
   165.7571 165.7571 166.2053 166.5518 167.0454 167.0454 168.2719 168.2719
   169.2347 169.2347 170.3348 171.2270 173.5973 173.5973 174.8946 175.0470
   175.0470 175.4748 177.6669 177.6669 177.8762 178.3246 178.3246 178.4654
   178.4654 178.6766 179.2138 179.2138 179.5577 179.5577 179.6761 180.2951
   180.2951 180.3427 183.1143 184.2012 184.2013 185.1664 185.7765 185.7765
   187.9874 188.5757 189.2090 189.4802 189.4802 189.9172 189.9172 190.1719
   190.1719 190.7485 190.7485 191.1460 196.2714 197.1703 197.1703 198.6936
   198.7844 198.7844 199.2882 200.0505 201.6637 201.6659 201.7912 201.7912
   202.2062 202.2062 202.5860 203.3474 203.3474 204.1023 204.8714 204.8714
   206.9585 206.9585 207.2726 207.7572 207.7572 207.9180 210.2396 211.6431
   211.6431 211.8390 213.0308 213.0308 214.0897 214.2476 214.2476 214.3353
   214.6081 214.6081 216.0872 216.0872 216.1340 216.1340 216.2115 216.3034
   223.2642 224.8687 227.1003 227.1003 228.2328 228.2328 228.9241 228.9241
   229.1241 229.1241 229.5031 229.9622 230.7131 230.7131 231.0649 231.0649
   231.6485 231.9196 234.0399 234.0528 234.6032 234.8259 234.8259 235.1501
   235.1501 235.4740 237.4440 237.8347 237.9493 237.9493 238.8478 238.8478
   240.2067 240.2067 241.4405 241.4405 242.3823 242.5235 242.6440 242.6440
   243.1055 243.1055 244.1875 244.1875 244.5463 245.2415 245.3661 245.3661
   246.0472 246.0472 246.0750 246.0750 246.4058 246.5713 246.7963 246.7963
   246.8710 246.8710 248.0788 248.0885 251.9329 253.0440 255.3075 255.3075
   256.0145 256.4398 256.6972 256.6972 259.2600 259.2600 259.3954 259.3954
   260.7670 260.7670 261.0366 261.0893 261.6843 261.6843 263.1709 263.7848
   263.7848 264.5582 264.5582 265.2147 265.3591 265.3591 265.4686 265.9037
   265.9355 265.9355 267.1037 268.0465 268.0465 268.0574 268.3525 268.3525
   269.9325 269.9325 269.9968 269.9968 270.1835 270.3254 276.9372 276.9372
   277.2298 277.5916 279.4364 279.4364 279.5225 279.5225 279.7179 279.7691
   279.7691 279.7817 279.8879 279.8879 280.0036 280.7942 280.9200 280.9200
   285.9319 285.9319 286.4435 286.8397 287.2096 287.2096 287.9631 288.2773
   288.2773 289.5482 289.5675 289.5675 290.1725 290.3706 291.0550 291.0550
   291.3278 291.5654 291.5654 291.6157 296.1402 296.1402 296.3859 296.3860
   298.6988 299.0992 299.0992 300.3043 300.3043 301.0828 301.7028 301.8352
   301.8352 301.9136 302.3873 302.3873 302.5182 302.8633 303.8808 303.8808
   304.2863 305.6715 305.6715 305.8746 306.0361 306.0361 306.1072 306.1072
   309.8193 309.9791 309.9791 310.3056 310.3153 310.3153 310.9815 311.0885
   311.0885 311.3748 311.3748 311.5205 313.7780 313.7780 314.5802 315.2597
   315.5351 315.5351 317.5437 317.6378 317.6378 317.7061 317.7061 317.8097
   319.6673 320.1452 320.3330 320.3330 321.0019 321.0019 322.6313 322.6313
   322.8722 322.8722 323.5799 324.4007 324.9238 324.9431 325.9023 325.9023
   326.2223 326.2223 330.4391 330.4820 330.4820 330.8424 331.9250 331.9250
   332.2766 332.2766 332.3614 332.3818 332.4892 332.4892 332.8241 334.0827
   334.8475 334.8475 335.1728 335.3195 335.3359 335.3359 338.7812 339.8921
   339.8921 340.6075 340.9248 340.9248 342.3461 342.3461 343.0470 343.5396
   343.5396 343.6811 343.9258 343.9730 343.9730 344.3751 344.8936 344.8936
   346.3564 346.3564 346.3868 346.3945 346.4038 346.4038 348.0277 348.0332
   348.0332 348.1006 348.1132 348.1132 349.0696 349.0696 349.1218 349.1591
   349.1591 349.1709 350.8441 351.2982 351.3118 351.3118 351.3541 351.3541
   352.7580 353.3622 353.3622 353.6109 354.0924 354.0924 356.4784 356.4784
   357.0185 357.0740 357.2756 357.2756 357.5355 357.6926 357.7077 357.7077
   358.3014 358.3014 359.2685 359.2685 359.3768 359.4290 359.4859 359.4859
   365.3186 365.3186 365.6408 365.7122 365.7999 365.7999 368.1843 369.9248
   369.9977 369.9977 370.5664 370.5775 370.5775 370.8270 373.7459 373.7459
   373.9849 373.9849 378.8771 378.8771 378.9030 378.9030 379.4792 379.4792
   379.6557 379.7106 379.7143 379.8764 380.4955 380.4955 380.5178 380.6189
   380.6189 380.6329 380.7653 380.7653 381.6445 381.6445 381.6651 381.6651
   382.9681 382.9737 387.3959 388.0496 388.0496 388.2742 388.2955 388.2955
   388.3468 389.6723 389.6723 389.8978 390.6713 390.8194 390.8194 390.9595
   390.9595 391.6016 391.6016 391.8657 394.1066 394.1066 394.1797 394.1797
   394.2760 394.2829 398.1812 399.1607 399.5916 399.5916 399.8218 399.8701
   399.8701 399.9595 402.0929 402.0929 403.8443 403.8728 404.0917 404.0917
   405.0963 405.0963 405.1130 405.1130 405.3636 405.3636 405.8924 406.1923
   406.7283 406.7283 408.1676 408.2668 408.2668 408.6104 408.7530 408.7530
   410.1072 410.1160 410.1160 410.9624 411.2299 411.2299 411.3960 411.8186
   411.8186 412.2834 412.4068 412.4068 413.6483 413.6483 413.7737 413.8548
   413.8714 413.8714 415.0198 415.0198 415.2398 415.2398 415.5171 415.6314
   416.4228 416.6404 416.6404 416.8971 417.6332 417.6332 418.8081 418.8081
   418.8629 418.8985 418.9245 418.9245 423.1265 423.1265 423.6189 424.1575
   424.1575 424.3063 425.1928 425.3755 425.3755 426.0320 426.0320 426.3444
   426.6112 426.9366 426.9366 427.2701 427.2701 427.3221 431.2166 431.2166
   431.6813 431.8322 431.8865 431.8865 432.3531 432.4192 432.4192 432.5622
   432.6692 432.7056 432.7056 433.0235 433.0235 433.1940 433.3175 433.3175
   437.8411 437.8411 437.8463 437.8463 437.9091 437.9134 438.7040 438.7040
   439.5355 439.9879 440.1800 440.1800 440.3892 440.3991 440.3991 440.4274
   440.5831 440.5831 442.1221 442.9032 444.6847 444.6847 444.8702 444.8702
   446.3307 446.3307 446.3523 446.9393 447.1335 447.1335 447.2443 447.4820
   447.4820 447.7160 447.7564 447.7732 447.7908 447.7908 447.9045 447.9045
   448.2104 448.2104 452.4542 452.4542 452.9212 453.0075 453.1437 453.1437
   454.5350 456.0966 458.8133 458.8133 458.8800 458.8800 459.3572 459.3572
   459.3703 459.3767 459.4104 459.4104 459.4291 459.7482 461.7148 461.7148
   461.7533 461.7533 468.0575 468.0575 468.5270 468.7919 468.7919 468.9687
   469.2073 469.2073 469.6957 469.8321 469.9105 469.9105 469.9796 469.9796
   470.0065 470.0415 470.0802 470.0802 470.1233 470.1233 470.1645 470.3666
   470.3666 470.4219 472.6608 472.6608 472.6945 472.7429 472.7429 472.7561
   474.0098 475.1686 475.1686 476.0145 476.0386 476.0386 479.3898 479.3898
   479.9624 480.3286 480.3965 480.3965 481.1547 481.1616 481.2669 481.2669
   481.3075 481.3075 483.8281 483.8281 483.8499 483.9111 483.9111 483.9211
   485.9605 486.1108 486.1108 486.2602 486.3094 486.3094 487.4794 488.1810
   488.1810 488.7900 488.8241 488.8241 489.0855 489.0855 489.3193 489.3665
   489.4043 489.4387 489.4387 489.5411 489.6091 489.6091 489.6610 489.6610
   493.4508 493.4508 493.4867 493.4867 493.5924 493.5943 500.1593 500.1973
   500.1973 500.2993 500.4056 500.4056 501.0025 502.6548 503.8020 503.8020
   504.2211 504.3785 504.3785 504.3805 504.5707 504.5800 504.5800 504.9278
   504.9736 504.9736 505.4639 505.4639 505.6799 505.6799 506.3474 506.7831
   508.8189 508.8189 509.0275 509.4928 509.8280 509.8280 511.4489 511.4489
   511.8103 511.9057 511.9057 512.0323 512.7655 512.7655 513.1982 513.2164
   513.3445 513.3445 513.4336 513.6478 514.3216 514.3216 514.3722 514.3722
   515.4414 515.4414 515.5775 515.7696 515.7696 516.3516 516.3594 516.4567
   516.4949 516.4949 516.7436 516.7436 517.4188 517.4464 517.4559 517.4559
   517.5117 517.5117 517.6647 517.6647 517.6756 517.7585 517.7585 517.7610
   525.7206 526.3316 526.3316 526.8979 527.0169 527.0169 527.5860 527.5860
   527.5907 527.8797 527.8861 527.9126 527.9163 527.9163 528.0201 528.0201
   528.1762 528.1762 529.4917 529.4917 529.5956 530.3048 530.3048 530.4753
   534.2755 534.8586 534.8586 535.1704 535.1704 535.2008 535.2483 535.2618
   535.2618 535.5064 535.5064 536.3410 536.8757 537.8852 538.3186 538.3186
   538.3660 538.5228 538.5933 538.5933 539.0557 539.1506 539.1506 539.4085
   539.4085 539.4849 539.7944 539.7944 539.9755 539.9756 541.5812 541.5812
   541.8964 541.9714 541.9714 542.0494 546.3710 546.3710 546.3930 546.3930
   548.0241 548.0279 548.2341 548.2341 548.4390 548.7837 548.8736 548.8736
   548.9119 548.9500 548.9500 548.9591 549.2782 549.2782 549.7842 550.3683
   550.3683 550.9630 551.2179 551.2179 551.2591 551.6185 552.1497 552.1497
   552.2988 552.2988 554.2157 554.2157 554.2177 554.2177 555.0365 555.0372
   557.3920 557.3920 557.8374 557.9200 557.9200 557.9905 559.8685 559.8685
   560.0192 560.0677 560.0677 560.0832 568.9605 568.9605 569.5397 569.7459
   569.9656 569.9656 570.2185 570.2185 570.2564 570.3948 570.3948 570.4339
   570.5210 570.5210 570.6503 570.6613 570.6613 570.8027 570.8195 570.9086
   570.9086 570.9356 570.9356 571.0540 571.2854 571.5483 571.5483 572.2154
   572.2154 572.5996 572.6313 572.7644 572.7644 572.9647 572.9647 572.9908
   577.4956 577.7363 577.7363 577.9197 578.0604 578.0604 578.4285 578.7324
   578.7324 578.7621 578.7879 578.9604 579.0450 579.0450 579.0961 579.1078
   579.1078 579.4536 579.4536 579.6973 579.7596 579.7596 579.8624 579.9160
   580.0232 580.0232 580.4562 581.0694 581.0694 581.5036 581.5036 581.7142
   584.8393 584.8393 584.8561 584.8561 585.0402 585.0453 585.0890 585.0890
   585.1218 585.1218 586.5778 586.5778 586.7656 586.7656 586.7987 586.7987
   586.8016 586.8567 586.9586 587.1427 587.1427 587.2201 592.7175 592.7175
   592.9162 593.2866 593.4866 593.4866 596.5893 596.5908 596.5908 596.6449
   596.6449 596.6530 602.1889 602.1889 602.3541 602.3768 602.4135 602.4135
   602.4725 602.4725 602.4892 602.5499 602.5682 602.5682 605.3338 605.3338
   605.4256 605.6852 605.7689 605.7689 605.8406 605.8625 605.8711 605.8711
   605.9551 605.9551 612.8086 612.8128 612.8128 612.9178 612.9349 612.9349

          k = 0.0000 0.2500 0.0000 (  3747 PWs)   bands (ev):

   -94.4728  -8.1381   4.2696   4.7837   4.7837   9.8485  10.9984  11.3337
    11.3337  15.5405  18.1212  18.2513  20.5516  20.5516  21.7055  26.1646
    30.8156  30.8156  32.0608  34.5607  37.0300  37.0300  37.6712  40.8860
    42.9398  42.9398  44.9658  45.8464  46.9682  46.9682  47.6906  50.6577
    51.5407  51.5407  52.2290  53.0574  53.7481  53.7481  54.1274  55.5745
    56.8229  56.8229  57.4590  59.1892  59.3119  59.3119  59.7552  60.9081
    60.9081  61.3069  61.6879  63.8282  64.9157  64.9157  65.1449  68.2327
    70.6290  70.6290  71.7684  72.3738  75.4514  83.4680  83.4680  85.1460
    85.8045  86.2896  86.2896  86.3908  88.9487  88.9487  89.1508  93.6569
    94.0277  94.2615  94.7826  95.0405  95.0405  96.5714  97.0993  97.0993
    99.2172  99.2172  99.5486  99.6777 100.8459 101.2287 102.3453 102.3453
   102.9474 103.0962 104.6070 104.6070 104.9578 106.7733 106.7733 106.9965
   107.9782 108.4768 109.0825 109.0825 110.9349 110.9349 110.9833 111.2635
   111.3294 113.5028 114.8153 114.8153 115.3126 115.8723 116.6780 116.6780
   116.7543 119.0073 119.6539 119.6539 121.2117 121.8607 121.8607 121.9791
   122.4247 123.4760 123.6372 123.6372 124.3545 127.3213 129.6721 130.8588
   130.8588 130.9702 131.8398 133.7168 133.7168 133.9080 134.2922 134.2922
   135.4023 136.4497 137.3698 137.9215 137.9215 138.3722 139.0156 139.0156
   139.8529 140.3125 140.9677 142.4858 142.4858 143.6562 144.1570 144.1570
   145.0342 147.8111 148.7783 148.9192 148.9192 148.9265 149.6274 149.6274
   150.8396 152.8873 153.9741 154.5736 154.8884 154.8884 155.5823 156.9139
   156.9139 157.3848 160.4646 161.6253 161.6253 161.7010 165.4962 166.5671
   166.5671 167.0056 169.7289 169.7289 171.4996 173.6443 173.8786 175.1089
   175.1089 176.6157 176.6157 176.7042 176.8023 177.9005 177.9809 178.4371
   178.4371 178.6197 179.0960 180.1360 180.1360 181.3992 182.2583 183.0151
   183.0474 183.0474 184.3143 185.3773 185.3773 185.4365 187.0636 187.1539
   187.2346 187.2346 187.7548 187.7556 187.7556 187.9883 188.9386 189.4459
   189.4459 189.8074 191.6801 191.8830 191.8830 192.0254 193.7225 193.9533
   193.9533 194.0542 194.5249 195.0596 195.0596 195.1597 195.9417 195.9417
   196.5078 196.7172 196.9103 197.0808 198.1845 198.5275 198.5275 199.6931
   200.5273 200.5273 200.7332 202.1001 202.1001 202.5807 202.5807 203.0385
   203.7230 203.9081 205.3801 206.0779 206.0779 206.9550 207.6456 209.0587
   209.0587 209.5337 209.8962 210.6299 210.6299 211.2357 211.5365 211.9203
   211.9203 212.2622 212.6017 212.8759 215.0709 215.0709 215.8119 218.0895
   218.1179 218.1179 218.4434 218.6496 218.6496 218.7439 218.8052 221.5688
   222.1830 222.1830 222.7500 225.1430 225.1446 225.1446 225.1472 225.9579
   226.0717 226.0717 226.1877 226.5952 227.3492 227.3492 227.9728 228.9224
   233.3371 233.3953 233.3953 235.3457 235.3740 235.3740 236.4279 236.5662
   236.6213 236.6213 237.1109 237.3966 237.3966 237.5256 239.0040 240.7287
   240.8810 240.8810 241.5784 245.7718 245.8187 245.9344 245.9344 248.0937
   248.6823 248.8486 248.8486 249.8219 249.9978 250.0792 250.0792 250.2579
   250.2579 250.4637 251.2673 251.9625 252.0991 253.3420 253.3420 254.6451
   256.8619 259.1573 259.1573 260.1953 260.5952 262.4006 262.4006 264.5005
   264.7942 264.7942 265.3347 265.3347 265.3802 265.4841 266.2536 269.8062
   270.1185 270.1185 270.5468 272.1911 272.1911 272.2672 272.3571 272.6156
   272.9305 272.9305 274.3334 275.9580 275.9677 275.9677 277.2443 277.7329
   277.7329 278.0792 279.2167 279.4092 279.7916 279.7916 280.0641 280.2306
   280.2306 280.5081 280.7623 282.6244 283.2274 283.2274 283.3314 283.3800
   283.5898 283.5898 284.4486 284.6009 285.0487 285.0487 285.8605 286.7200
   286.9266 286.9266 287.2368 290.1573 290.1573 290.2501 290.4975 290.6629
   290.6955 291.2929 291.2929 291.8897 292.0671 292.3285 292.3285 292.4940
   294.0452 294.0643 294.0643 294.3400 295.1269 295.8534 295.8534 296.4320
   299.0459 299.0459 299.7701 299.7862 299.9045 300.3296 300.3296 300.6572
   300.8724 301.6920 301.6920 301.8114 303.5535 303.5535 304.0999 304.0999
   304.1208 304.1653 304.4233 304.8935 305.2141 305.2141 305.3596 306.4865
   306.4865 306.9577 307.0774 308.0648 308.9077 308.9077 308.9887 309.5909
   309.5909 309.8538 309.9408 312.0824 312.1326 312.1326 312.4941 313.7080
   313.7646 313.7646 314.2559 314.7744 315.1010 315.1010 315.4080 315.4140
   316.5586 316.5586 317.1762 317.8495 317.8495 318.0165 318.3189 318.8854
   318.8946 318.8946 319.1254 319.1532 319.1532 319.3186 319.5901 320.6209
   321.5675 321.5675 322.6232 323.0660 323.0660 323.0752 323.1801 323.4019
   323.4055 323.4055 323.4629 325.9862 326.7013 326.7013 327.2564 327.2564
   327.4587 327.7263 328.7122 328.7672 328.9235 328.9235 329.1241 329.6969
   332.5509 333.1556 333.1556 333.2832 333.6631 333.6682 333.6682 333.8359
   336.5846 336.6963 336.6963 337.0285 338.9805 339.6170 339.7053 339.7053
   341.4309 342.3007 342.3007 342.3617 342.4102 343.0911 343.0911 343.5031
   345.5959 345.8657 345.8657 346.0809 346.6876 348.4220 348.4220 349.3001
   350.1081 351.2346 351.2346 351.3817 351.4034 353.3545 353.3545 353.9246
   354.5683 354.5683 354.7352 356.9387 357.5305 357.5433 357.5433 358.1360
   359.9544 360.3589 360.3589 360.7792 366.2415 366.2415 366.3081 366.8896
   367.6786 367.6786 368.1298 368.8751 368.9656 368.9784 368.9784 369.7162
   371.1492 371.2168 371.2168 372.0146 372.0523 372.8795 372.8795 373.0259
   373.6195 373.9124 373.9242 373.9242 374.5636 375.4335 376.5091 376.5091
   376.5551 376.7090 376.7090 376.7888 377.4710 377.4737 377.4737 377.4759
   377.6418 382.1949 382.5498 382.5498 382.8169 382.8775 382.9616 382.9616
   383.8254 386.5134 386.5134 386.7465 387.2838 388.4199 388.4199 388.6835
   388.8705 389.8607 390.4015 390.4015 390.4569 390.5668 390.9034 390.9906
   390.9906 391.7515 391.7515 392.2896 392.6176 393.4404 393.4578 393.6413
   393.6413 393.7944 394.5529 394.7694 394.7694 395.0665 396.0024 396.0158
   396.0158 396.4662 397.5551 397.6673 397.6673 398.1253 398.9443 398.9443
   399.8074 400.2855 400.2855 400.8842 401.7770 401.9662 401.9662 402.0201
   402.3456 402.8765 402.8765 403.0901 403.5035 404.8167 404.8964 404.8964
   404.9981 405.8887 405.8887 405.9400 406.2328 406.3041 406.3041 406.6799
   407.2052 407.2549 407.2549 407.3297 407.9042 408.2682 408.2863 408.2863
   408.3561 412.4324 412.4324 412.4344 412.4626 414.1815 414.1815 414.3611
   414.4859 418.6635 419.0969 419.0969 419.3845 419.6736 419.8179 419.8461
   419.8461 419.8760 419.9305 420.7761 420.7761 420.9716 420.9716 421.5110
   422.2575 423.4243 424.4840 424.4840 424.8791 426.6438 426.9489 426.9489
   427.2296 428.2411 428.4537 428.4537 428.5806 428.7027 429.9268 430.0324
   430.1438 430.1438 431.4558 431.4692 431.5021 431.5021 431.7124 431.7182
   431.7400 431.7400 432.0318 432.3604 432.3604 433.1070 435.7375 435.7846
   435.7846 435.8404 437.0145 437.0145 437.4886 439.0051 439.0051 439.0942
   439.4134 439.9329 439.9329 440.0585 440.5503 440.7495 440.8318 441.0377
   441.0377 441.8103 441.9286 441.9286 441.9898 441.9983 442.0770 442.0770
   442.3154 443.3580 443.3580 443.3804 443.6759 443.9788 444.0255 444.0255
   444.1483 445.1487 445.4888 445.4888 446.0332 447.7423 448.0318 448.0318
   448.3349 449.3446 449.3446 449.3994 449.5036 450.3312 450.3312 450.5943
   450.6486 452.3867 452.4990 452.4990 452.6449 454.0121 454.0121 454.5422
   454.7984 455.9164 455.9164 456.0274 456.2934 456.3528 456.4552 456.4552
   456.6796 459.2808 459.2808 459.6771 460.0785 460.2338 460.2338 460.8197
   461.3495 462.2047 462.2047 462.4230 462.4462 462.5975 462.5975 462.7193
   462.8220 462.9517 462.9517 463.0910 463.4739 463.9183 464.0527 464.3320
   464.3320 465.1352 465.3625 465.3625 465.5458 465.7947 465.7947 466.1503
   466.3088 468.1766 468.6850 468.6850 469.1618 470.2047 470.8523 470.8757
   470.8757 472.0213 472.1556 472.1556 472.3564 473.1290 473.1290 473.5154
   473.9248 474.2209 474.2379 474.2379 474.2816 474.6593 474.8213 475.0433
   475.0433 475.0975 475.1565 475.1565 475.3058 475.3687 476.8099 476.8099
   477.3834 478.7368 478.7368 478.8100 478.8821 479.5594 479.7591 479.7591
   480.0215 480.2351 480.5516 480.7808 480.7808 480.9222 481.1881 481.6571
   481.8165 481.8165 481.9727 483.3356 483.3356 484.2242 486.5820 486.5820
   487.6850 488.5872 489.5237 489.6660 489.6660 491.3162 491.8981 491.8981
   492.3168 493.5223 493.5223 493.5396 493.5792 497.2326 497.2326 497.8743
   498.4847 498.5708 498.5708 498.6051 498.6570 502.1868 502.1868 502.2024
   502.2214 502.6474 502.6579 502.6579 502.6946 505.3020 505.4384 505.4798
   505.4798 507.2579 507.3754 507.3754 507.5894 507.7041 507.7041 507.7363
   507.9289 507.9289 507.9354 508.0192 508.0233 508.3748 508.3748 509.2188
   509.3808 512.8802 512.8802 512.8876 512.8883 514.8390 515.2550 515.2550
   515.4944 516.5709 516.5709 516.6748 516.9562 518.3070 518.4697 518.4697
   519.1469 519.4064 519.8336 519.8336 520.3671 523.7682 525.0771 525.5720
   525.5761 525.5761 527.2312 527.2312 527.2764 529.2046 529.2721 529.2721
   529.9917 530.0523 530.8976 531.0532 531.0532 531.0993 532.3002 533.9624
   533.9624 534.4282 534.4282 534.4772 534.5483 534.8733 535.8248 535.8503
   535.8503 535.9438 536.6445 536.6445 536.7977 536.8929 538.9041 538.9444
   538.9444 539.1421 540.9287 540.9287 541.2081 541.3623 541.4136 541.5160
   541.5160 541.6757 541.6948 541.7505 541.7505 541.8906 542.4427 542.4427
   542.5326 542.6190 542.6190 542.7548 542.8034 542.9286 545.1955 549.9398
   549.9398 550.3677 550.3677 550.9376 551.2560 551.5355 551.9292 551.9292
   552.4352 552.4931 552.5761 553.0704 553.0704 553.5974 553.5974 553.7161
   553.7166 554.1349 554.1439 554.1439 554.1521 554.3598 554.7487 555.6186
   555.6186 556.1228 556.2420 556.2768 556.2768 556.3427 558.9307 558.9307
   559.3613 559.4468 559.5934 559.6484 559.6484 559.8551 559.8647 559.8752
   559.8752 560.1585 560.6854 560.6854 560.8657 560.8943 561.4908 561.5209
   561.5209 561.5260 561.8746 562.0083 562.0083 562.4566 567.1169 567.1744
   567.1744 567.2289 568.0502 568.3696 568.3696 568.8788 568.8788 569.0193
   569.1708 569.3984 569.9198 570.2759 570.2759 570.2883 570.6531 570.6531
   571.0171 571.3125 571.5044 571.6808 571.9318 571.9318 572.7477 572.7477
   572.7575 573.1201 573.3970 573.5703 573.6387 573.6387 573.7306 574.1779
   574.1779 574.5306 574.8068 574.9727 574.9727 575.2767 576.1422 576.2907
   576.3650 576.3650 576.5920 576.5920 576.6172 576.9696 577.0321 577.0724
   577.0724 577.3743 577.8945 577.8945 578.0440 578.1475 578.4162 578.4539
   578.4539 578.5461 580.0503 580.0503 580.0631 580.4059 580.4474 580.4474
   580.4926 580.5280 581.1007 581.2146 581.2146 581.2764 582.4539 583.7344
   583.8490 583.8490 584.2142 584.2646 584.2646 584.4485 584.4892 584.5230
   584.5230 584.5815 584.6341 585.0933 585.1300 585.1300 585.2175 588.5201
   588.5201 588.7818 588.8800 592.0897 592.2137 592.2137 592.2268 592.5460
   592.5460 592.5485 592.6908 592.6908 592.8248 592.8677 592.9410 593.3744
   593.4688 593.4688 593.5613 595.5852 595.5852 595.9500 596.0982 596.6213
   596.6213 596.6532 596.6871 599.0655 599.0729 599.1384 599.1384 599.4979
   599.4979 599.8692 599.9488 599.9488 600.1119 600.1342 600.2015 600.7793
   600.8868 600.8868 600.9882 601.6132 604.9678 604.9867 604.9868 605.1861

          k =-0.1250 0.3750-0.1250 (  3744 PWs)   bands (ev):

   -94.4728  -7.8159   2.6321   4.3122   4.4802   9.9313  11.2032  12.1158
    12.5802  15.4390  18.0769  18.5466  20.5016  22.6402  24.1769  27.7064
    27.7993  29.0740  31.2018  33.5894  34.8908  37.3611  39.5866  40.9139
    42.5802  43.2654  44.1923  44.9389  45.4643  47.1566  47.5917  48.1082
    48.8403  50.2863  50.8787  50.9523  53.0737  53.8596  54.1891  55.5975
    56.0987  57.1098  57.8482  58.5325  59.6705  59.7652  60.9532  63.3360
    63.7010  64.3905  65.1225  67.2159  67.2594  69.0242  69.2750  70.3049
    71.2040  72.5229  74.3571  74.4541  78.5918  78.7836  80.2140  80.2796
    81.6789  83.5511  84.5653  86.1238  87.0271  88.7807  89.6236  89.7008
    90.8057  91.5493  92.3723  92.5910  94.3757  95.1008  95.4212  95.4971
    96.6628  97.6578  97.8721  98.6748 101.1704 101.5775 101.8376 102.4927
   102.9209 103.6248 104.3412 105.2383 106.0906 107.0012 107.4338 107.8908
   109.3802 109.5770 110.7271 111.0180 111.8053 111.8302 112.6943 113.2114
   113.3564 113.9176 114.3118 115.2258 115.8778 116.6874 117.0124 118.1812
   118.4047 119.5581 119.7989 120.7504 122.0275 123.0374 123.1087 123.3116
   123.4030 124.8665 124.8666 126.0070 126.4893 127.5306 127.6394 128.1302
   129.1396 129.8125 130.0061 130.1703 131.7326 132.2141 133.2436 133.2668
   134.2807 135.6869 136.7851 137.4424 137.6301 138.9658 139.6682 140.5408
   142.2241 143.0283 143.3011 144.2554 144.4476 145.3754 145.4078 145.9146
   146.1648 146.7306 147.6304 148.2229 149.6557 150.5101 151.0439 151.2458
   153.7025 155.1793 155.4029 156.7618 157.0862 157.9276 158.7972 159.4768
   159.8990 160.2631 161.6410 161.8968 162.6385 164.2879 165.1397 165.7179
   166.7529 167.4515 167.4844 167.6590 168.1261 169.2373 169.6668 170.5855
   171.3378 171.4353 171.5463 171.9129 172.9973 173.3990 175.1756 175.9058
   175.9516 176.3818 176.6047 177.2514 177.7748 178.0714 179.0487 179.7511
   179.9519 180.9725 181.1613 181.5237 182.4164 183.9665 184.2519 185.2510
   185.6562 185.8565 186.7232 187.3609 187.9135 188.0145 188.2791 188.2818
   189.2277 189.7421 189.7721 191.1470 192.3195 192.7413 192.8685 193.0035
   193.1346 194.0119 194.6581 195.7860 195.8902 196.1620 196.9015 197.5687
   197.7856 198.6966 199.2590 199.3658 199.6765 200.6418 201.3843 202.4306
   202.4624 203.1498 203.7108 204.2364 205.0989 205.8698 206.5062 206.6835
   207.0285 207.1476 207.8149 207.8584 208.1830 208.5593 209.1019 209.2617
   209.4998 211.1700 211.6317 211.8347 212.0097 212.5861 213.1967 213.2481
   213.6740 213.7903 214.3038 214.4437 215.8991 216.1109 216.2995 216.8938
   217.5739 217.9514 219.0986 219.5329 219.8174 219.9290 220.2897 220.3293
   220.5978 221.2337 222.0196 223.1618 223.5556 223.8951 223.9685 224.8671
   225.5195 225.5867 226.1105 228.5307 228.7673 229.2846 229.4994 229.8803
   231.2709 233.6409 234.1532 234.5527 236.0456 236.7886 236.9117 237.6346
   238.1810 238.5685 238.6399 238.7624 239.4171 240.4702 242.7317 243.0482
   243.0777 244.1858 244.7342 245.1909 245.6080 245.8445 246.0879 246.6918
   247.2529 249.3677 249.4764 249.5524 249.6305 250.9919 251.4427 251.4562
   251.7420 252.5612 252.7165 253.9823 254.4619 254.8232 255.4869 256.0941
   257.5397 257.7499 257.7565 258.0890 258.1000 260.4025 260.5305 261.0508
   261.4988 263.0161 263.8959 264.2196 265.0251 265.1533 265.1896 265.4323
   265.8635 266.0357 267.4031 267.7852 267.9318 268.7560 269.2554 269.7459
   270.5932 270.6759 272.2543 273.5597 273.9335 273.9658 274.4626 275.2295
   276.0111 276.3487 276.7092 277.3083 277.7998 278.1915 278.2137 278.5696
   279.1155 279.4190 279.5369 280.0163 280.4604 281.3307 281.3985 281.6658
   281.7971 283.5822 283.9977 284.0057 284.7158 285.4673 286.3829 286.6066
   286.6284 287.7973 287.9864 288.0303 288.3110 290.4141 291.0702 291.3232
   291.7879 291.9462 292.3717 292.5745 292.7028 292.8444 293.2040 293.4898
   294.4383 294.5533 294.8979 295.2872 295.5179 295.6966 296.5903 296.6711
   296.8234 297.0607 297.2496 297.2586 298.3286 298.4784 298.7654 300.2263
   300.2817 300.5629 300.5673 300.7935 301.2129 301.3664 301.4189 301.8381
   302.1169 302.5168 302.9011 303.4288 303.4818 305.3204 305.5891 305.8981
   306.0808 306.3795 307.3940 308.1199 308.3484 308.5959 308.7638 309.1560
   309.1809 309.4527 309.6594 310.5011 310.8770 312.1101 312.1367 313.1858
   313.5193 314.1275 314.5004 314.7868 314.8423 315.1293 315.7350 316.0623
   316.6190 316.6637 317.3439 317.6095 317.7138 318.5186 318.9659 318.9908
   319.1687 319.9764 320.1237 320.3877 320.5283 320.8356 323.9181 324.3478
   324.3814 325.2891 325.4460 325.7201 326.6077 327.0663 327.6116 327.9565
   328.1358 328.1376 328.2848 328.3045 329.1287 329.1991 330.2759 330.4586
   332.3304 332.6026 333.6130 334.7396 335.0269 335.4761 335.7243 335.9443
[...]
   326.1939 326.2523 326.3397 326.4227 328.1326 328.2034 328.9181 328.9386
   332.1185 333.6365 334.2362 335.5378 335.6281 336.6035 337.8379 338.2379
   338.8093 338.9410 339.1475 339.3031 339.5589 339.8133 340.0144 340.0619
   340.5505 340.6481 341.8260 342.1088 342.5678 342.7658 344.5730 344.7343
   344.7814 344.8963 345.6490 346.5295 347.4418 347.5746 348.5892 348.6214
   349.4225 349.5689 349.6113 349.7030 349.8830 350.0545 350.2316 350.3197
   351.7821 351.9987 352.0871 352.4308 352.8046 352.9279 353.8935 354.1712
   354.4094 354.4898 354.8627 355.1969 355.5963 355.6197 356.4494 357.2138
   358.4092 358.4815 358.6156 358.8962 359.2527 359.7878 360.0862 360.3923
   360.6247 361.5452 361.7659 361.8353 362.0396 362.1453 362.2165 362.4212
   362.4450 363.2978 363.4937 363.6321 363.9256 364.2821 364.3020 364.4597
   364.8673 364.9299 365.7724 365.8641 367.0799 367.0883 368.5390 369.5005
   369.9456 370.5107 370.5563 370.8164 371.3623 371.5253 371.5435 371.5865
   372.5170 372.5511 373.7492 373.8484 374.0085 374.0996 374.5138 374.5254
   374.7120 374.7145 375.0946 375.2399 375.5296 375.6786 376.7076 377.2683
   378.1456 378.2660 378.5969 378.6522 378.7606 380.9348 381.0884 381.4526
   381.7181 381.7870 382.0196 382.7681 383.1297 383.3494 383.3999 383.5633
   384.6852 384.7163 384.7495 385.1351 385.9337 385.9469 387.3992 387.4023
   387.7187 387.7264 388.2882 388.2992 389.0480 389.4686 391.4024 391.4149
   392.2877 392.3627 392.4153 392.4162 396.1369 396.3815 396.5907 396.9108
   397.4037 397.4189 397.6574 397.8070 398.3045 398.4046 398.4785 398.6983
   400.9942 401.5860 401.9287 402.3756 403.0967 403.1542 403.1902 403.2608
   403.6356 403.6890 404.1340 404.2565 404.2705 404.3410 404.8800 405.1857
   405.4933 406.0808 406.2596 406.7279 406.8470 406.8832 407.2469 407.2552
   407.7466 407.8606 408.0970 408.3618 410.4581 410.6742 411.7190 411.7609
   412.3347 412.5123 412.6292 413.5453 414.8076 415.2518 415.2672 415.6394
   415.8218 415.8515 416.2807 416.3825 416.6887 417.0311 417.4786 417.4952
   418.0416 418.1891 420.2677 420.6869 420.9791 421.2468 421.5942 421.6314
   421.6858 422.0900 423.0799 424.0012 424.4287 425.3905 425.5326 425.7281
   426.6904 426.8552 427.4576 428.4521 428.4690 429.1426 429.4658 431.5961
   431.8581 432.0971 432.2001 432.3600 432.5989 432.9141 433.4213 433.4584
   433.6384 433.6802 433.8042 434.0748 434.3006 434.5412 436.5032 436.5279
   436.5800 436.6913 436.8320 437.1773 440.5625 440.7931 441.0890 441.1407
   443.1490 443.2340 444.2239 444.2758 444.4552 444.5836 445.0209 445.0566
   445.7822 445.9844 447.2386 447.7489 448.1322 448.3075 448.4074 448.5452
   448.8670 449.0353 449.1108 449.2184 449.8490 449.9256 451.0358 451.4018
   452.1183 452.3797 453.3200 454.4137 454.7545 455.1186 455.1962 455.3075
   456.5428 456.8265 456.8474 457.2503 458.8706 459.0539 459.1001 459.2106
   459.8356 459.8853 460.0161 460.5002 461.9102 462.0338 462.0748 462.6136
   463.3085 463.3192 463.6632 464.1722 465.6533 465.8855 465.9651 466.0897
   467.0261 467.0532 467.2570 467.3349 467.6722 467.9076 468.2748 468.3937
   469.6496 470.2591 471.2054 471.4023 471.8119 471.8162 472.0072 472.3488
   472.5703 472.6274 472.8345 473.1957 474.1149 474.2786 474.3526 474.5110
   474.7052 474.8738 474.8828 474.9803 475.4904 475.6737 476.0314 476.3701
   476.4217 476.8794 476.8985 477.5503 477.7671 477.8944 478.2258 478.6240
   478.6479 479.5064 479.5218 479.5334 479.7727 479.8789 480.8566 481.3226
   481.4263 481.6494 481.8306 481.9065 481.9500 482.5950 484.7294 485.1852
   486.4211 486.5309 486.5812 486.7580 487.8495 488.5395 488.5900 488.8404
   488.9084 488.9682 489.0927 489.2882 489.7487 489.8353 490.1053 490.2055
   490.3192 490.7218 491.4442 491.6102 491.7236 491.8487 492.6899 492.7157
   494.3150 494.3706 494.4669 494.5579 494.6454 494.9396 496.3087 496.3124
   496.3735 496.3816 496.6146 496.7693 497.4883 497.5150 497.9333 498.0421
   498.6016 499.1225 499.4145 499.4859 499.5848 499.7129 499.7530 500.5439
   500.5808 500.7014 501.1528 501.2033 501.5880 501.9657 503.5621 504.1083
   504.1670 504.3227 504.5470 505.1763 505.8836 505.9930 506.0781 506.1759
   506.8730 506.9327 507.4643 507.6409 507.6921 507.8212 508.5099 508.5520
   509.3410 509.3660 511.0828 511.1888 511.3981 511.4123 512.5394 513.2688
   514.4730 514.6624 515.2115 515.2764 515.3132 515.3847 515.4370 515.4825
   516.0453 516.1346 516.5136 516.7101 516.7228 516.9931 517.3450 517.4740
   517.5727 517.6233 518.3730 518.4771 520.1441 520.2409 520.3020 520.3910
   521.5692 521.7568 521.8504 522.0499 522.1670 522.2856 522.5377 522.5893
   522.8455 522.8488 525.0451 525.1565 525.4427 525.4427 526.5859 527.0394
   528.8555 529.2785 529.3757 529.7964 530.5445 531.3334 531.5160 532.2185
   532.3704 532.4307 532.5986 534.3004 534.7489 535.0218 535.0669 535.0972
   535.1064 535.2481 535.2782 535.9341 536.0255 536.0852 538.1416 538.2161
   538.9765 539.1031 539.1391 539.2024 540.9630 540.9871 541.2153 541.4362
   541.4480 541.4976 543.9982 544.0652 544.1828 544.4636 544.8671 545.1374
   545.2056 545.3313 545.4845 545.5394 547.0252 547.3113 548.1306 548.2269
   548.4221 548.5327 548.6805 548.7749 549.0125 549.1025 549.1179 549.4538
   549.7008 550.0568 550.5495 550.6337 550.8560 551.0361 551.0841 551.1450
   551.6359 551.6418 551.6917 551.8281 551.8402 551.9325 552.5845 553.2119
   553.9077 553.9216 555.4214 555.6063 556.0946 556.2312 556.3588 556.5709
   556.7229 556.7353 556.8111 556.9428 557.3547 557.4694 557.4742 557.5390
   558.1464 558.1568 558.4304 558.4454 558.4538 559.0179 559.0828 559.1100
   563.8452 564.2795 565.0800 565.0888 566.2582 566.8398 566.9906 567.1967
   567.4584 567.4646 567.6447 567.7170 567.7485 567.8909 567.9628 568.0441
   568.7570 568.8849 568.9308 569.2914 570.4052 570.4628 572.3722 572.8257
   572.8815 572.9135 573.1394 573.2636 573.3594 573.4188 573.8713 574.0179
   574.2588 574.2666 574.3033 574.4430 575.0765 575.1395 577.4796 577.4954
   577.9577 578.0447 578.6005 578.6092 579.7786 579.7877 579.8162 579.8774
   579.9479 580.0370 580.2084 580.2581 580.3000 580.3534 580.4051 580.5949
   582.8243 583.1832 583.2550 583.3736 584.8475 584.8807 584.9062 586.5101
   586.5598 587.2475 587.2675 587.7423 587.7765 589.2387 589.5853 590.3037
   590.3590 590.4519 590.5547 590.7381 590.7896 590.8818 590.9353 591.5581
   591.5587 591.6905 591.6915 591.8943 591.9543 592.3888 592.4786 592.6164
   595.1017 595.1380 598.9772 599.1129 599.1854 599.2210 599.8037 599.8549
   600.1862 600.2667 600.5911 600.6764 600.7005 600.9552 601.1188 601.1290
   601.2539 601.4303 601.6810 601.9505 602.6775 602.8303 602.9743 603.0683
   604.3958 604.4660 604.6737 605.0978 606.6807 606.7340 606.7472 606.8664
   608.7504 608.7662 608.8708 609.2971 609.3178 609.4962 612.3330 612.3469

          k =-0.5000-1.0000 0.0000 (  3736 PWs)   bands (ev):

   -94.4727  -6.5545   1.0294   1.6445   2.1471  11.5131  12.4586  12.7580
    13.3382  18.6260  18.9183  21.4155  22.2314  25.9476  26.8584  27.2904
    28.5037  28.9488  30.4243  31.8035  33.1518  33.7122  34.9029  37.5848
    37.6361  38.6645  39.2306  39.3927  41.6376  45.8650  47.5295  47.6291
    48.9505  50.5127  52.5860  53.2879  54.0135  55.2937  56.5430  58.5527
    60.0262  60.2697  60.6858  61.1541  62.7747  63.7692  63.9733  65.4335
    65.7226  66.5103  69.4683  69.4898  70.6620  71.0591  71.4644  72.5955
    74.9257  75.0625  76.5488  77.7146  78.0151  78.6417  78.9022  79.5489
    79.8861  80.0690  80.7379  83.8543  84.9513  87.5298  88.9971  89.0112
    89.0344  89.5268  90.8449  90.9008  91.0110  92.2004  92.5033  92.5884
    92.8541  93.2983  93.3445  96.1903  97.3978  98.4886  99.1577  99.5628
    99.8292  99.9970 100.7272 101.1492 103.2974 103.5721 103.8736 104.8426
   106.2202 106.2719 106.3993 106.5994 109.1767 109.4351 110.9842 111.8403
   113.1897 113.8239 114.2999 115.4471 117.3268 120.8885 121.6199 121.6384
   123.4087 124.0695 124.1975 124.7595 127.8443 128.0514 128.5100 128.8027
   129.7311 130.2470 130.6626 130.9942 131.4479 132.4784 132.7835 133.8498
   133.9177 134.6182 134.7486 135.3885 135.9330 136.5558 136.6032 137.8049
   137.8719 138.1490 138.6197 139.1064 139.9283 140.0345 140.0415 140.1322
   142.2991 142.9529 143.1399 143.8150 145.7317 146.2901 146.3651 146.8229
   146.8318 147.2157 147.7780 147.8645 148.2207 149.5083 149.6687 150.5652
   154.0807 155.8851 156.1048 156.9675 157.4716 157.6989 158.0495 158.6202
   158.7566 159.0418 159.2011 159.2536 160.8034 161.1496 161.1626 161.2464
   161.7048 163.0617 164.2978 164.3686 164.6870 164.8592 165.4769 165.8085
   166.1742 167.5383 168.5496 168.8540 169.9782 170.1437 171.1095 171.1404
   171.3709 171.7366 171.9855 172.2317 172.4320 172.4736 172.7590 172.9455
   176.6229 176.9006 177.2213 178.7770 178.8516 178.8933 178.9088 179.1293
   186.1689 186.4570 187.2650 187.4603 188.1862 188.5983 188.9661 189.6644
   189.9652 190.4933 190.6145 190.7241 191.0091 191.1193 191.5325 191.6694
   192.7037 192.8737 194.2592 194.5748 197.7498 198.0453 198.4192 198.4746
   198.8067 199.1571 200.1766 200.6353 201.7442 202.0333 202.4261 202.4275
   203.7252 204.0129 204.0405 204.1667 204.3905 204.5742 204.6326 204.7580
   206.8072 206.8298 206.8480 206.8517 211.3845 211.6757 211.9187 212.3141
   213.0432 213.0440 213.4771 213.9396 214.6839 214.7024 214.8313 214.9108
   215.2855 216.2049 216.5104 216.5406 219.7558 220.1781 220.2300 220.5457
   222.4028 223.0173 223.1841 223.2167 226.5058 226.5342 226.6183 227.4886
   228.7507 228.8419 230.1097 231.1691 232.6196 232.9573 233.2200 233.5991
   233.8679 233.9190 234.3364 234.4279 235.1545 235.2950 235.6729 235.8678
   235.9185 235.9861 236.4067 236.4406 236.8662 236.9204 237.8078 237.8698
   238.0507 238.4033 238.7131 238.7242 238.7700 239.0506 239.3254 239.4045
   245.1713 245.3167 245.4002 245.7442 247.0314 247.2446 247.2852 247.7060
   248.3850 248.5394 248.6280 248.7146 248.8108 248.8934 248.9586 248.9773
   252.3231 252.3242 252.5165 253.3917 253.8197 254.1598 254.1681 254.4299
   255.3971 255.5738 255.9140 255.9710 257.2297 257.3043 257.3987 257.6475
   257.6910 258.8003 259.6233 259.6539 260.7123 260.7274 261.4008 261.5056
   261.8561 261.8788 262.0963 262.3154 262.5488 262.7669 262.9547 262.9807
   265.0562 265.1194 265.1985 265.2056 268.5750 268.5793 268.6239 268.7088
   268.8497 268.8720 268.9051 268.9142 272.9072 272.9330 272.9907 273.0711
   274.9250 275.1187 275.2572 275.2750 276.0983 276.5260 276.8786 276.9161
   277.6828 278.0075 278.2790 278.4314 281.5742 281.6522 281.6717 281.7354
   281.7463 281.8723 281.9530 282.0819 289.6732 290.0050 290.2340 290.3587
   290.8285 291.1777 291.3822 291.6844 291.9409 292.0943 292.1216 292.4917
   292.7800 292.8760 293.0111 293.1118 293.5928 293.8823 294.0464 294.5818
   296.5776 297.7421 298.0826 298.5940 298.6653 298.9938 299.1918 299.2206
   302.7167 302.7360 303.4436 303.8071 304.0510 304.0936 304.1096 304.1115
   304.9136 304.9735 304.9767 305.0779 306.2697 306.3937 306.4217 307.2750
   307.5266 307.5285 307.5822 308.0273 311.0318 311.0479 311.2231 311.4410
   311.4805 311.5020 312.5595 312.5703 312.5804 312.8338 312.8394 313.0181
   313.0836 313.1523 315.1054 315.2317 315.3132 315.4220 316.6043 317.0760
   321.3986 321.4305 321.4415 321.4613 323.6386 323.8826 323.9350 324.2174
   324.5576 324.6467 324.6722 324.6748 326.0447 326.2143 326.2655 326.5805
   327.8527 327.9058 328.0544 328.1123 328.5858 329.4474 329.4824 329.6627
   331.1625 331.2361 331.3267 331.5172 335.1005 335.1861 335.6397 335.8144
   336.1676 336.2212 336.6205 336.8483 337.1964 337.2310 337.2950 337.3740
   337.8238 337.8474 337.9197 337.9326 338.5882 338.8340 338.8475 338.8629
   340.0380 340.1695 340.4248 340.4257 345.9665 346.0305 346.5960 346.9441
   348.7183 348.7431 348.8485 349.0021 351.5877 351.9035 351.9122 352.1241
   353.2796 353.6435 353.6574 353.8279 355.1724 355.3797 355.3912 355.4001
   356.0637 356.0879 356.0985 356.2590 359.2457 359.3328 359.6883 359.7606
   359.8477 359.9670 360.0314 360.4726 360.7488 361.0237 361.0682 361.9596
   362.0318 362.5325 362.8162 362.9770 363.4412 363.5007 363.5475 363.5956
   363.7914 363.8116 363.9433 364.0228 367.0557 367.1984 367.3629 367.4883
   367.7121 368.0581 368.0819 368.2089 368.3075 368.3630 368.5905 368.6732
   369.0791 369.0895 369.1897 369.3347 369.8354 369.8360 369.8389 369.8570
   371.1319 371.2270 371.3269 371.5290 372.6847 372.7020 373.3092 373.8725
   375.0597 375.0850 375.1496 375.1779 375.3045 375.4136 375.5575 375.6526
   375.7161 375.7230 375.7453 375.9007 381.5634 382.3608 382.5166 383.2345
   383.8770 383.8801 384.0653 384.0758 384.1495 384.1564 384.2257 384.4390
   387.7760 388.2810 388.6517 388.7639 389.4534 389.5599 389.8308 389.8354
   391.1702 391.2161 391.2194 391.2671 391.5470 391.5837 391.6260 391.8376
   392.5560 392.6219 392.6753 392.7022 393.2934 393.9402 394.1552 394.2018
   394.5884 394.6506 394.6734 394.8198 395.6146 395.6551 395.9034 396.2610
   399.6867 399.7101 402.6802 402.6867 402.9495 403.0938 404.0094 404.1258
   404.1993 404.2709 404.6861 404.7818 405.0087 405.0358 405.0699 405.0716
   405.1106 405.1885 405.2782 405.3044 405.5019 405.8129 405.8157 406.0008
   406.2213 406.3205 406.5969 406.6142 406.6418 406.7738 406.9928 408.0708
   408.3338 408.3981 408.5452 408.5832 415.7803 415.8962 416.4241 416.5719
   416.6715 416.7393 417.0489 417.2438 417.7771 417.9797 418.0395 418.0501
   418.0522 418.1079 418.1764 418.1897 421.7453 421.7466 421.7721 421.8002
   424.1928 424.4607 424.5130 424.5891 424.6966 424.7621 425.0864 425.1139
   426.0190 426.2831 426.3440 426.3617 426.3729 426.3838 426.4806 426.7697
   428.0065 429.5864 430.1382 430.1594 430.4660 430.4798 430.5599 430.6688
   437.6405 438.0222 438.1466 438.5949 439.0588 439.2241 439.2560 439.3732
   439.4905 439.8064 440.0352 440.0778 442.6269 442.6290 442.6550 442.6846
   444.8768 445.5592 445.5800 445.5956 446.2234 446.2621 446.5523 446.6979
   447.9442 448.0195 448.0221 448.0757 449.0358 449.1530 449.1962 449.4632
   449.6726 450.0521 450.0877 450.3013 451.1714 451.2116 451.2242 451.4057
   451.7432 451.9259 452.0848 452.1083 457.5169 457.7291 458.0965 458.1548
   458.6330 458.6853 458.7063 458.7757 460.1895 460.2084 460.2272 460.2348
   460.6300 460.7539 460.9560 461.0192 461.5310 461.8869 461.9519 462.1584
   462.2050 462.2603 462.3918 462.4585 465.9419 466.3506 466.4124 466.6046
   466.6149 466.8200 467.3047 467.3260 469.2805 469.6364 469.7624 469.9239
   470.9613 471.2441 471.3067 471.3268 471.6776 471.7974 471.9290 471.9441
   472.1781 472.3655 472.4106 472.5334 472.5369 472.6524 472.6800 472.7703
   472.9575 473.0318 473.1416 473.5580 473.8954 474.0305 474.2020 474.2767
   474.4182 474.5118 475.0916 475.3106 475.7107 475.7962 475.9954 476.0139
   476.7815 476.8153 477.0221 477.0451 477.1067 477.2066 477.2544 477.3057
   481.3614 481.4441 481.4900 481.7486 482.9809 483.1643 483.7445 483.7522
   483.7719 484.0472 484.4239 484.4718 484.4730 484.4848 484.5558 484.6469
   484.9606 484.9657 484.9826 485.0705 485.1325 485.2066 485.2381 485.2825
   485.4641 485.5673 485.5682 485.6071 493.1030 493.1094 493.4969 493.5128
   495.1038 495.1328 495.4034 495.4405 495.7980 495.8097 495.8642 495.8899
   496.5225 496.6371 496.6579 496.7252 497.5098 497.9996 498.0229 498.3232
   501.1880 501.4976 501.5017 501.6250 502.0306 502.0310 502.3764 502.4051
   502.4205 502.4666 504.5468 504.6795 505.3643 505.8304 505.9392 505.9955
   506.1163 506.1188 506.2365 506.5676 506.6045 506.8624 507.2442 507.2648
   507.2783 507.4785 508.5632 509.1017 510.5229 510.7535 510.9376 510.9452
   510.9648 511.0237 511.0256 511.1921 513.1034 513.1937 513.2114 513.2254
   513.6751 513.7366 513.8507 514.4220 514.6421 514.8112 514.8846 514.9130
   517.5238 517.6558 517.7753 517.8330 518.3967 518.4645 518.4996 518.5282
   523.4781 523.4822 523.6132 523.6330 525.8051 525.8536 526.5238 526.5623
   526.9144 526.9614 526.9959 527.0175 527.0579 527.0616 527.0626 527.1097
   527.1504 527.1951 527.2024 527.3090 528.2574 528.7278 529.0789 529.5855
   529.6753 529.7309 529.7493 529.7654 530.3292 530.9076 531.3281 531.5321
   532.4952 532.6916 532.7842 532.8718 533.8349 533.9963 534.0448 534.0480
   534.8469 534.8487 534.8890 534.9167 534.9829 534.9978 535.1812 535.2763
   538.7966 538.9733 539.0343 539.0778 539.4281 539.5408 539.6298 539.6653
   540.0474 540.1113 540.8187 540.9156 541.0194 541.0397 541.0593 541.1511
   541.2568 541.3308 541.3417 541.3571 541.4629 541.6613 541.7101 541.7266
   541.8006 541.8211 541.9266 542.0592 543.9648 544.3102 544.3664 544.4487
   544.4773 544.5532 544.7428 544.8962 551.5136 551.5899 551.6148 551.7263
   552.1855 552.1896 552.5188 552.5363 552.5849 552.6080 552.6614 552.8295
   556.7791 556.8366 556.8370 556.9020 557.2629 557.2965 557.5078 557.5452
   557.6637 557.6820 557.6873 557.8185 559.1815 559.1892 559.2084 559.2964
   559.2986 559.3478 559.4251 559.5263 562.5216 562.6305 562.6429 562.6556
   564.8402 564.8950 565.3536 565.4869 565.9293 566.2511 566.4030 566.4183
   566.7639 566.9434 567.1861 567.2019 571.5989 571.6991 571.7437 572.0649
   572.1994 572.2124 572.2606 572.3175 572.3816 572.4323 572.6666 572.7868
   572.9129 573.0187 573.0745 573.1242 573.1930 573.4356 573.6155 573.6753
   573.8221 573.8793 573.9860 574.1763 574.6588 574.6592 574.7712 574.8123
   574.8835 574.9067 574.9269 574.9296 575.2695 575.3012 575.4322 575.5786
   575.7205 575.7861 575.9730 575.9842 576.6746 576.9785 577.2126 577.3616
   585.3255 585.4859 585.6318 585.7718 585.7748 585.8470 585.9470 585.9978
   586.4959 586.5233 586.5653 586.6216 587.3739 587.4181 587.4276 587.4363
   592.1068 592.1658 592.3283 592.3531 593.8177 594.1587 594.1737 594.2132
   594.2657 594.3185 594.3233 594.3517 596.3305 596.3408 596.3740 596.3788
   597.2948 597.3238 597.3406 597.4366 597.4650 597.4818 597.5363 597.6016
   598.0362 598.0735 598.5782 598.6044 599.1415 599.2850 599.3011 599.6053
   601.6201 601.7127 601.7313 601.8394 601.9465 602.0113 602.0328 602.0391
   602.4870 602.5014 602.5236 602.5421 605.9703 605.9822 605.9944 606.0083
   607.5454 607.5619 607.5657 607.6019 607.6097 607.6407 607.6562 607.6708

     the Fermi energy is     7.7253 ev
     (compare with:     5.6062 eV, computed in scf)

     Writing all to output data dir out/mp-1541.save/
 
     init_run     :      0.03s CPU      0.05s WALL (       1 calls)
     electrons    :   1223.46s CPU   1300.50s WALL (       1 calls)

     Called by init_run:
     wfcinit      :      0.00s CPU      0.00s WALL (       1 calls)
     potinit      :      0.01s CPU      0.02s WALL (       1 calls)
     hinit0       :      0.01s CPU      0.01s WALL (       1 calls)

     Called by electrons:
     c_bands      :   1223.45s CPU   1300.45s WALL (       1 calls)
     v_of_rho     :      0.00s CPU      0.00s WALL (       1 calls)

     Called by c_bands:
     init_us_2    :      0.00s CPU      0.00s WALL (      15 calls)
     init_us_2:cp :      0.00s CPU      0.00s WALL (      15 calls)
     cegterg      :   1088.16s CPU   1154.26s WALL (      15 calls)

     Called by *egterg:
     cdiaghg      :   1005.97s CPU   1069.55s WALL (     160 calls)
     h_psi        :     22.47s CPU     23.30s WALL (     175 calls)
     g_psi        :      0.16s CPU      0.16s WALL (     145 calls)

     Called by h_psi:
     h_psi:calbec :      0.39s CPU      0.40s WALL (     175 calls)
     vloc_psi     :     21.47s CPU     22.27s WALL (     175 calls)
     add_vuspsi   :      0.29s CPU      0.29s WALL (     175 calls)

     General routines
     calbec       :      0.39s CPU      0.40s WALL (     175 calls)
     fft          :      0.00s CPU      0.00s WALL (      10 calls)
     fftw         :     19.61s CPU     20.34s WALL (  218234 calls)
 
     Parallel routines
 
     PWSCF        :  20m24.80s CPU  21m45.96s WALL

 
   This run was terminated on:   9:36:29   5Dec2023            

=------------------------------------------------------------------------------=
   JOB DONE.
=------------------------------------------------------------------------------=
