
     Program PWSCF v.7.1 starts on  5Apr2024 at 11:50:27 

     This program is part of the open-source Quantum ESPRESSO suite
     for quantum simulation of materials; please cite
         "P. Giannozzi et al., J. Phys.:Condens. Matter 21 395502 (2009);
         "P. Giannozzi et al., J. Phys.:Condens. Matter 29 465901 (2017);
         "P. Giannozzi et al., J. Chem. Phys. 152 154105 (2020);
          URL http://www.quantum-espresso.org", 
     in publications or presentations arising from this work. More details at
     http://www.quantum-espresso.org/quote

     Parallel version (MPI), running on    32 processors

     MPI processes distributed on     1 nodes
     247865 MiB available memory on the printing compute node when the environment starts
 
     Reading input from pw_SbAs_nscf_k132_E47.in
Warning: card &IONS ignored
Warning: card / ignored
Warning: card &CELL ignored
Warning: card / ignored

     Current dimensions of program PWSCF are:
     Max number of different atomic species (ntypx) = 10
     Max number of k-points (npk) =  40000
     Max angular momentum in pseudopotentials (lmaxx) =  4

     Atomic positions and unit cell read from directory:
     out/SbAs.save/
     Atomic positions from file used, from input discarded
 
 
     R & G space division:  proc/nbgrp/npool/nimage =      32
     Subspace diagonalization in iterative solution of the eigenvalue problem:
     one sub-group per band group will be used
     scalapack distributed-memory algorithm (size of sub-group:  5*  5 procs)

 
     Parallelization info
     --------------------
     sticks:   dense  smooth     PW     G-vecs:    dense   smooth      PW
     Min          21      21      6                 2339     2339     364
     Max          22      22      7                 2366     2366     385
     Sum         673     673    199                75069    75069   11843
 
     Using Slab Decomposition
 


     bravais-lattice index     =            4
     lattice parameter (alat)  =       7.2635  a.u.
     unit-cell volume          =    1726.8150 (a.u.)^3
     number of atoms/cell      =            2
     number of atomic types    =            2
     number of electrons       =        20.00
     number of Kohn-Sham states=         1216
     kinetic-energy cutoff     =      47.0000  Ry
     charge density cutoff     =     188.0000  Ry
     Exchange-correlation= PBE
                           (   1   4   3   4   0   0   0)

     celldm(1)=   7.263454  celldm(2)=   0.000000  celldm(3)=   5.203381
     celldm(4)=   0.000000  celldm(5)=   0.000000  celldm(6)=   0.000000

     crystal axes: (cart. coord. in units of alat)
               a(1) = (   1.000000   0.000000   0.000000 )  
               a(2) = (  -0.500000   0.866025   0.000000 )  
               a(3) = (   0.000000   0.000000   5.203381 )  

     reciprocal axes: (cart. coord. in units 2 pi/alat)
               b(1) = (  1.000000  0.577350  0.000000 )  
               b(2) = (  0.000000  1.154701  0.000000 )  
               b(3) = (  0.000000  0.000000  0.192183 )  


     PseudoPot. # 1 for As read from file:
     /usr/scratch4/magr4985/FGWC/FGWC/pseudo/SG15/As.upf
     MD5 check sum: a2ff92a4799c87c945fff9e6739df4dd
     Pseudo is Norm-conserving, Zval =  5.0
     Generated using ONCVPSP code by D. R. Hamann
     Using radial grid of  602 points,  6 beta functions with: 
                l(1) =   0
                l(2) =   0
                l(3) =   1
                l(4) =   1
                l(5) =   2
                l(6) =   2

     PseudoPot. # 2 for Sb read from file:
     /usr/scratch4/magr4985/FGWC/FGWC/pseudo/SG15/Sb.upf
     MD5 check sum: 0417cd6c0fe8ce4611e2b23135f1abd9
     Pseudo is Norm-conserving, Zval = 15.0
     Generated using ONCVPSP code by D. R. Hamann
     Using radial grid of  602 points,  6 beta functions with: 
                l(1) =   0
                l(2) =   0
                l(3) =   1
                l(4) =   1
                l(5) =   2
                l(6) =   2

     atomic species   valence    mass     pseudopotential
        As             5.00    74.92160     As( 1.00)
        Sb            15.00   121.76000     Sb( 1.00)

      6 Sym. Ops. (no inversion) found



   Cartesian axes

     site n.     atom                  positions (alat units)
         1           Sb  tau(   1) = (   0.5000000   0.2886752   0.1996508  )
         2           As  tau(   2) = (   0.0000000   0.0000000   5.0037309  )

     number of k points=    10  Gaussian smearing, width (Ry)=  0.0005
                       cart. coord. in units 2pi/alat
        k(    1) = (   0.0000000   0.0000000   0.0000000), wk =   0.0312500
        k(    2) = (   0.0000000   0.1443376   0.0000000), wk =   0.1875000
        k(    3) = (   0.0000000   0.2886751   0.0000000), wk =   0.1875000
        k(    4) = (   0.0000000   0.4330127   0.0000000), wk =   0.1875000
        k(    5) = (   0.0000000  -0.5773503   0.0000000), wk =   0.0937500
        k(    6) = (   0.1250000   0.2165064   0.0000000), wk =   0.1875000
        k(    7) = (   0.1250000   0.3608439   0.0000000), wk =   0.3750000
        k(    8) = (   0.1250000   0.5051815   0.0000000), wk =   0.3750000
        k(    9) = (   0.2500000   0.4330127   0.0000000), wk =   0.1875000
        k(   10) = (   0.2500000   0.5773503   0.0000000), wk =   0.1875000

     Dense  grid:    75069 G-vectors     FFT dimensions: (  32,  32, 180)

     Estimated max dynamical RAM per process >     107.71 MB

     Estimated total dynamical RAM >       3.37 GB

     The potential is recalculated from file :
     out/SbAs.save/charge-density

     Starting wfcs are random

     Band Structure Calculation
     Davidson diagonalization with overlap

     ethr =  5.00E-06,  avg # of iterations = 14.0

     total cpu time spent up to now is      221.1 secs

     End of band structure calculation

          k = 0.0000 0.0000 0.0000 (  9377 PWs)   bands (ev):

   -30.6811 -30.6811 -30.5911 -30.5911 -30.5652 -14.4767  -8.9205  -2.7914
    -2.0660  -2.0660  -0.3150   1.1978   1.1978   2.4153   2.7075   3.4553
     4.0410   5.3139   6.0953   6.3043   7.0551   7.0551   7.7827   8.2814
     9.0462   9.0462   9.6473   9.8275  12.3390  12.3390  12.4171  13.0405
    13.5945  13.5945  13.8386  14.8648  15.4664  15.4664  15.9143  15.9515
    15.9515  16.1593  16.3985  16.3985  16.4115  16.5062  16.5062  16.6250
    17.0498  17.2619  17.2619  17.3060  17.3060  17.3589  17.5288  17.5288
    17.6024  17.6024  17.7464  17.9215  18.0579  18.2159  19.3690  19.3690
    19.4223  19.4223  19.4318  19.7761  19.7761  19.8350  19.8350  19.8873
    20.1591  20.3418  22.1604  22.3673  22.3673  22.4836  22.4836  22.6167
    22.8941  22.8941  22.9550  22.9550  23.2341  23.5526  23.7490  23.8920
    26.0251  26.1479  26.1479  26.3099  26.3099  26.3597  26.5750  26.7274
    26.7274  26.8345  26.8345  27.4126  27.5963  28.0524  28.0524  28.7342
    28.7342  29.4716  29.5610  30.6617  30.8628  30.8628  31.0788  31.0788
    31.4313  31.5993  31.5993  31.7276  31.7276  32.1172  32.3760  32.8115
    33.1694  34.4263  34.4263  34.8897  34.8897  35.3874  36.2652  36.2652
    36.3340  36.3340  36.6583  36.7711  37.0294  37.0294  37.1005  37.4463
    37.4463  37.7459  38.1765  38.3196  38.6525  38.6851  38.6851  39.4941
    39.9591  39.9601  39.9601  41.5634  41.5634  41.9873  42.4581  42.4581
    42.6050  42.7171  42.7171  42.8133  43.0344  43.0344  43.1024  43.1024
    43.1573  43.4171  43.4171  43.5362  43.5362  43.5728  43.5820  43.6539
    43.6539  43.7481  43.7481  43.8077  43.9126  43.9126  44.0504  44.3789
    44.3789  44.3923  44.4624  44.5240  44.5834  44.5834  44.6172  44.7542
    44.7542  44.8598  44.8598  45.0339  45.1476  45.3352  46.2119  46.2119
    46.5993  46.6837  46.7058  46.7058  46.7223  46.8548  46.8548  46.9852
    46.9852  47.4918  48.3274  48.3274  48.3399  48.7056  48.7056  49.3775
    49.3775  49.5049  49.5049  49.6705  49.7100  49.7785  49.9398  49.9779
    49.9779  50.0662  50.0662  50.2277  50.3755  50.3755  50.5165  50.5165
    50.7043  50.8180  50.8180  50.8941  50.8941  51.2328  51.5738  52.3153
    52.4551  52.4551  52.8461  53.2260  53.2260  53.4012  53.6149  53.6677
    53.6677  53.6846  53.7055  54.0621  54.0621  54.3632  54.4048  54.4048
    54.4480  54.5914  54.5914  55.3130  56.3083  56.4719  56.4719  56.6536
    56.6536  56.8815  56.9438  56.9438  57.0140  57.0140  57.1388  57.1842
    57.1842  57.2610  57.4427  57.4427  57.6345  57.8823  57.8823  57.9617
    57.9617  58.0088  58.0418  58.0418  58.0709  58.1957  58.2280  58.2280
    58.3097  58.3097  58.3382  58.3934  58.3934  58.4052  58.5932  58.6067
    58.6145  58.6145  58.9242  58.9371  58.9371  59.1606  59.1606  59.1958
    59.2029  59.2029  59.5326  60.0358  60.1640  60.1640  60.2269  60.3144
    60.4665  60.4665  60.5267  60.5267  60.6732  60.6732  60.7111  61.5180
    62.2262  62.5856  62.5856  62.6692  63.1869  63.1869  63.2060  63.3723
    63.4878  63.4878  63.5301  63.5301  63.6049  63.6049  63.7007  63.7774
    63.9175  64.1445  64.1445  64.2060  64.2060  64.3042  64.4403  64.4403
    64.8072  65.2144  65.9510  65.9510  66.2985  66.2985  66.3042  66.6044
    66.6044  66.9243  66.9738  66.9738  67.1120  67.1867  67.1867  67.3103
    67.5090  67.5090  67.6382  67.6382  67.7710  67.7710  67.7917  67.8549
    68.0581  69.0098  69.4887  69.7596  69.7596  69.8350  69.8350  70.1755
    70.2284  70.2284  70.6594  70.6595  70.8784  71.2552  71.6640  71.8427
    71.8715  71.9501  71.9501  72.0073  72.0073  72.1194  72.1194  72.1277
    72.2614  72.5892  72.5892  73.1404  73.5440  74.1691  74.1691  74.9352
    74.9352  75.1603  75.7136  75.7136  76.0177  76.0959  76.0959  76.4231
    76.4231  76.4241  76.6705  76.8717  76.9833  76.9833  77.0459  77.0459
    77.2936  77.3886  77.3969  77.3969  77.6045  77.6694  77.6694  77.9196
    78.0730  78.0730  78.1125  78.1875  78.1875  78.3267  78.5205  78.5205
    78.7248  78.8311  79.5640  79.5640  80.1159  80.2310  80.2310  81.2528
    81.2528  81.7382  82.5493  82.5493  82.5889  83.1018  83.1018  83.3080
    83.6930  83.6930  83.7761  83.9991  83.9991  84.2604  84.3094  84.3725
    84.3725  84.6769  84.8977  84.8977  84.9312  85.1556  85.1556  85.3326
    85.3554  85.4563  85.4563  85.5165  85.5165  85.7280  86.1748  86.1748
    86.2298  86.3863  86.3863  86.7377  86.8621  86.8621  86.8900  86.9161
    86.9161  87.2461  87.2995  87.3699  87.3699  87.9960  88.2699  88.2699
    88.5060  88.5060  88.8309  88.8946  88.8946  89.7110  90.0924  90.0924
    90.4632  90.5469  90.7801  90.7801  91.1443  91.2503  91.2503  91.3863
    91.3863  91.4754  92.6054  92.6054  92.7218  92.7557  92.7557  93.1043
    93.2648  93.2648  93.4724  93.5344  93.7753  93.7753  93.9388  93.9388
    94.0697  94.2081  94.2516  94.2516  94.6556  94.8072  94.9613  94.9613
    95.0339  95.0339  95.1850  95.5422  95.7342  96.1607  96.3861  96.3861
    96.4823  96.4823  96.6144  96.7787  96.7787  97.0059  97.0059  97.1258
    97.1896  97.1947  97.1947  97.2318  97.2318  97.3516  97.3516  97.4360
    97.4657  97.4657  97.5268  97.7577  97.7577  97.7775  97.8096  97.8096
    97.8386  97.9087  97.9087  97.9270  97.9640  97.9640  98.0454  98.0454
    98.0624  98.1869  98.3398  98.4324  98.4538  98.4538  98.5303  98.5699
    98.6212  98.6213  98.6710  98.6752  98.6752  98.7380  98.7381  98.8084
    98.8084  98.8904  98.8904  98.9201  98.9416  98.9578  98.9578  98.9615
    98.9755  99.0366  99.0366  99.1191  99.1191  99.1659  99.2274  99.4223
    99.4223  99.4927  99.4928 100.2078 100.2992 100.4123 100.4123 100.4186
   100.4754 100.5158 100.5808 100.5808 100.6772 100.8537 100.8553 100.8553
   100.9568 100.9568 101.0779 101.0779 101.1457 101.1457 101.1606 101.1606
   101.1680 101.1904 101.6391 101.6391 102.0370 102.0370 102.1397 102.4960
   102.6752 102.6752 102.8700 102.8700 102.9068 102.9102 102.9428 103.0413
   103.0413 103.0818 103.2181 103.3635 103.3635 103.7806 103.7806 103.9246
   103.9485 103.9485 103.9643 104.0385 104.0385 104.0997 104.1377 104.1377
   104.2630 104.2630 104.3018 104.3484 104.5358 104.5358 104.8579 104.8710
   104.8710 105.4919 105.7980 105.7981 105.8508 105.9842 106.2085 106.2999
   106.2999 106.5888 106.5888 106.7896 106.8745 106.8745 107.0537 107.2952
   107.3435 107.3435 107.3755 107.3764 107.3822 107.4683 107.4683 107.6076
   107.6076 107.7809 107.8979 107.8979 107.9579 107.9579 107.9663 108.1264
   108.1264 108.2879 108.3140 108.3263 108.3263 108.3294 108.4295 108.4295
   108.5561 108.5561 108.6321 108.6321 108.7981 108.9891 108.9891 109.2472
   109.2472 109.3605 109.3605 109.8073 109.8808 109.9324 109.9324 110.2393
   110.4346 111.1126 111.1126 111.1126 111.4174 111.4395 111.4395 111.7679
   111.7860 112.1036 112.1036 112.4152 112.4152 112.4737 112.7032 112.7032
   112.7309 112.8420 112.8420 112.9610 112.9610 113.0184 113.0184 113.0697
   113.0856 113.1400 113.1400 113.3374 113.3374 113.4565 113.4969 113.4969
   113.6506 113.6536 113.7476 113.7476 113.8342 114.3854 115.1169 115.1169
   115.5498 115.6414 115.6414 115.9399 115.9399 116.0423 116.2158 116.2158
   116.4138 116.7654 116.8642 116.8642 117.1371 117.1371 117.2494 117.3973
   117.3973 117.4730 117.5272 117.5985 117.8386 117.8673 117.8673 118.1398
   118.1518 118.1518 118.3259 118.3259 118.3818 118.6324 118.6452 118.6480
   118.6480 118.8035 118.8035 119.0429 119.0429 119.2846 119.5833 119.5833
   120.0410 120.0972 120.0972 120.5280 120.5280 120.5649 120.6880 120.6880
   120.8521 121.0972 121.0972 121.2688 121.2688 121.4121 121.8507 121.8507
   122.1616 122.1756 122.2012 122.2012 122.5221 122.7498 122.7545 122.7545
   123.0121 123.2121 123.2749 123.4272 123.4272 123.4605 123.4605 124.0148
   124.1277 124.1277 124.1886 124.3301 124.3301 124.3617 124.3617 124.5146
   124.5200 124.5200 124.5970 124.6213 124.6213 124.7274 124.7274 124.7448
   124.7901 124.8456 124.8456 124.9474 124.9474 124.9852 125.0279 125.0505
   125.0505 125.0761 125.0787 125.0787 125.0840 125.3228 125.4270 125.4271
   125.6848 125.7601 125.7601 125.8292 125.8296 125.8296 125.9826 125.9827
   126.0004 126.0508 126.0508 126.1518 126.2996 126.2996 126.3594 126.4546
   126.4546 126.7827 126.7827 126.9357 126.9533 126.9737 126.9737 127.2807
   127.5378 127.5378 127.7916 127.7916 127.8032 127.8356 127.9351 127.9666
   127.9667 128.1587 128.3253 128.3253 128.5196 128.5196 129.4775 129.6482
   129.6483 129.7850 130.1144 130.1216 130.1216 130.4738 130.5073 130.6116
   130.7027 130.9266 130.9267 131.0467 131.0467 131.0853 131.1148 131.1148
   131.2751 131.3816 131.3816 131.4672 131.4672 131.7485 131.7485 131.7578
   131.8920 131.8920 131.9528 132.0037 132.0772 132.0888 132.0888 132.1182
   132.3328 132.3328 132.4315 132.4315 132.7496 132.7496 133.3586 133.6189
   133.6189 133.7453 133.7956 133.7956 134.2560 134.2885 134.2885 134.4084
   134.4084 134.5663 134.6060 134.6658 134.6658 134.9785 135.0467 135.0467
   135.1403 135.1403 135.2121 135.2459 135.2459 135.4064 135.4064 135.5187
   135.5187 135.7618 135.9099 135.9218 135.9847 136.1772 136.2498 136.2498
   136.4013 136.7975 136.7975 137.3594 137.3594 137.4015 137.4143 137.4852
   137.4852 137.5206 137.5206 137.7609 137.8081 138.1398 138.1398 138.4798
   138.5180 138.6115 138.6115 138.6686 138.9682 138.9695 138.9695 139.0065
   139.1673 139.1810 139.1810 139.3266 139.3266 139.4090 139.4090 139.6079
   139.7719 139.7719 139.8146 139.8146 139.8938 139.9466 140.0113 140.0113
   140.1194 140.1194 140.2334 140.5404 140.5568 140.5568 140.5725 140.6146
   140.6146 141.4347 141.4347 142.5078 142.9975 143.5271 143.7546 143.7547
   144.0972 144.0972 144.2813 144.4814 144.5987 144.5987 144.8986 144.9473
   145.1151 145.1209 145.1209 145.3004 145.3004 145.5985 145.7453 145.7453
   146.0109 146.0109 146.1673 146.1673 146.4823 146.4823 146.6126 146.6513
   146.7897 146.7897 146.8355 146.8962 147.3914 147.3914 147.4370 147.4370
   147.4703 147.5309 147.7708 147.7708 148.0004 148.0004 148.2098 148.2098
   148.2157 148.3479 148.3479 148.4363 148.5034 148.6417 148.6417 148.7336
   148.7336 148.9055 148.9066 148.9542 149.0033 149.1540 149.1540 149.1638
   149.1638 149.2574 149.3679 149.5170 149.5170 149.7194 149.7194 149.9906
   150.0037 150.0037 150.0168 150.0368 150.0368 150.2287 150.2287 150.3550
   150.3953 150.6051 150.6051 150.8057 150.8057 150.9493 151.0962 151.1689
   151.2250 151.2250 151.4613 152.1933 152.1933 152.9045 152.9045 154.1363
   154.1363 154.3801 154.5986 154.9988 154.9988 155.4427 155.4427 155.5052
   155.7626 155.8138 155.8887 155.8887 156.3757 156.4689 156.5425 156.5426
   156.9721 157.0408 157.1260 157.1260 157.2943 157.2944 157.6364 157.6364
   157.6904 157.7841 157.7841 157.8931 157.9273 158.0611 158.3593 158.3593
   158.5675 158.5675 158.6583 158.6583 158.6999 158.9029 159.0029 159.0029
   159.1638 159.1673 159.1673 159.2543 159.3013 159.3157 159.3157 159.3697
   159.3697 159.7356 159.7356 159.8191 160.2468 160.2468 160.4262 160.4262
   160.9598 161.1460 161.1460 161.1683 161.1683 161.5472 161.5472 161.6094
   161.6335 161.6392 161.7779 161.7779 161.8300 161.9202 161.9521 161.9521
   162.0397 162.1173 162.2832 162.2832 162.5079 162.7398 162.7398 162.9596
   162.9596 162.9883 163.0172 163.0172 163.1087 163.1674 163.2652 163.2652
   163.2834 163.7464 163.7464 163.7518 163.7518 164.0992 164.0993 164.4822
   164.5782 164.5922 164.5922 164.7488 165.0472 165.0472 165.2170 165.2170

          k = 0.0000 0.1443 0.0000 (  9335 PWs)   bands (ev):

   -30.6814 -30.6785 -30.5925 -30.5915 -30.5637 -14.2948  -8.8999  -3.4432
    -2.7068  -2.4290   0.2381   1.1928   1.5158   2.6752   2.9267   3.6541
     4.2583   5.2869   5.9516   6.3797   6.9904   7.0923   7.4116   8.7565
     9.2315   9.7991   9.9896  10.6257  11.4281  11.6548  12.5676  12.8020
    13.2656  13.3845  13.5233  14.0331  14.2225  14.3656  14.5740  14.8099
    14.9972  15.0917  15.2522  15.8563  15.8792  16.0764  16.1516  16.3839
    16.6422  17.1553  17.5600  17.6177  17.9048  18.0537  18.1329  18.1793
    18.4162  18.4278  18.4975  18.6400  19.2648  19.3077  19.3734  19.3935
    19.5838  19.6687  19.8723  20.0986  20.9141  21.0163  21.0972  21.1329
    21.1864  21.4402  21.5703  21.6554  21.7877  21.8934  23.0538  23.1426
    23.1750  23.3290  23.4604  23.6952  23.9721  24.2601  24.3549  24.5892
    24.8566  25.0573  25.1696  25.3199  25.4056  25.7199  26.3350  26.5387
    27.1196  27.9931  28.1037  28.3133  28.4503  28.5332  28.6658  29.1341
    29.5371  29.7563  29.7894  29.8735  30.1510  30.3010  30.3039  30.5758
    30.8996  31.1030  32.6068  32.7994  33.0249  33.3585  33.3660  33.5032
    33.6780  34.1558  34.3044  34.4837  34.6879  34.8426  35.2364  35.3950
    35.4132  35.7317  35.8042  36.1621  36.5009  37.0238  37.4007  37.9084
    38.0224  38.1036  38.2487  38.4141  38.5319  38.7511  38.7678  38.8803
    39.2715  39.3983  39.4625  39.5921  39.6231  39.9282  40.0058  40.1153
    40.3104  40.3799  40.5180  40.8674  41.2476  41.2797  41.6224  41.7840
    42.0155  42.0425  42.1150  42.2476  42.4604  42.8688  43.2239  43.3793
    43.5600  43.6755  43.8035  43.8214  44.3456  44.5070  44.5417  44.7275
    44.7381  44.8273  44.8537  44.9922  45.0219  45.0586  45.1816  45.2675
    45.3895  45.7428  45.9492  45.9578  46.4647  46.5929  46.7800  46.8685
    47.0061  47.0167  47.0806  47.2428  47.3173  47.5835  47.8388  48.0640
    48.3694  48.4384  48.6764  48.6949  48.8666  48.8750  48.9457  49.1265
    49.1987  49.2113  49.3308  49.5882  49.6351  49.7484  49.8303  49.8367
    49.9759  50.0995  50.1829  50.2172  50.6062  50.6501  50.6680  50.8545
    51.4416  51.5047  51.7090  51.7417  51.8594  51.9288  52.1204  52.3231
    52.4085  52.4796  52.8527  52.9178  53.0499  53.3759  53.3900  53.4530
    53.5487  53.6113  53.6490  53.7745  53.9302  53.9416  53.9657  54.0500
    54.1063  54.2275  54.2378  54.3188  54.4387  54.7339  54.8634  54.9054
    55.0006  55.0192  55.1641  55.1850  55.2238  55.3087  55.3807  55.8424
    56.2022  56.4711  56.5042  56.6531  56.8921  56.9052  57.0273  57.1895
    57.2968  57.3254  57.3884  57.4668  57.8067  58.5170  58.5913  58.6706
    58.7626  58.8156  58.9057  59.0143  59.1167  59.2048  59.2956  59.5201
    59.6536  59.9998  60.0296  60.1035  60.1700  60.2809  60.3230  60.4471
    60.4519  60.5743  60.6362  60.8105  60.8170  60.8965  61.0910  61.4061
    61.5319  61.6170  61.8240  61.9169  62.0264  62.2734  62.6068  62.9215
    63.0423  63.0995  63.3147  63.3434  63.5241  63.5858  63.7736  63.8677
    63.8862  63.9702  64.0544  64.1042  64.2265  64.2464  64.2960  64.4440
    64.6022  64.6388  64.7178  64.8096  65.0631  65.1118  65.1631  65.2596
    65.3780  65.5163  65.5169  65.7650  65.8334  65.9964  66.1491  66.3372
    66.8580  66.9728  67.0673  67.0755  67.2620  67.7019  67.7313  68.0816
    68.4626  68.4846  68.5988  68.7832  68.9433  69.0694  69.3198  69.3402
    69.3581  69.6396  69.9032  69.9543  70.1622  70.2497  70.4090  70.5170
    70.6512  70.7381  70.8710  70.9926  70.9941  71.0825  71.2756  71.3427
    71.3984  71.7674  71.8464  72.1671  72.2833  72.6000  72.8700  73.0776
    73.2428  73.4476  73.5424  73.8674  74.0344  74.1142  74.3323  74.4897
    74.5223  74.6770  74.8383  74.9365  75.1065  75.2077  75.4172  75.4521
    75.6432  75.7748  76.0430  76.1125  76.1821  76.3483  76.7068  77.1342
    77.5183  77.5203  77.6602  77.7771  77.8584  77.9292  78.2548  78.3517
    78.4959  78.7352  78.8668  78.8857  79.1226  79.4010  79.4224  79.8109
    79.8758  80.0908  80.4335  80.6507  80.7588  80.8468  80.8908  81.1347
    81.2011  81.2658  81.4202  81.5501  81.8732  81.9180  82.1088  82.3454
    82.6754  82.7700  82.9062  83.0437  83.1409  83.4765  83.8192  83.9544
    83.9925  84.1240  84.4386  84.5533  84.7321  84.7950  84.8258  85.0707
    85.2655  85.2918  85.4764  85.5654  85.7771  85.8645  85.9334  86.3902
    86.4195  86.7325  86.7642  86.8619  87.3484  87.4381  87.5776  87.7506
    87.7677  87.9386  88.0544  88.0779  88.3309  88.3383  88.4280  88.4742
    88.6115  88.6893  88.9520  89.0200  89.1837  89.2442  89.3844  89.4165
    89.5646  89.6404  89.8627  90.1034  90.1503  90.2874  90.2902  90.3982
    90.4559  90.5117  90.6380  90.7313  90.7713  90.8767  90.9137  91.1660
    91.1879  91.3448  91.4624  91.6431  91.9181  91.9498  92.0330  92.2031
    92.2669  92.3043  92.4180  92.4567  92.7214  92.7416  92.8835  92.8955
    93.1206  93.3110  93.3783  93.5509  93.6069  93.8506  93.9084  94.0381
    94.3036  94.3619  94.5060  94.5292  94.5937  94.6645  94.7285  94.8479
    94.8624  95.0704  95.1298  95.2603  95.2665  95.4235  95.4299  95.5722
    95.7565  95.7844  95.9037  95.9274  95.9637  96.0816  96.1534  96.2306
    96.2532  96.4160  96.4545  96.5596  96.6684  96.6741  97.1031  97.1733
    97.1768  97.3145  97.3371  97.4856  97.4929  97.6662  97.7124  97.7614
    97.9710  98.0441  98.1579  98.1838  98.3287  98.3789  98.6969  98.7448
    98.8924  98.9547  99.0398  99.1433  99.2425  99.3241  99.4021  99.5021
    99.5813  99.6523  99.7059  99.7182  99.7934  99.8563  99.8794  99.9325
   100.1731 100.3148 100.3988 100.4114 100.4853 100.5839 100.7043 100.7900
   100.8341 100.8732 100.9496 101.0681 101.2920 101.3580 101.3587 101.4419
   101.6583 101.9162 101.9380 102.1312 102.2159 102.2191 102.3734 102.3855
   102.6096 102.6768 102.8269 102.8572 103.0136 103.0240 103.1209 103.2124
   103.4345 103.4734 103.5698 103.7467 103.7549 103.9154 103.9157 104.0858
   104.1445 104.3163 104.3296 104.4376 104.6707 104.7676 104.8754 104.8933
   104.9303 104.9479 105.1515 105.3622 105.4883 105.5419 105.5589 105.5727
   105.6917 105.7135 105.8117 105.8474 105.9213 105.9554 106.0043 106.0545
   106.1593 106.2790 106.4570 106.5242 106.5352 106.5571 106.6074 106.7351
   106.8499 106.8992 107.0474 107.1506 107.1571 107.2903 107.3553 107.3577
   107.5051 107.6082 107.7335 107.7542 107.8139 107.8990 108.0196 108.1484
   108.1531 108.2492 108.2998 108.3080 108.3879 108.6242 108.7230 108.9100
   108.9431 109.1291 109.3905 109.4266 109.5137 109.6298 109.6705 109.7025
   109.7244 109.8832 109.9012 110.0412 110.1376 110.1515 110.1925 110.3935
   110.4426 110.5279 110.5776 110.6579 110.7340 110.9573 111.0447 111.0569
   111.2243 111.2507 111.3110 111.3544 111.4050 111.4288 111.5803 111.6773
   111.7880 111.8909 112.1127 112.1590 112.2634 112.3738 112.3849 112.6133
   112.6493 112.7901 112.8063 113.1984 113.2223 113.2958 113.4584 113.4639
   113.6708 113.9538 113.9723 114.0588 114.3098 114.3372 114.4497 114.6368
   114.6645 114.7006 114.7850 114.8805 114.8980 115.0230 115.0559 115.1619
   115.3923 115.6921 115.7202 115.9403 115.9749 116.0047 116.1161 116.2184
   116.2772 116.3854 116.4983 116.6318 116.6823 116.8915 116.8974 117.0464
   117.2252 117.3250 117.4578 117.4721 117.6366 117.6903 117.7916 117.9443
   118.0715 118.1573 118.2471 118.3268 118.4197 118.5233 118.7313 118.8879
   118.9339 119.0818 119.1646 119.2673 119.3033 119.4936 119.5266 119.6089
   119.6137 119.7841 119.8962 119.9700 119.9800 120.0655 120.1076 120.1552
   120.1962 120.2387 120.3143 120.3800 120.5384 120.5998 120.6497 120.7161
   120.7707 120.8853 120.9704 121.0339 121.1392 121.1725 121.2108 121.3322
   121.3428 121.6173 121.6637 121.7171 121.8213 121.8742 122.3442 122.5821
   122.6890 122.7277 122.7762 122.8226 122.9020 122.9423 123.0781 123.1303
   123.2546 123.2761 123.3371 123.3783 123.5125 123.5584 123.6888 123.7000
   123.7732 124.0392 124.1562 124.1994 124.3015 124.4147 124.4729 124.4987
   124.7664 124.7913 125.0326 125.0579 125.0999 125.1950 125.2665 125.3359
   125.4366 125.5649 125.5834 125.9236 126.0114 126.1195 126.1997 126.2289
   126.4811 126.4905 126.6042 126.6532 126.7197 126.8069 127.0536 127.1263
   127.2396 127.6929 127.9292 128.1074 128.2928 128.5272 128.8674 128.8877
   129.0120 129.1749 129.2181 129.3118 129.5455 129.6828 129.7496 129.7790
   129.8269 129.9388 130.0305 130.0997 130.1303 130.2422 130.2437 130.3365
   130.3379 130.5059 130.5677 130.6211 130.7052 130.8410 130.9480 130.9605
   131.0375 131.0898 131.2091 131.2615 131.4422 131.4506 131.5435 131.5641
   131.5940 131.6677 131.7526 131.9428 131.9909 132.0112 132.2453 132.3716
   132.3748 132.5641 132.5725 132.7300 132.8258 132.9883 133.0336 133.0611
   133.0715 133.2056 133.3164 133.4441 133.4468 133.5540 133.6373 133.6515
   133.7565 133.8802 133.9887 134.0554 134.1951 134.2585 134.3401 134.4331
   134.4902 134.6185 134.8397 134.9555 135.0942 135.1296 135.1933 135.2551
   135.3247 135.4403 135.4516 135.7043 135.8345 136.0371 136.1021 136.1847
   136.1925 136.2395 136.3449 136.3621 136.5212 136.6276 136.9320 137.1989
   137.2124 137.2561 137.3910 137.5417 137.6532 137.8023 137.8354 137.9604
   138.0180 138.2256 138.3156 138.3788 138.5482 138.5621 138.8942 138.9418
   139.0900 139.3000 139.3894 139.5121 139.6430 139.7521 139.8566 139.9401
   139.9912 140.1337 140.2744 140.2869 140.4030 140.4955 140.5578 140.5993
   140.6652 140.9737 141.0122 141.0417 141.1848 141.1908 141.2569 141.3209
   141.3815 141.4533 141.6250 141.6304 141.6798 141.8219 141.8723 141.9367
   142.0355 142.1932 142.4508 142.5144 142.5915 142.9857 143.0557 143.2851
   143.3945 143.7691 143.9929 144.1346 144.2047 144.3458 144.5469 144.5571
   144.6676 144.8209 145.0839 145.1953 145.2082 145.3852 145.4876 145.4956
   145.7387 145.8899 146.0010 146.0414 146.1425 146.1551 146.2598 146.2980
   146.3716 146.4537 146.4914 146.8043 146.8319 146.9367 147.1155 147.2388
   147.2697 147.3908 147.4359 147.5822 147.6858 147.7232 147.8279 148.0017
   148.0199 148.2542 148.3348 148.4237 148.4789 148.6921 148.8187 148.9575
   149.0002 149.1196 149.3733 149.4556 149.4756 149.5830 149.6819 149.8110
   149.8647 149.8990 150.1094 150.1216 150.2651 150.2929 150.3443 150.4601
   150.6110 150.6801 150.8238 150.8370 150.9431 151.0204 151.0324 151.2752
   151.4135 151.7794 151.9945 152.0142 152.1905 152.3028 152.5529 152.5625
   152.7327 152.9420 153.1235 153.1519 153.2684 153.3620 153.4181 153.7145
   153.8422 154.1128 154.1826 154.4314 154.4464 154.6049 154.6656 154.8542
   154.8871 154.9787 155.0037 155.1684 155.1971 155.2553 155.4294 155.6303
   155.6486 155.7860 155.8805 155.9585 156.0045 156.0242 156.0977 156.1326
   156.1820 156.2085 156.3435 156.4150 156.4927 156.5968 156.7489 156.7632
   156.9574 156.9782 157.0016 157.1013 157.2386 157.3168 157.5007 157.5340
   157.6875 157.7946 157.8121 158.0233 158.0349 158.3066 158.4587 158.5004
   158.6108 158.6719 158.6743 158.8484 158.8917 158.9670 158.9898 159.1267
   159.2204 159.2958 159.3597 159.4631 159.7426 159.7463 159.8701 159.9439
   160.1323 160.2969 160.3117 160.5127 160.5302 160.7696 160.8287 160.9544
   161.1409 161.2210 161.2699 161.3571 161.4462 161.5187 161.6626 161.6937
   161.7606 161.8406 161.8453 161.9541 162.0669 162.1271 162.1670 162.2290
   162.4121 162.7733 162.8226 163.0199 163.1710 163.4534 163.4893 163.5544
   163.7370 163.7709 163.8838 163.9622 164.1975 164.2392 164.2805 164.4462

          k = 0.0000 0.2887 0.0000 (  9366 PWs)   bands (ev):

   -30.6823 -30.6722 -30.5958 -30.5922 -30.5601 -13.7683  -9.0304  -4.9534
    -3.0738  -2.6617  -0.5523   1.7095   1.8749   3.1484   3.5130   4.1993
     4.7500   5.2292   6.1236   6.6860   7.0998   7.6659   7.8932   8.8401
     9.7507   9.9852  10.2173  10.4360  10.6341  11.0192  11.6600  11.7342
    12.1469  12.9507  13.1713  13.2377  13.5158  13.8212  13.9346  13.9820
    14.1158  14.3158  14.8315  14.8664  14.8742  15.0579  15.6303  16.5786
    16.6058  16.8367  16.9966  17.2522  17.4446  17.5618  17.8534  18.5603
    19.0063  19.2124  19.6567  19.7938  20.0462  20.1514  20.3201  20.3719
    20.5181  20.6693  20.7233  20.8599  21.0489  21.1629  21.5912  21.7207
    21.8775  22.0545  23.3685  23.5252  23.5297  23.7440  23.9285  23.9715
    24.0439  24.2017  24.2045  24.3494  24.5632  24.7448  25.0720  25.1114
    25.2289  25.4697  25.6396  26.3150  26.7140  26.9629  26.9782  27.1090
    27.4666  27.6116  27.9840  28.7536  28.7682  28.9432  28.9866  29.4343
    29.7744  29.9102  30.2269  30.2412  30.6002  30.7531  30.8944  30.9849
    31.0076  31.2461  31.3696  31.6048  31.9269  33.2854  33.6811  33.8435
    33.9016  34.0685  34.1334  34.2317  34.3410  34.4153  34.4546  34.7144
    34.9413  35.0891  35.2401  35.3273  35.4519  35.5728  35.6083  35.7193
    36.0501  36.1862  36.8051  37.1006  37.1611  37.2364  37.5396  37.7335
    37.7628  37.7786  37.9640  38.3031  38.4848  38.6651  39.2746  39.5392
    39.8337  39.8713  39.9982  40.3723  40.3786  40.7239  40.7866  40.9848
    41.0831  41.1526  41.2338  41.5210  41.5838  41.7532  41.9599  42.9419
    43.1245  43.5373  43.6528  43.9257  44.0764  44.1752  44.2792  44.3204
    44.3929  44.4139  44.4273  44.5498  44.6262  44.7911  44.9395  45.0980
    45.1530  45.3197  45.3592  45.4741  45.6265  45.6267  45.7415  46.0581
    46.4686  46.5089  46.7118  46.9751  47.4178  47.5476  47.5813  47.7117
    47.7228  47.8458  47.8556  47.9848  48.1001  48.1504  48.1607  48.3673
    48.6302  48.9439  49.0128  49.3656  49.4020  49.5813  49.8852  50.0780
    50.4687  50.4692  50.6952  50.7383  50.7719  50.9052  50.9467  51.0446
    51.1115  51.2075  51.3061  51.3725  51.7301  51.9815  52.1412  52.2518
    52.3955  52.4182  52.5967  53.4307  53.4421  53.6043  53.7227  53.8358
    53.9773  54.0898  54.1601  54.2337  54.3627  54.4161  54.5031  54.5666
    54.6065  54.6492  54.6909  54.7700  54.8793  54.9044  54.9862  54.9984
    55.2108  55.3308  55.3525  55.4552  55.5750  55.6340  55.6469  55.7724
    55.9341  55.9611  56.0754  56.4276  56.5373  57.3815  57.4306  57.5090
    57.5780  57.6263  57.6943  57.9614  57.9940  58.0941  58.2596  58.6282
    59.1286  59.1604  59.2841  59.4867  59.4879  59.7912  59.8026  60.2290
    60.4392  60.5105  60.6340  60.8363  60.8987  61.0624  61.2306  61.3794
    61.3837  61.5783  61.5838  61.7016  61.7795  61.8265  61.9511  62.4547
    62.5293  62.6891  62.9639  63.0024  63.1858  63.6304  63.7621  63.9842
    64.1271  64.2359  64.3345  64.5012  64.6032  64.6448  64.7057  64.8117
    64.8764  64.9642  64.9657  65.1383  65.2123  65.2267  65.2666  65.4654
    65.7000  65.7591  65.9235  65.9783  66.0319  66.2146  66.2350  66.2999
    66.3796  66.6578  67.2122  67.3039  67.5276  67.5880  67.6714  67.9056
    67.9560  68.1823  68.2787  68.3217  68.6801  69.1252  69.2277  69.2992
    69.6485  69.8401  70.0217  70.0255  70.3285  70.5598  70.6353  70.8329
    70.8880  70.9313  70.9967  71.0696  71.1962  71.2703  71.3594  71.5083
    71.5831  71.5914  71.6605  71.7333  71.7728  71.9917  72.1053  72.3469
    72.5771  72.6379  72.6905  72.9295  73.1836  73.2592  73.5969  73.7607
    73.8930  73.9447  73.9645  74.4081  74.5399  74.6534  74.7465  74.9255
    74.9589  75.0833  75.1582  75.1918  75.3617  75.5327  75.5671  75.6108
    75.6995  76.1162  76.2452  76.6602  76.7340  76.9457  77.2849  77.4583
    77.7788  77.7830  77.9002  78.0660  78.2041  78.3511  78.5299  78.6070
    78.7025  78.8567  79.1209  79.3694  79.4409  79.6085  79.6429  79.9466
    79.9702  80.0854  80.2761  80.3022  80.4727  80.7975  80.9757  81.0006
    81.2476  81.3238  81.3513  81.6022  81.6550  81.7278  81.8399  81.8493
    81.9525  81.9599  82.2198  82.4873  82.5336  82.8315  82.8591  82.9695
    83.2556  83.3513  83.5290  83.6464  83.6850  83.9725  83.9748  84.1456
    84.3128  84.3137  84.4837  84.5370  84.7075  84.8148  84.8586  84.9368
    84.9394  84.9903  85.1279  85.1702  85.1979  85.2422  85.2907  85.3776
    85.4117  85.5791  85.6588  85.7926  85.9304  85.9971  86.0375  86.0420
    86.1562  86.3314  86.4213  86.4310  86.6334  86.6746  86.7292  86.8746
    87.0894  87.6360  87.6802  87.7818  87.8337  87.9885  88.0695  88.1114
    88.2323  88.2800  88.4094  88.5173  88.5922  89.0052  89.2510  89.4609
    89.5160  89.8379  90.0722  90.2445  90.3314  90.6361  90.6521  90.9300
    90.9602  90.9911  91.1958  91.3708  91.4062  91.5131  91.5401  91.6558
    91.6593  91.7727  91.9532  92.0585  92.1844  92.2046  92.3160  92.4336
    92.8339  92.8463  92.9590  93.1141  93.3034  93.4322  93.4356  93.6444
    93.7823  93.8361  93.9198  94.1318  94.2297  94.4600  94.5468  94.6031
    94.6101  94.7880  94.7915  94.8344  95.0040  95.0724  95.0792  95.2675
    95.3255  95.3429  95.4309  95.4914  95.5398  95.7596  95.8612  95.9783
    96.0845  96.1456  96.1897  96.2617  96.3184  96.3843  96.4254  96.5015
    96.6248  96.7967  96.9928  97.0121  97.1283  97.2933  97.5876  97.8689
    97.9250  97.9332  98.2565  98.4292  98.4868  98.5841  98.6762  98.9130
    98.9258  99.0628  99.4217  99.4953  99.8570  99.9833 100.0343 100.2596
   100.2904 100.3823 100.4886 100.4941 100.8183 100.8324 100.9587 101.0497
   101.1337 101.2918 101.3273 101.4262 101.5479 101.6472 101.8327 101.8647
   101.9091 101.9888 102.0383 102.1463 102.1612 102.3918 102.4179 102.5194
   102.7758 102.7804 102.8419 102.9521 103.0508 103.0631 103.1933 103.2533
   103.3189 103.3876 103.5843 103.6968 103.8756 103.9321 103.9577 104.1372
   104.3197 104.3582 104.5056 104.5952 104.6944 104.7889 104.7932 104.8807
   104.9247 105.1507 105.1941 105.2805 105.3025 105.4093 105.4457 105.5430
   105.5677 105.5800 105.6887 105.7591 105.8092 105.8455 105.9636 106.0581
   106.0594 106.1781 106.3113 106.3810 106.4610 106.5327 106.6312 106.7736
   106.7795 106.9185 106.9924 107.6122 107.7407 107.9212 107.9731 108.0460
   108.1062 108.2609 108.3250 108.4461 108.6276 108.7423 108.8318 108.9923
   109.0518 109.1494 109.2448 109.9214 109.9966 110.0435 110.1315 110.3654
   110.5726 110.6669 110.7777 110.8779 110.9370 111.1630 111.2129 111.2580
   111.4276 111.5296 111.6678 111.8145 111.8231 111.9000 111.9772 112.0640
   112.1457 112.2931 112.2972 112.3428 112.3775 112.4799 112.5485 112.7616
   112.9226 112.9449 113.0048 113.1217 113.1963 113.3375 113.4194 113.5293
   113.5712 113.7747 113.8270 113.9599 114.0002 114.0563 114.2157 114.2193
   114.3224 114.3634 114.4972 114.4994 114.7154 114.7525 114.8148 114.8685
   114.9907 115.0289 115.1308 115.1400 115.2446 115.3103 115.3838 115.4128
   115.4389 115.5778 115.5892 115.6341 115.6426 115.7036 115.7606 115.7842
   115.7979 115.8471 115.9173 116.0154 116.1042 116.1701 116.1907 116.2575
   116.3786 116.3955 116.4334 116.5242 116.5430 116.5921 116.6491 116.7113
   116.7569 116.8276 116.8948 117.1887 117.2343 117.5443 117.5473 117.7079
   117.8427 117.9609 118.0026 118.0522 118.2289 118.4001 118.4501 118.4858
   118.5218 118.6400 118.6454 118.8254 118.8712 118.9469 118.9951 119.0784
   119.1265 119.2487 119.3621 119.5480 119.8470 120.0008 120.0183 120.2255
   120.5182 120.6575 120.7180 120.9116 120.9491 121.1166 121.1962 121.2244
   121.3196 121.3697 121.5147 121.6201 121.6344 121.7231 121.7653 121.8114
   121.9911 122.0341 122.1795 122.2355 122.3627 122.4165 122.5088 122.5526
   122.6350 122.6933 122.8480 122.8481 123.0853 123.0996 123.3467 123.5486
   123.6286 123.7095 123.9304 124.0396 124.1867 124.2242 124.3090 124.4081
   124.4423 124.6264 124.6423 124.8146 124.8962 124.9304 125.1250 125.1718
   125.2911 125.3526 125.5270 125.5342 125.6900 125.7768 125.8527 125.8606
   125.9191 125.9856 126.0560 126.1949 126.2070 126.3001 126.5108 126.6524
   126.7181 126.8119 126.9276 126.9817 127.1758 127.2363 127.2927 127.5031
   127.5427 127.5976 127.7534 128.0523 128.1421 128.2198 128.3962 128.4890
   128.5425 128.7915 128.9580 129.2631 129.3263 129.4516 129.4700 129.8502
   129.8784 130.0869 130.1682 130.2217 130.4428 130.4910 130.5343 130.6493
   130.6909 130.8097 130.8493 131.0292 131.1873 131.3145 131.3308 131.4396
   131.5003 131.7020 131.7323 131.9878 132.0716 132.0841 132.2471 132.4805
   132.5099 132.5571 132.6908 132.7502 133.0963 133.2629 133.3784 133.4388
   133.8168 133.9550 134.1612 134.1822 134.2801 134.5245 134.5991 134.6823
   134.8957 134.9624 135.0092 135.2090 135.2147 135.2756 135.3422 135.3915
   135.5448 135.5574 135.7077 135.8020 135.8119 135.8896 135.9166 136.0383
   136.0622 136.1136 136.1866 136.2696 136.2708 136.3733 136.5399 136.6901
   136.7238 136.8034 136.8425 136.8716 137.0211 137.0812 137.1846 137.2377
   137.3441 137.3580 137.6154 137.8148 137.8674 137.9392 138.0625 138.2311
   138.2928 138.3262 138.5015 138.5121 138.6803 138.7774 138.7962 138.8766
   138.9245 139.0182 139.2529 139.3298 139.4015 139.4466 139.4908 139.8882
   139.9514 140.0594 140.4772 140.4822 140.6759 140.8464 140.8660 141.0329
   141.1303 141.2315 141.4582 141.5705 141.6002 141.6718 141.7526 141.7857
   142.0807 142.1600 142.2555 142.2671 142.3485 142.4145 142.5048 142.5125
   142.7075 142.8349 142.8552 142.9579 143.0265 143.1501 143.2439 143.2797
   143.5581 143.8212 144.0033 144.0499 144.1410 144.2304 144.2933 144.5064
   144.5354 144.8086 144.8316 144.9370 145.0582 145.1020 145.1843 145.2646
   145.2855 145.3957 145.5059 145.5277 145.6207 145.6826 145.7511 145.7956
   145.8472 145.8779 146.0160 146.0679 146.0758 146.1506 146.2992 146.3288
   146.4053 146.4797 146.5130 146.6141 146.7202 146.7417 146.8372 146.9027
   146.9942 147.0102 147.1473 147.2454 147.3197 147.4005 147.5922 147.8427
   147.9623 147.9660 148.1249 148.2855 148.4044 148.4196 148.5868 148.7814
   148.8122 148.8630 148.9220 149.0291 149.0589 149.1997 149.2458 149.3692
   149.4445 149.5567 149.6294 149.6378 149.8005 149.8557 150.1631 150.2088
   150.3566 150.3942 150.4817 150.4995 150.7338 150.7657 151.0528 151.0939
   151.2702 151.2904 151.5176 151.5552 151.6850 151.7264 151.7989 151.9192
   151.9739 152.0487 152.0629 152.1454 152.2527 152.2686 152.3808 152.5085
   152.5090 152.5402 152.5606 152.7552 152.8286 153.0281 153.0405 153.2062
   153.2766 153.5445 153.6999 153.8598 153.9926 154.1605 154.2672 154.3974
   154.5576 154.8109 154.8442 155.0318 155.1049 155.1620 155.2384 155.2464
   155.2908 155.3353 155.4669 155.5988 155.6878 155.7369 155.8294 155.9314
   155.9493 156.1001 156.1344 156.1677 156.2258 156.2799 156.3438 156.3820
   156.4702 156.4972 156.5592 156.5630 156.6382 156.7137 156.7957 156.8405
   156.9414 157.0620 157.1127 157.1454 157.2089 157.2929 157.3765 157.4060
   157.4386 157.4433 157.6145 158.0772 158.1056 158.4878 158.5759 158.6608
   158.6822 158.8211 158.8359 158.9130 159.0628 159.1430 159.1594 159.3687
   159.5538 159.6738 159.6844 159.7617 159.7973 160.0431 160.2182 160.3422
   160.4042 160.4540 160.6339 160.7193 160.8121 160.8186 160.9018 160.9024
   161.0950 161.3346 161.4530 161.4640 161.6548 161.6672 161.7490 161.8658
   161.8844 161.9571 162.0880 162.1447 162.2216 162.3239 162.3367 162.4630

          k = 0.0000 0.4330 0.0000 (  9396 PWs)   bands (ev):

   -30.6832 -30.6659 -30.5991 -30.5929 -30.5565 -12.9950  -9.6990  -5.4466
    -3.5586  -3.1746  -0.6215   1.0774   1.9127   3.7528   4.1365   4.7967
     5.5083   5.8255   6.5649   7.3444   7.4688   7.8817   8.2245   8.5526
     8.9739   9.2839   9.3880   9.8162   9.8389  10.9057  11.2561  11.3756
    11.6435  12.4005  12.8273  13.0657  13.2361  13.3569  13.9639  14.0012
    14.1654  14.2761  14.6034  14.7564  14.8801  15.0011  15.2816  15.5708
    16.1109  16.4317  16.4478  16.5303  16.7400  17.2836  18.2404  18.4697
    18.5842  19.0399  19.4536  19.4732  19.8434  20.0304  20.1362  20.3042
    21.3306  21.4186  22.2353  22.6636  22.7406  23.0063  23.1733  23.1984
    23.4034  23.4672  23.6950  23.7216  23.9351  24.2552  24.3857  24.5029
    24.6859  24.9275  25.1669  25.3597  25.7657  26.1304  26.3154  26.5571
    26.6429  26.8004  27.0310  27.7975  28.0126  28.1503  28.2509  28.3997
    28.5011  28.7325  28.7800  28.9758  29.2781  29.4711  29.5310  29.7242
    29.7288  29.8186  29.9642  30.0367  30.1499  30.2307  30.3815  30.8742
    31.0762  31.2811  31.3256  31.4092  31.5272  31.8137  31.9195  32.2502
    32.8361  33.0483  33.1268  33.2695  33.4235  33.5639  33.7485  33.7738
    33.8295  33.9313  34.0581  34.1363  34.3006  34.4820  34.8275  35.1238
    35.2345  35.4898  35.7030  36.3104  36.3922  36.5644  36.8715  37.2356
    37.3291  37.7891  38.0128  38.0454  38.3649  38.3757  38.5915  38.7943
    38.9537  39.0029  39.3167  39.4055  39.4311  39.7079  39.9930  40.0161
    40.2128  40.2903  40.4465  40.5858  40.6882  40.7534  41.0256  41.7259
    41.9485  42.1282  42.1490  42.3237  42.5079  42.7770  43.1978  43.5793
    43.7915  44.0270  44.1063  44.3285  44.7031  44.7202  44.7732  44.9739
    45.1382  45.1392  45.2125  45.4720  45.5088  45.6349  45.7710  45.8378
    46.0650  46.2904  46.3313  46.5617  46.6220  46.6977  46.9062  47.0451
    47.2437  47.5450  47.7152  48.1996  48.2160  48.3703  48.4950  48.5105
    48.6773  48.7865  48.9237  48.9403  49.0466  49.2376  49.3962  49.4434
    49.6469  49.6757  49.7637  49.9601  50.0535  50.0638  50.1457  50.2709
    50.4198  50.5762  50.7114  50.8742  51.1705  51.3323  51.5942  51.7193
    51.7581  52.0138  52.0180  52.1257  52.1982  52.3072  52.6506  53.2608
    53.4939  53.5636  53.7767  54.3477  54.4234  54.6045  54.8672  54.8853
    55.1022  55.1843  55.2791  55.3894  55.4558  55.6309  55.7195  55.8608
    55.9786  56.1555  56.2072  56.3046  56.5653  56.7070  56.8813  56.9279
    57.1130  57.2178  57.3683  57.6411  57.8253  57.9704  58.4200  58.5917
    58.6789  58.9998  59.0371  59.2423  59.2833  59.4954  59.7789  59.8078
    60.1683  60.2080  60.3882  60.4830  60.5779  60.6604  60.7658  61.0059
    61.0961  61.4550  61.5631  61.6925  61.8257  62.2248  62.2361  62.3951
    62.5490  62.7144  63.0402  63.0550  63.4170  63.4948  63.6717  63.7007
    63.8425  63.8540  63.8855  64.0092  64.1149  64.2890  64.3266  64.4689
    64.5172  64.6272  64.9012  64.9187  65.0217  65.0586  65.5387  65.5481
    65.6728  65.8048  65.9542  65.9544  66.0739  66.2166  66.3516  66.5995
    66.6391  66.9168  66.9558  67.2436  67.2926  67.8265  67.9607  68.3709
    68.4380  68.4619  68.6092  68.6816  68.8458  69.1747  69.3184  69.3950
    69.5191  69.5423  69.7397  70.0381  70.0739  70.3015  70.3384  70.4594
    70.4608  70.6010  70.8448  70.9626  70.9879  71.1210  71.4833  71.5102
    71.7234  71.8578  71.8609  72.0021  72.2510  72.3174  72.4154  72.5486
    72.6286  72.6749  72.6903  72.8845  72.8991  73.0291  73.2987  73.3512
    73.3534  73.4744  73.6033  73.6474  73.7445  74.0518  74.2746  74.2922
    74.4767  74.6280  74.6522  74.9051  74.9384  75.0393  75.1626  75.2341
    75.3690  75.4467  75.5658  75.5786  75.6001  75.6296  75.8533  75.8866
    75.9579  76.0971  76.1521  76.1814  76.3210  76.6194  76.8218  77.2737
    77.3654  77.5253  77.6394  77.9417  77.9860  77.9966  78.4468  78.5364
    78.5893  78.7025  78.8146  79.0195  79.0641  79.1605  79.3006  79.4108
    79.4395  79.4878  79.5083  79.6340  79.6352  79.7199  79.7682  79.9311
    80.0974  80.1204  80.1877  80.2784  80.3268  80.4490  80.4889  80.5440
    80.6230  80.7454  80.8483  80.8511  80.9829  81.1526  81.1758  81.2112
    81.4384  81.6089  81.9296  82.1703  82.1954  82.2436  82.4603  82.5010
    82.5342  82.6081  82.6858  82.7349  82.8106  82.8275  83.0737  83.2039
    83.2074  83.3759  83.5181  83.7166  83.8589  83.8762  84.0150  84.0620
    84.2327  84.3530  84.4682  84.5427  84.7536  84.9178  85.1612  85.3755
    85.5189  85.6050  85.6251  85.8175  85.9258  86.0039  86.2482  86.4999
    86.6909  86.7733  87.0240  87.1312  87.2525  87.3078  87.4533  87.6100
    87.9070  88.1410  88.1427  88.3112  88.4743  88.5288  88.6523  88.7463
    89.0555  89.0845  89.2300  89.2529  89.4315  89.4756  89.5313  89.5883
    89.6607  89.7068  89.7414  89.8181  89.8641  89.9315  90.0668  90.1037
    90.2272  90.5313  90.6298  90.6620  90.7650  90.8945  91.1175  91.6709
    92.2255  92.3206  92.4440  92.7403  92.8849  93.1065  93.1416  93.2039
    93.3549  93.5473  93.6000  93.8246  93.8801  93.9959  94.0304  94.1544
    94.2031  94.2571  94.4553  94.4703  94.5547  94.6106  94.6694  94.6743
    94.8191  94.9325  94.9800  95.0253  95.2465  95.2905  95.3929  95.4379
    95.5907  95.6042  95.7112  95.7965  95.8962  95.9605  96.1001  96.1180
    96.3236  96.3502  96.3900  96.4973  96.5336  96.7645  96.9634  97.2354
    97.2974  97.4006  97.5036  97.6739  97.7459  97.8142  98.0212  98.0621
    98.2137  98.3927  98.5120  98.7201  98.9552  99.0817  99.2064  99.2837
    99.3570  99.4225  99.5317  99.6032  99.6746  99.7228 100.0214 100.1217
   100.1434 100.2273 100.3109 100.3755 100.4795 100.5889 100.6810 100.7760
   100.9389 101.0044 101.1253 101.2232 101.2806 101.4206 101.4642 101.6248
   101.6459 101.6872 101.8850 102.1060 102.2446 102.5063 102.6960 102.7229
   102.7354 102.9613 103.1411 103.2855 103.4300 103.4541 103.7088 103.8054
   104.0106 104.0580 104.2068 104.3044 104.4072 104.4489 104.7313 104.7366
   104.8194 104.8971 104.9957 105.1102 105.3631 105.4403 105.4741 105.5107
   105.5729 105.6243 105.7154 105.7686 105.8552 105.9368 106.0784 106.1214
   106.2856 106.3149 106.4977 106.5558 106.6960 107.1234 107.2238 107.4099
   107.4328 107.6347 107.6475 107.7759 107.7781 107.8763 108.0101 108.1568
   108.2164 108.3871 108.4507 108.5707 108.6441 108.6660 108.7976 109.0781
   109.1530 109.2770 109.4072 109.4466 109.6249 109.7642 109.7804 110.0719
   110.0766 110.2206 110.2964 110.4180 110.5553 110.5816 110.7163 110.8058
   110.9049 110.9440 111.0507 111.0508 111.1804 111.2669 111.3534 111.4330
   111.5216 111.5592 111.6635 111.7491 111.7798 111.9198 112.2449 112.3735
   112.4706 112.5300 112.5336 112.7823 112.7957 112.9592 113.0807 113.1290
   113.1822 113.2902 113.3605 113.6247 113.6334 113.8365 114.1540 114.2039
   114.2848 114.3962 114.5109 114.6080 114.6667 114.7405 114.9414 115.0496
   115.0917 115.2035 115.2684 115.4013 115.4120 115.5064 115.5793 115.7101
   115.8686 116.1090 116.1546 116.2362 116.4116 116.4178 116.6707 116.8235
   116.8565 116.9785 117.0845 117.2400 117.4554 117.5566 117.7077 117.7480
   117.8997 117.9455 118.0171 118.0987 118.4133 118.5922 118.7957 118.8217
   118.9436 118.9619 119.1625 119.1800 119.3386 119.3785 119.4847 119.5656
   119.7082 119.7229 119.8998 119.9088 120.0471 120.1101 120.2354 120.2860
   120.4390 120.5469 120.5703 120.6976 120.7021 120.8061 120.9104 120.9135
   120.9689 121.0503 121.1866 121.2513 121.4362 121.5177 121.5300 121.5565
   121.6509 121.7128 121.8008 121.8800 121.9133 122.0224 122.1076 122.2413
   122.2712 122.4632 122.4992 122.6580 122.7087 122.8099 123.0221 123.0810
   123.3914 123.4816 123.7043 123.8502 123.9858 124.0063 124.1336 124.2383
   124.2832 124.4398 124.7828 124.8019 124.8950 124.9914 125.1395 125.1511
   125.2355 125.2918 125.5002 125.5901 125.6671 125.6856 125.7828 125.8611
   125.8884 125.9989 126.0452 126.1250 126.1940 126.4318 126.4499 126.5361
   126.6760 126.7028 126.8895 127.0662 127.1449 127.3204 127.5551 127.5882
   127.6464 127.8079 127.8946 127.9251 128.1110 128.1422 128.1687 128.2125
   128.3618 128.5303 128.5838 128.8046 128.8711 128.9956 129.0236 129.0686
   129.2195 129.3480 129.3830 129.5124 129.5535 129.6466 129.6851 129.8222
   129.9457 129.9644 130.0764 130.0854 130.3235 130.3578 130.3803 130.5003
   130.6263 130.6734 130.6823 130.8661 130.9896 131.0355 131.0791 131.1014
   131.1561 131.2359 131.2868 131.3883 131.4552 131.4862 131.5471 131.7733
   131.7886 131.8937 131.9571 132.2638 132.4252 132.6981 132.7744 132.9104
   133.0978 133.2253 133.3998 133.5348 133.5990 133.6774 134.1777 134.2809
   134.4101 134.4212 134.5694 134.6096 134.6853 134.9662 135.0044 135.0537
   135.2017 135.2231 135.2718 135.3743 135.4312 135.4921 135.7174 135.9449
   135.9564 136.2798 136.3005 136.5179 136.7118 136.7121 136.8143 136.9439
   137.0085 137.0784 137.1373 137.2048 137.4066 137.5648 137.5717 137.6222
   137.6728 137.7157 137.8738 137.9196 138.0337 138.0458 138.1092 138.2101
   138.4437 138.5105 138.5115 138.6449 138.7804 138.8033 138.8956 138.9351
   138.9900 139.0070 139.0721 139.1444 139.3547 139.3601 139.4355 139.5781
   139.6603 139.8011 139.8195 140.0523 140.0901 140.1012 140.1548 140.2034
   140.3395 140.4123 140.4946 140.5610 140.6132 140.7689 140.8043 140.8516
   140.9693 141.0771 141.1520 141.2152 141.3193 141.3372 141.3755 141.5447
   141.5607 141.6637 141.7492 141.9275 141.9618 142.1587 142.1745 142.2931
   142.5801 142.8026 142.8058 142.9654 143.0257 143.0486 143.0931 143.1833
   143.3113 143.3609 143.4215 143.5346 143.5563 143.6704 143.7737 143.9946
   144.0816 144.1447 144.2321 144.3256 144.4077 144.5392 144.6639 144.7180
   144.7670 144.8793 144.9164 144.9936 145.0423 145.1728 145.2653 145.3850
   145.5140 145.5302 145.5749 145.5968 145.6176 145.7457 145.7828 145.8772
   145.9065 146.0339 146.0810 146.1632 146.2295 146.3001 146.3931 146.4280
   146.5092 146.5528 146.6179 146.6988 146.7247 146.8143 146.8759 146.9558
   147.0061 147.1430 147.2211 147.2753 147.3208 147.6709 147.7750 147.9415
   147.9733 148.0882 148.1617 148.2300 148.2778 148.2811 148.3879 148.4933
   148.5519 148.6977 148.7609 148.7690 149.0166 149.1099 149.1359 149.2720
   149.5626 149.6568 149.7857 149.8648 149.9592 150.0930 150.1117 150.4996
   150.5056 150.6028 150.6700 150.7773 150.8043 150.9306 151.0673 151.2557
   151.3412 151.4503 151.6051 151.6751 151.7065 151.8217 151.8822 151.9088
   151.9926 152.0719 152.1848 152.3201 152.3812 152.4102 152.4604 152.6382
   152.6469 152.8334 152.9342 153.0973 153.1929 153.2765 153.3147 153.4122
   153.5360 153.6555 153.7028 153.7949 153.8521 153.9807 154.0359 154.0833
   154.1924 154.2055 154.2917 154.3625 154.4468 154.5622 154.6934 154.7417
   154.8436 154.8855 154.9162 154.9274 155.0554 155.0675 155.3051 155.3634
   155.4240 155.5464 155.5604 155.6217 155.6653 155.8143 155.8517 156.0850
   156.1032 156.2283 156.2649 156.4135 156.4208 156.5685 156.6022 156.6790
   156.7498 156.7922 156.8946 157.0137 157.0466 157.1427 157.2765 157.3156
   157.3186 157.3992 157.5845 157.8397 157.9101 158.0350 158.2099 158.2305
   158.3139 158.3989 158.4979 158.5992 158.6076 158.6645 158.8014 158.8628
   158.9530 159.0500 159.1031 159.2486 159.2721 159.3609 159.4226 159.6331
   159.6532 159.8210 159.9656 160.1272 160.1318 160.2744 160.4620 160.4789
   160.6188 160.6198 160.7622 160.8035 160.8394 160.9012 160.9716 161.1640

          k = 0.0000-0.5774 0.0000 (  9410 PWs)   bands (ev):

   -30.6837 -30.6633 -30.6004 -30.5933 -30.5549 -12.4652 -10.2914  -5.3295
    -3.7320  -3.6448  -0.3541   0.6556   1.8805   3.5001   5.3958   5.4803
     5.8357   6.2196   6.4899   6.9209   7.2167   7.3070   7.4643   8.4615
     9.1408   9.4808   9.5506   9.5945  10.2472  10.9944  11.3111  11.8091
    12.2411  12.3427  12.5901  12.7227  12.8332  12.9961  13.0081  13.0696
    13.1976  13.9429  14.0263  14.1504  14.3220  15.7683  16.0214  16.1540
    16.2033  16.3730  16.6520  16.8435  16.9666  17.6787  17.8212  18.0534
    19.1154  19.1583  19.2626  19.5523  19.7120  19.7885  20.6489  20.8897
    21.1957  21.2243  21.5312  22.1839  22.5941  22.7838  22.9402  23.5274
    23.5393  23.8092  23.8646  25.0044  25.7756  25.9108  25.9438  26.0143
    26.2925  26.3902  26.5422  26.5816  26.6290  26.6854  26.7954  26.9389
    27.0588  27.2337  27.4651  27.4994  27.6515  27.6639  27.6886  27.8773
    27.9650  27.9967  28.2136  28.2687  28.4697  29.0302  29.2100  29.5710
    29.6474  29.8263  29.8545  29.8872  30.1821  30.1876  30.3407  30.6205
    30.8474  32.3173  32.3525  32.4531  32.4918  32.6176  32.6886  32.7370
    32.9165  32.9384  33.0873  33.2018  33.2650  33.3687  33.4575  33.5353
    33.5692  33.6250  33.7359  33.8836  34.0173  34.0710  34.3180  34.4089
    34.4895  34.7345  35.0390  36.2005  36.3928  36.4684  36.5870  36.6161
    36.6614  36.8209  36.8995  36.9100  37.0030  37.2839  37.3608  37.7459
    38.1851  38.3989  39.1092  39.3577  39.4714  39.6315  39.6470  39.7286
    39.8349  39.9026  40.1228  40.3869  40.6440  40.7708  40.8336  40.9928
    41.5156  41.5309  41.6528  41.7613  41.9845  42.1786  42.2288  42.4364
    42.8840  43.6248  43.7010  43.8989  44.0658  44.0710  44.4682  45.2077
    45.8536  46.2351  46.2476  46.2829  46.3383  46.4120  46.6153  46.7824
    46.7984  46.8735  46.9549  46.9665  47.0388  47.0892  47.1087  47.3002
    47.3218  47.4092  47.5959  47.7727  47.7766  47.8238  47.9236  47.9604
    48.0925  48.1364  48.1410  48.1879  48.1982  48.4263  48.5805  48.7511
    48.7545  48.8762  48.9553  48.9807  49.8331  49.8418  50.1596  50.2099
    50.2806  50.3324  50.3935  50.5877  50.9128  51.3672  52.1624  52.4296
    52.5437  52.5952  52.7994  52.9670  53.0298  53.0587  53.1033  53.3331
    53.4120  53.5123  53.5536  53.5930  53.6505  53.8380  53.8415  54.1025
    54.3135  54.4898  54.6305  54.7731  54.9315  55.2758  55.4153  55.5650
    55.8640  56.3069  56.5161  56.6039  56.7836  56.9089  56.9412  57.1400
    57.4197  57.4216  57.6175  57.6266  57.7257  57.8540  58.6720  58.8472
    59.2148  59.4158  59.5894  59.7532  60.0040  60.2444  60.3555  60.4445
    60.5026  60.5763  60.9182  60.9316  61.2296  61.3787  61.4761  61.5742
    61.6529  61.6842  61.8863  62.1956  62.1994  62.5791  62.6683  62.6757
    62.7314  62.7673  63.1709  63.3949  63.6880  63.7825  64.0892  64.3984
    65.1768  65.3511  65.5908  65.7556  65.7600  65.9768  66.0879  66.3013
    66.5265  66.5330  66.6241  66.8296  66.9996  67.1134  67.1543  67.2771
    67.3273  67.3695  67.3733  67.4554  67.5458  67.5595  67.6345  67.7023
    67.7572  67.9150  67.9967  68.0839  68.1365  68.1962  68.2123  68.3104
    68.3629  68.3944  68.4198  68.5318  68.5750  68.6526  68.6983  68.7706
    69.0539  69.2714  69.5914  69.5927  69.9529  69.9921  70.1797  70.2049
    70.5179  70.5287  70.7374  70.7862  70.9999  71.0460  71.0644  71.4418
    71.6354  72.0509  72.4327  72.4855  72.7118  72.8350  73.1306  73.1701
    73.2793  73.3093  73.3524  73.4496  73.5826  73.6301  73.6436  73.7726
    73.7738  73.8045  73.8801  73.8893  74.0135  74.0597  74.1212  74.1908
    74.2139  74.2160  74.2710  74.3910  74.4414  74.6673  74.7973  74.9014
    74.9205  75.0641  75.1022  75.1403  75.1743  75.3052  75.3389  75.4511
    75.6256  75.6891  75.7914  76.1262  76.2854  76.4162  76.4499  76.5430
    76.6784  76.6854  76.9022  76.9639  77.1097  77.2122  77.2146  77.2272
    77.3584  77.3602  77.4348  77.4582  77.5407  77.6377  77.6830  77.7370
    77.8296  77.8630  77.9571  77.9579  78.1477  78.4554  78.5601  79.5068
    79.6022  79.6393  79.8400  79.8974  80.2345  80.3511  80.3807  80.4075
    80.4183  80.5273  80.6634  80.6651  81.0798  81.2142  81.2989  81.4668
    81.5904  81.6086  81.8234  81.9270  82.1130  82.2520  82.3601  82.5779
    82.6252  82.6309  82.8771  82.8775  83.1038  83.3229  83.4388  83.4695
    83.6874  83.8247  83.8381  83.9058  84.1666  84.3011  84.3900  84.4009
    84.5512  84.6838  84.8019  85.0407  85.3440  85.7468  85.8174  85.9271
    85.9978  86.1376  86.1799  86.3602  86.5864  86.7552  86.8882  87.0285
    87.1126  87.2763  87.3741  87.4018  87.5059  87.5983  87.7309  87.7451
    87.7588  87.8117  87.8472  87.9318  88.0697  88.1402  88.1615  88.2252
    88.3108  88.5817  88.6626  88.7092  88.7689  88.8624  88.9493  88.9620
    89.0501  89.1519  89.1757  89.2256  89.3030  89.3333  89.4816  89.5314
    89.5935  89.8956  90.1826  90.3987  90.6344  90.8150  90.8941  91.3065
    91.5253  91.7361  91.8238  92.3992  92.5041  92.7593  92.8223  92.8746
    93.1693  93.1907  93.2472  93.3428  93.4098  93.4700  93.5460  93.5728
    93.6511  93.7738  93.7989  94.0171  94.0201  94.1141  94.3142  94.3358
    94.3751  94.4629  94.5530  94.5593  94.6636  94.7271  94.8872  94.9683
    95.0307  95.1077  95.1596  95.1771  95.3008  95.3030  95.5671  95.6338
    95.7869  95.9714  96.0834  96.2289  96.4018  96.4115  96.4434  96.4878
    96.7008  96.8380  97.0598  97.1534  97.3089  97.3789  97.4894  97.5237
    97.6026  97.6608  97.7386  97.8826  97.9205  98.0865  98.1401  98.1532
    98.2716  98.3447  98.5780  98.7696  99.0221  99.3887  99.6269  99.6717
    99.7426  99.9121  99.9242 100.3014 100.3680 100.4537 100.5777 100.6741
   100.7303 100.7836 100.9107 100.9840 101.0201 101.2614 101.3391 101.3548
   101.5920 101.5993 101.7832 102.0683 102.2118 102.4309 102.5089 102.6310
   102.7781 102.8754 102.9337 103.1062 103.3558 103.4687 103.6441 103.7354
   103.7679 103.8219 103.9256 104.3349 104.3925 104.5940 104.8564 104.8743
   104.9008 105.1068 105.1284 105.5133 105.9175 106.0269 106.1845 106.2707
   106.3313 106.4058 106.4906 106.5508 106.5631 106.8278 106.8546 106.9039
   106.9984 107.2269 107.2302 107.3806 107.5177 107.6551 107.6991 107.7154
   107.7241 107.7387 107.9026 107.9275 107.9859 108.0260 108.0926 108.1126
   108.1189 108.1589 108.2191 108.4072 108.5484 108.5917 108.6598 108.6709
   108.7187 108.7720 108.8759 108.9272 108.9603 108.9810 109.0158 109.0710
   109.1639 109.2331 109.3146 109.4172 109.4647 109.4924 109.4995 109.5246
   109.5903 109.7930 110.1046 110.1463 110.4759 110.7499 110.9105 110.9916
   111.0660 111.0889 111.2018 111.2473 111.2592 111.3525 111.4654 111.7300
   111.8190 112.3548 112.6932 112.9171 112.9397 113.0585 113.2643 113.3507
   113.6387 113.7177 113.7412 113.9873 114.0279 114.0856 114.1934 114.3417
   114.3764 114.3986 114.4024 114.4346 114.8144 114.9726 115.0399 115.1534
   115.2486 115.2497 115.3746 115.6392 115.7223 115.8116 115.8158 115.9158
   116.3972 116.4111 116.6146 116.6305 116.7494 116.7586 116.8923 117.0118
   117.1412 117.2767 117.3088 117.3690 117.3989 117.5375 117.6326 117.6370
   117.7853 117.8855 117.9925 117.9942 118.0301 118.1042 118.1172 118.1846
   118.2396 118.3228 118.6060 118.6485 118.8835 119.0484 119.0755 119.1927
   119.4211 119.4782 119.5061 120.0241 120.1270 120.2454 120.2780 120.4570
   120.5056 120.5703 120.6238 121.0171 121.1442 121.2074 121.2983 121.4804
   121.6134 121.7388 121.9343 121.9536 122.2943 122.3427 122.6666 122.7530
   122.8704 123.0274 123.2934 123.3806 123.3920 123.3979 123.5868 123.6462
   123.9057 124.0412 124.1431 124.2466 124.2546 124.5144 124.5405 124.6115
   124.7995 125.0617 125.2850 125.4552 125.5411 125.6091 125.7384 125.7556
   125.8225 126.0412 126.0930 126.2374 126.3811 126.5112 126.5849 126.6323
   126.7520 126.7558 126.8613 127.0109 127.1431 127.2259 127.4794 127.5841
   127.6622 127.7201 127.8273 127.9212 127.9456 128.0099 128.2031 128.2462
   128.2556 128.3504 128.4090 128.4269 128.4430 128.5138 128.5928 128.6254
   128.6827 128.8254 128.9193 128.9383 129.0095 129.0253 129.1199 129.1236
   129.1328 129.1843 129.2025 129.4039 129.4129 129.5360 129.5824 129.7975
   129.9679 129.9883 130.1138 130.3018 130.4099 130.4728 130.5460 130.6886
   130.7305 130.7885 130.8751 131.0897 131.1313 131.2075 131.2378 131.3531
   131.3636 131.5271 131.6153 131.6417 131.7944 131.8004 131.9287 131.9988
   132.0253 132.1592 132.2409 132.5501 132.7221 132.8321 133.0284 133.1517
   133.4266 133.5747 133.6143 133.7076 133.8060 133.8799 133.9058 133.9335
   134.1094 134.1571 134.1875 134.2579 134.4136 134.4772 134.4972 134.5629
   134.7112 134.7227 134.7612 134.8287 134.8425 135.0339 135.1489 135.1660
   135.2002 135.2156 135.2899 135.4161 135.4211 135.4735 135.6809 135.6998
   135.7819 135.8149 135.8422 136.0211 136.0310 136.0579 136.0920 136.2706
   136.3222 136.3529 136.3967 136.4783 136.5689 136.5943 136.7045 136.8616
   136.9753 137.0000 137.0664 137.3003 137.3538 137.4091 137.6403 137.7009
   137.8277 137.8768 137.8910 137.9207 137.9964 138.0548 138.1599 138.2058
   138.2244 138.2401 138.3228 138.3372 138.3489 138.3579 138.4089 138.5512
   138.5694 138.7137 138.7413 138.7885 138.7939 138.8687 138.9664 138.9762
   139.0487 139.0570 139.3327 139.5160 139.6303 139.8017 140.2081 140.3087
   140.3206 140.5673 140.7274 140.8098 140.9393 141.0161 141.2416 141.3344
   141.4164 141.4284 141.4506 141.6166 141.6608 141.6885 142.0784 142.1316
   142.2198 142.2714 142.3856 142.5112 142.5412 142.7338 143.0102 143.0396
   143.1144 143.1840 143.2308 143.2827 143.4296 143.4749 143.6487 143.6723
   143.7168 143.7394 143.9169 143.9707 144.0395 144.2004 144.2785 144.3756
   144.4463 144.5037 144.5055 144.6649 144.7385 144.7754 144.8556 144.8604
   144.8827 144.9685 144.9961 145.0441 145.3012 145.3226 145.3244 145.3855
   145.3911 145.4414 145.7789 145.9380 146.2743 146.2971 146.3948 146.6180
   146.7953 146.9668 147.0916 147.1402 147.2333 147.4589 147.4608 147.5681
   147.6999 147.8356 147.9067 148.0484 148.0786 148.1890 148.3012 148.3870
   148.4903 148.5489 148.5556 148.5918 148.6121 148.7320 148.7798 148.7919
   148.8524 148.8811 148.9234 148.9547 149.0238 149.0987 149.1605 149.2552
   149.3586 149.3589 149.5393 149.5470 149.5649 149.5906 149.6671 149.7151
   149.7400 149.8289 149.8892 149.9040 149.9892 150.0522 150.1192 150.1543
   150.1898 150.3435 150.4286 150.5721 150.6989 150.7545 150.9187 150.9522
   151.0004 151.3614 151.3906 151.4447 151.5617 151.5815 151.6127 151.6289
   151.6510 151.6875 151.7351 151.7952 151.8824 151.9196 152.1358 152.4757
   152.5685 152.8198 152.9331 153.0778 153.0830 153.1292 153.2853 153.4161
   153.5503 153.6560 153.7224 153.7941 153.9749 154.1434 154.2477 154.3293
   154.3581 154.3634 154.3919 154.4972 154.5484 154.6331 154.6340 154.6572
   154.7633 154.8773 154.9476 155.1239 155.1992 155.2092 155.3891 155.4340
   155.4359 155.4814 155.6449 155.7407 155.8048 155.8335 155.8669 155.9017
   155.9188 155.9696 155.9907 156.6015 156.7560 156.8606 156.9568 157.0420
   157.3066 157.3128 157.3633 157.4205 157.5271 157.5592 157.6535 157.7157
   157.8462 157.9165 158.0137 158.1173 158.1271 158.2020 158.3864 158.4949
   158.6145 158.7044 158.7117 158.7568 158.8188 158.8485 158.9116 158.9203
   158.9920 159.0085 159.1026 159.3149 159.3418 159.3817 159.6026 159.6572
   159.9638 159.9815 160.0423 160.3878 160.4883 160.5818 160.9609 161.1811

          k = 0.1250 0.2165 0.0000 (  9368 PWs)   bands (ev):

   -30.6815 -30.6745 -30.5947 -30.5921 -30.5612 -13.9397  -8.9488  -4.4896
    -3.3139  -2.6071   0.3681   1.0232   2.0017   3.1039   3.3026   3.9927
     4.6567   4.8777   6.1473   6.6338   6.7862   7.5038   8.0927   9.2917
     9.6541   9.7693   9.9925  10.4378  11.3093  11.5713  11.8591  12.0701
    12.2939  12.6457  12.9773  13.0177  13.0792  13.2710  13.9301  14.1121
    14.3196  14.9756  15.0990  15.2153  15.4245  15.4966  16.4983  16.5870
    17.0706  17.1021  17.5464  17.8542  17.8985  17.9842  18.1424  18.1869
    18.2880  18.4874  18.6286  18.7789  19.1747  19.3417  19.6463  20.2349
    20.3479  20.4324  20.6204  21.3817  21.7117  21.9213  22.0811  22.1105
    22.2257  22.3985  22.4328  22.8721  22.9636  23.1275  23.2190  23.3210
    23.4076  23.5766  23.6396  23.9176  24.2002  24.3285  24.4611  25.2265
    25.2673  25.5677  25.6419  25.7633  26.5840  26.7747  26.9020  26.9753
    27.3069  27.5523  27.6589  27.7827  28.2215  28.4502  28.7658  28.8578
    29.8410  29.9102  30.0949  30.2862  30.5044  31.3065  31.7210  31.7783
    32.0429  32.0905  32.2876  32.3778  32.4213  32.6857  32.7134  32.8546
    33.1110  33.2716  33.6246  33.7739  33.9928  34.1302  34.4658  34.7519
    34.9791  35.1169  35.2403  36.4600  36.6065  36.6523  36.8902  37.1238
    37.2738  37.3508  37.3805  37.6196  37.7967  37.8455  38.1045  38.1633
    38.4760  38.5236  38.6228  38.7168  39.0533  39.2158  39.2965  39.3320
    39.4856  39.8076  39.9289  40.1486  40.2159  40.3404  40.4767  40.5568
    40.6228  41.3175  41.7947  42.0268  42.0873  42.2277  42.2771  42.6120
    42.6674  42.9185  43.1754  43.3867  43.4500  43.6824  43.7558  43.8592
    44.2782  44.3248  44.4975  44.6030  44.8130  45.1063  45.3211  45.4727
    45.5379  45.5687  45.6416  45.7305  45.9153  46.0579  46.2338  46.5163
    46.5932  47.0782  47.2567  47.6213  47.6592  48.1469  48.2116  48.4388
    48.5141  48.5490  48.6709  48.6920  48.8129  48.9592  49.0631  49.0956
    49.1195  49.1865  49.2842  49.3663  49.4455  49.4668  49.6653  49.7662
    49.7716  50.0204  50.2111  50.3765  50.4491  50.5633  50.6496  50.7927
    50.8371  51.0227  51.1120  51.1538  51.3738  51.6097  52.1424  52.2914
    52.3306  52.5937  52.7359  52.7696  53.0583  53.2264  53.3636  53.5356
    53.7052  53.7870  53.8923  53.9476  53.9981  54.1179  54.2024  54.2392
    54.3897  54.4661  54.4985  54.6652  54.6952  54.7706  55.0152  55.0568
    55.2283  55.3889  55.4312  55.6240  55.7281  55.8408  56.0360  56.4442
    56.6022  56.7212  57.0702  57.2175  57.4179  57.6119  57.6704  57.7789
    57.8164  57.8680  57.9171  58.0436  58.2541  58.4461  58.4983  58.6889
    58.8850  58.9181  58.9733  59.1773  59.1910  59.2807  59.4456  59.5043
    59.6309  59.8429  59.9040  59.9453  60.0800  60.1480  60.4114  60.7549
    60.8359  60.8843  61.0459  61.1172  61.2420  61.5343  61.8098  61.9981
    62.1370  62.2777  62.4196  62.5903  62.6728  62.8566  63.1709  63.2382
    63.2876  63.4138  63.7676  63.8662  63.9522  63.9906  64.0911  64.2628
    64.4294  64.4719  64.4925  64.6593  64.7439  64.9602  65.0892  65.1757
    65.3495  65.5228  65.9090  66.0789  66.3921  66.8046  66.9953  67.1016
    67.1682  67.2061  67.4765  67.6137  67.6200  67.7347  67.8638  67.9990
    68.0265  68.1089  68.1539  68.2681  68.3218  68.4032  68.5158  68.6368
    68.7952  68.8844  68.9801  69.1873  69.3432  69.6287  69.7314  69.7884
    69.8609  70.0619  70.4069  70.6752  70.9227  70.9860  71.1260  71.2284
    71.3585  71.4646  71.5884  71.7749  71.9921  72.1222  72.2336  72.4187
    72.5260  72.7382  72.9064  72.9323  73.0023  73.1343  73.2594  73.3889
    73.5423  73.7051  73.8319  73.9790  74.0767  74.2368  74.2773  74.3871
    74.5664  74.6634  74.8219  74.9228  75.0383  75.3180  75.4424  75.6343
    75.9131  76.0317  76.1429  76.4684  76.6440  76.6999  76.8487  77.0052
    77.4980  77.6782  77.7175  77.9471  78.0601  78.1087  78.2874  78.4286
    78.5167  78.5851  78.9378  79.0823  79.3309  79.6780  79.9661  80.3685
    80.5240  80.5960  80.7880  80.9498  81.0724  81.2093  81.3321  81.4553
    81.6145  81.6502  81.7847  81.8457  81.9160  81.9920  82.0949  82.1784
    82.3753  82.4967  82.6157  82.6549  82.8208  82.9334  82.9675  83.0810
    83.2457  83.3331  83.3441  83.4874  83.5968  83.6458  83.9097  83.9960
    84.0646  84.1424  84.2775  84.3408  84.4417  84.4699  84.4853  84.6583
    84.7178  85.0447  85.1985  85.2707  85.6528  86.0283  86.3013  86.3959
    86.4643  86.5822  86.6802  86.8905  86.9212  87.1576  87.2511  87.5099
    87.6049  87.8933  88.0331  88.1241  88.1875  88.2623  88.2896  88.5071
    88.6051  88.6835  88.7627  88.8240  88.9788  89.0110  89.1012  89.1189
    89.2897  89.4109  89.4373  89.6174  89.6242  89.6583  89.7938  89.8557
    89.9616  89.9888  90.0811  90.2500  90.5796  90.7770  90.8529  91.0448
    91.1749  91.2419  91.2594  91.3351  91.5631  91.6582  91.6910  91.8173
    91.9391  92.0408  92.1396  92.2498  92.3835  92.4148  92.4696  92.5450
    92.7322  92.7905  92.8625  92.9982  93.2684  93.3200  93.4243  93.4669
    93.6656  93.8094  93.8283  93.8975  93.9998  94.0124  94.1604  94.1929
    94.2625  94.3340  94.4911  94.5277  94.6499  94.7376  94.8699  94.9129
    94.9964  95.2804  95.5430  95.6934  95.7399  95.8834  95.9503  96.1963
    96.3231  96.3910  96.5395  96.5819  96.6439  96.8633  97.0341  97.2009
    97.3261  97.4056  97.5929  97.6235  97.7605  97.8847  97.9746  98.0451
    98.1805  98.2411  98.3868  98.4858  98.5414  98.6699  98.7281  98.8715
    99.0266  99.1160  99.1417  99.2366  99.2778  99.4326  99.5311  99.6400
    99.7471  99.7771  99.8760 100.0056 100.2010 100.2596 100.3407 100.5686
   100.7161 100.9025 101.1040 101.1277 101.4528 101.5090 101.6839 101.9082
   102.1114 102.2642 102.3359 102.4996 102.5830 102.8019 102.8509 102.9046
   103.0664 103.1099 103.1505 103.1828 103.3809 103.4747 103.5368 103.5576
   103.5977 103.7150 103.8131 103.8558 103.9434 103.9536 104.0779 104.3106
   104.3998 104.4689 104.5607 104.6430 104.6991 104.8376 104.9034 104.9619
   105.0607 105.1708 105.4065 105.6569 105.8362 106.1066 106.2384 106.2710
   106.3664 106.5506 106.6231 106.7888 106.9691 107.1055 107.1379 107.1468
   107.3039 107.3843 107.6247 107.7557 107.8225 107.8667 108.0073 108.0219
   108.1144 108.2600 108.3035 108.4082 108.4174 108.5845 108.6367 108.6591
   108.7383 108.7630 108.7641 108.8778 109.0420 109.0656 109.1316 109.1993
   109.3046 109.3273 109.3679 109.3896 109.4635 109.4957 109.5466 109.6417
   109.6851 109.6974 109.7347 109.7943 109.8828 109.9737 110.0757 110.0924
   110.1792 110.1960 110.2688 110.3220 110.4377 110.4505 110.4796 110.6701
   110.7488 110.8537 111.1944 111.2934 111.3147 111.3635 111.5405 111.5982
   111.7663 111.8811 112.2619 112.4285 112.5041 112.6194 112.7329 112.8654
   112.9729 113.0109 113.1192 113.2622 113.3228 113.3695 113.4428 113.5953
   113.6451 113.6804 113.7793 113.8141 113.8624 113.9822 114.1402 114.1866
   114.2610 114.3184 114.3971 114.4400 114.6273 114.6573 114.7213 114.7831
   114.8345 114.8574 114.9376 114.9853 115.1913 115.2234 115.2420 115.4748
   115.6014 115.7788 115.8102 116.0003 116.0997 116.1809 116.2405 116.3709
   116.4273 116.5705 116.6248 116.6670 116.7092 116.8110 116.9546 116.9826
   117.0686 117.1012 117.2063 117.3817 117.4311 117.5876 117.6484 117.7462
   117.8900 117.9165 117.9330 117.9877 118.1489 118.2590 118.3442 118.4764
   118.5551 118.6860 118.7724 118.8118 118.9585 119.0435 119.1009 119.1641
   119.2356 119.3150 119.4606 119.5075 119.5713 119.7596 119.8398 119.8826
   120.0364 120.0889 120.1915 120.3231 120.4305 120.4775 120.6218 120.7342
   120.8408 120.9772 121.2228 121.3918 121.5208 121.6575 121.7927 121.8206
   121.9954 122.0417 122.1824 122.2152 122.3697 122.4354 122.5611 122.7056
   122.7511 122.9938 123.0808 123.2217 123.3619 123.5380 123.6553 123.7703
   123.8601 123.9824 124.0302 124.1267 124.2115 124.3529 124.4775 124.6708
   124.8191 124.8403 124.8850 125.0820 125.1410 125.2758 125.3066 125.4995
   125.5500 125.6201 125.6443 125.7380 125.8361 126.0126 126.0831 126.2789
   126.3568 126.4268 126.5487 126.6202 126.7289 126.7578 126.8488 127.0074
   127.1056 127.1665 127.1973 127.3552 127.4335 127.4682 127.5885 127.7308
   127.8308 127.9006 127.9552 128.0756 128.3085 128.3423 128.3780 128.4292
   128.5183 128.6089 128.7434 128.7749 128.8331 128.8961 128.9739 129.0221
   129.2047 129.3845 129.4804 129.5600 129.5837 129.6410 129.7081 129.8290
   129.9264 129.9577 130.0001 130.0664 130.1861 130.3746 130.4471 130.5499
   130.6422 130.6804 130.9220 130.9464 131.1058 131.1843 131.3553 131.4758
   131.5862 131.5929 131.6586 131.7149 132.0517 132.1969 132.3339 132.5738
   132.7784 132.9100 133.1580 133.1954 133.2881 133.5672 133.6660 133.9557
   134.0371 134.1103 134.5305 134.5781 134.6535 134.6772 134.7337 134.8126
   134.8936 135.0821 135.1804 135.2226 135.3372 135.4199 135.4514 135.5840
   135.6329 135.7810 135.9397 136.1486 136.3076 136.3537 136.4549 136.5402
   136.6885 136.7619 136.9683 137.0492 137.2253 137.3315 137.3781 137.4427
   137.6261 137.6697 137.7671 137.8757 138.0302 138.0973 138.1728 138.3181
   138.4655 138.5705 138.6084 138.7055 138.9037 138.9428 139.0889 139.2004
   139.3054 139.4035 139.5107 139.6430 139.8102 139.9669 139.9738 140.0404
   140.1257 140.1787 140.3317 140.4884 140.5676 140.6835 140.7852 140.8966
   140.9314 140.9681 141.0074 141.0348 141.1410 141.2930 141.4305 141.5537
   141.6680 141.7316 141.7635 141.8948 141.9741 142.0172 142.1481 142.2379
   142.2970 142.3757 142.5604 142.6218 142.7449 142.8468 142.9036 143.0863
   143.1821 143.4111 143.4930 143.5436 143.6066 143.6634 143.7280 143.7983
   143.8286 143.9320 144.0264 144.1033 144.2023 144.3027 144.4866 144.6264
   144.6871 144.7296 144.8399 145.0937 145.2153 145.3490 145.4504 145.4935
   145.6777 145.9731 146.0408 146.0898 146.2047 146.3537 146.4503 146.4981
   146.5666 146.7390 146.8894 146.9183 147.1187 147.2056 147.3010 147.3717
   147.4443 147.5002 147.5563 147.6142 147.7824 147.7946 147.9674 148.0317
   148.0724 148.1636 148.2786 148.4142 148.5688 148.6098 148.6530 148.7876
   148.9895 149.1804 149.2424 149.3526 149.4849 149.5639 149.6730 149.7643
   149.8907 150.0174 150.1432 150.3049 150.3302 150.4487 150.5386 150.5855
   150.7811 150.8790 150.9476 150.9833 151.0553 151.1762 151.3636 151.4644
   151.5397 151.6338 151.7828 151.8872 152.0294 152.1442 152.4015 152.4639
   152.5431 152.6032 152.6082 152.6945 152.7728 152.8316 152.8957 153.0026
   153.1037 153.1285 153.2118 153.3122 153.3777 153.4821 153.5742 153.6653
   153.7126 153.7520 153.9028 153.9280 154.0759 154.1307 154.1778 154.3813
   154.4932 154.7497 154.8307 154.9102 155.0209 155.1117 155.3652 155.4367
   155.5860 155.6569 155.7123 155.8555 155.9360 156.0025 156.0967 156.1428
   156.1659 156.1880 156.3275 156.4084 156.5364 156.6164 156.7270 156.8051
   156.8214 157.0152 157.1324 157.2561 157.3461 157.4193 157.4660 157.6890
   157.8300 157.8707 157.9790 158.0919 158.2218 158.2560 158.4738 158.5236
   158.5894 158.6686 158.7294 158.7536 158.8507 158.8766 158.9714 158.9987
   159.1677 159.2159 159.4219 159.4913 159.5325 159.5898 159.6259 159.7221
   159.8707 160.0529 160.1379 160.1859 160.1927 160.3458 160.4117 160.5000
   160.5328 160.5916 160.6429 160.6943 160.7474 160.8391 160.8608 160.9255
   160.9539 160.9873 161.1350 161.1479 161.3266 161.6039 161.6666 161.9335
   162.0992 162.1395 162.2302 162.2920 162.3811 162.4322 162.4865 162.4939

          k = 0.1250 0.3608 0.0000 (  9398 PWs)   bands (ev):

   -30.6815 -30.6691 -30.5976 -30.5932 -30.5576 -13.2759  -9.3637  -5.2237
    -4.1776  -2.7673  -0.0266   1.2420   1.8260   3.6905   4.0429   4.5686
     5.2079   5.4799   6.1111   6.9213   7.5330   7.9010   8.2397   8.8038
     9.3328   9.6961  10.1448  10.3079  10.5061  10.6622  10.9317  11.1401
    11.4297  12.0373  12.1238  12.3244  12.7340  13.0666  13.3915  14.1506
    14.3265  14.3998  14.7856  15.3768  15.5644  15.7683  15.9370  16.0472
    16.2645  16.5996  17.1830  17.2623  17.4541  17.6488  18.3453  18.9359
    19.0518  19.2427  19.5049  19.6328  19.7575  19.8009  19.9563  20.2168
    20.5097  20.8341  21.0545  21.2786  21.4733  21.7534  22.4806  22.6322
    22.7809  22.9350  23.4730  24.0277  24.2139  24.2893  24.6180  24.7623
    25.0475  25.1180  25.4628  25.5930  25.6912  25.8501  25.9034  26.1009
    26.2656  26.3544  26.4684  26.6329  26.6515  26.8683  27.3329  27.5642
    27.8568  27.9767  28.1224  29.0239  29.2977  29.4454  29.5771  29.7554
    29.8173  29.8400  29.9828  30.3247  30.5539  30.6017  30.8867  30.9381
    31.0642  31.2204  31.3997  31.5289  31.6138  31.7875  31.8953  32.1346
    32.6638  32.8551  32.9258  33.2392  33.6788  33.9138  34.3897  34.5305
    34.6910  34.8584  34.9519  35.1322  35.5588  35.6651  35.8476  35.9573
    36.1183  36.2863  36.4575  36.6105  36.6930  37.0006  37.0944  37.4348
    37.6762  37.8595  38.0037  38.1449  38.2770  38.5782  38.7352  38.9357
    39.3365  39.5909  39.7131  39.9002  40.0269  40.1116  40.2013  40.3493
    40.5173  40.8069  41.0385  41.0605  41.2436  41.2726  41.5567  41.6145
    41.7073  41.7758  42.2193  42.4567  42.6639  42.9013  42.9769  43.0586
    43.2305  43.3883  43.5922  44.0641  44.3017  44.3733  44.5458  44.7894
    44.8451  44.9062  45.0336  45.0816  45.1478  45.2469  45.3913  45.5213
    45.7400  45.7692  45.9187  46.1343  46.1523  46.3245  46.5185  46.6002
    46.7875  46.9637  47.2883  47.3297  47.5459  47.8331  48.1107  48.1889
    48.3826  48.8305  49.1810  49.2986  49.5829  49.7191  49.9390  49.9819
    50.0471  50.2741  50.4133  50.5393  50.6407  50.8913  50.9419  51.1654
    51.3148  51.4165  51.4988  51.6258  51.6834  51.8498  52.0038  52.0712
    52.1991  52.7590  52.8508  53.1095  53.1512  53.3740  53.4605  53.7635
    53.8669  54.0360  54.4602  54.6336  54.6547  54.7786  54.8994  55.0307
    55.1240  55.2446  55.2983  55.3513  55.4873  55.6409  55.7793  55.9229
    56.0689  56.2019  56.2673  56.3653  56.5063  56.6887  56.7138  56.8110
    57.0100  57.1369  57.6367  57.8323  58.0838  58.1180  58.2546  58.3776
    58.5300  58.7303  58.8618  59.0425  59.1615  59.3670  59.5408  59.7705
    60.0340  60.1013  60.1294  60.2978  60.3666  60.5099  60.5770  60.7367
    60.8547  61.0326  61.0604  61.1653  61.2653  61.4042  61.4833  61.5337
    61.5876  61.7315  61.8524  61.9428  62.0367  62.1390  62.2062  62.2921
    62.4349  62.7329  62.8829  63.1360  63.3130  63.4809  63.5753  63.7720
    63.8489  64.0821  64.2856  64.5182  64.6288  64.7619  65.0424  65.2022
    65.3176  65.3831  65.5104  65.5765  65.7391  65.7986  66.0665  66.1502
    66.1929  66.3669  66.4356  66.6611  66.9450  67.0520  67.1138  67.5053
    67.6431  67.7601  68.1160  68.2462  68.3077  68.4665  68.6245  68.8504
    68.9678  69.0850  69.2073  69.4164  69.4498  69.7669  69.8459  70.0123
    70.1825  70.2716  70.4342  70.4976  70.5685  70.7807  70.8802  71.0451
    71.1938  71.3752  71.5869  71.6976  71.8305  71.9409  72.0567  72.2367
    72.2690  72.3740  72.5095  72.7614  73.0092  73.0608  73.3051  73.6345
    73.6969  73.8526  74.0657  74.2052  74.5141  74.6264  74.8449  74.8957
    74.9714  75.0844  75.1855  75.2954  75.3703  75.5041  75.5401  75.6520
    75.6855  75.7382  75.8608  75.9795  76.0812  76.2238  76.2900  76.3648
    76.5276  76.5469  76.6310  76.7214  76.7874  76.8284  76.8912  76.9721
    77.1064  77.2764  77.3060  77.4444  77.5434  77.6630  77.9500  78.1279
    78.3058  78.4260  78.5079  78.6169  78.6709  78.7820  78.8831  79.0102
    79.1201  79.2077  79.2778  79.3561  79.6441  79.8334  80.0176  80.0913
    80.4016  80.4829  80.5591  80.7286  80.8232  80.9209  80.9962  81.1176
    81.3365  81.4253  81.5222  81.5818  81.7153  81.7597  81.8883  81.9784
    82.0614  82.1741  82.1914  82.3407  82.4034  82.5540  82.6936  82.8258
    82.9596  83.0035  83.1700  83.3153  83.5046  83.6211  83.6782  83.7501
    83.9357  84.1184  84.2304  84.3927  84.6342  84.8424  84.9153  85.1212
    85.2504  85.3986  85.5261  85.6827  85.8017  85.8740  86.0045  86.0410
    86.1904  86.4072  86.4505  86.6227  86.6949  86.7847  86.8960  86.9599
    87.1124  87.1931  87.2363  87.3101  87.4249  87.5224  87.5606  87.7719
    87.8581  88.0568  88.1485  88.2417  88.3274  88.4846  88.5502  88.6462
    88.7525  88.9689  89.0942  89.1582  89.3297  89.4244  89.5912  89.6712
    89.8777  90.0642  90.1326  90.1921  90.2211  90.3445  90.4513  90.4855
    90.6238  90.6492  90.7733  90.8675  90.9258  91.0406  91.2571  91.4319
    91.5588  91.7631  91.9183  91.9207  92.0590  92.1490  92.3344  92.4241
    92.4855  92.7185  92.9154  93.0824  93.2312  93.4391  93.5892  93.6165
    93.8116  93.9848  94.0736  94.3215  94.3629  94.6283  94.7039  94.8336
    94.9403  95.1238  95.2533  95.3505  95.4543  95.5244  95.6263  95.7571
[...]
    89.6257  89.6929  89.7924  89.9012  89.9829  90.0429  90.1044  90.1755
    90.2550  90.2800  90.3553  90.3933  90.4125  90.4347  90.4979  90.5173
    90.5466  90.6034  90.7503  90.8493  90.9908  91.1157  91.2106  91.2540
    91.2936  91.7260  92.0889  92.3518  92.5962  92.6920  92.7695  93.0848
    93.2632  93.3215  93.3616  93.5080  93.6244  93.6507  93.8980  94.0340
    94.2920  94.4263  94.5806  94.6234  94.7530  94.8016  94.9893  95.0938
    95.2167  95.2783  95.4891  95.6280  95.7042  95.8744  95.9744  96.0509
    96.1952  96.2372  96.3334  96.4244  96.4783  96.5461  96.6203  96.8382
    96.9106  97.0028  97.0305  97.0718  97.1861  97.5721  97.6604  97.7800
    97.8064  97.8961  97.9359  98.0039  98.1429  98.2277  98.4185  98.4792
    98.6836  98.8018  98.9491  99.0770  99.1425  99.2795  99.3640  99.4257
    99.5610  99.7114  99.8356  99.8376  99.8967 100.0352 100.1084 100.1516
   100.1990 100.3041 100.3708 100.4403 100.4745 100.5072 100.6345 100.6582
   100.7706 100.8314 100.9619 101.0512 101.0908 101.2174 101.2640 101.3993
   101.5536 101.6125 101.8434 101.8745 102.2696 102.4741 102.5363 102.7826
   102.9867 103.2475 103.3636 103.6029 103.9491 103.9648 104.0905 104.2011
   104.3226 104.4506 104.5897 104.5997 104.8793 105.0301 105.0684 105.1865
   105.4965 105.7968 105.8579 105.9790 106.0529 106.1625 106.3050 106.3314
   106.4833 106.6416 106.6663 106.7767 106.8715 106.9534 106.9997 107.1075
   107.2682 107.3045 107.4506 107.5624 107.7084 107.7601 108.0072 108.1544
   108.3333 108.4674 108.5866 108.8651 108.9120 109.0318 109.1349 109.3221
   109.5346 109.5686 109.7010 109.7443 109.8796 110.0820 110.1739 110.2779
   110.3292 110.4130 110.5249 110.5411 110.5874 110.6648 110.7198 110.8780
   110.9646 111.0108 111.0738 111.2189 111.3209 111.4524 111.5228 111.6128
   111.6729 111.7076 111.7673 111.8747 111.9593 112.1051 112.2540 112.3545
   112.5087 112.5590 112.8068 112.8765 113.0929 113.2123 113.3102 113.3710
   113.4208 113.6012 113.7139 113.7766 113.8667 113.9685 114.1177 114.2652
   114.3164 114.7508 114.8582 114.9393 115.1810 115.4472 115.6696 115.7353
   115.8387 115.9063 116.0183 116.1454 116.2436 116.3215 116.4028 116.5448
   116.6524 116.7483 116.8009 116.9190 117.1038 117.1828 117.2590 117.2874
   117.4977 117.5561 117.7799 117.8163 118.0436 118.2569 118.4392 118.5944
   118.6827 118.7535 119.0070 119.1618 119.2556 119.4719 119.5070 119.6298
   119.7046 119.7662 119.8708 119.9481 120.1200 120.1321 120.2799 120.3724
   120.4382 120.5284 120.6132 120.6676 120.8038 120.8978 120.9345 121.0516
   121.1185 121.2312 121.3264 121.4010 121.4363 121.5935 121.6849 121.7786
   121.7946 121.8555 121.8981 122.0103 122.2376 122.2607 122.3496 122.3921
   122.7116 122.8363 122.9434 123.0705 123.1244 123.4188 123.4858 123.5526
   123.5877 123.6960 123.7208 123.8194 123.9985 124.0411 124.1450 124.1580
   124.2669 124.4422 124.5996 124.8168 124.8287 124.9523 124.9876 125.1351
   125.2932 125.4580 125.6438 125.7006 125.8999 125.9642 126.0330 126.0740
   126.1051 126.3055 126.3499 126.4607 126.5387 126.7045 126.8323 126.8565
   126.9058 126.9598 127.0126 127.1482 127.3336 127.4040 127.5166 127.5728
   127.7912 127.8530 127.9263 127.9596 128.0843 128.2041 128.2733 128.2969
   128.3934 128.4535 128.5336 128.5882 128.6663 128.8418 128.9647 129.0378
   129.2142 129.3432 129.3921 129.4933 129.6302 129.7427 129.8027 129.8701
   129.9289 130.0764 130.1100 130.1300 130.1651 130.1933 130.2553 130.2894
   130.4245 130.4537 130.4961 130.5552 130.6309 130.6569 130.8036 130.8805
   130.9585 130.9901 131.0774 131.0960 131.2067 131.2273 131.2961 131.3110
   131.4230 131.4378 131.5538 131.5759 131.6133 131.6776 131.7455 131.7914
   131.9002 131.9313 131.9570 132.0426 132.0796 132.2150 132.5574 132.7393
   132.9739 133.0447 133.2438 133.3469 133.4102 133.5080 133.5158 133.5506
   133.7220 133.9189 133.9869 134.1113 134.2624 134.3016 134.4922 134.6005
   134.7620 135.0076 135.0793 135.2292 135.4135 135.6001 135.7437 135.7723
   135.8914 136.0963 136.1114 136.2703 136.3116 136.4796 136.5186 136.6454
   136.7154 136.7296 136.8655 136.9338 137.0077 137.0245 137.1375 137.2092
   137.3519 137.3827 137.4477 137.4709 137.5454 137.6598 137.6805 137.8045
   137.9602 138.0095 138.1096 138.2020 138.2616 138.2892 138.4698 138.5703
   138.5812 138.7763 138.8377 138.9458 139.1420 139.2608 139.2892 139.4954
   139.5684 139.6036 139.6499 139.7821 139.8329 139.9413 140.0408 140.1891
   140.2466 140.3030 140.3476 140.4032 140.4414 140.5494 140.5755 140.7049
   140.7503 140.8173 140.8891 141.0106 141.0543 141.1221 141.1351 141.2485
   141.2702 141.2970 141.4404 141.4799 141.5423 141.5533 141.6443 141.6731
   141.8152 141.9717 141.9839 142.0438 142.1140 142.3740 142.4025 142.5368
   142.6370 142.8300 142.9396 143.0346 143.1623 143.2823 143.4511 143.5108
   143.7017 143.7482 143.8542 143.9936 144.0144 144.1082 144.2264 144.2731
   144.3364 144.4332 144.6505 144.7737 144.9089 144.9469 145.1200 145.3930
   145.4787 145.7537 145.8168 145.9126 146.0080 146.2404 146.3491 146.4289
   146.5201 146.6293 146.6939 146.8715 146.9423 146.9748 147.1088 147.1758
   147.1943 147.2891 147.3182 147.3474 147.4204 147.5318 147.6196 147.7871
   147.8235 147.8692 147.9396 147.9934 148.0655 148.1092 148.1376 148.2875
   148.4833 148.4987 148.5524 148.6027 148.7330 148.7567 148.8938 148.9761
   149.0842 149.1590 149.2319 149.3284 149.4215 149.5320 149.5618 149.7162
   149.7372 149.8119 149.8321 149.9382 150.0889 150.1046 150.2168 150.3030
   150.3494 150.4041 150.5553 150.5579 150.6361 150.7882 150.8042 150.8401
   150.9258 150.9684 151.0412 151.1116 151.1468 151.2189 151.2547 151.3261
   151.3424 151.3996 151.4426 151.5943 151.7027 151.7607 151.8871 151.9670
   152.0349 152.0846 152.1231 152.1880 152.2397 152.3116 152.4224 152.5600
   152.6516 152.7229 152.8855 153.0645 153.1344 153.2968 153.4482 153.5572
   153.5744 153.7072 153.7647 153.8176 153.8964 153.9090 153.9710 154.0379
   154.0457 154.1551 154.2405 154.2524 154.4375 154.4661 154.6424 154.6732
   154.7224 154.7971 154.8973 155.0085 155.2046 155.2575 155.4306 155.5204
   155.6194 155.6993 155.7564 155.8212 156.0102 156.1789 156.3247 156.4364
   156.5539 156.5823 156.6976 156.8217 156.8961 156.9329 157.1183 157.2457
   157.2659 157.3585 157.4098 157.5294 157.5709 157.6250 157.7767 157.8158
   157.9064 157.9434 158.0318 158.1033 158.1171 158.1362 158.3268 158.3541
   158.5380 158.6574 158.8223 158.8304 158.9136 159.0144 159.0324 159.0576
   159.2641 159.3676 159.4619 159.4895 159.6176 159.6838 159.8265 159.8564
   159.9438 160.0419 160.1961 160.2647 160.2802 160.3699 160.4605 160.5371

          k = 0.2500 0.5774 0.0000 (  9440 PWs)   bands (ev):

   -30.6767 -30.6684 -30.5988 -30.5959 -30.5543 -12.0695 -10.4665  -5.8278
    -4.3577  -3.6909  -0.3243   1.4183   2.0385   4.8862   5.4609   6.1176
     6.1860   6.4981   6.9864   7.1214   7.4479   7.7050   7.8979   8.0238
     8.1047   8.3223   8.6308   9.4330   9.6105   9.8371  10.0210  10.1746
    10.2380  10.9880  11.6234  11.9271  12.6584  12.9358  13.2546  13.3260
    13.9649  14.1813  14.8504  15.0502  15.2139  16.4526  16.8887  17.0717
    17.1649  17.3408  17.4689  18.1812  18.3452  18.4416  18.7957  19.1148
    19.3512  19.6700  19.8835  20.3170  20.8352  21.2264  21.3870  21.5035
    21.5472  21.8542  21.9531  22.0549  22.1686  22.2716  22.2874  22.4232
    22.9034  23.0305  23.1136  23.1714  23.4251  23.6511  23.7612  24.2912
    24.7961  24.8965  24.9932  25.1949  25.3883  25.4567  25.7015  26.0020
    26.4364  27.0818  27.1647  27.4330  27.5681  28.0633  28.1969  28.2626
    28.4647  28.7885  28.8728  29.0900  29.1234  29.2945  29.4272  29.5262
    30.0942  30.7188  31.2060  31.6897  31.7945  32.0838  32.2425  32.3818
    32.4448  32.5294  32.5837  32.9557  33.1173  33.1749  33.2024  33.3431
    33.4950  33.6104  33.6618  33.6916  33.7780  33.9791  34.0633  34.0899
    34.2103  34.2882  34.8626  34.9194  35.0885  35.0908  35.2038  35.3101
    35.4494  35.5998  35.6703  35.7430  35.9537  36.6966  36.7473  36.8417
    36.9634  37.1862  37.2711  37.3346  37.3797  37.4196  37.4975  37.5557
    37.5856  38.2241  38.3593  38.3922  38.5192  38.5960  38.6471  38.7149
    38.7934  39.2173  39.3406  39.6961  40.0353  40.1399  40.2813  40.3087
    40.4409  40.6118  40.7425  40.7903  40.8655  41.1204  41.1341  41.6979
    41.9781  42.0866  42.2537  42.4894  42.5562  42.6751  42.8348  42.9304
    42.9816  43.2474  43.4531  43.6862  43.7771  44.0025  44.1443  44.2361
    44.4339  44.4822  44.6352  45.3333  45.8252  45.8999  46.1600  46.6012
    46.7072  47.2919  47.3046  47.4340  47.5237  47.6413  47.9176  47.9721
    48.2218  48.4745  48.5901  48.6581  48.8230  48.9587  49.0192  49.1175
    49.3617  49.4002  49.5018  49.6801  49.9285  50.0117  50.4415  50.6594
    51.0971  51.6624  51.9633  52.2491  52.3791  52.6298  52.7311  52.8641
    52.9227  52.9941  53.1919  53.2556  53.4331  53.7379  54.2741  54.5460
    54.6460  54.8517  54.9137  55.1973  55.4206  55.6937  55.9170  56.0862
    56.0937  56.7578  56.9004  56.9278  57.0858  57.1974  57.3892  57.5261
    57.6541  57.7548  57.8337  57.8686  58.1503  58.1791  58.2876  58.5838
    58.6625  58.7940  58.9004  58.9596  59.0165  59.0852  59.2799  59.3531
    59.5955  59.7019  59.8492  60.0057  60.3667  60.6126  60.6871  60.8393
    60.9577  61.0552  61.1420  61.2230  61.3418  61.4991  61.6011  61.9895
    62.0681  62.7181  62.8432  62.8895  62.9099  63.0475  63.2475  63.4255
    63.5532  63.6296  63.6591  63.7903  63.8690  63.9490  63.9807  64.0991
    64.1288  64.2886  64.3445  64.4091  64.5751  64.5965  64.6657  64.8947
    65.0156  65.2338  65.3483  65.4570  65.5306  65.6210  65.6446  65.8524
    65.9637  66.0329  66.1064  66.2077  66.3090  66.4445  66.7354  66.8530
    66.9104  67.0786  67.1776  67.2285  67.3701  67.5713  67.6182  67.7370
    67.7956  67.9317  68.1151  68.1966  68.2503  68.3573  68.4472  68.5353
    68.6076  68.8532  68.8937  68.9139  69.1199  69.2183  69.3958  69.6026
    69.7778  69.9277  70.3209  70.6183  70.7502  70.8646  70.9288  71.2175
    71.3620  71.4640  71.6218  71.9421  72.0464  72.1863  72.2933  72.3891
    72.5133  72.5512  72.6268  72.7463  72.8542  72.9698  73.0838  73.1083
    73.2803  73.3132  73.3172  73.4314  73.5648  73.6796  73.8607  73.9762
    74.0207  74.1215  74.1984  74.3488  74.4676  74.6405  74.6928  74.8682
    75.0985  75.2644  75.3054  75.6363  75.7758  75.8243  75.9651  76.0181
    76.2763  76.3487  76.4631  76.4799  76.6267  76.7865  76.9701  77.0771
    77.2130  77.4048  77.5596  77.6555  77.8709  77.9910  78.0197  78.1171
    78.3193  78.4018  78.4742  78.6735  78.6887  78.7995  78.9184  79.0310
    79.1576  79.2301  79.3029  79.4496  79.5236  79.5675  79.6376  79.7237
    79.7603  79.9186  79.9319  80.0356  80.3507  80.5192  80.7259  80.9799
    81.1243  81.3935  81.6480  81.6839  81.8102  82.0036  82.2694  82.3850
    82.6537  82.6794  82.7606  82.8408  83.0034  83.0520  83.1890  83.1969
    83.3525  83.3846  83.6035  83.6818  83.8251  83.9882  84.1301  84.1725
    84.3150  84.3852  84.4932  84.6013  84.6355  84.6830  84.8094  84.8836
    84.9616  85.0102  85.0874  85.1331  85.2897  85.4347  85.4807  85.7441
    85.7958  85.8669  85.9440  86.0370  86.1823  86.4750  86.7739  86.9882
    87.0821  87.2219  87.3848  87.4139  87.4922  87.5820  87.7076  87.8201
    87.9184  87.9906  88.0712  88.1614  88.2519  88.2771  88.2994  88.4107
    88.4279  88.5064  88.5770  88.6714  88.7895  88.8757  89.0853  89.2233
    89.2793  89.4049  89.4604  89.5023  89.5349  89.6553  89.7756  90.0923
    90.1392  90.4177  90.6071  90.6341  90.7502  90.9367  91.0448  91.0813
    91.1770  91.2505  91.2703  91.3273  91.3960  91.4774  91.5852  91.6514
    91.6692  91.7231  91.7817  91.9645  92.0863  92.1214  92.1740  92.3577
    92.4282  92.4814  92.5687  92.7393  92.9389  93.2236  93.3053  93.4055
    93.4316  93.5225  93.6415  93.7726  93.9379  94.0145  94.0992  94.1596
    94.2724  94.3382  94.4020  94.4542  94.5288  94.6297  94.7425  94.8785
    94.9286  94.9569  95.0507  95.0769  95.2694  95.8557  95.9740  96.1670
    96.1888  96.3647  96.3789  96.4643  96.5687  96.6054  96.8443  97.1410
    97.2324  97.3567  97.6802  97.7423  97.9055  97.9505  98.1481  98.1913
    98.2458  98.3173  98.4158  98.4769  98.6007  98.7749  98.9063  99.0182
    99.0477  99.1375  99.2475  99.4024  99.4688  99.5279  99.6626  99.7021
    99.8234  99.8786  99.9951 100.0433 100.1502 100.1984 100.3266 100.3709
   100.3757 100.4506 100.6263 100.6652 100.8644 101.0279 101.5578 101.6690
   101.7576 101.9767 102.1282 102.2010 102.2375 102.4001 102.5206 102.6209
   102.7335 102.9562 103.0556 103.2379 103.3978 103.5733 103.6360 103.6882
   103.8438 103.9492 104.1441 104.2737 104.4162 104.4852 104.5760 104.6550
   104.7942 104.8352 104.9211 105.1493 105.4156 105.4623 105.7544 105.8491
   106.0790 106.2850 106.3485 106.4369 106.4718 106.5971 106.6994 106.8857
   106.9630 107.1185 107.1846 107.3437 107.4903 107.6212 107.7738 108.0793
   108.0927 108.2263 108.2895 108.3637 108.5439 108.7300 108.8523 108.9338
   108.9852 109.0412 109.5101 109.8745 110.1676 110.2849 110.4259 110.6165
   110.6520 110.8551 110.9451 111.1122 111.1383 111.2974 111.4041 111.5228
   111.6482 111.7208 111.8207 111.8625 112.1046 112.2367 112.3076 112.3486
   112.5620 112.6129 112.6915 112.9033 112.9690 112.9962 113.1341 113.2942
   113.3371 113.5378 113.6235 113.6710 113.8544 113.8707 113.9579 114.0143
   114.1380 114.2129 114.4070 114.4156 114.5899 114.6384 114.7219 114.7957
   114.8309 114.8977 114.9559 115.0262 115.0637 115.1432 115.2563 115.3609
   115.4225 115.5567 115.6640 115.7605 115.9045 116.2620 116.4362 116.5671
   116.6591 116.8159 116.9295 117.1260 117.2719 117.4346 117.7263 117.8170
   118.0321 118.0902 118.1838 118.4314 118.4605 118.5834 118.7470 118.8161
   118.8771 118.9069 119.0543 119.3169 119.4589 119.5045 119.5370 119.7083
   119.8334 119.8825 120.0191 120.1032 120.2913 120.3370 120.5984 120.7195
   120.7811 120.8902 120.9946 121.0974 121.2284 121.4117 121.5387 121.7117
   121.7269 121.8559 121.9360 122.1071 122.1452 122.2254 122.3267 122.4293
   122.4715 122.5543 122.6496 122.8272 122.9070 123.0178 123.1818 123.3977
   123.5868 123.6357 123.7030 123.7829 123.8923 123.9893 124.0541 124.1556
   124.2292 124.3428 124.3934 124.5192 124.5801 124.6743 124.6891 124.7067
   124.7677 124.8212 124.9494 124.9943 125.1047 125.2253 125.2458 125.4067
   125.4243 125.5649 125.6274 125.7730 125.8827 125.9797 126.0366 126.2397
   126.2969 126.4091 126.4896 126.5152 126.6631 126.7078 126.8124 126.8799
   126.9056 126.9877 127.0403 127.0921 127.1063 127.2190 127.2901 127.3883
   127.5228 127.5605 127.8025 127.9160 128.0136 128.0604 128.1628 128.2076
   128.3226 128.4320 128.5885 128.7737 129.1162 129.1331 129.2316 129.3660
   129.4792 129.6178 129.6941 129.7603 129.8135 129.8514 129.9558 129.9615
   130.0561 130.1023 130.3048 130.4811 130.5654 130.6170 130.7217 130.7556
   130.7932 130.9043 131.0246 131.1078 131.3113 131.3870 131.5387 131.6349
   131.6702 131.7687 131.8231 131.9104 132.0481 132.2625 132.2788 132.4837
   132.6834 132.7988 132.9984 133.0913 133.1663 133.2660 133.2832 133.4619
   133.4898 133.5317 133.6349 133.7339 133.7947 133.8490 134.0197 134.1076
   134.1941 134.2094 134.2740 134.3224 134.3974 134.4209 134.5093 134.5917
   134.6633 134.7071 134.8201 134.9579 135.0407 135.0853 135.1140 135.2518
   135.2788 135.3989 135.5089 135.5293 135.7724 135.8875 136.1556 136.2709
   136.3106 136.3791 136.5662 136.6329 136.6648 136.7346 136.7615 136.8524
   137.0186 137.0800 137.1246 137.1567 137.2049 137.2564 137.2914 137.6034
   137.6413 137.8317 137.8450 137.8855 137.9872 138.1200 138.2662 138.2920
   138.3709 138.4110 138.4355 138.5202 138.5977 138.6323 138.6845 138.7229
   138.9033 138.9470 138.9774 139.0144 139.0936 139.1662 139.1764 139.2578
   139.3024 139.4107 139.5353 139.5856 139.6631 139.7302 139.7443 139.8315
   139.8975 139.9424 140.0184 140.0367 140.1423 140.1542 140.3174 140.4152
   140.4961 140.5627 140.5977 140.6227 140.6850 140.7673 140.8730 140.9941
   140.9976 141.0745 141.2016 141.3093 141.3550 141.4932 141.5614 141.7112
   141.7949 141.8047 141.8662 141.9965 142.1077 142.1531 142.1866 142.2623
   142.3208 142.4189 142.4693 142.7067 142.8179 142.9081 142.9747 143.0824
   143.1313 143.2860 143.3240 143.4146 143.5436 143.6211 143.7653 143.8083
   143.8756 143.9407 144.0025 144.0915 144.1378 144.2015 144.2509 144.2777
   144.4326 144.4694 144.6114 144.6697 144.7029 144.8158 144.8571 144.9193
   144.9906 145.0552 145.1156 145.1780 145.2712 145.4109 145.4694 145.6395
   145.7648 145.8285 145.8730 145.9126 146.0793 146.1131 146.2100 146.4465
   146.7049 146.7575 146.8884 147.0823 147.1581 147.2691 147.4123 147.5157
   147.5857 147.7306 148.0278 148.0604 148.1238 148.2611 148.4264 148.4933
   148.5566 148.6844 148.7649 148.8559 148.9727 149.0785 149.2161 149.2848
   149.2872 149.3127 149.4003 149.4274 149.6819 149.7697 149.8631 149.9648
   149.9847 150.0288 150.0601 150.2274 150.2467 150.2886 150.3272 150.3721
   150.4550 150.4772 150.5840 150.6489 150.7365 150.9777 151.0602 151.2123
   151.2454 151.2574 151.3247 151.4236 151.4497 151.5215 151.6419 151.7042
   151.7628 151.8426 151.9051 151.9389 152.0610 152.1300 152.1778 152.2490
   152.3524 152.4249 152.4474 152.5198 152.6182 152.6992 152.7336 152.8389
   152.9591 153.1264 153.2121 153.3330 153.3897 153.4906 153.6020 153.6487
   153.7064 153.8403 153.9002 153.9966 154.0982 154.1585 154.1957 154.2253
   154.3180 154.4440 154.4969 154.5766 154.6228 154.6772 154.7287 154.7385
   154.7916 154.8452 154.9246 154.9822 155.1208 155.2921 155.3086 155.5059
   155.6279 155.6524 155.8105 155.8895 156.0523 156.0912 156.1635 156.2182
   156.2386 156.3874 156.5925 156.6231 156.7692 156.8103 156.9043 156.9811
   157.1048 157.3684 157.3978 157.5258 157.6917 157.8072 157.8684 158.0442
   158.1417 158.2487 158.3818 158.5034 158.6345 158.7698 158.8111 158.9956
   159.1705 159.2641 159.3867 159.4737 159.5741 159.6875 159.8487 159.9587
   160.0396 160.2213 160.4030 160.4373 160.4844 160.5301 160.5733 160.6300

     the Fermi energy is    -1.6486 ev
     (compare with:    -0.8380 eV, computed in scf)

     Writing all to output data dir out/SbAs.save/
 
     init_run     :      0.06s CPU      0.11s WALL (       1 calls)
     electrons    :    205.60s CPU    220.56s WALL (       1 calls)

     Called by init_run:
     wfcinit      :      0.00s CPU      0.00s WALL (       1 calls)
     potinit      :      0.00s CPU      0.01s WALL (       1 calls)
     hinit0       :      0.02s CPU      0.06s WALL (       1 calls)

     Called by electrons:
     c_bands      :    205.60s CPU    220.56s WALL (       1 calls)
     v_of_rho     :      0.00s CPU      0.00s WALL (       1 calls)

     Called by c_bands:
     init_us_2    :      0.00s CPU      0.00s WALL (      10 calls)
     init_us_2:cp :      0.00s CPU      0.00s WALL (      10 calls)
     cegterg      :    200.12s CPU    214.69s WALL (      10 calls)

     Called by *egterg:
     cdiaghg      :    164.95s CPU    177.91s WALL (     150 calls)
     h_psi        :     12.29s CPU     12.61s WALL (     160 calls)
     g_psi        :      0.05s CPU      0.05s WALL (     140 calls)

     Called by h_psi:
     h_psi:calbec :      0.17s CPU      0.18s WALL (     160 calls)
     vloc_psi     :     11.91s CPU     12.20s WALL (     160 calls)
     add_vuspsi   :      0.12s CPU      0.12s WALL (     160 calls)

     General routines
     calbec       :      0.17s CPU      0.18s WALL (     160 calls)
     fft          :      0.00s CPU      0.04s WALL (      10 calls)
     fftw         :     11.34s CPU     11.62s WALL (  177498 calls)
 
     Parallel routines
 
     PWSCF        :   3m27.86s CPU   3m44.20s WALL

 
   This run was terminated on:  11:54:11   5Apr2024            

=------------------------------------------------------------------------------=
   JOB DONE.
=------------------------------------------------------------------------------=
