
     Program PWSCF v.7.1 starts on 29Dec2023 at 19:51:43 

     This program is part of the open-source Quantum ESPRESSO suite
     for quantum simulation of materials; please cite
         "P. Giannozzi et al., J. Phys.:Condens. Matter 21 395502 (2009);
         "P. Giannozzi et al., J. Phys.:Condens. Matter 29 465901 (2017);
         "P. Giannozzi et al., J. Chem. Phys. 152 154105 (2020);
          URL http://www.quantum-espresso.org", 
     in publications or presentations arising from this work. More details at
     http://www.quantum-espresso.org/quote

     Parallel version (MPI), running on    24 processors

     MPI processes distributed on     1 nodes
     123078 MiB available memory on the printing compute node when the environment starts
 
     Reading input from pw_mp-1415_nscf_k690_E75.in
Warning: card &IONS ignored
Warning: card / ignored
Warning: card &CELL ignored
Warning: card / ignored

     Current dimensions of program PWSCF are:
     Max number of different atomic species (ntypx) = 10
     Max number of k-points (npk) =  40000
     Max angular momentum in pseudopotentials (lmaxx) =  4

     Atomic positions and unit cell read from directory:
     out/mp-1415.save/
     Atomic positions from file used, from input discarded
 
 
     K-points division:     npool     =       2
     R & G space division:  proc/nbgrp/npool/nimage =      12
     Subspace diagonalization in iterative solution of the eigenvalue problem:
     one sub-group per band group will be used
     scalapack distributed-memory algorithm (size of sub-group:  3*  3 procs)

 
     Parallelization info
     --------------------
     sticks:   dense  smooth     PW     G-vecs:    dense   smooth      PW
     Min         107     107     31                 2576     2576     411
     Max         108     108     32                 2581     2581     414
     Sum        1285    1285    379                30923    30923    4957
 
     Using Slab Decomposition
 


     bravais-lattice index     =            2
     lattice parameter (alat)  =      11.2259  a.u.
     unit-cell volume          =     353.6717 (a.u.)^3
     number of atoms/cell      =            2
     number of atomic types    =            2
     number of electrons       =        16.00
     number of Kohn-Sham states=         1200
     kinetic-energy cutoff     =      75.0000  Ry
     charge density cutoff     =     300.0000  Ry
     Exchange-correlation= PBE
                           (   1   4   3   4   0   0   0)

     celldm(1)=  11.225872  celldm(2)=   0.000000  celldm(3)=   0.000000
     celldm(4)=   0.000000  celldm(5)=   0.000000  celldm(6)=   0.000000

     crystal axes: (cart. coord. in units of alat)
               a(1) = (  -0.500000   0.000000   0.500000 )  
               a(2) = (   0.000000   0.500000   0.500000 )  
               a(3) = (  -0.500000   0.500000   0.000000 )  

     reciprocal axes: (cart. coord. in units 2 pi/alat)
               b(1) = ( -1.000000 -1.000000  1.000000 )  
               b(2) = (  1.000000  1.000000  1.000000 )  
               b(3) = ( -1.000000  1.000000 -1.000000 )  


     PseudoPot. # 1 for Ca read from file:
     /usr/scratch4/magr4985/MG/HTDF/pseudo/SG15/Ca.upf
     MD5 check sum: b43c970dc090f2312d256360aabdb6f1
     Pseudo is Norm-conserving, Zval = 10.0
     Generated using ONCVPSP code by D. R. Hamann
     Using radial grid of  602 points,  6 beta functions with: 
                l(1) =   0
                l(2) =   0
                l(3) =   1
                l(4) =   1
                l(5) =   2
                l(6) =   2

     PseudoPot. # 2 for Se read from file:
     /usr/scratch4/magr4985/MG/HTDF/pseudo/SG15/Se.upf
     MD5 check sum: e78e48a4f5d8ce1f8dc76ec1271f249c
     Pseudo is Norm-conserving, Zval =  6.0
     Generated using ONCVPSP code by D. R. Hamann
     Using radial grid of  602 points,  6 beta functions with: 
                l(1) =   0
                l(2) =   0
                l(3) =   1
                l(4) =   1
                l(5) =   2
                l(6) =   2

     atomic species   valence    mass     pseudopotential
        Ca            10.00    40.07800     Ca( 1.00)
        Se             6.00    78.96000     Se( 1.00)

     48 Sym. Ops., with inversion, found



   Cartesian axes

     site n.     atom                  positions (alat units)
         1           Ca  tau(   1) = (   0.0000000   0.0000000   0.0000000  )
         2           Se  tau(   2) = (  -0.5000000   0.5000000   0.5000000  )

     number of k points=    29  Gaussian smearing, width (Ry)=  0.0005
                       cart. coord. in units 2pi/alat
        k(    1) = (   0.0000000   0.0000000   0.0000000), wk =   0.0039062
        k(    2) = (  -0.1250000   0.1250000  -0.1250000), wk =   0.0312500
        k(    3) = (  -0.2500000   0.2500000  -0.2500000), wk =   0.0312500
        k(    4) = (  -0.3750000   0.3750000  -0.3750000), wk =   0.0312500
        k(    5) = (   0.5000000  -0.5000000   0.5000000), wk =   0.0156250
        k(    6) = (   0.0000000   0.2500000   0.0000000), wk =   0.0234375
        k(    7) = (  -0.1250000   0.3750000  -0.1250000), wk =   0.0937500
        k(    8) = (  -0.2500000   0.5000000  -0.2500000), wk =   0.0937500
        k(    9) = (   0.6250000  -0.3750000   0.6250000), wk =   0.0937500
        k(   10) = (   0.5000000  -0.2500000   0.5000000), wk =   0.0937500
        k(   11) = (   0.3750000  -0.1250000   0.3750000), wk =   0.0937500
        k(   12) = (   0.2500000   0.0000000   0.2500000), wk =   0.0468750
        k(   13) = (   0.0000000   0.5000000   0.0000000), wk =   0.0234375
        k(   14) = (  -0.1250000   0.6250000  -0.1250000), wk =   0.0937500
        k(   15) = (   0.7500000  -0.2500000   0.7500000), wk =   0.0937500
        k(   16) = (   0.6250000  -0.1250000   0.6250000), wk =   0.0937500
        k(   17) = (   0.5000000   0.0000000   0.5000000), wk =   0.0468750
        k(   18) = (   0.0000000   0.7500000   0.0000000), wk =   0.0234375
        k(   19) = (   0.8750000  -0.1250000   0.8750000), wk =   0.0937500
        k(   20) = (   0.7500000   0.0000000   0.7500000), wk =   0.0468750
        k(   21) = (   0.0000000  -1.0000000   0.0000000), wk =   0.0117188
        k(   22) = (  -0.2500000   0.5000000   0.0000000), wk =   0.0937500
        k(   23) = (   0.6250000  -0.3750000   0.8750000), wk =   0.1875000
        k(   24) = (   0.5000000  -0.2500000   0.7500000), wk =   0.0937500
        k(   25) = (   0.7500000  -0.2500000   1.0000000), wk =   0.0937500
        k(   26) = (   0.6250000  -0.1250000   0.8750000), wk =   0.1875000
        k(   27) = (   0.5000000   0.0000000   0.7500000), wk =   0.0937500
        k(   28) = (  -0.2500000  -1.0000000   0.0000000), wk =   0.0468750
        k(   29) = (  -0.5000000  -1.0000000   0.0000000), wk =   0.0234375

     Dense  grid:    30923 G-vectors     FFT dimensions: (  45,  45,  45)

     Estimated max dynamical RAM per process >     152.18 MB

     Estimated total dynamical RAM >       3.57 GB

     The potential is recalculated from file :
     out/mp-1415.save/charge-density

     Starting wfcs are random

     Band Structure Calculation
     Davidson diagonalization with overlap

     ethr =  5.00E-06,  avg # of iterations = 10.0

     total cpu time spent up to now is     1285.6 secs

     End of band structure calculation

          k = 0.0000 0.0000 0.0000 (  3839 PWs)   bands (ev):

   -33.9453 -14.9302 -14.9302 -14.9302  -5.8636   5.9001   5.9001   5.9001
     9.1590   9.5933   9.5933   9.5933  10.1451  10.1451  15.5979  18.1099
    18.1099  18.1099  20.2961  20.2961  20.2961  21.1756  21.1756  26.9325
    30.6392  30.6392  30.6392  31.8625  31.8625  31.8625  32.7759  32.7759
    33.4895  33.4895  33.4895  40.3481  42.1815  42.1815  42.1815  43.5561
    43.5561  43.5561  45.3080  45.5183  45.5183  45.5183  45.5541  45.5541
    45.5541  46.1858  46.6659  46.6659  47.2371  47.2371  47.2371  48.4721
    48.4721  48.4721  49.1113  49.1113  51.3450  55.2471  55.2471  55.2471
    55.4963  55.4963  55.4963  64.7445  67.3132  67.3132  67.3132  67.9932
    67.9932  72.0166  72.0166  72.0166  74.4298  74.4298  74.4298  74.6665
    75.5690  75.5690  75.8050  75.8050  75.8050  76.0896  77.7363  77.7363
    77.7363  78.9724  78.9724  78.9724  79.8042  79.8042  79.8042  80.4372
    80.4372  80.4372  80.8104  80.8104  80.8104  81.5495  81.5495  81.5495
    81.5523  81.5523  82.8597  82.8597  84.0184  84.0184  84.0184  84.8893
    85.9029  85.9029  88.2863  88.4110  88.4110  88.4110  90.8970  92.2626
    92.2626  92.2626  98.6581  98.6581  98.6581  99.1529  99.1529  99.1529
    99.5642  99.5642  99.5642  99.5709  99.5709  99.7604  99.7604  99.7604
   100.4621 100.4621 100.5157 100.8688 100.8688 100.8688 101.8717 101.8717
   101.8717 108.0485 108.3611 108.3611 108.3611 108.3954 109.5691 109.5691
   109.5691 110.0840 110.0840 110.0840 111.5900 111.5900 111.5900 112.0547
   112.0547 112.0547 115.3735 115.3735 116.3830 116.3830 116.4732 116.4732
   116.4732 116.6462 116.9760 117.2220 117.2220 117.2220 126.9830 126.9830
   126.9830 127.1318 127.1318 127.1318 129.8121 129.8121 130.9065 131.1524
   131.1524 131.1524 134.3957 134.3957 134.3957 134.4770 134.4770 134.4770
   136.2220 137.8738 137.8738 139.7979 139.7979 139.7979 140.1090 141.0580
   141.0580 141.0580 141.1759 141.1759 141.1759 141.8460 141.8460 142.1957
   142.1957 142.1957 143.4234 143.4234 143.4234 143.9598 143.9642 144.4909
   144.4909 144.4909 144.6797 146.3573 146.3573 146.4295 146.4295 146.4295
   147.5635 147.5635 147.5635 148.1701 148.1701 148.1701 148.9279 148.9279
   148.9279 149.4096 149.5740 149.5740 149.5740 149.6774 149.6774 149.9724
   149.9724 149.9724 150.2267 150.2267 150.2267 150.2966 150.2966 150.2966
   150.3236 150.3236 150.3421 150.3421 150.3421 150.4328 150.4328 150.5615
   150.7184 150.7184 150.7184 157.5751 157.5751 158.2825 158.2825 158.2825
   161.3680 161.3680 161.3680 161.8993 161.8993 161.8993 162.1199 162.1199
   162.1199 162.2404 162.8174 162.8174 162.8174 167.2182 167.2182 167.2182
   168.1440 168.1440 168.3116 168.3116 168.3116 168.4108 171.6091 172.0963
   172.0963 172.8127 172.8127 172.8127 174.1790 178.3059 178.3059 178.3059
   179.5732 179.5732 179.5732 179.6409 179.6409 179.6409 179.8538 179.8538
   179.8538 179.9029 179.9029 180.1505 180.1505 180.1505 181.3489 181.3489
   181.7734 182.3651 182.3651 182.4108 182.4108 182.4108 182.4673 182.4673
   182.4673 182.9780 182.9780 182.9780 183.0095 183.0095 183.0095 183.3860
   183.3860 183.3860 183.6139 185.6544 185.6544 190.6755 190.6755 190.6755
   192.6863 192.6863 192.6863 194.2469 197.4978 197.4978 197.4978 197.7670
   199.3384 199.3384 199.3384 200.0466 202.6713 202.6713 202.6713 203.8233
   203.8233 204.0472 204.0472 204.0472 205.0346 205.0346 205.0469 205.3850
   205.3850 205.3850 208.3684 208.3684 208.3684 209.4870 209.4870 209.4870
   211.6777 211.6777 211.6777 212.0625 212.0625 212.0625 212.2438 212.2438
   212.2438 212.3209 212.3209 212.3209 214.9822 215.2579 215.2579 215.2579
   215.4686 215.4686 215.7584 215.7584 215.7584 215.8642 215.9840 215.9840
   216.0193 216.0193 216.0193 216.5284 216.5284 216.5284 216.7969 216.7969
   216.7969 216.9921 216.9921 216.9921 217.1884 218.6385 218.6385 218.6484
   218.6484 218.6484 218.6738 224.3681 224.3681 224.3681 226.7297 227.6011
   227.6011 228.2861 228.2861 228.2861 229.8055 230.2277 230.2277 230.2277
   230.8242 230.8242 230.9495 230.9495 230.9495 231.4308 231.4308 231.4308
   231.9660 231.9660 231.9660 232.1643 232.1643 232.1643 233.0468 233.0468
   234.7181 234.7181 234.7181 235.8752 235.8752 235.9177 235.9177 235.9177
   235.9274 235.9274 235.9274 235.9941 235.9941 235.9941 236.0240 236.0240
   236.0437 236.0437 236.0437 237.5863 237.5863 237.5863 237.6044 237.6044
   237.6044 237.6085 237.6568 238.1457 238.1457 238.1457 238.6310 239.1337
   239.1337 239.1337 239.2938 239.2938 239.2938 240.7162 241.3927 241.3927
   241.3927 242.4239 242.4239 242.4239 242.4397 242.7624 242.7624 243.1962
   243.1962 243.1962 243.3622 246.5255 246.5255 247.3767 247.3767 247.3767
   247.6555 247.6555 247.6736 247.6736 247.6736 247.8111 247.8111 247.8111
   248.6829 248.6829 248.6829 248.9098 248.9098 248.9214 249.2369 249.2369
   249.2369 249.2487 249.2487 250.7754 250.7754 250.7754 250.9258 250.9258
   250.9258 251.1198 251.1198 251.1198 251.2489 251.2489 251.2489 252.1507
   252.1897 252.1897 252.1897 252.2031 252.2031 255.1245 255.1245 255.1245
   258.7163 267.0043 267.0043 267.0043 274.9339 274.9339 274.9339 275.3099
   275.3099 276.2099 276.3611 277.0743 277.0743 277.0743 278.6995 278.6995
   278.7678 278.7678 278.7678 278.8692 278.8692 278.8692 279.1647 279.1647
   279.1647 279.3061 279.3061 279.3061 279.4881 279.4881 279.4881 279.8517
   279.8517 280.3266 280.4297 280.6196 280.6196 280.6196 280.9510 280.9510
   280.9510 281.1395 281.1395 281.1395 281.1461 281.1461 281.1461 281.2754
   281.2754 281.2754 282.6049 285.8348 285.8348 286.0416 286.0416 286.0416
   286.0889 286.0889 286.1980 286.1980 286.1980 286.2686 286.2686 286.2686
   286.3721 286.3721 286.3721 287.3779 287.3779 287.4561 287.4561 287.4561
   287.6147 293.8978 293.8978 293.8978 295.1289 295.1289 295.8602 295.8602
   295.8602 295.9298 295.9298 295.9298 296.6786 297.1480 297.1480 297.1480
   297.9675 297.9675 301.5096 301.5889 301.5889 301.5889 301.6134 301.6134
   301.6868 301.6868 301.6868 302.1503 302.1503 302.1503 302.2302 302.2302
   302.2302 302.2477 302.2477 302.2477 302.3281 302.3281 302.3281 302.5237
   302.5237 302.7675 302.7675 302.7675 302.8159 303.2930 303.2930 303.2930
   305.3752 310.3794 310.3794 311.0171 311.0171 311.0171 311.0549 311.7896
   311.7896 311.7896 311.9835 311.9835 311.9835 312.0778 312.0778 312.0778
   312.1700 312.2407 312.2407 312.2407 313.0005 316.4200 316.4200 316.4200
   316.6285 316.6285 316.6421 316.6421 316.6421 316.8608 316.8608 316.8608
   317.0977 317.0977 317.0977 317.1510 317.7206 317.7206 318.1986 318.1986
   318.1986 318.2698 318.3096 318.3096 318.3398 318.3398 318.3398 318.4949
   318.4949 318.4949 318.5245 318.5245 318.5245 318.8527 318.8527 318.8527
   319.1229 319.4915 319.4915 319.4915 319.5206 319.5206 319.5627 319.5627
   319.5627 319.6335 319.6335 319.6335 319.7218 322.9692 322.9692 327.6584
   327.6584 327.6584 328.7174 329.8176 329.8176 331.3520 331.3520 331.3520
   332.2068 332.2068 332.2068 332.4714 332.4714 332.4714 332.4843 332.4843
   332.4843 332.7547 332.7547 332.7547 332.9979 333.3298 333.3298 333.3298
   333.3400 333.3400 334.0883 338.9839 338.9839 338.9839 341.6335 341.7624
   341.7624 341.7624 342.7966 344.7321 344.7321 344.7321 344.9229 344.9229
   345.1365 345.1365 345.1365 345.1405 345.1405 345.1405 345.3750 345.3750
   345.4352 345.4352 345.4352 347.6776 347.6776 347.6776 348.1375 348.1375
   348.1375 348.1915 348.1915 348.1915 348.3129 348.3129 348.3129 348.3204
   348.3204 348.3204 349.4226 349.7854 349.7854 349.9495 349.9495 349.9495
   350.0749 350.0749 350.0863 350.0863 350.0863 350.5972 350.5972 350.5972
   350.6152 350.6152 350.6472 350.6472 350.6484 350.6484 350.6484 350.6551
   350.6551 350.6551 350.6605 350.6605 350.6605 350.7660 350.7660 350.7660
   350.8150 350.8150 350.8150 351.1832 351.1832 351.1832 351.4279 352.4223
   352.4254 352.4254 352.4254 352.4268 352.4281 352.4281 352.4281 354.9798
   354.9954 354.9954 354.9954 355.0036 355.0036 355.1473 355.1473 355.1525
   355.1525 355.1525 355.1606 355.1606 355.1606 355.2066 355.2767 355.2767
   355.2767 355.3300 355.3300 355.3300 355.3736 355.3736 355.3777 355.3777
   355.3777 355.5066 355.5066 355.5066 355.5965 362.0136 362.0136 362.0136
   363.2906 363.2906 363.2906 363.4156 363.5751 370.4610 370.4610 371.4878
   371.4878 371.4878 371.5015 371.5015 371.5015 371.5415 371.5415 371.5790
   371.5790 371.5790 371.5970 371.5970 371.6090 371.6090 371.6090 373.2780
   373.2780 373.2780 373.7764 374.0703 374.0703 374.0703 375.4657 375.4657
   375.4657 375.5123 375.5123 375.5123 375.5724 375.5724 375.5724 379.4179
   379.4179 379.4942 379.4942 379.4942 379.5580 384.2180 384.2180 384.2180
   384.2484 384.2484 384.2566 387.0757 387.0757 387.0757 387.0994 387.0994
   387.0994 387.1226 387.1226 387.1226 387.1292 387.1292 387.1292 388.4450
   388.4450 388.4659 388.4659 388.4659 388.4987 399.0173 399.0173 400.0170
   400.0170 400.0170 400.8641 401.0034 401.0034 401.0034 402.1274 402.4408
   402.4408 402.4408 402.6520 402.6520 402.6520 402.6535 402.6535 402.6535
   402.8595 402.8595 402.8595 402.8599 402.8599 402.8599 402.9719 402.9719
   404.9743 404.9743 406.2664 406.2664 406.2664 406.6579 406.6579 406.6579
   406.6757 406.9825 406.9825 408.5334 408.5334 408.5334 408.5610 408.5610
   408.5610 408.7806 408.9935 410.2717 410.2717 410.2717 410.9695 411.8584
   411.8584 411.8584 412.4534 412.4534 413.4650 413.4650 413.4650 413.5168
   413.5168 413.5168 413.9685 414.7991 414.7991 414.9152 414.9152 414.9152
   415.0777 415.0777 415.1432 415.1432 415.1432 415.2824 415.2824 415.2824
   415.3840 415.3840 415.3840 416.5271 416.5271 416.5271 416.5957 416.7103
   416.7103 416.7103 416.9422 418.9218 418.9218 418.9218 418.9497 418.9497
   419.0189 419.0189 419.0189 419.0786 419.0786 419.0786 419.1237 419.1237
   419.1237 419.1378 419.1378 420.5560 420.5560 420.5560 420.5566 420.5566
   420.5566 420.5702 420.5702 420.5702 420.5721 420.5721 420.5753 421.0082
   421.0082 421.0082 421.0353 421.0353 421.0353 421.0478 421.0478 421.0678
   421.1216 421.1216 421.1216 432.5746 432.5746 433.0622 433.0622 433.0622
   433.3898 433.3898 433.3898 433.4618 433.8924 433.8924 433.8924 433.9774
   433.9774 433.9774 434.0067 434.0067 434.0067 434.6185 434.6995 434.6995
   434.6995 434.9965 434.9965 434.9965 435.0014 435.0014 435.0802 435.0802
   435.0802 436.5494 436.5934 436.5934 436.5934 436.6607 436.6607 436.6607
   436.6628 436.6628 436.8159 436.8159 436.8159 440.0085 440.0085 440.0477
   440.0477 440.0477 440.1222 440.1222 440.1222 440.1377 440.1377 440.1377
   440.1538 440.1928 440.2206 440.2206 440.3048 440.3048 440.3048 440.3379
   440.3379 440.3379 440.4294 440.4294 440.4294 441.0894 441.0894 441.1692
   441.1692 441.1692 441.2880 442.2538 442.2538 442.2538 442.3587 442.3587
   443.8242 443.8242 443.8242 443.9504 443.9504 443.9504 444.0967 444.1177
   444.1177 444.2416 444.2476 444.2476 444.2476 444.2538 444.2538 444.2538
   444.2548 444.2548 444.2548 448.8248 448.8821 448.8821 448.8821 449.2076
   449.2076 449.2076 449.4523 449.4523 449.4583 449.4583 449.4583 450.8033
   450.9217 450.9217 450.9217 451.0042 451.0042 451.0042 451.1055 451.1055
   451.1387 451.1387 451.1387 452.6481 452.6481 452.6481 453.2312 453.2312
   453.2312 453.2656 453.2757 454.4418 454.4418 454.4657 454.4657 454.4657

          k =-0.1250 0.1250-0.1250 (  3855 PWs)   bands (ev):

   -33.9444 -14.9461 -14.9313 -14.9313  -5.7744   5.1409   5.6665   5.6665
     9.4760   9.8007   9.8007  10.1533  10.5417  10.5417  15.7347  17.6555
    17.6555  17.6644  19.3592  19.3592  20.8517  22.6908  22.6908  27.3379
    28.6812  28.6812  29.1678  31.4053  31.4053  32.0593  33.1881  33.1881
    34.4579  36.0775  36.0775  40.1245  40.1245  40.7026  41.2721  41.4430
    42.6478  42.6478  42.8527  44.4685  44.5975  44.5975  45.8097  45.9622
    45.9622  46.4937  46.4937  47.9895  47.9895  48.0554  48.9309  48.9309
    49.0746  50.6378  52.6333  52.7661  52.7661  53.7119  54.5318  54.5318
    56.7587  56.7587  57.4371  64.8679  64.8679  65.0994  67.2752  68.2425
    68.2425  70.2848  70.2848  70.7285  72.0108  72.9283  73.3258  73.3258
    74.2073  74.6373  74.6373  75.1527  75.1527  75.8122  75.8122  76.8205
    76.8205  77.0529  77.5281  78.7466  79.6451  80.0808  80.0808  80.7389
    80.7649  80.7649  81.4344  81.4344  81.8577  81.8577  81.8724  83.0303
    83.0303  83.2545  84.1144  85.3372  85.9835  85.9835  87.6985  87.6985
    87.9785  87.9785  88.4980  88.4980  89.1219  90.1386  90.5253  91.5518
    91.5518  93.1565  93.7555  93.7555  95.6961  95.9060  95.9060  97.4321
    97.6901  97.6901  98.9541  99.5500  99.5500 100.3095 100.4502 100.4502
   101.2954 102.6669 102.7832 102.7832 104.0427 104.3032 104.3032 104.8082
   104.9520 105.3008 105.3008 106.9569 106.9569 107.1593 108.0114 108.0114
   109.1160 109.7641 109.7641 110.8093 111.6864 111.6864 112.3919 113.7501
   113.7501 115.2320 115.6049 115.6049 116.0269 116.0269 116.9722 117.3814
   117.7989 117.7989 119.5879 121.9169 121.9169 122.2370 122.2370 122.7966
   125.1243 127.2564 127.5937 127.5937 128.4998 129.8981 129.8981 131.0928
   131.2789 131.2789 132.1813 132.1813 133.0362 133.3984 133.7210 133.7210
   134.4474 136.0010 136.5500 136.5500 137.1801 138.5562 138.5562 138.6351
   138.8665 138.8665 139.9500 139.9500 140.1314 140.3884 140.3884 140.5951
   140.8362 140.8362 141.4376 141.9006 141.9006 143.5848 143.8085 143.8085
   143.8545 144.0172 144.0172 144.3428 144.9289 144.9289 145.9484 146.4605
   146.4605 146.9404 146.9404 147.4407 147.6306 147.8008 147.8008 148.3998
   148.6905 148.8670 148.8670 149.2127 149.2127 149.5558 150.3070 150.4820
   150.4820 151.9340 151.9340 152.5324 152.5324 152.5558 152.6208 152.7676
   153.0823 153.0823 153.7146 154.7730 154.7730 155.0327 155.4286 155.5044
   155.5044 156.0167 156.0167 156.4301 157.4488 157.4488 157.9808 158.2523
   158.2523 159.2074 159.8919 160.5359 160.5359 162.0416 162.0416 162.7578
   163.2852 163.2852 164.8462 164.8462 166.0975 167.0312 167.6715 167.6715
   167.8867 168.3318 168.3318 169.1678 169.1678 170.2734 171.5864 171.5864
   171.6668 172.8919 172.8919 173.8121 173.8121 174.6442 175.1288 175.1288
   175.3790 175.4803 175.6945 175.6945 176.2011 176.2464 176.2464 176.9064
   177.2735 177.2735 177.3302 178.9099 178.9099 179.0265 180.3724 180.3724
   182.2073 182.9602 183.1370 183.1370 184.0781 184.0781 184.4049 185.1759
   185.2345 185.3098 185.3098 186.5948 186.5948 186.8647 188.8732 189.0388
   189.0388 189.5455 190.7085 190.8713 190.8713 191.1927 191.1927 192.7864
   192.7864 193.1585 193.1585 193.4127 193.8548 194.8789 194.8789 196.1240
   196.5128 196.5128 199.9761 199.9761 200.0009 201.4846 201.9084 201.9084
   202.0620 202.9368 202.9368 204.4804 205.0479 205.0479 205.2100 205.4553
   205.4553 205.4917 205.7050 205.7050 205.7372 205.9781 205.9781 206.4123
   206.4123 206.6205 206.6321 208.3445 208.3445 209.1511 210.8129 211.4670
   211.4670 211.6092 211.9962 211.9962 214.6438 214.7360 214.7360 215.2509
   215.8439 215.8439 216.0464 216.1380 216.1380 216.2232 216.9467 216.9467
   216.9986 217.6615 217.8393 217.8393 218.9583 218.9583 219.1989 219.3683
   219.3683 219.6114 220.0789 220.0789 220.2435 221.4695 221.4695 221.7323
   222.5441 223.5162 223.5162 224.3871 224.3871 225.0782 225.5212 225.5212
   225.7167 225.8376 226.0209 226.0209 226.3682 226.3682 227.0016 227.0016
   227.0538 227.4988 227.4988 227.7033 228.3283 228.6800 228.6800 229.5008
   229.8393 229.8393 230.3825 230.5777 230.5777 230.8427 230.8681 231.9746
   231.9746 233.0509 233.0523 233.0523 233.1793 233.1793 233.2938 234.5967
   234.5967 234.6473 235.1611 235.1611 235.5601 235.9879 235.9879 236.5436
   236.6943 236.7063 236.7063 237.0071 237.5064 237.5064 237.9869 237.9869
   238.6223 238.6223 238.6331 238.7020 239.3028 239.3028 240.2952 240.3709
   240.3709 241.1978 241.3390 241.3390 241.3661 241.9578 241.9578 242.0663
   242.6181 242.6181 243.0737 243.9716 243.9716 244.2836 244.2836 244.5740
   244.6320 244.6320 245.0274 245.1161 245.1719 245.1719 245.7444 245.7783
   246.1191 246.1191 246.2768 246.9578 246.9578 247.7129 247.7129 247.8142
   248.5634 248.5634 248.9739 248.9739 249.9438 250.5399 251.1068 251.1068
   251.4378 251.7351 251.7351 252.3021 252.5874 254.5102 254.5102 254.7517
   255.2159 255.2159 255.6364 256.1576 256.1576 256.2141 259.2512 259.2512
   259.6415 259.9858 259.9858 260.9546 261.9441 261.9441 262.6634 263.2763
   263.2763 264.0431 264.5622 264.5622 265.2735 265.9363 265.9363 269.3660
   269.3660 269.6529 270.3393 270.3393 270.5918 271.1238 271.7247 271.7247
   271.9637 271.9637 272.7932 272.7932 273.1059 273.1284 273.1284 273.5375
   273.7609 277.7067 277.7067 277.8312 278.6865 278.6865 279.3869 279.5469
   279.5469 279.6601 280.0772 280.0772 280.3511 280.4868 280.4868 280.6829
   282.1496 282.1496 282.6097 283.5468 283.5468 284.0240 284.9517 284.9517
   285.2782 286.1090 286.1090 286.5370 286.6640 286.6640 287.0163 287.4905
   287.4905 288.7993 288.9049 288.9049 288.9978 289.2422 289.7592 289.7592
   289.8229 290.1850 290.1850 290.5989 290.8397 290.8397 292.1040 292.4616
   292.4616 292.8271 292.8277 293.2268 293.2268 293.5444 293.5444 293.7609
   293.7885 293.7885 293.8212 295.5597 295.5597 296.1523 296.2514 296.3602
   296.3602 296.4705 296.4705 296.6617 297.0980 297.3666 297.3666 298.4548
   298.5336 298.5336 299.1958 299.1958 299.4151 300.5212 301.0316 301.0316
   301.5909 301.5909 302.8406 303.3661 303.4206 303.4206 304.2838 304.2838
   304.4219 306.4896 306.4896 306.6923 306.6923 306.7042 307.1019 307.1019
   307.1871 307.4927 307.5106 307.5106 308.1802 308.3158 308.3158 308.7438
   309.9948 309.9948 310.8726 310.8759 310.8895 310.8895 311.0533 311.0533
   312.1706 312.2760 312.2760 312.6632 313.1566 313.1566 313.9603 314.7135
   314.7135 314.9478 315.0498 315.0498 315.1078 315.7010 315.7010 315.8540
   316.0836 316.0836 316.7015 316.7015 316.7198 316.8371 316.9783 316.9783
   318.3496 318.4853 318.5005 318.5005 318.7819 318.7819 319.6418 319.8213
   319.8213 320.1415 320.4714 320.4714 320.6074 320.6112 320.6112 321.1018
   321.1272 321.1272 321.2017 321.2017 321.2248 321.5919 324.4092 324.4092
   324.8436 325.2429 326.8135 327.5891 327.5891 328.4127 328.4127 328.5252
   328.8508 328.9714 328.9714 329.4920 329.6827 329.6827 329.9384 329.9384
   330.9324 332.2035 332.6118 332.6118 332.7733 332.8484 332.8484 333.5429
   333.5429 334.3241 334.7606 334.8035 334.8035 334.9710 334.9710 335.5906
   335.5906 335.7286 336.3301 336.3301 336.6399 337.1466 337.1466 337.3449
   337.7044 338.2159 338.2159 338.2306 338.5323 338.5323 339.3304 339.4105
   339.4105 339.9350 339.9737 339.9737 340.5905 340.5905 340.6680 341.0652
   341.2604 341.2604 341.6065 341.6152 341.6152 341.7390 343.8602 343.8602
   343.9443 344.3414 344.3414 344.4455 344.5648 344.5648 345.3742 345.6410
   345.6410 345.6559 346.0304 346.0304 346.0844 346.2217 346.6220 346.6220
   346.6447 347.3355 347.3355 347.6513 347.8022 347.8022 347.9194 348.2440
   348.2440 348.6196 349.7211 349.7211 349.8581 350.2834 350.2834 350.2950
   351.4071 351.4071 351.9850 352.0217 352.0217 352.4095 353.3014 353.3014
   353.3237 354.1645 354.2822 354.2822 354.7328 354.7328 356.1534 356.2937
   356.2937 357.2986 357.2986 357.3668 357.4938 357.4938 357.5267 357.6006
   357.6781 357.6781 357.7746 357.7935 357.7935 357.9196 357.9196 358.1156
   358.2724 358.2724 358.5167 358.8212 360.5911 360.5911 360.9166 360.9166
   360.9445 361.3079 361.5719 361.5719 363.9264 364.0624 364.0624 364.6035
   364.6035 364.7136 364.8133 364.8133 364.8730 365.0006 365.0880 365.0880
   365.0972 365.2981 365.2981 365.3470 365.5839 365.5839 366.8115 366.8115
   367.4599 367.4599 367.5218 367.6161 367.6161 367.9715 368.3574 368.3574
   368.5820 368.7479 370.2829 370.2829 370.4260 370.9520 370.9520 371.1001
   373.4638 373.4638 373.4841 375.3704 375.3704 375.4061 376.0061 376.0061
   376.0401 379.1511 379.1511 379.2307 379.4560 379.4560 379.4666 379.6455
   379.6455 379.6995 380.6226 381.9462 381.9462 381.9542 383.2605 383.2605
   383.7798 384.5413 385.4780 385.4780 386.6933 386.6941 386.6941 388.7350
   388.7350 388.7590 389.9746 389.9746 390.2489 391.0241 391.0241 392.4232
   392.5816 392.5816 392.6079 392.7295 392.7295 393.6662 393.6662 394.5074
   394.5528 394.5528 394.5744 394.8700 396.3050 396.3050 397.5644 397.7076
   397.7076 398.3525 398.6652 398.6652 398.7290 398.7290 398.7509 400.5711
   400.5711 400.7034 401.1090 401.1090 401.1541 401.2958 401.8696 401.8696
   402.2657 402.2657 402.4818 402.5495 402.5495 403.2132 404.6849 404.6849
   405.0605 405.7950 405.8704 405.8704 406.2857 406.3023 406.3023 406.9356
   407.0319 407.0319 407.1732 407.1732 407.2946 407.4154 407.4154 407.4360
   409.5250 409.5250 410.5932 410.5932 410.6694 411.4646 411.4891 411.4891
   411.6537 411.7258 411.9157 411.9157 412.5118 412.7072 412.7072 413.1495
   413.1495 413.3163 413.9641 413.9641 413.9784 414.8710 414.8710 415.6837
   417.3837 417.3837 417.9051 418.2716 419.0668 419.0668 419.0827 419.6427
   419.6427 419.9607 419.9607 420.3901 420.4518 420.4537 420.4537 420.8489
   420.8489 420.8510 421.0301 421.0301 421.3797 421.3797 421.4500 421.5419
   421.5886 421.5886 421.5955 421.9050 421.9086 421.9086 422.4500 422.4500
   422.9835 423.3563 423.4814 423.5651 423.5651 423.7283 423.7631 423.7631
   423.7868 423.7868 424.1668 424.1668 424.3852 425.1619 425.1619 425.2018
   426.3772 426.4706 426.4706 426.9162 427.1324 427.1324 427.4771 427.5270
   427.5270 427.5947 427.5947 427.6465 428.1195 428.5739 428.7370 428.7370
   429.3711 429.3711 429.5488 430.9803 430.9803 431.0109 431.4325 431.4325
   432.4610 432.7584 432.7584 432.8762 432.9316 432.9316 432.9544 433.0934
   433.0934 433.1544 434.2017 435.4459 435.4459 435.7743 436.0598 436.0780
   436.0780 436.7914 436.7914 436.9353 437.2433 437.2433 437.2519 437.2519
   437.2808 437.8934 437.8934 437.9686 438.8478 438.8478 438.9584 439.3266
   439.3266 439.3618 439.3705 439.3705 439.7611 439.9975 439.9975 440.0408
   440.0408 440.0441 440.2114 441.0088 441.0414 441.0414 441.0788 441.1181
   441.1181 442.4773 442.4773 442.5882 442.9454 442.9454 443.0469 443.6320
   443.6620 443.6620 444.6605 444.6605 444.7064 444.8759 444.8759 445.0471
   445.0836 445.0836 445.2284 445.7521 445.7521 445.8860 446.3397 446.3397
   446.3468 446.3468 446.3489 446.5937 446.8951 446.8951 447.0633 448.6218
   448.6218 448.6599 448.7935 448.7935 448.8549 448.8549 448.8964 449.0759
   449.1954 449.2069 449.2069 450.6838 450.6838 450.7015 450.8378 450.8378
   450.8520 452.1835 452.2175 452.2175 452.6382 453.1391 453.1391 453.3200
   453.3200 453.4250 453.7911 453.7911 453.8319 454.0195 454.0195 454.0564

          k =-0.2500 0.2500-0.2500 (  3867 PWs)   bands (ev):

   -33.9422 -14.9840 -14.9339 -14.9339  -5.5482   3.9218   5.2164   5.2164
     9.6001  10.3066  10.3066  11.5129  11.5129  11.5491  15.2283  16.3012
    16.3012  18.2307  19.0656  19.0656  21.9632  24.7505  24.7505  25.1738
    25.9294  25.9294  30.4487  32.1308  32.1308  32.6489  33.0747  33.0747
    35.0162  36.0564  36.6776  36.6776  38.9534  39.6842  39.6842  41.7000
    41.9244  41.9244  42.7712  42.7712  43.3496  44.4919  45.1643  45.1643
    45.5318  46.5683  46.5683  48.0101  51.2380  51.2380  51.5199  51.5199
    51.7077  52.7052  53.7043  54.3111  54.3111  56.0069  57.6652  57.6652
    57.7961  57.7961  60.5821  62.2016  62.2016  64.3690  64.3690  64.7521
    65.5677  68.3909  68.4477  68.4477  69.1424  69.1424  69.7394  70.6140
    71.7260  71.7260  72.4947  74.3177  74.3177  75.2164  75.2164  76.3826
    76.5784  76.5784  76.9922  78.6472  79.4327  80.3691  80.4460  80.4460
    82.0382  82.0382  82.3531  82.3531  82.8299  83.2858  83.2858  84.0921
    84.0921  84.2924  85.4801  86.2484  86.2484  87.3041  87.3564  87.3564
    89.0937  89.0937  89.8144  90.7383  92.1775  92.1844  92.1844  93.1926
    93.9828  93.9828  95.0658  95.0658  95.6839  95.6839  96.0390  96.7223
    97.0373  97.3207  97.3207  98.1340  98.1340  98.7728  99.7765  99.7765
   100.1156 100.9009 102.3553 102.3553 103.1423 103.1423 104.0774 104.4857
   105.9416 105.9416 107.0246 107.9481 107.9481 108.8877 108.9230 109.0069
   109.0069 109.6174 109.6174 110.6169 112.4950 112.4950 114.4832 115.1304
   115.1304 116.7312 117.3816 117.3816 118.4598 118.4598 120.2539 120.2539
   120.8760 120.9185 121.1007 121.9785 121.9785 123.8995 124.7348 124.7348
   125.7969 125.7969 126.1248 126.3499 128.0420 128.5548 128.5548 129.0310
   129.0499 129.0499 129.7013 130.3718 130.3718 130.5800 130.6905 130.6905
   131.5125 132.0307 132.0307 132.1720 132.7629 132.7629 133.3830 134.2328
   134.2328 134.7311 134.7311 135.1657 135.5116 138.5433 138.5433 140.6901
   140.8674 140.8674 142.1349 143.5178 143.5178 143.5698 144.2260 144.2260
   144.7623 145.0592 145.1819 145.1819 146.0532 146.0532 146.2379 146.3111
   146.3111 146.3655 146.7806 146.7877 146.7877 146.8828 146.8828 147.0704
   147.9465 147.9465 148.8663 149.1503 149.1503 150.3998 152.4676 152.4676
   152.6722 152.8375 152.8375 153.1019 153.6939 154.3059 154.3059 154.5163
   154.7389 154.7389 155.1914 155.3922 155.3922 156.0372 157.2242 157.2242
   158.0646 158.0646 158.4095 158.9382 158.9382 159.3150 160.2922 160.5322
   160.5322 162.1244 162.8036 162.8036 163.0884 163.0884 163.1106 163.4575
   164.9526 164.9526 165.8568 166.5287 166.5287 167.8137 167.8137 168.8708
   168.8708 168.9556 169.9021 170.2707 170.2707 170.3006 171.0994 171.3205
   171.3205 171.3221 171.6837 171.6837 172.4032 172.6754 172.6754 173.4134
   173.5930 173.5930 175.5896 175.5896 175.9803 176.9531 177.3397 177.3397
   178.1078 178.6972 178.8847 178.8847 179.1710 179.1710 182.0363 182.0363
   182.4742 182.8526 183.6627 183.6627 183.6862 184.4988 184.4988 186.1963
   186.7180 186.7180 187.3186 188.0032 188.0032 189.0922 189.9098 189.9098
   190.6525 191.0735 191.3068 191.3068 192.8081 193.2656 193.2656 194.4227
   194.4227 195.5452 195.5557 195.5557 196.1315 196.3098 196.3098 196.3159
   196.5722 196.7698 196.7698 197.1085 197.3266 197.3266 197.4384 198.7917
   198.7917 200.3189 201.8690 201.8690 203.1021 203.6657 203.6657 203.7009
   203.9668 203.9668 204.1557 204.4445 204.4445 205.5011 205.5011 205.5735
   205.8375 205.8375 206.2961 206.6443 206.6443 207.4181 207.4181 208.0616
   208.4177 208.7167 208.7167 209.1326 211.4476 211.4476 212.9842 212.9955
   212.9955 213.3109 214.7232 215.0438 215.0438 216.1177 216.1177 216.6844
   217.0438 217.0438 217.1541 217.6476 217.6476 218.2672 218.2672 218.5104
   218.6926 219.0559 219.0559 219.5554 219.5940 219.9068 219.9068 221.1029
   221.5012 221.5012 221.7325 222.6156 222.7858 222.7858 225.2884 225.2884
   225.6004 225.9161 225.9161 226.3101 226.3101 226.5729 226.8576 226.8576
   227.0387 227.0387 227.1202 227.4729 228.2050 228.2050 228.2411 228.5906
   228.5906 229.6972 229.7234 229.7385 229.7385 230.3312 231.0132 231.0132
   231.3915 231.5251 231.5251 232.8916 232.9841 232.9841 233.5290 233.7196
   233.7196 233.8980 234.9531 234.9531 235.0114 235.4622 235.4622 235.9347
   236.0964 236.0964 237.2230 237.2230 237.3065 237.6099 238.1428 238.1428
   238.2730 238.2730 238.4377 238.5942 238.5942 238.7621 240.3221 240.6800
   240.6800 241.4679 241.9197 241.9197 242.3772 242.5133 242.5254 242.5254
   242.8810 242.8810 243.0088 244.4982 244.4982 244.6345 244.6352 245.0745
   245.0745 246.2544 246.2544 248.0806 248.9949 250.1245 250.1245 250.1594
   250.4476 251.3214 251.3214 252.3134 252.5120 252.5120 253.7425 253.9777
   253.9777 254.1236 254.6945 254.6945 255.3721 255.4438 255.4438 256.8687
   257.0482 257.0482 257.4353 257.4353 258.7467 258.7467 259.5392 259.7723
   260.0031 260.0031 260.4221 260.5320 260.5320 261.2797 261.2797 261.9682
   261.9682 262.3162 262.3402 262.3402 262.3964 263.6926 263.7639 263.7639
   263.9087 264.1522 264.1522 264.1792 264.5463 264.5463 265.6672 265.6672
   265.8672 266.1036 266.1036 266.2790 267.8545 268.2967 268.9618 268.9618
   271.1301 271.1301 271.3184 271.6875 271.6875 272.6275 272.6873 272.8058
   272.8058 273.2453 274.1311 274.1311 274.2296 274.2296 274.4109 274.5113
   274.6755 275.6348 275.6348 277.0441 277.0441 277.5513 277.5513 277.9315
   277.9594 277.9594 278.4687 280.6351 280.7015 280.7015 281.0979 281.0979
   281.9584 282.8875 283.4470 283.4470 285.0980 285.6170 285.6170 285.8307
   285.8307 285.9815 286.1097 286.3776 286.3776 286.9765 288.8055 289.6938
   289.6938 291.2350 291.2350 291.8455 292.2278 292.2278 293.3082 293.3294
   293.3845 293.3845 293.5297 293.5297 293.7458 293.8127 293.8127 294.2300
   294.2300 294.9110 295.3606 295.3606 295.4323 296.3039 296.5211 296.5211
   296.7136 297.1835 297.1897 297.1897 297.3286 297.3286 297.5455 297.7302
   297.7302 297.7715 298.0163 298.2113 298.2113 299.8791 299.8791 300.0623
   300.0623 300.0948 301.2977 301.2977 301.6816 302.1432 303.3177 303.5054
   303.5054 305.9089 305.9089 306.2451 306.3971 306.3971 306.9272 306.9758
   306.9758 307.1796 307.7748 308.0296 308.3034 308.3034 308.4087 308.4087
   309.7822 311.0928 311.6123 311.6123 311.8446 313.0891 313.0891 313.4206
   313.4206 313.7281 313.7750 314.3235 314.3235 314.5699 314.6546 314.6546
   314.8636 314.8636 314.9875 315.1385 315.1385 315.4052 315.5000 315.5000
   315.5865 316.3712 316.3712 318.9916 318.9916 319.3125 319.5022 319.5022
   319.5567 319.5567 319.8977 320.1001 321.0182 321.0182 321.2962 321.4800
   321.4800 321.9591 321.9591 321.9627 322.1460 322.2938 322.2938 322.7765
   322.7765 322.7787 323.6458 323.8735 323.8735 324.0157 324.3343 324.3343
   324.8630 324.9924 324.9924 325.1777 325.1777 325.4116 325.5554 325.7502
   325.7502 326.1324 326.4389 326.4389 326.5882 327.5259 327.7943 327.7943
   328.1619 328.1619 328.2967 328.9564 328.9564 329.1498 329.2965 329.5797
   329.5797 330.2683 330.9863 330.9863 331.1640 331.1640 331.4322 331.7824
   331.8648 331.8648 332.1552 336.7942 336.7942 337.3295 337.3295 337.4018
   337.6805 337.7192 337.7402 337.7402 338.3472 338.3472 338.3696 338.3696
   338.5420 340.0861 340.0861 340.3113 340.3278 340.3278 340.6682 341.5466
   341.5466 341.5965 341.6692 341.6692 341.9027 341.9186 342.0825 342.0825
   342.2278 343.2875 343.2875 343.5089 343.5089 344.6834 345.6796 345.6796
   345.9350 346.0429 346.0429 346.1633 346.5220 346.5220 346.5891 346.7885
   347.0429 347.0429 348.3823 348.4457 348.4457 348.5769 348.8889 348.8889
   349.1934 349.5863 349.5863 349.6246 349.6991 349.6991 350.3963 351.5956
   351.5956 351.6082 352.3894 352.3894 352.6194 352.7119 352.7119 352.9827
   355.4123 355.4123 355.4251 357.3578 357.3578 358.0069 358.0069 358.1963
   358.2829 358.6283 358.6283 359.1897 359.4522 359.4522 359.6809 360.0028
   360.0028 360.1507 360.3954 360.3954 360.4218 360.8128 360.8398 360.8398
   361.6183 361.6183 361.7842 363.7260 363.7260 363.7940 363.9458 363.9458
   363.9822 364.8425 364.8425 365.0740 365.5148 365.5148 365.6893 365.7993
   365.7993 365.9138 366.2280 366.2280 366.6379 367.1494 367.3897 367.3897
   368.0458 368.0458 368.1164 368.2236 369.3902 369.3902 370.8297 370.8297
   370.9076 371.2178 372.8479 372.8479 373.4909 373.5777 373.5777 373.9262
   374.0406 375.7826 375.7826 375.9617 375.9617 375.9840 376.0054 376.0349
   376.0349 376.3032 376.6196 376.6196 376.6542 376.7666 376.7666 378.0017
   378.0017 378.2919 379.7263 379.9474 379.9474 380.8839 380.8839 380.9203
   381.6909 381.6909 382.2581 382.2581 382.9696 383.3119 383.3119 384.2233
   384.2233 385.1208 385.2681 385.7185 385.7185 385.7669 385.7669 385.8797
   386.5022 386.5697 386.7445 386.7445 386.8251 386.8251 387.2348 387.7760
   387.7760 387.8906 387.8906 387.9345 388.4241 390.4876 390.4876 391.1121
   391.2108 391.2108 391.3867 392.0198 392.1641 392.1641 394.5319 394.5319
   395.2646 396.6942 396.6942 397.1245 397.2951 398.2331 398.2331 398.4569
   398.9997 398.9997 399.1113 399.9346 399.9346 400.0829 401.5432 402.0961
   402.0961 402.3030 402.6849 402.6849 402.7653 402.9136 402.9136 403.0450
   403.0450 403.5674 404.1056 404.1056 404.1909 404.2964 404.2964 404.3276
   406.3658 406.3658 406.5926 406.5926 406.6744 406.8225 406.9331 406.9331
   407.0684 407.0684 407.2436 408.7219 408.7219 409.5749 409.5749 409.6303
   410.2017 410.3352 410.4715 410.4715 410.9142 410.9142 411.0554 411.2581
   411.2581 411.4726 411.4908 411.9165 411.9165 411.9541 411.9951 411.9951
   412.3313 412.3313 412.6458 412.6458 412.6784 412.8308 414.6415 414.6415
   414.8598 414.9774 414.9774 415.0294 415.4037 415.4871 415.4871 415.6537
   416.6008 416.6008 416.8962 416.8962 416.9136 417.0263 418.7039 418.7039
   418.7706 420.0462 420.0462 420.1621 420.1621 420.3593 420.8470 421.4264
   421.4264 421.5442 422.1504 422.1504 422.1669 422.2365 422.2365 422.2916
   423.0447 423.0836 423.0836 423.5828 423.5828 423.7319 423.8834 423.8834
   423.9527 425.0311 425.0311 425.0900 426.0403 426.0403 426.1633 426.9937
   426.9937 427.0427 428.6232 428.6232 428.6577 428.9205 428.9205 429.4377
   429.4377 429.6220 429.8707 429.8707 429.9798 430.1598 430.1598 430.1705
   430.5788 432.8773 432.8773 433.0375 434.9173 434.9296 434.9296 435.0648
   435.0648 435.0680 435.2187 435.5410 435.5410 435.6408 435.6440 435.6440
   435.9379 435.9379 436.1544 436.5480 436.7863 436.7863 436.8571 436.8725
   436.8725 437.5065 437.6424 437.6424 438.2369 438.2369 438.3192 438.3192
   438.3304 438.3430 439.0553 439.0553 439.0752 439.7824 439.7824 439.8352
   441.1859 441.1859 441.3067 442.8432 442.8432 442.8639 443.2029 443.2029
   443.3840 443.6836 444.1689 444.1689 444.3564 444.4415 444.4415 444.4511
   444.7932 445.7552 445.7552 446.7280 447.2495 447.2495 447.3074 447.3826
   447.3826 447.3886 447.5845 447.5845 447.6792 447.6792 447.7118 447.7826
   448.0199 448.0199 448.5688 448.5688 449.8429 451.2640 451.2640 451.3953
   451.4902 451.4902 451.5464 451.5464 451.6614 451.7283 452.0432 452.0580
   452.0580 452.8277 452.8277 453.0757 453.2997 453.2997 453.4860 453.4860
   453.5570 454.5564 454.5564 454.7824 455.3136 455.7092 455.7092 456.0111
   456.0424 456.0424 456.8617 456.8617 457.0734 457.2893 457.2893 457.3268

          k =-0.3750 0.3750-0.3750 (  3864 PWs)   bands (ev):

   -33.9400 -15.0212 -14.9365 -14.9365  -5.3033   3.0033   4.8597   4.8597
     9.9713  10.9655  10.9655  11.8133  12.5897  12.5897  14.8512  14.8512
    15.5877  19.1197  19.1197  19.1719  22.3453  23.8705  23.8705  23.9961
    26.9152  26.9152  31.2677  32.7064  32.7064  33.0289  33.0821  33.0821
    33.6261  33.8657  33.8657  35.5931  36.8132  40.0733  40.0733  40.2766
    40.9448  40.9448  43.4924  43.7548  44.4311  44.4311  44.8662  44.8662
    46.3444  47.5638  47.5638  49.0617  52.9508  52.9606  52.9606  54.6756
    54.6756  55.2469  55.2469  55.3683  55.7813  57.2104  57.2104  58.4961
    58.4961  58.7889  60.4095  63.2962  63.3285  63.3285  63.6203  63.6203
    64.3946  64.3946  64.9509  65.1881  65.2873  65.2873  68.5725  69.5632
    69.5632  72.3349  72.7668  73.2418  74.4318  74.4318  74.9936  75.1559
    75.1559  76.0494  76.0494  77.8094  77.8094  78.6756  79.3109  80.1206
    80.1206  81.7545  82.6765  82.6875  82.6875  83.8802  83.8802  84.3755
    85.3623  85.3623  86.3233  87.3339  87.3339  88.2654  88.6009  88.9703
    88.9703  89.3052  90.1445  90.5425  90.5425  92.8826  92.8826  93.6757
    93.6757  95.2058  95.2058  95.5279  95.8454  96.3459  98.2847  98.2847
    98.5338  99.5615  99.5615  99.6356 100.2225 100.4151 100.4151 101.5274
   101.5274 102.4764 102.9667 102.9667 103.7825 103.8411 103.8411 104.6809
   104.7759 104.7759 105.0590 105.0590 105.8949 108.7867 108.7867 110.9283
   110.9283 111.0557 111.7447 114.2049 114.3283 114.5129 114.5129 114.7538
   114.7538 116.8394 116.8394 116.8952 118.4704 118.4704 118.8542 118.8725
   121.1438 121.1438 121.8301 121.8301 121.8404 123.9997 125.0823 125.0823
   125.5395 125.6826 126.1489 126.1489 126.3219 126.4124 126.4124 126.8795
   126.8795 127.0414 128.0143 128.0143 129.0945 129.3476 129.3476 129.4750
   130.6406 130.6406 130.6499 131.4815 131.4815 131.7610 132.8000 134.6381
   134.6381 136.2709 136.3560 136.3560 137.0490 137.0490 138.6092 139.4254
   139.4254 140.0642 140.6830 140.8098 140.8098 140.8274 141.8472 141.9762
   141.9762 142.6483 142.6483 142.8911 144.3921 145.3598 145.5810 145.5810
   145.9257 145.9257 146.3805 146.3805 146.3861 146.5394 146.5394 147.3507
   147.8341 147.8341 148.5260 149.3775 149.3775 152.2247 152.5058 152.5058
   153.1479 153.7097 154.1545 154.1545 154.2917 154.2917 154.3599 155.4433
   155.4433 155.7451 155.7451 156.6695 156.7142 156.7142 157.2124 158.1009
   158.5736 158.7388 158.7388 159.0736 159.0736 159.5808 161.0961 161.8391
   161.8391 162.5195 163.9287 163.9287 164.8549 164.8549 165.4756 165.6541
   165.6541 166.3289 166.5875 167.2116 167.2116 167.9220 168.6628 168.6628
   168.7652 169.2975 169.2975 169.8756 172.0203 172.0203 172.3162 173.1435
   174.5852 174.5852 174.7214 174.7214 175.5152 176.2366 176.7219 176.7219
   177.1041 177.1041 177.7605 177.7776 177.9571 177.9571 178.0570 178.0570
   178.9888 179.1209 179.1209 179.1990 179.2624 180.0427 180.0427 183.0817
   183.0817 183.1310 184.7356 184.7356 185.3703 185.6080 185.6080 186.3461
   186.6297 186.6297 186.8931 187.4621 187.4621 188.6133 189.4498 189.4498
   189.8700 190.4131 190.4131 190.9196 191.9158 191.9158 192.1010 192.2661
   192.2661 192.4280 192.5031 192.7812 192.7812 194.0465 194.5983 194.5983
   195.3704 195.9759 195.9759 197.2323 198.2734 198.2734 199.7884 199.7884
   200.1310 200.1310 200.3333 200.6859 200.6859 201.3013 202.3430 202.8509
   203.2058 203.2058 203.4377 203.4377 203.7699 204.3821 204.5540 204.5540
   204.8257 204.9877 204.9877 206.1272 206.1272 207.4112 207.5085 207.5085
   207.7489 208.2185 209.0243 209.0243 209.4051 209.4051 210.6671 211.1865
   211.6559 211.6559 211.9019 212.0559 212.0559 212.7691 212.7691 212.8040
   214.5610 215.5970 215.5970 216.2040 216.7996 216.7996 217.2221 217.2221
   217.8802 218.4733 218.4733 218.6458 218.9880 218.9880 219.3022 219.3022
   219.4475 220.3259 220.3259 220.8615 221.2705 221.5966 221.5966 221.9420
   222.8016 222.8016 223.4982 223.7351 223.7351 223.8149 224.0262 224.0262
   224.1992 226.2668 226.2668 226.5456 227.3714 227.3714 228.7994 228.7994
   229.0386 229.4284 230.5986 230.5986 232.4357 232.8157 232.8157 233.1159
   233.3669 233.7880 233.7880 234.3743 234.9473 234.9473 235.4031 235.5120
   235.5120 235.7232 236.9471 237.0198 237.0198 237.1393 237.4224 237.4224
   237.6903 237.6903 237.8115 238.2937 238.2937 238.3852 238.4279 238.4279
   238.6175 239.8331 240.1667 240.1667 240.3754 240.5100 240.5100 241.9561
   241.9561 242.0601 242.5561 243.1261 243.1261 244.8216 245.0763 245.0763
   246.7073 246.7073 247.5027 247.5954 247.6219 247.6219 248.5193 248.5193
   248.9303 249.7750 249.7750 250.4321 250.4321 250.6499 250.7255 250.7255
   250.7547 251.3827 251.3827 252.2626 252.6834 252.6834 253.3407 253.4200
   255.6196 256.0549 256.0549 256.6961 256.6961 257.2161 257.8472 257.8472
   258.5095 258.5095 258.5393 259.2470 259.2470 259.3375 259.5544 259.9619
   259.9619 259.9878 260.3182 260.3881 260.3881 261.5070 261.5070 263.0510
   263.4787 263.4787 263.5087 263.6528 263.8360 263.8360 264.9181 265.2048
   265.2048 265.6233 265.6233 265.7941 266.5296 266.5296 266.6090 266.8043
   266.8315 266.8315 267.1280 268.0999 268.7562 268.7562 269.1189 269.2687
   269.3677 269.3677 270.3540 270.3540 271.5900 271.5900 271.6790 273.5166
   273.5166 273.9686 274.4421 274.4421 274.4538 275.2033 275.2033 275.4022
   276.1396 276.1396 276.3090 276.3090 277.6351 277.9366 277.9366 277.9962
   278.3383 278.4695 278.4695 278.6672 278.6672 278.8704 279.1315 279.6965
   280.2193 280.2193 280.4807 280.4807 280.9665 282.4531 282.9168 282.9168
   283.1020 283.1020 284.2446 284.2446 284.3055 285.0177 285.5890 285.7758
   285.7758 286.5436 286.5436 286.7299 287.2453 287.5934 287.5934 288.3037
   291.5201 291.5201 291.7005 291.7005 291.8493 292.9873 292.9873 293.4732
   294.4004 294.4004 294.6955 294.8672 294.8672 295.4222 295.5205 295.5205
   296.2872 296.3011 296.5410 296.5410 297.2520 297.2520 298.6102 299.2097
   299.2097 300.4509 300.6238 300.6238 300.9158 300.9158 301.1301 301.3451
   301.8336 301.8336 302.2708 302.9924 302.9924 303.1416 303.4525 303.6324
   303.6324 303.8460 303.8460 304.5595 304.6514 304.6514 305.0247 305.0417
   305.0417 306.3403 306.5251 307.0953 307.0953 307.3717 308.3242 308.3242
   311.6230 311.9866 311.9866 312.6832 312.6832 312.8426 312.8714 312.8714
   313.5110 313.6313 313.6313 313.9951 313.9951 314.0686 314.0879 314.3116
   314.3116 314.4027 314.5783 315.4362 315.4362 316.0347 316.2338 316.2338
   316.4219 316.7570 316.7570 317.6388 317.6388 317.7553 317.9114 317.9114
   318.0617 318.1614 319.2428 319.2428 319.6245 319.6865 319.6865 319.6903
   319.9587 319.9587 319.9727 320.9345 320.9345 321.2046 321.5516 322.2560
   322.2560 322.4284 322.4284 322.4953 322.5044 322.5044 322.8630 322.8630
   322.8960 323.1809 323.1809 323.3240 323.4834 326.1990 326.1990 326.2108
   326.4684 326.4684 326.6355 326.8208 326.8208 327.4485 327.5515 327.5515
   327.7513 329.4217 329.4217 329.5871 329.5871 329.5968 329.8807 329.8807
   330.0544 330.0905 330.4130 330.4130 330.4933 331.9408 331.9408 333.2441
   333.2441 333.3139 333.8245 333.8245 334.0640 335.2329 335.2329 335.6877
   335.8943 335.8943 336.1486 336.1525 336.1525 336.4979 336.4979 336.6185
   336.7189 339.7857 339.7857 340.4249 341.1136 341.1136 341.1860 341.8004
   341.8004 341.9234 342.5009 342.5009 343.1179 343.7963 343.7963 344.4593
   344.8231 344.8231 345.1824 345.6654 345.6654 346.1490 347.2015 347.2015
   347.3766 348.6732 348.6732 349.0963 349.4720 349.4720 349.5086 349.8254
   349.8254 350.0998 350.2389 350.2389 350.4807 350.4807 350.4865 350.7207
   350.7207 350.8244 350.8730 352.1973 352.3838 352.3838 352.7221 353.2847
   353.2847 354.2894 354.4223 354.4223 354.8598 355.1899 355.1899 355.5403
   355.5403 355.8073 356.4935 357.4749 357.4749 357.5910 357.6480 357.6480
   358.1903 359.0143 359.0143 359.1442 360.2376 360.2376 360.3469 360.4944
   360.4944 360.5771 360.8592 360.8592 360.9972 362.2013 362.2013 362.5285
   363.6267 363.8960 363.9518 363.9518 364.1008 364.1023 364.1023 364.6930
   364.6930 365.2073 365.5225 365.6240 365.6240 365.6715 365.6715 367.1855
   367.1855 368.3899 368.3899 368.4169 368.7682 370.2757 370.2757 370.4431
   370.5469 370.5469 370.9225 370.9225 371.1889 371.6671 371.9283 371.9283
   371.9338 373.6962 373.7986 373.7986 373.9665 373.9665 374.0521 374.7598
   374.7598 376.2704 376.2704 376.6088 377.3004 377.4342 377.4342 377.4684
   377.5749 377.7023 377.7023 378.1090 378.2022 378.2022 378.3810 378.3810
   378.5082 378.9345 378.9345 379.3635 379.4327 379.4327 379.6301 379.6542
   379.7007 379.7007 381.3224 381.3224 381.4061 386.0276 386.0276 386.1018
   386.2148 386.5298 386.5298 387.2945 387.4055 387.4055 387.4653 387.4653
   387.4885 387.7068 387.7068 387.7751 387.8200 387.8200 387.9057 388.2479
   388.2479 388.6163 390.8277 391.1615 391.1615 391.3779 391.4596 391.4596
   391.7110 393.4902 393.4902 393.8555 394.6428 394.6428 395.1618 396.1921
   396.3400 396.3400 396.8622 396.8622 397.1611 397.1611 397.2501 397.5652
   397.7218 397.7218 397.8600 398.0767 398.0767 398.2377 398.2377 398.2654
   398.4018 398.6897 398.6897 399.3032 399.7540 400.1974 400.1974 400.2754
   400.2754 400.5600 400.5600 401.0734 401.4402 401.4402 401.6306 401.6462
   401.6462 401.7228 402.1787 403.0914 403.1477 403.1477 403.5789 403.5789
   403.7416 403.7416 403.7469 404.3871 406.2738 406.2738 406.5246 406.6837
   406.8250 406.8250 407.2833 407.2903 407.2903 407.6559 407.6559 408.0909
   408.2191 408.2191 408.3395 408.5168 408.7755 408.7755 409.1643 409.1643
   409.7058 410.6703 410.6703 411.4656 411.8944 412.0390 412.0390 412.1115
   412.1115 412.1303 412.6861 412.6861 412.7845 413.5791 413.5791 413.6455
   414.2503 414.2503 414.2872 414.6531 414.6531 414.7664 415.5799 416.4134
   416.4134 416.5831 417.4921 417.4921 417.5566 421.8412 421.8412 422.0261
   422.7424 422.7424 422.7746 424.3559 424.3559 424.5216 424.5216 424.8659
   425.0226 425.0226 425.1588 425.1588 425.2377 425.3583 425.3836 425.4683
   425.4683 425.6145 425.6145 425.6457 425.8591 425.9128 425.9128 425.9325
   427.4413 427.4413 427.6300 427.6398 427.6398 427.7103 427.7665 427.7665
   427.7827 428.5626 428.5626 429.2129 429.4253 429.4253 429.4774 429.9401
   429.9401 430.3155 430.3867 430.3867 430.5239 430.6558 430.6558 431.9339
   431.9339 432.2191 432.2219 432.2219 432.4316 434.4186 434.4186 434.5944
   434.9381 434.9381 435.1838 435.4259 435.4259 436.9243 436.9243 437.0776
   437.2469 437.2660 437.2660 437.6823 439.1806 439.1806 439.2341 439.3756
   439.3756 439.4344 439.8071 439.8071 440.6253 440.8357 440.8357 440.8673
   440.9974 440.9974 441.6011 441.6011 441.6352 441.7782 441.8787 441.9915
   441.9915 442.2042 442.2042 442.3701 442.3708 442.3708 442.3844 443.0217
   443.0217 443.1700 444.5652 444.6075 444.6075 444.7881 444.7881 444.8121
   446.5633 446.5633 446.9515 446.9739 446.9739 447.0329 449.8561 449.8561
   450.0616 450.3519 450.3519 450.4852 451.5791 452.1484 452.1484 452.4336
   452.6432 452.6432 452.7699 452.7699 452.7757 452.8176 454.6884 454.6884
   454.8038 455.3829 455.5248 455.5248 455.6916 455.6916 455.7993 457.3579
   457.3579 457.6290 457.7706 457.7706 457.9742 458.7072 458.7072 459.3307
   459.6541 459.6817 459.6817 459.8654 459.8654 460.0193 461.3550 461.3550

          k = 0.5000-0.5000 0.5000 (  3852 PWs)   bands (ev):

   -33.9391 -15.0364 -14.9376 -14.9376  -5.1951   2.6637   4.7296   4.7296
    10.3833  11.3199  11.3474  11.3474  13.3087  13.3087  13.9327  13.9327
    16.4596  19.1934  19.1934  19.6611  20.6953  23.0501  23.0501  26.5161
    28.0522  28.3808  28.3808  31.5007  31.5007  33.2228  33.2228  33.5785
    33.5785  33.7950  34.7769  35.2729  37.0315  38.4667  39.9810  39.9810
    40.0819  40.0819  43.0299  43.6548  44.1905  44.1905  46.1039  46.7252
    46.7252  49.2537  49.2537  51.4316  51.4316  52.1787  52.6139  54.7022
    55.7177  55.7177  55.9886  55.9886  58.3754  58.3754  58.8687  59.0358
    59.0358  59.6810  59.6810  60.1339  60.3032  61.1526  61.7503  61.7503
    61.8490  65.5660  66.6064  66.6064  67.3956  67.3956  69.5381  69.6602
    69.6602  69.8389  69.8389  72.2126  73.0289  74.3361  74.3361  74.3956
    74.9904  75.9067  75.9067  76.4540  77.1485  77.1485  79.9364  79.9364
    80.0241  80.2375  81.7277  82.7604  82.7604  85.3884  85.4397  85.4397
    86.4380  86.4655  86.5200  86.5200  87.2642  87.2642  88.4392  88.4392
    88.7860  90.3483  90.3483  91.8676  92.0097  92.0996  92.1110  92.1110
    93.5088  94.8899  94.8899  95.5207  97.3054  97.3054  97.7403  97.7403
    99.6623  99.6623  99.9358 100.1803 100.1803 101.6838 102.3745 102.3745
   102.4035 102.4495 102.4495 102.5457 104.2831 104.4417 104.4417 106.1688
   106.1688 106.1989 108.7329 109.3062 109.3062 109.4045 109.4045 109.8876
   111.1768 111.2185 111.6286 111.6286 111.7885 111.7885 113.5123 113.5123
   115.3326 115.3326 116.1109 116.4205 117.8202 117.8202 119.0415 119.7197
   119.9106 119.9106 120.1261 120.1992 120.1992 121.3185 121.3185 121.6585
   122.5822 124.3495 124.3495 125.9614 126.7334 127.0786 127.0786 128.2622
   130.1107 130.3544 130.3544 130.6987 130.6987 131.1173 131.1173 131.3970
   131.5444 132.8395 132.8395 133.0949 133.5036 133.5036 133.9987 133.9987
   134.1940 134.2774 134.5473 134.8530 134.8530 136.4086 136.5738 136.5738
   136.6799 136.6799 139.5206 140.1611 140.1611 141.4034 141.4034 142.0151
   142.2304 142.2304 142.4848 143.9847 144.2900 144.2900 144.5098 144.5098
   145.6392 145.6949 145.8083 145.8083 146.0264 146.0264 146.7535 146.9838
   146.9838 147.1464 147.1464 147.6438 150.8769 151.0437 151.2575 151.2575
   151.3550 151.6414 152.3138 152.3138 154.0079 154.0683 154.0683 155.0232
   155.7946 155.7946 159.6884 160.0059 160.2305 160.2305 160.5973 160.5973
   161.0056 161.1023 161.2209 161.2209 161.2640 161.6638 161.6638 161.7182
   161.7182 161.8625 162.2759 162.2759 162.3512 162.5583 163.8105 163.8105
   164.0489 164.0489 165.9975 165.9975 166.9697 167.2711 167.2711 167.8872
   168.9632 169.9591 169.9591 170.8897 174.4778 174.4778 176.4554 176.4554
   176.9410 176.9410 177.0015 177.0509 177.0509 177.2586 177.2586 177.4796
   177.6397 177.6510 177.7845 177.9062 178.1819 178.1819 178.6805 179.8781
   179.8781 181.9501 182.1396 182.1396 182.5788 182.7617 183.8641 183.8641
   184.1776 184.1776 184.5299 184.5299 184.6564 184.7611 184.9676 185.1160
   185.1160 185.2134 185.2200 185.2200 185.4043 185.4043 187.0301 187.4723
   188.6599 188.6599 188.7085 188.7085 190.0546 190.0563 191.0350 191.0350
   193.0858 193.0858 194.8297 194.8297 195.3460 195.6903 195.9555 195.9555
   196.0675 196.0675 196.8248 196.8248 197.8856 197.9925 198.3290 198.3290
   199.3572 199.6400 199.6400 199.7786 199.7786 200.6979 200.9136 200.9136
   200.9681 201.5661 201.5661 201.6922 202.5732 202.7014 202.7014 203.9328
   204.0785 204.5808 204.5808 205.0295 205.0295 205.5319 205.5319 205.7204
   205.7415 206.2535 206.2535 207.9021 208.7144 208.7144 211.1695 211.2939
   211.3626 211.3626 211.7261 211.7261 212.2552 212.2552 212.3259 212.4954
   214.1852 214.1852 216.3350 216.7524 216.7524 217.5019 217.8496 217.8496
   218.2977 219.3314 219.3314 219.5335 219.9923 219.9923 220.4702 220.5402
   220.5498 220.5498 220.7271 220.7428 220.7428 221.4243 222.3964 222.3964
   222.7552 223.5774 223.8456 223.8456 224.2375 224.9144 224.9144 225.1254
   225.1504 225.1504 225.6742 225.7933 225.7933 225.8230 227.3201 227.4258
   227.4258 227.9373 227.9373 229.4090 229.4090 229.8854 229.8854 230.8056
   232.0441 232.0441 232.7661 233.5498 233.5498 234.1856 235.1637 235.1637
   235.5091 236.0191 236.0191 236.0582 237.9983 237.9983 238.4214 238.5666
   238.5666 238.5975 238.7541 238.7541 239.8761 239.8761 239.8804 239.9519
   239.9519 240.1333 241.7717 241.9613 242.5615 242.5615 243.0099 243.0099
   243.6492 243.6492 244.4024 244.4590 245.6516 245.6516 245.6686 247.5788
   247.6443 247.7916 247.7916 247.9106 247.9106 249.9481 250.9829 250.9829
   251.8136 251.8136 252.0829 252.2371 253.2320 253.2320 253.2762 253.2828
   253.7991 253.7991 254.2732 254.2732 254.4714 254.4714 254.6137 254.8259
   255.3986 255.3986 255.4037 255.4037 255.4943 255.6547 256.2777 256.2777
   256.7941 256.7941 256.8224 257.2162 257.2162 257.4438 258.3365 259.3674
   260.7533 261.0655 261.3195 261.3195 261.3435 261.3435 261.6464 261.6464
   262.1150 262.1150 262.4109 262.4325 262.6319 262.8291 263.0980 263.0980
   263.2780 263.2780 263.7283 263.7283 263.8843 263.8843 264.1373 264.1405
   269.4570 269.4570 269.7497 270.0204 270.0951 270.0951 270.5136 270.5136
   271.4731 271.4778 271.4778 271.5241 271.5241 271.7252 272.0132 272.0132
   272.0540 272.0565 273.2545 273.2545 273.6775 273.6775 273.7434 273.7461
   275.7096 275.7497 275.7497 277.2245 277.2245 278.1664 278.4025 278.4025
   278.6901 278.6901 278.8745 278.8793 279.8315 280.6939 280.6939 281.2821
   282.0113 282.9596 282.9596 282.9615 282.9615 283.7706 283.7706 284.2235
   284.9107 284.9209 285.1843 285.1843 285.3878 285.3878 285.8168 285.8168
   286.7051 286.7051 286.7149 286.7296 286.8377 286.8377 289.8654 289.8654
   290.1301 290.1301 290.8380 290.8380 290.9653 291.2373 291.4611 291.4611
   291.7856 291.7857 292.8875 293.3700 293.6000 293.6000 294.0201 294.5771
   295.3172 295.3172 295.4085 295.4085 295.7539 296.5609 296.5609 296.6385
   296.6385 298.1676 298.2617 298.2617 298.9245 299.3742 299.3742 299.3833
   299.3833 299.5543 299.5543 299.8852 300.6756 300.6756 300.9427 301.0910
   306.6614 306.6614 306.8114 306.8114 307.7872 307.7872 309.1819 309.1819
   309.2433 309.8715 309.9145 309.9145 310.5587 310.6361 310.6361 310.9639
   310.9639 311.0531 311.2205 311.2205 311.2440 311.7003 311.9826 311.9826
   312.2601 312.2601 312.3668 312.7222 312.7222 312.8641 313.1090 313.1090
   313.1487 313.2182 314.0145 314.0578 314.0578 314.0894 314.0894 314.2417
   314.2687 314.3296 314.3905 314.3905 314.3983 314.3983 314.7735 314.7735
   315.0593 315.0593 315.2268 315.2834 317.3825 317.3825 317.4448 318.4555
   318.4555 318.8524 318.8973 318.8973 318.8983 318.9041 318.9041 319.0975
   322.5044 322.6080 322.6080 323.1388 323.2691 323.2691 324.0914 324.0914
   325.1119 325.1889 325.2293 325.2293 327.9677 327.9677 328.8799 329.1206
   329.1206 329.2806 329.4409 329.5222 329.5222 329.7676 329.7676 329.8688
   329.8688 329.8917 330.0677 330.1544 330.1544 330.2325 330.9281 330.9281
   331.4346 331.5724 331.6778 331.6778 331.7498 331.7498 331.8269 331.9451
   331.9451 332.1752 335.3321 335.3321 335.4829 336.5100 336.5504 336.6012
   336.6012 336.7484 337.3913 337.3913 337.5458 338.0590 338.0590 339.2246
   339.2246 339.5298 339.5298 339.5923 339.7645 339.7752 339.7752 340.1036
   340.1036 340.1513 340.1604 340.2037 343.9225 343.9225 344.3727 344.4571
   344.4571 344.7236 346.8012 346.8012 347.7154 347.7154 348.3269 348.3269
   348.8352 349.7530 349.7653 349.7653 349.7705 349.7773 349.7795 349.7795
   349.9119 349.9595 349.9595 350.0217 350.0217 350.6848 350.6848 350.8811
   350.8811 350.9931 352.8650 352.8650 352.9003 352.9164 352.9164 353.1001
   353.3682 353.5084 353.5084 353.7617 353.8193 353.8193 355.0456 355.4061
   355.7696 355.7696 355.9312 355.9312 355.9616 356.0828 356.0828 356.0946
   357.3514 357.3514 357.5094 357.5741 357.5741 357.5994 361.3435 361.3435
   363.8090 363.8090 363.8424 363.8424 363.9145 363.9267 363.9689 363.9689
   364.1370 364.1417 364.7292 364.7292 365.0915 365.1084 365.1276 365.1276
   365.5380 365.5380 367.7234 367.7234 367.7309 367.7331 367.7331 367.7403
   367.7461 367.7461 367.7738 368.0678 370.1223 370.9116 370.9116 371.0436
   371.4333 371.4333 372.1998 372.1998 372.2306 372.2320 372.3309 372.3309
   372.4554 372.4831 372.5570 372.5570 372.7152 372.7152 375.7882 375.7882
   375.7970 375.7970 375.9525 375.9531 377.3633 377.3633 378.5915 379.2878
   379.3750 379.3750 379.3961 379.6247 379.6247 379.8756 380.2028 380.3165
   380.3508 380.4076 380.4076 380.6640 380.6640 380.6770 380.6770 380.8765
   384.5702 384.5702 385.0549 385.2689 385.2689 385.3541 385.7595 385.7595
   385.9942 385.9942 386.4084 386.4258 386.5900 386.5900 386.6172 386.6336
   386.8834 386.8834 386.9913 386.9913 387.7419 387.9012 387.9012 387.9994
   388.1408 388.1408 388.1577 388.1577 388.1923 388.2056 389.3473 389.3787
   389.3802 389.3802 389.4797 389.4797 391.7766 391.7766 391.8210 391.8210
   391.8246 391.8316 392.2481 392.2481 392.2968 392.2968 392.3670 392.3739
   398.8654 398.9330 398.9330 399.2248 399.2248 399.4625 399.4718 399.4720
   399.4720 399.5429 399.6613 399.6613 399.8556 399.8556 399.9237 399.9237
   399.9752 399.9820 400.6916 400.6916 401.2241 401.4560 401.4560 401.6065
   403.6964 403.6964 404.5941 404.6528 404.6528 404.9265 404.9604 405.5605
   405.5605 405.7317 405.7317 405.9150 405.9704 406.3552 406.3552 406.8680
   406.8680 406.9727 406.9727 406.9740 407.1651 407.2271 407.2271 407.2701
   408.0408 408.1833 408.3118 408.3118 408.4033 408.6441 408.6441 408.8373
   410.3147 410.4778 410.4778 411.5299 411.5299 411.5376 411.5376 411.8207
   411.8207 412.0129 412.6731 412.9869 412.9869 413.0017 413.6080 413.6080
   415.9723 415.9723 416.2251 416.2254 416.2254 416.2587 416.5986 416.5986
   416.7191 416.7464 416.7464 416.7637 417.4826 417.4826 417.5034 417.5034
   417.9333 417.9345 417.9659 417.9659 417.9963 417.9963 419.5040 419.5040
   423.7412 423.7412 423.9046 424.1916 424.1916 424.5290 424.6041 424.6397
   424.6397 424.6843 424.6843 424.7014 427.3151 427.3151 427.6508 428.0659
   428.0659 428.2576 428.3687 428.3687 428.8815 428.8970 428.8970 428.9800
   428.9800 429.0244 429.1156 429.1424 429.1424 429.1503 429.2357 429.2357
   429.6439 429.6439 429.7160 429.7441 430.1411 430.1849 430.1849 430.2951
   430.2951 430.3670 432.1298 432.1587 432.1587 432.4688 432.4688 432.5215
   433.6953 434.2225 438.6549 438.6549 439.3029 439.3254 439.3254 439.3665
   439.3665 439.5293 439.5633 439.7885 439.7885 439.8337 440.2125 440.4436
   440.4436 440.4524 440.4524 440.4994 440.7631 440.8212 440.8212 440.8562
   440.8562 440.9775 440.9967 440.9967 441.0581 441.0657 441.0657 441.0849
   442.2571 442.2571 442.4229 442.5144 442.5144 442.5506 442.6502 442.6502
   442.6529 442.8015 442.8015 442.8084 442.8084 442.8209 442.8506 442.8506
   444.3680 444.3680 444.3688 444.3688 444.4253 444.4254 445.3735 445.3735
   446.2855 446.2855 446.2947 446.3088 450.1093 450.1093 450.6362 450.6362
   450.6704 450.6828 450.6865 450.6865 452.5564 452.6469 452.6469 452.6781
   457.0899 457.0899 457.2116 457.2116 457.3148 457.3148 457.3592 457.4736
   457.6567 457.6608 457.7394 457.7394 458.1452 458.1452 458.3936 458.4262
   458.4262 458.4807 458.4807 458.5152 458.5988 458.5988 458.6012 458.6169

          k = 0.0000 0.2500 0.0000 (  3855 PWs)   bands (ev):

   -33.9441 -14.9448 -14.9347 -14.9347  -5.7501   4.9232   5.6725   5.6725
     9.2646   9.7247  10.1285  10.1285  10.2437  11.3098  15.9088  17.2986
    17.2986  17.5203  18.6616  21.1912  21.3836  21.3836  23.0103  27.7797
    28.7856  28.9160  28.9160  28.9233  31.6986  31.6986  33.4979  34.4549
    35.4384  35.4384  36.3946  39.8218  39.8218  41.1043  41.6944  41.7644
    42.2548  42.2548  42.8954  43.2921  43.2921  43.6837  44.8133  45.1083
    46.3550  47.0590  47.0807  48.5730  48.5730  48.9021  49.8082  49.8082
    50.3817  51.0396  51.0396  52.9103  52.9103  53.5653  54.8869  55.8939
    56.2258  57.5891  57.5891  62.4660  65.9381  66.0217  67.7696  67.7696
    68.4436  68.4436  69.9569  71.0551  71.3912  72.2261  72.2261  72.3004
    74.3723  74.5932  74.6472  74.6472  75.3411  75.3411  75.4374  75.8235
    77.0221  77.0221  77.2650  78.3372  79.2062  79.5734  79.6698  81.0051
    81.1920  81.1920  81.3706  81.3706  81.9149  82.7237  82.7237  82.8875
    84.6785  85.1949  85.9765  85.9765  86.0943  86.7717  86.9708  87.1212
    87.1212  87.8991  87.8991  88.1949  89.0752  91.1261  92.3693  93.0936
    93.0936  93.1828  93.5392  93.7968  94.2476  94.2476  95.4861  95.4861
    95.8556  96.3804  98.4960  98.4960  99.0425 100.0942 100.0942 101.4701
   102.5547 102.6633 102.6633 103.8684 103.8684 104.0781 104.2057 104.5537
   105.5328 106.6395 107.0221 107.0221 107.2476 108.5130 108.9823 108.9867
   108.9867 109.6777 109.7355 109.7355 109.8026 113.0516 113.0589 113.0589
   114.2761 114.6965 115.1830 116.1540 116.1540 117.3095 117.7946 117.7946
   118.0728 118.5073 119.3031 121.1588 121.2481 121.2481 122.9266 122.9266
   123.3884 127.3198 128.2021 128.2021 128.3614 129.6274 130.4992 130.6106
   130.6106 130.9981 131.1545 132.2236 132.2236 134.1295 134.4610 134.4610
   135.3890 135.5592 135.8848 136.3859 136.6357 137.1427 137.1427 138.0722
   138.0722 138.3991 138.6275 139.0753 139.0753 140.2420 140.3201 141.3402
   141.3402 141.3764 142.0138 142.1563 142.1779 142.1779 142.5791 143.0737
   143.0737 143.4225 143.4884 143.5946 143.5946 144.5412 144.8439 145.5368
   145.5368 146.0580 146.2563 146.7379 147.1617 147.1617 147.5912 148.6395
   148.7540 148.7540 149.4962 149.7009 149.7009 150.1194 150.4222 150.6983
   150.6983 151.3035 151.3035 152.0285 152.2683 153.2772 153.6496 154.6723
   154.6723 154.9551 155.7350 155.7350 155.7545 156.5092 156.6550 157.3773
   157.5939 157.7992 157.7992 158.6645 158.6696 158.9360 159.2208 159.2208
   159.5628 159.6374 159.6374 160.8381 162.0533 162.0964 162.0964 162.1705
   162.6638 162.7864 162.7864 163.6440 163.9641 163.9641 166.4821 167.8154
   168.8560 168.8560 169.1765 169.2681 169.7697 169.8919 169.8919 170.7652
   171.1828 171.2291 171.7115 171.7115 172.9405 172.9405 173.7038 173.8109
   173.9820 173.9820 174.1275 175.6842 176.0833 176.8370 176.8370 178.3164
   178.5718 178.5718 179.0081 179.1303 179.1347 179.1347 180.6662 181.3297
   181.4114 183.8711 184.4544 184.4544 186.0472 186.1996 186.1996 186.3900
   186.4852 187.0498 187.0498 187.1151 187.6615 187.8168 187.8168 188.5783
   188.7574 188.8862 189.6530 189.6530 189.7108 190.8214 190.8214 191.6881
   192.8275 192.8275 193.6453 193.6767 194.4575 195.0042 195.0042 195.8150
   196.4241 196.4241 196.4750 198.0307 198.0307 198.1244 199.7182 201.3307
   203.1099 203.1099 203.5580 203.7369 203.8213 204.4115 204.4115 205.3467
   205.3831 205.3831 205.6227 206.1312 206.4847 206.7037 206.7037 207.7437
   207.8594 208.8623 208.8623 209.2687 209.2687 211.2641 211.3736 211.3853
   211.8038 211.8038 211.8887 211.9871 213.7102 213.9786 213.9786 215.0367
   215.2854 215.2854 215.7514 215.8839 216.4600 216.4703 216.4703 216.8629
   216.8637 216.8725 216.8725 217.8862 217.8862 218.1543 218.3359 219.4805
   219.5075 219.5224 219.5224 219.9715 221.1332 221.6075 222.1405 222.1405
   222.5129 222.5429 222.5429 223.5130 224.3043 224.3043 224.5266 225.0190
   225.7528 225.9242 226.0275 226.0275 226.2285 226.2285 226.4595 226.5915
   226.9207 227.2963 227.2963 227.8643 227.8643 227.9725 228.5138 228.7260
   228.7260 229.3763 229.4240 229.4540 229.4677 229.4677 231.3630 232.4161
   232.4396 232.4396 232.5004 232.5990 233.1971 233.3449 233.3449 233.7688
   233.9276 233.9276 233.9485 234.6079 236.0131 236.1699 236.1699 236.3701
   236.5120 237.4290 237.4290 237.5744 237.6236 238.1578 238.2193 238.2193
   238.4228 238.5091 238.5091 239.0903 239.4855 239.4855 239.6002 240.2445
   240.5208 240.8525 240.8525 241.2870 241.2870 241.5948 241.6376 242.8949
   243.0160 243.2003 243.2003 243.3538 243.8227 243.8227 244.0514 244.7018
   244.8029 244.8610 244.8610 245.4146 245.6332 245.8188 245.8188 246.2246
   246.6544 247.9691 247.9691 248.1041 248.7340 249.4110 249.4560 249.4560
   249.5826 250.3783 250.4415 250.8136 250.8136 251.5518 251.7802 251.7802
   251.9844 252.4674 253.6230 253.6230 255.1049 255.1049 255.5528 256.0872
   256.7145 256.7145 256.8025 257.5659 257.6659 257.6842 257.9384 257.9384
   259.3887 259.3887 259.4856 260.0311 260.9803 260.9803 262.2668 263.2922
   263.6748 263.8999 263.8999 264.1624 264.8393 266.0401 266.0401 266.1240
   266.1240 267.3076 267.3107 269.4415 270.6447 271.1862 271.9451 271.9451
   272.1322 273.4305 273.4305 273.6032 273.6683 274.2167 274.5622 274.9490
   274.9490 275.7382 276.3635 276.3635 277.6882 278.1579 278.3876 278.5591
   278.5591 278.8670 279.6755 279.6755 280.9467 280.9467 280.9895 281.0470
   281.0766 282.9987 282.9987 283.5457 283.6557 283.8951 283.8951 284.3031
   284.6677 284.9267 285.0997 285.2200 285.2200 285.4535 285.9209 285.9209
   286.2522 286.4921 286.4921 286.5020 287.3015 288.2821 288.2821 288.4220
   288.8146 288.8653 288.8653 289.4490 290.0261 293.1483 293.6518 293.9692
   293.9692 294.2770 294.6060 294.7588 294.7588 294.8580 295.3937 295.6109
   295.6109 296.4242 296.4534 296.7073 296.7073 298.0036 298.0693 298.2019
   298.2870 298.2870 298.4965 298.4965 298.5730 298.6999 298.9096 299.2942
   299.2942 299.4019 299.5179 299.6291 299.6291 300.6911 300.6911 301.3643
   301.3921 302.7077 302.7077 302.7803 303.1727 303.9235 303.9235 304.2138
   304.4208 304.5920 304.5920 305.2721 305.5212 305.7540 305.8887 305.8887
   305.9885 306.1942 306.2171 306.2700 306.2700 306.3249 306.3249 306.4441
   306.5929 308.2321 308.2499 308.2499 308.2758 308.3414 309.2216 309.2953
   309.2953 309.5679 309.6371 311.5772 311.5772 311.6842 311.7392 311.7392
   313.5891 313.7747 314.0400 314.6856 314.6856 315.1670 315.3870 315.9385
   315.9385 316.5847 317.0185 317.0913 317.0913 317.1455 318.8007 319.3672
   319.3672 319.6463 320.2475 320.3940 320.3940 320.4177 321.3246 322.2768
   322.3888 322.4084 322.4084 322.4103 322.8719 322.8719 323.6335 323.8134
   323.8134 324.1553 324.1886 324.2408 325.3405 325.3405 325.7600 327.0585
   327.0585 327.9101 328.3807 328.3807 328.5014 328.5347 328.7054 328.7054
   328.8836 329.6051 329.9623 329.9623 330.3816 330.6626 330.6626 331.0030
   331.2506 331.3730 331.3730 331.5963 331.8372 332.2043 332.2206 332.5043
   332.5306 332.5306 332.9184 332.9184 333.0987 333.3370 333.3370 333.7011
   333.7837 333.7837 333.8957 334.0600 334.0926 334.0926 334.1115 334.5341
   335.4076 336.1318 336.1561 336.1583 336.1583 338.3883 338.4042 338.4146
   338.4146 338.4537 338.5630 338.5630 338.7542 340.9846 341.0356 341.0356
   341.3439 341.3455 341.6092 341.6092 341.6334 341.9771 342.5467 342.5467
   343.1705 343.4720 343.6373 343.6409 343.6409 344.9494 344.9704 344.9704
   344.9791 346.0050 346.7868 347.5412 347.5412 347.8000 347.8000 347.8024
   348.2711 348.5493 348.6854 349.1823 349.4081 349.4081 349.8293 349.8293
   349.9944 350.2498 350.2620 350.2620 350.2915 350.3342 350.3342 350.3357
   350.4010 350.9121 351.7255 351.7255 351.8368 352.2021 353.8248 354.3314
   354.4688 354.4688 354.7428 354.7798 355.3962 355.3962 355.8787 355.9488
   356.0106 356.0106 356.0711 356.2629 356.3024 356.3024 356.4798 356.5987
   356.5987 357.3046 357.3046 357.4296 357.7297 359.0169 359.0841 359.0841
   359.1406 359.8614 359.8915 359.8915 359.9384 360.6114 362.2388 362.2701
   362.3168 362.3168 362.3773 362.3773 362.4851 362.4977 362.4977 362.5278
   362.5349 362.5372 362.8557 362.8721 362.8721 363.0328 365.3577 366.2659
   366.2659 366.3047 366.3160 366.5264 366.7760 366.7760 367.6190 367.6912
   367.6912 367.7678 368.2074 368.2074 369.0460 369.0460 369.2615 369.5532
   372.4456 372.5387 372.5387 372.7196 372.7327 373.7958 373.7958 374.4193
   374.4280 374.4792 374.9213 374.9213 374.9976 375.8144 376.0049 376.4394
   376.4394 380.9207 380.9579 380.9579 380.9940 381.9350 381.9350 381.9786
   382.1050 382.3182 382.3182 382.3746 382.4500 383.5354 384.4808 384.5469
   384.5469 384.6158 385.3607 385.3607 385.9878 386.7074 386.7669 386.7669
   386.8020 387.3655 388.2838 388.2937 388.2937 388.3102 390.1571 390.1571
   390.5432 391.1362 392.0588 392.7287 392.7287 393.3735 393.4472 393.6262
   393.6900 393.6900 393.6985 394.1628 394.1638 394.1638 394.5214 394.6828
   394.7967 394.7967 395.8893 395.8893 396.6471 397.2453 397.2453 397.6542
   397.8756 398.2203 398.3553 398.6941 398.6941 398.8903 403.6169 404.0080
   404.1307 404.4902 404.5406 404.5406 405.1224 405.4559 405.4559 405.8384
   405.9827 406.4956 406.4956 406.5449 406.5449 406.5709 406.7530 406.8628
   406.8628 406.9466 407.3200 407.3200 407.4622 407.5987 407.8704 407.9083
   408.2955 408.4884 408.4884 410.1975 410.5196 410.5196 410.5665 410.6763
   410.8547 410.8767 410.8767 411.2443 411.2443 411.5627 411.6550 411.6619
   411.6619 411.7763 412.2175 412.6536 413.0222 413.0222 413.3515 413.7443
   413.7443 417.2493 417.2493 417.6542 418.2249 419.0785 419.0785 419.2832
   419.6321 419.6321 419.6774 419.8168 419.9621 420.0619 420.0950 420.8381
   420.8381 420.9017 421.0006 421.0592 421.0592 421.2114 421.2429 421.2429
   421.2760 421.2847 421.7038 421.9779 421.9779 422.3340 423.0262 423.1399
   423.3999 423.3999 423.7433 423.7433 423.8693 423.8782 424.7939 424.7939
   424.9192 425.3911 426.1486 426.2208 426.2375 426.2375 426.4770 426.4886
   426.4886 426.5270 427.2148 427.2148 427.4552 427.8238 429.4716 429.5105
   429.5602 429.5602 429.6487 431.0781 431.1415 431.1764 431.1764 431.6034
   431.6417 431.6417 431.7582 431.8495 432.0364 432.0364 432.1861 432.5389
   432.8420 432.8420 433.2786 433.4640 433.9812 433.9812 434.0084 434.0774
   434.2336 434.2336 434.2709 434.3528 434.6095 434.6095 434.7835 435.4480
   435.5517 435.5714 435.5714 435.6273 435.6273 435.6277 435.6286 436.0977
   436.0977 436.0996 436.2679 436.4716 436.5281 436.5281 436.5453 436.7285
   436.7560 436.7888 436.7888 436.8689 436.8732 436.8732 436.9036 436.9260
   436.9260 436.9364 437.0955 439.6664 439.9893 439.9893 440.0225 440.3522
   440.3522 440.5058 440.5449 441.0583 442.0831 442.2925 442.2925 442.3017
   442.3684 442.4313 442.4313 443.4963 443.8100 443.8180 443.8180 444.4429
   444.4516 444.4516 444.4616 444.7471 444.8442 444.8591 444.8591 445.9149
   445.9303 446.0111 446.0111 449.0495 449.1362 449.1362 449.3188 450.6526
   450.6526 450.7021 450.8139 451.5394 451.6324 451.6324 451.6414 451.7598
   451.9437 451.9889 451.9889 454.1268 454.1268 454.2582 454.3395 454.4736
   454.7183 454.7183 454.7244 455.1916 455.1940 455.1940 455.3483 455.3651
   455.3651 455.3768 455.8752 456.1090 456.1233 456.1233 456.5575 456.6544

          k =-0.1250 0.3750-0.1250 (  3871 PWs)   bands (ev):

   -33.9423 -14.9721 -14.9390 -14.9367  -5.5838   4.1053   5.2565   5.3590
     9.2301  10.1992  10.4705  10.8545  10.8943  12.5163  15.4562  16.0313
    16.5569  17.6209  19.1393  20.4537  22.0383  23.2717  23.9950  25.9839
    26.0888  28.1133  29.1735  29.9506  30.7804  32.0867  34.0037  35.1951
    35.2297  36.5177  38.0472  38.1571  38.7403  39.2655  39.7951  40.3968
    40.7754  41.4959  41.6379  42.9654  44.1107  44.3595  45.5888  45.7965
    46.1230  46.8441  47.2193  48.5762  48.7041  50.1124  50.8079  51.4438
    53.0367  53.1337  53.6561  54.0824  54.7559  55.1531  56.3737  57.4708
    58.3332  59.0802  59.5953  60.9094  62.3549  64.0503  65.8859  66.2994
    67.2584  67.5048  68.2885  68.8421  69.1714  69.4666  70.0217  70.7093
    71.9038  72.3820  72.8732  73.4058  74.0081  74.3694  74.7689  75.7966
    76.3225  76.8618  77.2432  78.0190  79.5382  79.9157  80.4869  80.6514
    80.9648  81.3765  81.9674  82.3107  83.1047  83.1780  84.7000  84.7197
    85.8912  85.9592  86.2025  86.6622  86.7394  88.0255  88.0453  88.1802
    88.1977  89.0219  89.8108  90.1842  90.8198  90.9069  92.0359  92.5106
    92.9508  93.4132  93.6444  94.4223  94.8312  95.0699  95.0841  95.7807
    96.0703  97.2798  97.6411  98.0650  98.4350  99.0055 100.2364 100.4251
   100.5501 100.9079 101.2491 102.0678 103.5668 104.0679 104.6522 105.4536
   106.0650 106.7291 106.7846 107.4097 108.1763 108.9691 109.4349 110.1036
   110.8971 111.4980 112.6118 112.6623 113.2013 113.3430 113.9418 114.3607
   114.7637 115.7029 115.8133 115.9882 116.3542 116.6115 118.3174 119.1047
   119.1989 120.3999 121.5164 122.0280 122.5411 123.8184 124.2012 124.7155
   125.0392 125.5637 126.2282 126.5726 127.1093 127.2297 127.9936 128.7575
   128.9250 129.4083 129.8550 130.3325 130.5652 131.3396 131.5855 131.7749
   132.2877 133.4742 133.6481 133.9709 134.3520 134.7534 135.0336 135.1373
   135.4264 135.7464 136.4910 137.2504 137.4997 138.0680 138.0915 138.6143
   139.0675 139.4056 140.2442 140.5037 141.0203 141.3509 142.0778 143.0484
   143.1916 143.4119 143.5402 144.0775 144.2980 144.5565 145.0404 145.4031
   145.4499 145.8613 145.9214 146.3576 146.8511 147.0227 147.6304 149.1689
   150.2086 150.2166 150.6201 150.7126 151.3945 151.7747 152.0476 152.1728
   152.7478 153.2418 153.2595 153.6370 153.6557 154.2347 154.6547 155.0181
   155.1999 155.5674 156.2767 157.2885 157.4742 157.9702 158.2549 158.5927
   159.2176 159.3943 159.9153 160.1367 160.2245 160.5713 160.7227 161.0951
   161.4062 162.1847 162.9372 163.0285 163.5208 163.6342 163.8897 163.8924
   163.9606 164.5753 164.7512 165.2476 165.4450 165.6046 166.3946 166.7966
   166.9845 167.5168 167.8350 167.9591 168.0336 168.0780 168.7915 169.2920
   169.3847 169.5952 170.6831 171.5729 171.5897 172.0101 172.6594 172.7526
   174.2691 174.6163 175.4766 175.9079 176.2021 177.6977 178.0006 178.5228
   179.3427 179.6627 179.9153 181.0494 181.2938 181.3497 181.6870 182.1073
   182.3422 182.5478 183.7241 184.1170 184.3239 184.9201 185.1570 185.5741
   186.2605 186.3746 186.6286 187.8802 188.5813 188.7190 189.0970 189.4882
   189.7237 190.2778 190.3751 190.9615 191.8695 192.5789 193.1482 193.3290
   193.7995 194.2955 194.4579 195.1218 195.2623 195.4733 195.6246 195.9344
   196.4013 196.8793 197.3352 197.3941 197.4451 197.9110 198.1450 199.2218
   199.6581 201.0761 201.5718 201.6950 202.2917 202.5011 202.9742 203.3856
   203.9910 204.4634 205.0914 205.1087 205.5160 205.8198 206.0910 206.2556
   206.7310 206.9000 207.3192 207.7761 207.9324 208.5676 209.2992 209.9025
   210.4618 211.2978 211.4508 211.4834 212.4388 212.7911 213.2308 213.4711
   213.5561 213.7922 214.3973 214.8497 214.9037 215.5864 216.2845 216.7265
   216.9993 217.0350 217.2128 217.5439 217.6897 217.8422 217.9281 218.1096
   218.4056 218.7461 218.7560 219.1569 219.2845 219.4507 219.7571 220.2974
   220.5985 220.7124 221.8115 223.0939 223.2912 224.1649 224.3533 224.6415
   224.7017 225.0837 225.1611 225.3094 225.5879 226.1198 226.3019 226.6163
   226.8111 226.8747 226.9893 227.1120 227.1595 227.2330 228.0943 228.1134
   228.2501 228.3401 228.6935 229.3003 229.5065 229.7146 229.8704 230.1929
   230.3746 230.6640 231.0293 231.7865 231.9990 232.0287 232.7436 233.1769
   233.2056 233.2893 234.0055 234.6787 234.7282 235.3328 235.7065 235.7583
   236.0346 236.9555 237.3903 237.6390 237.8362 237.9855 238.1710 238.2667
   238.3814 238.8567 238.8680 239.1205 239.2203 239.6389 240.7765 241.4525
   241.4927 241.8729 242.0439 242.4175 242.6057 242.9255 243.1636 243.3672
   243.4038 244.0653 244.7097 244.8530 246.0491 246.5337 246.8585 247.0891
   247.4363 247.9616 249.0240 249.0246 249.2104 249.7061 249.8458 249.9848
[...]
   245.9044 246.0393 246.0743 246.0863 248.1184 248.1794 248.2895 249.0179
   249.3104 249.8251 250.9593 251.1594 251.8746 251.9081 252.1579 252.3984
   252.6838 253.2030 253.9890 254.4228 254.6327 255.2436 255.9820 256.0880
   256.3534 256.7432 257.8811 258.1432 258.3022 258.6560 259.1921 259.3570
   259.6106 259.7541 261.1239 261.3485 261.5738 261.8867 261.9450 262.1071
   262.2219 262.6780 262.8819 262.8943 263.2496 263.5477 263.9083 264.4685
   264.4924 264.7451 265.0477 265.2988 265.6132 265.7275 265.7339 266.0352
   266.1308 267.0168 267.0878 267.7483 267.8373 267.9174 268.2910 268.4128
   269.2524 269.4708 269.5080 269.5380 270.0605 270.3934 270.5393 270.6483
   272.2176 272.4083 272.4734 272.5186 273.5926 273.9215 274.1105 274.1710
   274.2064 274.8395 275.0162 275.3335 275.7494 275.9347 275.9966 276.0815
   276.1056 276.3655 276.3853 277.0960 277.1558 277.5524 279.0697 279.1614
   279.1777 279.6995 279.7269 279.7672 280.0278 280.3578 280.6200 280.6846
   280.8428 281.1195 281.1376 283.0199 283.2042 283.3600 283.6298 283.8252
   283.8338 284.1008 284.1131 284.3226 284.4290 284.9656 285.0863 285.5726
   285.9511 286.1195 286.2146 286.2565 286.2889 286.2980 286.4441 286.4980
   286.7879 287.1262 287.4298 287.4352 287.4798 287.7408 288.3536 288.4573
   288.6386 291.2530 291.7295 292.1028 292.2533 292.4843 294.2805 294.3796
   294.6337 294.9251 295.0621 295.2191 295.4798 295.5453 296.1210 296.4596
   296.6612 296.9044 297.1594 297.1832 297.2002 297.7629 297.9081 297.9355
   298.5841 298.7748 298.7812 299.0295 299.1547 300.7748 301.8114 302.3147
   302.5415 302.5458 302.5855 302.9196 302.9201 303.0069 303.0817 303.3379
   303.5347 303.9191 303.9863 304.3920 304.4124 304.4173 304.4639 304.4729
   304.7108 304.9061 307.2229 307.3792 307.4752 307.8991 307.9022 308.5478
   308.6357 308.8201 308.9670 309.0057 309.9225 310.0527 310.1365 310.2011
   311.2865 311.3339 312.5517 312.7739 312.9064 314.0498 314.1537 314.2248
   314.4248 314.4445 314.4505 315.6641 315.8388 315.8979 315.9326 316.0971
   316.7006 317.0423 317.1882 317.8048 317.8096 317.9188 317.9865 318.4213
   318.8536 319.4993 319.5285 319.8177 320.0712 321.2611 321.2809 321.4120
   321.5595 321.9534 322.1599 322.6548 323.5105 324.3243 324.4053 324.7273
   325.1662 325.3045 325.4272 325.5039 325.5978 325.8980 325.9151 325.9190
   326.9435 326.9493 327.4270 327.7527 328.2510 328.3558 328.4104 328.5474
   328.5773 328.8267 329.0671 329.4339 330.5971 330.6093 330.7501 330.8080
   332.1274 334.9289 335.2817 335.3506 335.4073 335.5171 335.7232 335.9487
   335.9952 336.2378 336.5878 336.7554 336.9893 336.9979 337.5673 337.7295
   338.0814 338.7202 339.3370 339.8366 340.2467 340.3132 340.5232 340.9494
   341.8560 342.4335 342.9522 343.2187 343.2729 343.6542 343.7581 344.9413
   345.7098 346.2526 346.3859 346.5002 346.5248 346.6655 346.7220 346.9068
   347.3881 347.7460 348.1614 348.6743 348.8016 349.0746 349.4553 349.7114
   349.8541 350.0302 350.0320 350.4133 350.5036 350.5867 350.5981 350.8594
   350.9097 351.1549 351.2445 351.3658 352.4725 352.7196 353.2440 353.3347
   353.7464 353.8425 353.8630 353.9759 354.0384 354.2721 354.5480 354.6118
   354.9762 355.0591 355.3363 355.4169 356.1332 356.2353 356.5256 356.8922
   357.1606 357.3528 357.3817 360.4464 360.7225 360.7355 360.8600 361.0158
   361.2319 361.2857 361.4288 361.4551 361.4826 361.6936 361.8263 362.1168
   362.4320 363.3758 363.5816 363.7461 363.9308 363.9966 364.2861 364.4704
   364.7228 364.8371 365.0898 365.6168 365.6194 365.7342 365.9838 366.0729
   366.2423 367.0638 367.8394 367.8818 368.1644 368.2205 368.7404 369.3017
   369.3587 369.3696 369.4745 369.6153 370.2881 370.2987 370.3765 370.4013
   370.4528 370.6239 370.7745 370.9463 371.3380 371.3865 371.6333 371.7228
   371.7636 371.8766 371.8864 372.1205 372.2044 372.2782 373.9522 374.5021
   374.5032 374.8012 374.9206 375.6698 375.9851 376.1408 376.6212 376.8346
   377.3336 377.7048 377.7961 377.8659 379.0306 379.0654 379.3412 379.4444
   379.8271 379.8909 379.9212 380.1274 380.2648 380.2921 380.9628 380.9744
   381.8321 381.8332 381.8481 382.0813 382.7001 382.7739 382.8217 382.8518
   383.3261 383.3634 383.5599 384.5752 384.7100 384.8897 386.0470 386.1025
   386.4523 386.4602 386.5106 386.8265 387.2091 387.2113 387.2134 387.3076
   387.3211 387.6273 387.8737 388.1408 388.4053 388.5384 388.7005 389.2247
   389.3421 389.4700 389.4724 389.5359 389.5773 389.9762 390.4223 391.1612
   391.2262 391.3114 391.4860 392.2925 392.6678 392.7375 392.9273 393.0785
   393.0813 393.4602 393.4738 393.5958 393.6236 395.3782 395.5519 395.7039
   395.8612 395.9536 395.9675 396.0940 396.1738 397.4519 397.5541 397.5734
   397.9110 399.6788 399.9142 399.9537 400.2764 400.3016 400.5285 400.6559
   400.7199 402.0411 402.0629 402.3268 402.3778 404.0501 404.1308 404.4639
   404.7705 405.3714 406.1241 406.2813 406.3060 406.5118 406.6727 406.9762
   407.1098 407.2368 407.2430 407.9699 408.0170 408.2058 408.2139 408.5770
   408.6502 408.9592 409.0968 409.5032 409.5981 409.6354 409.9160 410.0031
   410.0152 410.1037 410.2949 410.3694 411.4205 411.4452 413.1853 413.2189
   413.8495 414.0049 414.0144 414.0886 414.2396 414.4898 414.5615 414.6636
   415.1208 416.1732 416.2711 416.3899 416.5891 416.6833 416.8440 417.0097
   417.0372 417.0708 417.0774 417.1150 417.2211 417.2555 417.2703 417.2761
   417.3309 417.3309 417.5047 417.5091 417.9366 418.1782 418.1825 418.5338
   421.3663 421.6244 422.8042 422.8355 422.8569 422.8654 423.0932 423.3023
   423.4292 423.9816 424.1454 424.2004 424.2079 424.2180 424.6159 424.6165
   425.2119 425.4806 425.7203 425.7840 426.5483 426.6896 427.0029 427.1628
   427.1750 427.4180 427.4213 427.4391 427.4874 427.5777 427.9460 428.3308
   428.6520 428.8692 429.5437 429.6651 429.9847 431.2756 431.2812 432.5047
   432.6515 432.8712 433.0067 433.0156 433.0295 433.0947 433.1272 433.8825
   433.8937 434.7067 434.7138 435.1315 435.1796 435.4893 435.6607 435.8468
   435.8816 436.8104 436.8224 437.8990 437.9918 438.6691 438.6905 438.7783
   438.8107 438.8182 438.9971 439.4305 439.4894 440.8578 440.9843 441.0224
   441.0445 441.1049 441.1325 441.1417 441.2442 442.0354 442.1009 443.6345
   443.6391 443.7238 444.0081 444.1465 444.2918 444.6399 444.7381 445.3709
   445.5030 445.7956 445.9631 446.5941 446.5990 447.5761 447.5801 447.5803
   447.6129 448.7646 448.7689 448.8963 449.2113 449.6262 449.7347 449.7616
   450.6964 450.7037 451.4789 451.6128 451.9908 452.1865 452.4031 452.4725
   452.8217 453.0106 453.0929 453.2618 453.6791 453.7447 454.1713 454.1836
   454.4676 454.8744 454.9872 454.9996 455.2339 455.3159 455.6096 455.8233
   456.1257 456.3976 456.7582 456.8165 456.8816 457.0000 457.0905 457.7371
   457.8350 458.1061 458.2054 458.2970 458.7259 460.2005 461.7694 461.7780

          k =-0.5000-1.0000 0.0000 (  3884 PWs)   bands (ev):

   -33.9370 -14.9842 -14.9842 -14.9671  -5.2166   3.9425   3.9425   4.2528
    10.2739  10.2739  11.0908  11.5588  11.8722  14.4073  14.8127  15.3494
    15.3494  19.7268  19.7268  20.3050  22.8095  25.2961  25.3622  25.3622
    27.2501  27.2756  27.2756  27.5785  28.8121  30.3844  31.7573  31.7573
    33.7989  33.7989  34.1775  35.0147  35.9141  41.1029  41.1029  42.4759
    42.5776  42.7826  42.7826  43.5519  46.2363  46.4497  47.0112  47.6845
    48.5008  48.5008  49.9962  49.9962  50.4438  50.7447  51.8107  51.8107
    54.7493  54.7493  55.8464  56.8229  58.1454  58.1454  58.2543  58.3276
    60.3507  60.3507  60.6794  60.9668  62.3351  63.0062  63.0062  63.6363
    63.6363  64.5508  65.0244  65.3516  66.8466  68.6018  68.6018  70.8093
    70.8093  71.5840  71.6486  72.3212  72.4931  72.9044  72.9955  72.9955
    74.2697  74.5950  74.8319  75.7871  75.7871  77.0937  77.4801  77.4801
    79.1277  79.4415  79.5834  80.9053  80.9053  81.4226  81.4226  81.5040
    81.5309  84.6103  85.8930  86.3526  86.3526  87.1666  88.2160  88.2160
    88.3554  90.6865  90.6865  91.6424  93.8234  95.3925  95.3925  96.9779
    96.9779  97.3789  97.4774  98.2803  98.2803  99.5938  99.6803 100.3092
   100.3092 101.1091 101.8567 101.8665 102.0434 102.4395 102.4395 102.9780
   103.3447 103.3447 104.9044 105.4792 105.4792 105.8662 106.2246 106.5588
   106.9793 108.1967 108.1967 109.5857 109.7928 110.7443 110.7839 110.7839
   111.5827 112.0563 112.0563 112.5270 113.3068 113.5497 113.6925 113.6925
   114.4842 115.7861 115.7861 116.0157 116.2673 117.2638 117.5658 117.5658
   118.0782 119.8520 119.8520 120.2346 120.2826 120.9532 121.7549 121.7549
   122.4729 123.6637 123.6932 123.9677 123.9677 125.7296 126.4784 126.4784
   126.8898 126.9052 127.2337 127.5975 127.5975 128.3637 128.7909 128.7965
   129.3806 129.3806 129.6417 130.1124 130.1124 130.6640 130.6640 130.8774
   131.9547 132.4902 133.9260 133.9260 135.5787 136.4284 136.5812 136.5812
   136.8541 137.2290 137.2290 138.5205 139.9245 140.6646 140.6646 140.8974
   142.6448 142.6448 144.6542 144.9722 145.0891 145.0891 145.3105 145.6789
   145.6971 145.7908 146.4066 146.4066 147.3384 148.1774 148.1774 148.4954
   149.2105 149.8140 150.3469 150.3469 151.3260 151.3260 151.7814 151.9041
   152.6150 152.8570 152.8570 153.8736 154.1554 155.0662 155.6475 155.6475
   155.7319 157.2686 157.2686 157.3390 157.4730 158.3624 158.4831 158.4831
   158.9973 159.1548 160.2634 160.2634 160.5551 161.7995 162.5057 164.8977
   165.0325 165.2803 165.2803 165.6223 165.6223 166.4715 166.4829 166.4869
   166.4869 166.6950 166.8937 166.8937 169.5588 169.8093 170.0734 170.1760
   170.1760 171.0002 171.3088 172.4770 172.4770 174.8109 174.8109 175.1779
   176.5804 176.6769 177.6588 178.3970 178.3970 178.6174 179.0824 179.1448
   179.6962 179.6962 179.8639 180.0680 180.0680 180.2120 180.3980 180.4410
   180.4410 180.6521 181.1345 181.1345 181.3005 181.7798 182.4666 182.4666
   183.4048 183.4333 183.4333 184.5100 184.9292 185.2588 185.2588 185.7180
   185.9659 186.1072 186.1627 186.1627 186.2902 186.5336 186.5711 186.5711
   186.6579 187.2057 187.2057 187.6114 188.6590 190.2480 190.2480 191.4941
   192.4831 192.4831 192.8424 193.8445 195.1935 195.1936 195.1936 195.7203
   195.7203 195.7535 195.8317 195.9094 196.2153 196.2284 196.2284 196.2603
   196.9383 197.1323 197.1323 198.0223 198.9946 198.9946 199.8107 199.8275
   199.8275 199.8803 200.1375 200.1912 200.9811 201.1848 201.1848 201.1956
   203.5362 203.5362 204.5808 204.5881 204.9133 204.9133 204.9139 205.5648
   207.3984 208.3780 208.3780 208.8832 208.9073 209.4422 209.4422 209.7095
   210.2964 211.1433 211.2665 211.2665 211.3623 211.4796 211.9985 211.9985
   212.3916 212.8226 212.8226 212.9626 213.0983 214.9837 214.9837 215.3517
   216.8313 217.0456 217.1381 217.1381 218.4286 218.7917 218.7917 218.8948
   219.6011 219.7473 219.7473 219.8445 221.9765 222.0481 223.9520 223.9520
   224.6691 224.6691 225.4360 225.8249 226.1054 228.0947 228.2734 228.2734
   228.3416 228.7471 228.9756 228.9923 228.9923 229.0411 229.0883 229.5447
   229.5447 229.6135 230.1096 230.2581 230.4319 230.4319 230.7509 231.2059
   231.2059 231.3797 231.5960 231.5960 231.6455 231.7332 231.9333 232.0705
   232.0705 233.0292 234.9160 236.7195 237.8333 237.8333 238.3771 238.4483
   238.4483 238.8219 239.8393 240.6454 240.6454 240.9485 241.6184 241.6184
   242.1810 242.4476 242.4476 242.5580 242.7735 243.3937 244.1958 244.1958
   245.5748 245.8263 245.9263 245.9263 246.0278 246.5592 246.5592 246.7866
   246.8998 246.8998 247.0025 247.4138 247.7011 248.1613 248.7252 248.7252
   248.8919 248.8919 248.9128 249.1759 250.5125 250.6772 250.6772 251.1804
   251.1804 251.2425 251.2895 252.0587 252.6780 252.6780 252.8905 253.4376
   253.4655 253.6353 253.6353 254.2712 254.2712 254.2817 254.3368 254.4548
   254.6385 256.3799 256.3799 257.0886 258.7409 258.7409 259.7597 259.7902
   263.0031 263.6379 263.6379 264.2186 264.6771 264.6771 264.8417 264.9071
   266.7693 266.7693 267.2492 267.3078 267.8901 268.9376 268.9376 269.2007
   269.2862 269.2862 269.8338 269.8647 270.1340 270.3355 270.3355 270.7540
   270.7750 270.7750 270.9672 271.1168 271.2216 271.2216 271.3387 271.6448
   272.2413 272.2413 272.7145 272.8686 273.0069 273.0069 273.0699 273.7534
   274.2662 274.2662 274.3423 274.3958 274.8372 274.8389 274.8389 276.5618
   277.9981 278.0952 278.0952 278.1213 279.9285 280.5006 280.5497 280.5497
   280.7602 280.9212 280.9806 280.9806 280.9838 281.2591 281.2591 281.5706
   281.5960 281.6291 281.6975 281.6975 282.3429 282.8309 282.8309 282.9326
   283.0127 283.2084 283.2556 283.2556 284.2599 284.3540 284.3540 284.6594
   285.6930 285.7228 285.7290 285.7290 285.9060 286.0616 286.4473 286.4473
   288.1366 288.1366 288.3681 288.7452 288.8334 288.9212 289.1046 289.4106
   289.4106 290.6808 291.3107 291.7216 291.7216 292.6560 293.4796 294.4516
   294.4516 295.3749 295.3972 295.3972 295.5585 295.8344 295.9581 296.3843
   296.3843 297.2456 297.4001 297.4001 297.4210 298.1886 298.5577 298.5812
   298.5812 298.5986 298.8771 298.8771 299.1539 299.1570 299.2783 300.2499
   300.4507 300.4507 300.5003 300.9404 301.0092 301.0092 302.0846 303.2207
   303.2207 303.6924 303.7484 304.5945 304.5945 304.5975 306.0367 306.0367
   306.2750 306.2969 306.4176 306.4176 306.4611 306.6182 307.6999 307.7257
   307.7257 307.8000 307.8924 308.0465 308.0465 308.2872 309.0204 309.0204
   310.6140 310.6140 310.6617 310.6724 311.8773 312.6391 312.6391 314.1010
   315.2411 315.3483 315.3483 315.3938 315.8049 315.8049 316.1062 316.3147
   316.3147 316.3227 316.6378 316.6596 316.6851 316.6851 317.6211 318.0356
   319.3428 319.8954 319.8954 320.0982 320.1733 320.6495 320.6495 321.5565
   322.1158 322.2598 322.2598 322.3694 323.1537 323.1564 323.1564 323.9597
   325.0768 325.7406 325.7406 325.9686 327.0526 327.0526 327.7030 327.8755
   327.9202 327.9202 328.1116 328.2136 328.2735 328.2735 328.2746 328.3670
   328.9352 331.2282 331.2282 331.2293 331.4548 331.5282 331.5403 331.5403
   335.2279 335.3335 335.3335 335.6873 336.7135 336.9397 336.9397 337.1396
   337.2811 337.5312 337.5312 337.5746 338.0181 338.0181 338.2128 338.4064
   338.7296 338.7972 338.8045 338.8045 339.6815 339.9148 339.9148 340.3010
   341.0235 341.0791 341.0791 341.1047 345.9237 347.0290 347.0290 347.5564
   347.6123 348.1663 348.1663 348.2540 348.2702 348.2976 348.2999 348.3258
   348.3658 348.3658 348.5243 348.5243 348.6794 348.6794 348.8753 348.9084
   349.6956 349.9880 350.0256 350.0256 350.1295 350.9657 351.5112 351.5112
   351.6576 352.3658 352.9522 352.9522 354.0901 354.6369 354.6918 354.6918
   355.2215 355.3358 355.6350 355.6350 356.5339 356.5754 356.5952 356.5952
   356.9186 356.9186 357.0628 357.1392 357.3822 357.3822 357.5455 357.6655
   357.7002 357.7051 357.8182 357.8182 358.2502 358.2646 358.2963 358.2963
   358.3695 358.4022 358.4361 358.4361 358.6272 358.6514 358.6514 358.6567
   359.0087 359.1330 359.1330 359.1814 361.5324 361.6009 361.6009 361.6358
   364.1774 364.1774 364.2111 364.4447 364.6173 365.3107 365.3107 365.6432
   365.8602 366.0722 366.3404 366.3404 366.3541 366.3633 366.8464 366.8464
   366.9596 366.9596 367.0320 367.0962 367.1520 367.4453 367.9314 367.9815
   368.0319 368.0319 368.0688 368.3614 368.3687 368.3687 369.4806 369.9325
   369.9325 370.3148 370.5899 371.3137 371.6883 371.6883 371.7236 371.7988
   371.8142 371.8142 376.9222 376.9222 377.0040 377.0178 377.9707 377.9707
   379.2086 379.2086 379.2191 379.2238 380.0207 380.5502 380.6526 380.6526
   380.7899 380.9570 381.3688 382.0916 382.2245 382.2245 382.6016 382.6016
   382.8128 382.8694 383.4064 383.4771 383.5255 383.5255 383.8905 383.8905
   383.8946 383.9551 384.3006 384.4437 384.4437 384.5347 384.9673 385.0807
   385.0807 385.0816 385.1343 385.3178 385.3595 385.3595 385.6963 385.6963
   388.2772 388.4526 388.4526 388.5486 390.4135 390.6828 390.7901 390.7901
   390.9715 390.9843 390.9843 391.2423 393.4791 393.4791 394.7840 394.9247
   395.3672 395.3672 395.4551 395.4914 395.5289 395.5289 396.7371 397.0402
   397.4082 397.7786 397.7786 398.2847 398.4573 398.4573 398.4970 398.6353
   399.5394 399.5394 399.6522 399.9223 399.9658 399.9975 399.9975 400.0764
   400.8870 401.0657 401.0657 401.0698 401.0795 401.1653 401.1653 401.2148
   403.4695 403.4695 403.8386 403.9320 404.2159 404.4710 404.5206 404.5435
   404.5435 404.5760 404.5903 404.6284 404.6284 404.9259 404.9303 404.9303
   405.2878 405.6911 405.6911 405.7903 406.1643 407.3760 407.4704 407.4704
   407.5851 407.6839 408.1848 408.2062 408.2062 408.5769 408.6435 408.6450
   408.6450 408.8821 408.9696 408.9696 409.0246 409.0246 409.0639 409.1352
   409.1753 409.3017 409.3543 409.3543 409.3810 409.3810 409.5079 409.5101
   409.5888 409.6153 409.6153 409.6172 409.8353 410.2961 410.3368 410.3368
   414.9540 415.2237 415.2285 415.2285 419.3586 419.3808 419.3808 419.3957
   419.4149 419.4430 419.4450 419.4450 422.0315 422.2913 422.2913 422.3082
   423.3978 423.5497 423.5497 423.8548 423.8895 423.8895 423.9586 424.4209
   425.5587 425.8014 425.8014 425.8100 425.8295 425.8833 425.8833 425.8884
   426.3998 426.3998 426.5168 426.5848 426.9351 426.9351 427.0427 427.2112
   427.8977 428.0631 428.0631 428.0814 430.0155 430.2124 430.2124 430.9467
   430.9858 431.1046 431.1046 431.4186 431.4276 431.4276 431.4853 431.5715
   433.6206 433.6206 433.6328 433.7127 433.7194 433.8603 433.8603 433.8729
   434.1644 434.2300 434.2300 434.4100 434.4282 434.4878 434.7467 434.7467
   435.3546 435.3676 435.3676 435.4421 435.4701 435.4984 435.4984 435.5737
   437.0384 437.0639 437.1221 437.1221 439.0159 439.0563 439.0586 439.0586
   441.4400 441.4400 441.4432 442.2400 442.4034 442.5227 442.5227 442.5808
   442.6177 442.6177 442.6760 442.8518 443.7519 443.7612 443.7612 443.7723
   444.2746 444.3489 444.3489 444.3976 445.2049 445.6736 445.7648 445.7778
   445.8424 445.8424 445.9084 445.9084 450.6128 451.6870 451.6870 451.7772
   451.8275 451.8406 451.8490 451.8490 451.8507 452.7405 452.7814 453.2001
   453.2085 453.2085 454.8927 454.8927 455.1134 455.1188 455.1232 455.1232
   455.4012 455.4157 455.8509 455.8510 455.8510 455.8631 456.3415 456.6855
   456.6855 456.7544 457.6294 457.9227 457.9438 457.9456 457.9456 458.0887
   458.1074 458.1074 458.2714 458.6158 458.6158 458.6480 459.5723 459.5723

     the Fermi energy is     6.7420 ev
     (compare with:     6.7580 eV, computed in scf)

     Writing all to output data dir out/mp-1415.save/
 
     init_run     :      0.03s CPU      0.06s WALL (       1 calls)
     electrons    :   1210.95s CPU   1285.21s WALL (       1 calls)

     Called by init_run:
     wfcinit      :      0.00s CPU      0.00s WALL (       1 calls)
     potinit      :      0.01s CPU      0.01s WALL (       1 calls)
     hinit0       :      0.01s CPU      0.03s WALL (       1 calls)

     Called by electrons:
     c_bands      :   1210.94s CPU   1285.18s WALL (       1 calls)
     v_of_rho     :      0.00s CPU      0.00s WALL (       1 calls)

     Called by c_bands:
     init_us_2    :      0.00s CPU      0.00s WALL (      15 calls)
     init_us_2:cp :      0.00s CPU      0.00s WALL (      15 calls)
     cegterg      :   1136.69s CPU   1205.44s WALL (      15 calls)

     Called by *egterg:
     cdiaghg      :   1049.98s CPU   1116.30s WALL (     162 calls)
     h_psi        :     23.41s CPU     24.23s WALL (     177 calls)
     g_psi        :      0.17s CPU      0.18s WALL (     147 calls)

     Called by h_psi:
     h_psi:calbec :      0.51s CPU      0.54s WALL (     177 calls)
     vloc_psi     :     22.18s CPU     22.96s WALL (     177 calls)
     add_vuspsi   :      0.37s CPU      0.38s WALL (     177 calls)

     General routines
     calbec       :      0.51s CPU      0.54s WALL (     177 calls)
     fft          :      0.00s CPU      0.02s WALL (      10 calls)
     fftw         :     20.25s CPU     20.95s WALL (  224562 calls)
 
     Parallel routines
 
     PWSCF        :  20m12.28s CPU  21m27.40s WALL

 
   This run was terminated on:  20:13:10  29Dec2023            

=------------------------------------------------------------------------------=
   JOB DONE.
=------------------------------------------------------------------------------=
