
     Program PWSCF v.7.1 starts on 29Dec2023 at  6: 0:33 

     This program is part of the open-source Quantum ESPRESSO suite
     for quantum simulation of materials; please cite
         "P. Giannozzi et al., J. Phys.:Condens. Matter 21 395502 (2009);
         "P. Giannozzi et al., J. Phys.:Condens. Matter 29 465901 (2017);
         "P. Giannozzi et al., J. Chem. Phys. 152 154105 (2020);
          URL http://www.quantum-espresso.org", 
     in publications or presentations arising from this work. More details at
     http://www.quantum-espresso.org/quote

     Parallel version (MPI), running on     8 processors

     MPI processes distributed on     1 nodes
     123144 MiB available memory on the printing compute node when the environment starts
 
     Reading input from pw_mp-1415_nscf_k60_E75.in
Warning: card &IONS ignored
Warning: card / ignored
Warning: card &CELL ignored
Warning: card / ignored

     Current dimensions of program PWSCF are:
     Max number of different atomic species (ntypx) = 10
     Max number of k-points (npk) =  40000
     Max angular momentum in pseudopotentials (lmaxx) =  4

     Atomic positions and unit cell read from directory:
     out/mp-1415.save/
     Atomic positions from file used, from input discarded
 
 
     R & G space division:  proc/nbgrp/npool/nimage =       8
     Subspace diagonalization in iterative solution of the eigenvalue problem:
     one sub-group per band group will be used
     scalapack distributed-memory algorithm (size of sub-group:  2*  2 procs)

 
     Parallelization info
     --------------------
     sticks:   dense  smooth     PW     G-vecs:    dense   smooth      PW
     Min         160     160     47                 3863     3863     601
     Max         161     161     49                 3868     3868     602
     Sum        1285    1285    379                30923    30923    4813
 
     Using Slab Decomposition
 


     bravais-lattice index     =            2
     lattice parameter (alat)  =      11.2259  a.u.
     unit-cell volume          =     353.6717 (a.u.)^3
     number of atoms/cell      =            2
     number of atomic types    =            2
     number of electrons       =        16.00
     number of Kohn-Sham states=         1200
     kinetic-energy cutoff     =      75.0000  Ry
     charge density cutoff     =     300.0000  Ry
     Exchange-correlation= PBE
                           (   1   4   3   4   0   0   0)

     celldm(1)=  11.225872  celldm(2)=   0.000000  celldm(3)=   0.000000
     celldm(4)=   0.000000  celldm(5)=   0.000000  celldm(6)=   0.000000

     crystal axes: (cart. coord. in units of alat)
               a(1) = (  -0.500000   0.000000   0.500000 )  
               a(2) = (   0.000000   0.500000   0.500000 )  
               a(3) = (  -0.500000   0.500000   0.000000 )  

     reciprocal axes: (cart. coord. in units 2 pi/alat)
               b(1) = ( -1.000000 -1.000000  1.000000 )  
               b(2) = (  1.000000  1.000000  1.000000 )  
               b(3) = ( -1.000000  1.000000 -1.000000 )  


     PseudoPot. # 1 for Ca read from file:
     /usr/scratch4/magr4985/MG/HTDF/pseudo/SG15/Ca.upf
     MD5 check sum: b43c970dc090f2312d256360aabdb6f1
     Pseudo is Norm-conserving, Zval = 10.0
     Generated using ONCVPSP code by D. R. Hamann
     Using radial grid of  602 points,  6 beta functions with: 
                l(1) =   0
                l(2) =   0
                l(3) =   1
                l(4) =   1
                l(5) =   2
                l(6) =   2

     PseudoPot. # 2 for Se read from file:
     /usr/scratch4/magr4985/MG/HTDF/pseudo/SG15/Se.upf
     MD5 check sum: e78e48a4f5d8ce1f8dc76ec1271f249c
     Pseudo is Norm-conserving, Zval =  6.0
     Generated using ONCVPSP code by D. R. Hamann
     Using radial grid of  602 points,  6 beta functions with: 
                l(1) =   0
                l(2) =   0
                l(3) =   1
                l(4) =   1
                l(5) =   2
                l(6) =   2

     atomic species   valence    mass     pseudopotential
        Ca            10.00    40.07800     Ca( 1.00)
        Se             6.00    78.96000     Se( 1.00)

     48 Sym. Ops., with inversion, found



   Cartesian axes

     site n.     atom                  positions (alat units)
         1           Ca  tau(   1) = (   0.0000000   0.0000000   0.0000000  )
         2           Se  tau(   2) = (  -0.5000000   0.5000000   0.5000000  )

     number of k points=     8  Gaussian smearing, width (Ry)=  0.0005
                       cart. coord. in units 2pi/alat
        k(    1) = (   0.0000000   0.0000000   0.0000000), wk =   0.0312500
        k(    2) = (  -0.2500000   0.2500000  -0.2500000), wk =   0.2500000
        k(    3) = (   0.5000000  -0.5000000   0.5000000), wk =   0.1250000
        k(    4) = (   0.0000000   0.5000000   0.0000000), wk =   0.1875000
        k(    5) = (   0.7500000  -0.2500000   0.7500000), wk =   0.7500000
        k(    6) = (   0.5000000   0.0000000   0.5000000), wk =   0.3750000
        k(    7) = (   0.0000000  -1.0000000   0.0000000), wk =   0.0937500
        k(    8) = (  -0.5000000  -1.0000000   0.0000000), wk =   0.1875000

     Dense  grid:    30923 G-vectors     FFT dimensions: (  45,  45,  45)

     Estimated max dynamical RAM per process >     186.30 MB

     Estimated total dynamical RAM >       1.46 GB

     The potential is recalculated from file :
     out/mp-1415.save/charge-density

     Starting wfcs are random

     Band Structure Calculation
     Davidson diagonalization with overlap

     ethr =  5.00E-06,  avg # of iterations =  9.8

     total cpu time spent up to now is     1028.8 secs

     End of band structure calculation

          k = 0.0000 0.0000 0.0000 (  3839 PWs)   bands (ev):

   -33.9453 -14.9302 -14.9302 -14.9302  -5.8636   5.9001   5.9001   5.9001
     9.1590   9.5933   9.5933   9.5933  10.1451  10.1451  15.5979  18.1099
    18.1099  18.1099  20.2961  20.2961  20.2961  21.1756  21.1756  26.9325
    30.6392  30.6392  30.6392  31.8625  31.8625  31.8625  32.7759  32.7759
    33.4895  33.4895  33.4895  40.3481  42.1815  42.1815  42.1815  43.5561
    43.5561  43.5561  45.3080  45.5183  45.5183  45.5183  45.5541  45.5541
    45.5541  46.1858  46.6659  46.6659  47.2371  47.2371  47.2371  48.4721
    48.4721  48.4721  49.1113  49.1113  51.3450  55.2471  55.2471  55.2471
    55.4963  55.4963  55.4963  64.7445  67.3132  67.3132  67.3132  67.9932
    67.9932  72.0166  72.0166  72.0166  74.4298  74.4298  74.4298  74.6665
    75.5690  75.5690  75.8050  75.8050  75.8050  76.0896  77.7363  77.7363
    77.7363  78.9724  78.9724  78.9724  79.8042  79.8042  79.8042  80.4372
    80.4372  80.4372  80.8104  80.8104  80.8104  81.5495  81.5495  81.5495
    81.5523  81.5523  82.8597  82.8597  84.0184  84.0184  84.0184  84.8893
    85.9029  85.9029  88.2863  88.4110  88.4110  88.4110  90.8970  92.2626
    92.2626  92.2626  98.6581  98.6581  98.6581  99.1529  99.1529  99.1529
    99.5642  99.5642  99.5642  99.5709  99.5709  99.7604  99.7604  99.7604
   100.4621 100.4621 100.5157 100.8688 100.8688 100.8688 101.8717 101.8717
   101.8717 108.0485 108.3611 108.3611 108.3611 108.3954 109.5691 109.5691
   109.5691 110.0840 110.0840 110.0840 111.5900 111.5900 111.5900 112.0547
   112.0547 112.0547 115.3735 115.3735 116.3830 116.3830 116.4732 116.4732
   116.4732 116.6462 116.9760 117.2220 117.2220 117.2220 126.9830 126.9830
   126.9830 127.1318 127.1318 127.1318 129.8121 129.8121 130.9065 131.1524
   131.1524 131.1524 134.3957 134.3957 134.3957 134.4770 134.4770 134.4770
   136.2220 137.8738 137.8738 139.7979 139.7979 139.7979 140.1090 141.0580
   141.0580 141.0580 141.1759 141.1759 141.1759 141.8460 141.8460 142.1957
   142.1957 142.1957 143.4234 143.4234 143.4234 143.9598 143.9642 144.4909
   144.4909 144.4909 144.6797 146.3573 146.3573 146.4295 146.4295 146.4295
   147.5635 147.5635 147.5635 148.1701 148.1701 148.1701 148.9279 148.9279
   148.9279 149.4096 149.5740 149.5740 149.5740 149.6774 149.6774 149.9724
   149.9724 149.9724 150.2267 150.2267 150.2267 150.2966 150.2966 150.2966
   150.3236 150.3236 150.3421 150.3421 150.3421 150.4328 150.4328 150.5615
   150.7184 150.7184 150.7184 157.5751 157.5751 158.2825 158.2825 158.2825
   161.3680 161.3680 161.3680 161.8993 161.8993 161.8993 162.1199 162.1199
   162.1199 162.2404 162.8174 162.8174 162.8174 167.2182 167.2182 167.2182
   168.1440 168.1440 168.3116 168.3116 168.3116 168.4108 171.6091 172.0963
   172.0963 172.8127 172.8127 172.8127 174.1790 178.3059 178.3059 178.3059
   179.5732 179.5732 179.5732 179.6409 179.6409 179.6409 179.8538 179.8538
   179.8538 179.9029 179.9029 180.1505 180.1505 180.1505 181.3489 181.3489
   181.7734 182.3651 182.3651 182.4108 182.4108 182.4108 182.4673 182.4673
   182.4673 182.9780 182.9780 182.9780 183.0095 183.0095 183.0095 183.3860
   183.3860 183.3860 183.6139 185.6544 185.6544 190.6755 190.6755 190.6755
   192.6863 192.6863 192.6863 194.2469 197.4978 197.4978 197.4978 197.7670
   199.3384 199.3384 199.3384 200.0466 202.6713 202.6713 202.6713 203.8233
   203.8233 204.0472 204.0472 204.0472 205.0346 205.0346 205.0469 205.3850
   205.3850 205.3850 208.3684 208.3684 208.3684 209.4870 209.4870 209.4870
   211.6777 211.6777 211.6777 212.0625 212.0625 212.0625 212.2438 212.2438
   212.2438 212.3209 212.3209 212.3209 214.9822 215.2579 215.2579 215.2579
   215.4686 215.4686 215.7584 215.7584 215.7584 215.8642 215.9840 215.9840
   216.0193 216.0193 216.0193 216.5284 216.5284 216.5284 216.7969 216.7969
   216.7969 216.9921 216.9921 216.9921 217.1884 218.6385 218.6385 218.6484
   218.6484 218.6484 218.6738 224.3681 224.3681 224.3681 226.7297 227.6011
   227.6011 228.2861 228.2861 228.2861 229.8055 230.2277 230.2277 230.2277
   230.8242 230.8242 230.9495 230.9495 230.9495 231.4308 231.4308 231.4308
   231.9660 231.9660 231.9660 232.1643 232.1643 232.1643 233.0468 233.0468
   234.7181 234.7181 234.7181 235.8752 235.8752 235.9177 235.9177 235.9177
   235.9274 235.9274 235.9274 235.9941 235.9941 235.9941 236.0240 236.0240
   236.0437 236.0437 236.0437 237.5863 237.5863 237.5863 237.6044 237.6044
   237.6044 237.6085 237.6568 238.1457 238.1457 238.1457 238.6310 239.1337
   239.1337 239.1337 239.2938 239.2938 239.2938 240.7162 241.3927 241.3927
   241.3927 242.4239 242.4239 242.4239 242.4397 242.7624 242.7624 243.1962
   243.1962 243.1962 243.3622 246.5255 246.5255 247.3767 247.3767 247.3767
   247.6555 247.6555 247.6736 247.6736 247.6736 247.8111 247.8111 247.8111
   248.6829 248.6829 248.6829 248.9098 248.9098 248.9214 249.2369 249.2369
   249.2369 249.2487 249.2487 250.7754 250.7754 250.7754 250.9258 250.9258
   250.9258 251.1198 251.1198 251.1198 251.2489 251.2489 251.2489 252.1507
   252.1897 252.1897 252.1897 252.2031 252.2031 255.1245 255.1245 255.1245
   258.7163 267.0043 267.0043 267.0043 274.9339 274.9339 274.9339 275.3099
   275.3099 276.2099 276.3611 277.0743 277.0743 277.0743 278.6995 278.6995
   278.7678 278.7678 278.7678 278.8692 278.8692 278.8692 279.1647 279.1647
   279.1647 279.3061 279.3061 279.3061 279.4881 279.4881 279.4881 279.8517
   279.8517 280.3266 280.4297 280.6196 280.6196 280.6196 280.9510 280.9510
   280.9510 281.1395 281.1395 281.1395 281.1461 281.1461 281.1461 281.2754
   281.2754 281.2754 282.6049 285.8348 285.8348 286.0416 286.0416 286.0416
   286.0889 286.0889 286.1980 286.1980 286.1980 286.2686 286.2686 286.2686
   286.3721 286.3721 286.3721 287.3779 287.3779 287.4561 287.4561 287.4561
   287.6147 293.8978 293.8978 293.8978 295.1289 295.1289 295.8602 295.8602
   295.8602 295.9298 295.9298 295.9298 296.6786 297.1480 297.1480 297.1480
   297.9675 297.9675 301.5096 301.5889 301.5889 301.5889 301.6134 301.6134
   301.6868 301.6868 301.6868 302.1503 302.1503 302.1503 302.2302 302.2302
   302.2302 302.2477 302.2477 302.2477 302.3281 302.3281 302.3281 302.5237
   302.5237 302.7675 302.7675 302.7675 302.8159 303.2930 303.2930 303.2930
   305.3752 310.3794 310.3794 311.0171 311.0171 311.0171 311.0549 311.7896
   311.7896 311.7896 311.9835 311.9835 311.9835 312.0778 312.0778 312.0778
   312.1700 312.2407 312.2407 312.2407 313.0005 316.4200 316.4200 316.4200
   316.6285 316.6285 316.6421 316.6421 316.6421 316.8608 316.8608 316.8608
   317.0977 317.0977 317.0977 317.1510 317.7206 317.7206 318.1986 318.1986
   318.1986 318.2698 318.3096 318.3096 318.3398 318.3398 318.3398 318.4949
   318.4949 318.4949 318.5245 318.5245 318.5245 318.8527 318.8527 318.8527
   319.1229 319.4915 319.4915 319.4915 319.5206 319.5206 319.5627 319.5627
   319.5627 319.6335 319.6335 319.6335 319.7218 322.9692 322.9692 327.6584
   327.6584 327.6584 328.7174 329.8176 329.8176 331.3520 331.3520 331.3520
   332.2068 332.2068 332.2068 332.4714 332.4714 332.4714 332.4843 332.4843
   332.4843 332.7547 332.7547 332.7547 332.9979 333.3298 333.3298 333.3298
   333.3400 333.3400 334.0883 338.9839 338.9839 338.9839 341.6335 341.7624
   341.7624 341.7624 342.7966 344.7321 344.7321 344.7321 344.9229 344.9229
   345.1365 345.1365 345.1365 345.1405 345.1405 345.1405 345.3750 345.3750
   345.4352 345.4352 345.4352 347.6776 347.6776 347.6776 348.1375 348.1375
   348.1375 348.1915 348.1915 348.1915 348.3129 348.3129 348.3129 348.3204
   348.3204 348.3204 349.4226 349.7854 349.7854 349.9495 349.9495 349.9495
   350.0749 350.0749 350.0863 350.0863 350.0863 350.5972 350.5972 350.5972
   350.6152 350.6152 350.6472 350.6472 350.6484 350.6484 350.6484 350.6551
   350.6551 350.6551 350.6605 350.6605 350.6605 350.7660 350.7660 350.7660
   350.8150 350.8150 350.8150 351.1832 351.1832 351.1832 351.4279 352.4223
   352.4254 352.4254 352.4254 352.4268 352.4281 352.4281 352.4281 354.9798
   354.9954 354.9954 354.9954 355.0036 355.0036 355.1473 355.1473 355.1525
   355.1525 355.1525 355.1606 355.1606 355.1606 355.2066 355.2767 355.2767
   355.2767 355.3300 355.3300 355.3300 355.3736 355.3736 355.3777 355.3777
   355.3777 355.5066 355.5066 355.5066 355.5965 362.0136 362.0136 362.0136
   363.2906 363.2906 363.2906 363.4156 363.5751 370.4610 370.4610 371.4878
   371.4878 371.4878 371.5015 371.5015 371.5015 371.5415 371.5415 371.5790
   371.5790 371.5790 371.5970 371.5970 371.6090 371.6090 371.6090 373.2780
   373.2780 373.2780 373.7764 374.0703 374.0703 374.0703 375.4657 375.4657
   375.4657 375.5123 375.5123 375.5123 375.5724 375.5724 375.5724 379.4179
   379.4179 379.4942 379.4942 379.4942 379.5580 384.2180 384.2180 384.2180
   384.2484 384.2484 384.2566 387.0757 387.0757 387.0757 387.0994 387.0994
   387.0994 387.1226 387.1226 387.1226 387.1292 387.1292 387.1292 388.4450
   388.4450 388.4659 388.4659 388.4659 388.4987 399.0173 399.0173 400.0170
   400.0170 400.0170 400.8641 401.0034 401.0034 401.0034 402.1274 402.4408
   402.4408 402.4408 402.6520 402.6520 402.6520 402.6535 402.6535 402.6535
   402.8595 402.8595 402.8595 402.8599 402.8599 402.8599 402.9719 402.9719
   404.9743 404.9743 406.2664 406.2664 406.2664 406.6579 406.6579 406.6579
   406.6757 406.9825 406.9825 408.5334 408.5334 408.5334 408.5610 408.5610
   408.5610 408.7806 408.9935 410.2717 410.2717 410.2717 410.9695 411.8584
   411.8584 411.8584 412.4534 412.4534 413.4650 413.4650 413.4650 413.5168
   413.5168 413.5168 413.9685 414.7991 414.7991 414.9152 414.9152 414.9152
   415.0777 415.0777 415.1432 415.1432 415.1432 415.2824 415.2824 415.2824
   415.3840 415.3840 415.3840 416.5271 416.5271 416.5271 416.5957 416.7103
   416.7103 416.7103 416.9422 418.9218 418.9218 418.9218 418.9497 418.9497
   419.0189 419.0189 419.0189 419.0786 419.0786 419.0786 419.1237 419.1237
   419.1237 419.1378 419.1378 420.5560 420.5560 420.5560 420.5566 420.5566
   420.5566 420.5702 420.5702 420.5702 420.5721 420.5721 420.5753 421.0082
   421.0082 421.0082 421.0353 421.0353 421.0353 421.0478 421.0478 421.0678
   421.1216 421.1216 421.1216 432.5746 432.5746 433.0622 433.0622 433.0622
   433.3898 433.3898 433.3898 433.4618 433.8924 433.8924 433.8924 433.9774
   433.9774 433.9774 434.0067 434.0067 434.0067 434.6185 434.6995 434.6995
   434.6995 434.9965 434.9965 434.9965 435.0014 435.0014 435.0802 435.0802
   435.0802 436.5494 436.5934 436.5934 436.5934 436.6607 436.6607 436.6607
   436.6628 436.6628 436.8159 436.8159 436.8159 440.0085 440.0085 440.0477
   440.0477 440.0477 440.1222 440.1222 440.1222 440.1377 440.1377 440.1377
   440.1538 440.1928 440.2206 440.2206 440.3048 440.3048 440.3048 440.3379
   440.3379 440.3379 440.4294 440.4294 440.4294 441.0894 441.0894 441.1692
   441.1692 441.1692 441.2880 442.2538 442.2538 442.2538 442.3587 442.3587
   443.8242 443.8242 443.8242 443.9504 443.9504 443.9504 444.0967 444.1177
   444.1177 444.2416 444.2476 444.2476 444.2476 444.2538 444.2538 444.2538
   444.2548 444.2548 444.2548 448.8248 448.8821 448.8821 448.8821 449.2076
   449.2076 449.2076 449.4523 449.4523 449.4583 449.4583 449.4583 450.8033
   450.9217 450.9217 450.9217 451.0042 451.0042 451.0042 451.1055 451.1055
   451.1387 451.1387 451.1387 452.6481 452.6481 452.6481 453.2312 453.2312
   453.2312 453.2656 453.2757 454.4418 454.4418 454.4657 454.4657 454.4657

          k =-0.2500 0.2500-0.2500 (  3867 PWs)   bands (ev):

   -33.9422 -14.9840 -14.9339 -14.9339  -5.5482   3.9218   5.2164   5.2164
     9.6001  10.3066  10.3066  11.5129  11.5129  11.5491  15.2283  16.3012
    16.3012  18.2307  19.0656  19.0656  21.9632  24.7505  24.7505  25.1738
    25.9294  25.9294  30.4487  32.1308  32.1308  32.6489  33.0747  33.0747
    35.0162  36.0564  36.6776  36.6776  38.9534  39.6842  39.6842  41.7000
    41.9244  41.9244  42.7712  42.7712  43.3496  44.4919  45.1643  45.1643
    45.5318  46.5683  46.5683  48.0101  51.2380  51.2380  51.5199  51.5199
    51.7077  52.7052  53.7043  54.3111  54.3111  56.0069  57.6652  57.6652
    57.7961  57.7961  60.5821  62.2016  62.2016  64.3690  64.3690  64.7521
    65.5677  68.3909  68.4477  68.4477  69.1424  69.1424  69.7394  70.6140
    71.7260  71.7260  72.4947  74.3177  74.3177  75.2164  75.2164  76.3826
    76.5784  76.5784  76.9922  78.6472  79.4327  80.3691  80.4460  80.4460
    82.0382  82.0382  82.3531  82.3531  82.8299  83.2858  83.2858  84.0921
    84.0921  84.2924  85.4801  86.2484  86.2484  87.3041  87.3564  87.3564
    89.0937  89.0937  89.8144  90.7383  92.1775  92.1844  92.1844  93.1926
    93.9828  93.9828  95.0658  95.0658  95.6839  95.6839  96.0390  96.7223
    97.0373  97.3207  97.3207  98.1340  98.1340  98.7728  99.7765  99.7765
   100.1156 100.9009 102.3553 102.3553 103.1423 103.1423 104.0774 104.4857
   105.9416 105.9416 107.0246 107.9481 107.9481 108.8877 108.9230 109.0069
   109.0069 109.6174 109.6174 110.6169 112.4950 112.4950 114.4832 115.1304
   115.1304 116.7312 117.3816 117.3816 118.4598 118.4598 120.2539 120.2539
   120.8760 120.9185 121.1007 121.9785 121.9785 123.8995 124.7348 124.7348
   125.7969 125.7969 126.1248 126.3499 128.0420 128.5548 128.5548 129.0310
   129.0499 129.0499 129.7013 130.3718 130.3718 130.5800 130.6905 130.6905
   131.5125 132.0307 132.0307 132.1720 132.7629 132.7629 133.3830 134.2328
   134.2328 134.7311 134.7311 135.1657 135.5116 138.5433 138.5433 140.6901
   140.8674 140.8674 142.1349 143.5178 143.5178 143.5698 144.2260 144.2260
   144.7623 145.0592 145.1819 145.1819 146.0532 146.0532 146.2379 146.3111
   146.3111 146.3655 146.7806 146.7877 146.7877 146.8828 146.8828 147.0704
   147.9465 147.9465 148.8663 149.1503 149.1503 150.3998 152.4676 152.4676
   152.6722 152.8375 152.8375 153.1019 153.6939 154.3059 154.3059 154.5163
   154.7389 154.7389 155.1914 155.3922 155.3922 156.0372 157.2242 157.2242
   158.0646 158.0646 158.4095 158.9382 158.9382 159.3150 160.2922 160.5322
   160.5322 162.1244 162.8036 162.8036 163.0884 163.0884 163.1106 163.4575
   164.9526 164.9526 165.8568 166.5287 166.5287 167.8137 167.8137 168.8708
   168.8708 168.9556 169.9021 170.2707 170.2707 170.3006 171.0994 171.3205
   171.3205 171.3221 171.6837 171.6837 172.4032 172.6754 172.6754 173.4134
   173.5930 173.5930 175.5896 175.5896 175.9803 176.9531 177.3397 177.3397
   178.1078 178.6972 178.8847 178.8847 179.1710 179.1710 182.0363 182.0363
   182.4742 182.8526 183.6627 183.6627 183.6862 184.4988 184.4988 186.1963
   186.7180 186.7180 187.3186 188.0032 188.0032 189.0922 189.9098 189.9098
   190.6525 191.0735 191.3068 191.3068 192.8081 193.2656 193.2656 194.4227
   194.4227 195.5452 195.5557 195.5557 196.1315 196.3098 196.3098 196.3159
   196.5722 196.7698 196.7698 197.1085 197.3266 197.3266 197.4384 198.7917
   198.7917 200.3189 201.8690 201.8690 203.1021 203.6657 203.6657 203.7009
   203.9668 203.9668 204.1557 204.4445 204.4445 205.5011 205.5011 205.5735
   205.8375 205.8375 206.2961 206.6443 206.6443 207.4181 207.4181 208.0616
   208.4177 208.7167 208.7167 209.1326 211.4476 211.4476 212.9842 212.9955
   212.9955 213.3109 214.7232 215.0438 215.0438 216.1177 216.1177 216.6844
   217.0438 217.0438 217.1541 217.6476 217.6476 218.2672 218.2672 218.5104
   218.6926 219.0559 219.0559 219.5554 219.5940 219.9068 219.9068 221.1029
   221.5012 221.5012 221.7325 222.6156 222.7858 222.7858 225.2884 225.2884
   225.6004 225.9161 225.9161 226.3101 226.3101 226.5729 226.8576 226.8576
   227.0387 227.0387 227.1202 227.4729 228.2050 228.2050 228.2411 228.5906
   228.5906 229.6972 229.7234 229.7385 229.7385 230.3312 231.0132 231.0132
   231.3915 231.5251 231.5251 232.8916 232.9841 232.9841 233.5290 233.7196
   233.7196 233.8980 234.9531 234.9531 235.0114 235.4622 235.4622 235.9347
   236.0964 236.0964 237.2230 237.2230 237.3065 237.6099 238.1428 238.1428
   238.2730 238.2730 238.4377 238.5942 238.5942 238.7621 240.3221 240.6800
   240.6800 241.4679 241.9197 241.9197 242.3772 242.5133 242.5254 242.5254
   242.8810 242.8810 243.0088 244.4982 244.4982 244.6345 244.6352 245.0745
   245.0745 246.2544 246.2544 248.0806 248.9949 250.1245 250.1245 250.1594
   250.4476 251.3214 251.3214 252.3134 252.5120 252.5120 253.7425 253.9777
   253.9777 254.1236 254.6945 254.6945 255.3721 255.4438 255.4438 256.8687
   257.0482 257.0482 257.4353 257.4353 258.7467 258.7467 259.5392 259.7723
   260.0031 260.0031 260.4221 260.5320 260.5320 261.2797 261.2797 261.9682
   261.9682 262.3162 262.3402 262.3402 262.3964 263.6926 263.7639 263.7639
   263.9087 264.1522 264.1522 264.1792 264.5463 264.5463 265.6672 265.6672
   265.8672 266.1036 266.1036 266.2790 267.8545 268.2967 268.9618 268.9618
   271.1301 271.1301 271.3184 271.6875 271.6875 272.6275 272.6873 272.8058
   272.8058 273.2453 274.1311 274.1311 274.2296 274.2296 274.4109 274.5113
   274.6755 275.6348 275.6348 277.0441 277.0441 277.5513 277.5513 277.9315
   277.9594 277.9594 278.4687 280.6351 280.7015 280.7015 281.0979 281.0979
   281.9584 282.8875 283.4470 283.4470 285.0980 285.6170 285.6170 285.8307
   285.8307 285.9815 286.1097 286.3776 286.3776 286.9765 288.8055 289.6938
   289.6938 291.2350 291.2350 291.8455 292.2278 292.2278 293.3082 293.3294
   293.3845 293.3845 293.5297 293.5297 293.7458 293.8127 293.8127 294.2300
   294.2300 294.9110 295.3606 295.3606 295.4323 296.3039 296.5211 296.5211
   296.7136 297.1835 297.1897 297.1897 297.3286 297.3286 297.5455 297.7302
   297.7302 297.7715 298.0163 298.2113 298.2113 299.8791 299.8791 300.0623
   300.0623 300.0948 301.2977 301.2977 301.6816 302.1432 303.3177 303.5054
   303.5054 305.9089 305.9089 306.2451 306.3971 306.3971 306.9272 306.9758
   306.9758 307.1796 307.7748 308.0296 308.3034 308.3034 308.4087 308.4087
   309.7822 311.0928 311.6123 311.6123 311.8446 313.0891 313.0891 313.4206
   313.4206 313.7281 313.7750 314.3235 314.3235 314.5699 314.6546 314.6546
   314.8636 314.8636 314.9875 315.1385 315.1385 315.4052 315.5000 315.5000
   315.5865 316.3712 316.3712 318.9916 318.9916 319.3125 319.5022 319.5022
   319.5567 319.5567 319.8977 320.1001 321.0182 321.0182 321.2962 321.4800
   321.4800 321.9591 321.9591 321.9627 322.1460 322.2938 322.2938 322.7765
   322.7765 322.7787 323.6458 323.8735 323.8735 324.0157 324.3343 324.3343
   324.8630 324.9924 324.9924 325.1777 325.1777 325.4116 325.5554 325.7502
   325.7502 326.1324 326.4389 326.4389 326.5882 327.5259 327.7943 327.7943
   328.1619 328.1619 328.2967 328.9564 328.9564 329.1498 329.2965 329.5797
   329.5797 330.2683 330.9863 330.9863 331.1640 331.1640 331.4322 331.7824
   331.8648 331.8648 332.1552 336.7942 336.7942 337.3295 337.3295 337.4018
   337.6805 337.7192 337.7402 337.7402 338.3472 338.3472 338.3696 338.3696
   338.5420 340.0861 340.0861 340.3113 340.3278 340.3278 340.6682 341.5466
   341.5466 341.5965 341.6692 341.6692 341.9027 341.9186 342.0825 342.0825
   342.2278 343.2875 343.2875 343.5089 343.5089 344.6834 345.6796 345.6796
   345.9350 346.0429 346.0429 346.1633 346.5220 346.5220 346.5891 346.7885
   347.0429 347.0429 348.3823 348.4457 348.4457 348.5769 348.8889 348.8889
   349.1934 349.5863 349.5863 349.6246 349.6991 349.6991 350.3963 351.5956
   351.5956 351.6082 352.3894 352.3894 352.6194 352.7119 352.7119 352.9827
   355.4123 355.4123 355.4251 357.3578 357.3578 358.0069 358.0069 358.1963
   358.2829 358.6283 358.6283 359.1897 359.4522 359.4522 359.6809 360.0028
   360.0028 360.1507 360.3954 360.3954 360.4218 360.8128 360.8398 360.8398
   361.6183 361.6183 361.7842 363.7260 363.7260 363.7940 363.9458 363.9458
   363.9822 364.8425 364.8425 365.0740 365.5148 365.5148 365.6893 365.7993
   365.7993 365.9138 366.2280 366.2280 366.6379 367.1494 367.3897 367.3897
   368.0458 368.0458 368.1164 368.2236 369.3902 369.3902 370.8297 370.8297
   370.9076 371.2178 372.8479 372.8479 373.4909 373.5777 373.5777 373.9262
   374.0406 375.7826 375.7826 375.9617 375.9617 375.9840 376.0054 376.0349
   376.0349 376.3032 376.6196 376.6196 376.6542 376.7666 376.7666 378.0017
   378.0017 378.2919 379.7263 379.9474 379.9474 380.8839 380.8839 380.9203
   381.6909 381.6909 382.2581 382.2581 382.9696 383.3119 383.3119 384.2233
   384.2233 385.1208 385.2681 385.7185 385.7185 385.7669 385.7669 385.8797
   386.5022 386.5697 386.7445 386.7445 386.8251 386.8251 387.2348 387.7760
   387.7760 387.8906 387.8906 387.9345 388.4241 390.4876 390.4876 391.1121
   391.2108 391.2108 391.3867 392.0198 392.1641 392.1641 394.5319 394.5319
   395.2646 396.6942 396.6942 397.1245 397.2951 398.2331 398.2331 398.4569
   398.9997 398.9997 399.1113 399.9346 399.9346 400.0829 401.5432 402.0961
   402.0961 402.3030 402.6849 402.6849 402.7653 402.9136 402.9136 403.0450
   403.0450 403.5674 404.1056 404.1056 404.1909 404.2964 404.2964 404.3276
   406.3658 406.3658 406.5926 406.5926 406.6744 406.8225 406.9331 406.9331
   407.0684 407.0684 407.2436 408.7219 408.7219 409.5749 409.5749 409.6303
   410.2017 410.3352 410.4715 410.4715 410.9142 410.9142 411.0554 411.2581
   411.2581 411.4726 411.4908 411.9165 411.9165 411.9541 411.9951 411.9951
   412.3313 412.3313 412.6458 412.6458 412.6784 412.8308 414.6415 414.6415
   414.8598 414.9774 414.9774 415.0294 415.4037 415.4871 415.4871 415.6537
   416.6008 416.6008 416.8962 416.8962 416.9136 417.0263 418.7039 418.7039
   418.7706 420.0462 420.0462 420.1621 420.1621 420.3593 420.8470 421.4264
   421.4264 421.5442 422.1504 422.1504 422.1669 422.2365 422.2365 422.2916
   423.0447 423.0836 423.0836 423.5828 423.5828 423.7319 423.8834 423.8834
   423.9527 425.0311 425.0311 425.0900 426.0403 426.0403 426.1633 426.9937
   426.9937 427.0427 428.6232 428.6232 428.6577 428.9205 428.9205 429.4377
   429.4377 429.6220 429.8707 429.8707 429.9798 430.1598 430.1598 430.1705
   430.5788 432.8773 432.8773 433.0375 434.9173 434.9296 434.9296 435.0648
   435.0648 435.0680 435.2187 435.5410 435.5410 435.6408 435.6440 435.6440
   435.9379 435.9379 436.1544 436.5480 436.7863 436.7863 436.8571 436.8725
   436.8725 437.5065 437.6424 437.6424 438.2369 438.2369 438.3192 438.3192
   438.3304 438.3430 439.0553 439.0553 439.0752 439.7824 439.7824 439.8352
   441.1859 441.1859 441.3067 442.8432 442.8432 442.8639 443.2029 443.2029
   443.3840 443.6836 444.1689 444.1689 444.3564 444.4415 444.4415 444.4511
   444.7932 445.7552 445.7552 446.7280 447.2495 447.2495 447.3074 447.3826
   447.3826 447.3886 447.5845 447.5845 447.6792 447.6792 447.7118 447.7826
   448.0199 448.0199 448.5688 448.5688 449.8429 451.2640 451.2640 451.3953
   451.4902 451.4902 451.5464 451.5464 451.6614 451.7283 452.0432 452.0580
   452.0580 452.8277 452.8277 453.0757 453.2997 453.2997 453.4860 453.4860
   453.5570 454.5564 454.5564 454.7824 455.3136 455.7092 455.7092 456.0111
   456.0424 456.0424 456.8617 456.8617 457.0734 457.2893 457.2893 457.3268

          k = 0.5000-0.5000 0.5000 (  3852 PWs)   bands (ev):

   -33.9391 -15.0364 -14.9376 -14.9376  -5.1951   2.6637   4.7296   4.7296
    10.3833  11.3199  11.3474  11.3474  13.3087  13.3087  13.9327  13.9327
    16.4596  19.1934  19.1934  19.6611  20.6953  23.0501  23.0501  26.5161
    28.0522  28.3808  28.3808  31.5007  31.5007  33.2228  33.2228  33.5785
    33.5785  33.7950  34.7769  35.2729  37.0315  38.4667  39.9810  39.9810
    40.0819  40.0819  43.0299  43.6548  44.1905  44.1905  46.1039  46.7252
    46.7252  49.2537  49.2537  51.4316  51.4316  52.1787  52.6139  54.7022
    55.7177  55.7177  55.9886  55.9886  58.3754  58.3754  58.8687  59.0358
    59.0358  59.6810  59.6810  60.1339  60.3032  61.1526  61.7503  61.7503
    61.8490  65.5660  66.6064  66.6064  67.3956  67.3956  69.5381  69.6602
    69.6602  69.8389  69.8389  72.2126  73.0289  74.3361  74.3361  74.3956
    74.9904  75.9067  75.9067  76.4540  77.1485  77.1485  79.9364  79.9364
    80.0241  80.2375  81.7277  82.7604  82.7604  85.3884  85.4397  85.4397
    86.4380  86.4655  86.5200  86.5200  87.2642  87.2642  88.4392  88.4392
    88.7860  90.3483  90.3483  91.8676  92.0097  92.0996  92.1110  92.1110
    93.5088  94.8899  94.8899  95.5207  97.3054  97.3054  97.7403  97.7403
    99.6623  99.6623  99.9358 100.1803 100.1803 101.6838 102.3745 102.3745
   102.4035 102.4495 102.4495 102.5457 104.2831 104.4417 104.4417 106.1688
   106.1688 106.1989 108.7329 109.3062 109.3062 109.4045 109.4045 109.8876
   111.1768 111.2185 111.6286 111.6286 111.7885 111.7885 113.5123 113.5123
   115.3326 115.3326 116.1109 116.4205 117.8202 117.8202 119.0415 119.7197
   119.9106 119.9106 120.1261 120.1992 120.1992 121.3185 121.3185 121.6585
   122.5822 124.3495 124.3495 125.9614 126.7334 127.0786 127.0786 128.2622
   130.1107 130.3544 130.3544 130.6987 130.6987 131.1173 131.1173 131.3970
   131.5444 132.8395 132.8395 133.0949 133.5036 133.5036 133.9987 133.9987
   134.1940 134.2774 134.5473 134.8530 134.8530 136.4086 136.5738 136.5738
   136.6799 136.6799 139.5206 140.1611 140.1611 141.4034 141.4034 142.0151
   142.2304 142.2304 142.4848 143.9847 144.2900 144.2900 144.5098 144.5098
   145.6392 145.6949 145.8083 145.8083 146.0264 146.0264 146.7535 146.9838
   146.9838 147.1464 147.1464 147.6438 150.8769 151.0437 151.2575 151.2575
   151.3550 151.6414 152.3138 152.3138 154.0079 154.0683 154.0683 155.0232
   155.7946 155.7946 159.6884 160.0059 160.2305 160.2305 160.5973 160.5973
   161.0056 161.1023 161.2209 161.2209 161.2640 161.6638 161.6638 161.7182
   161.7182 161.8625 162.2759 162.2759 162.3512 162.5583 163.8105 163.8105
   164.0489 164.0489 165.9975 165.9975 166.9697 167.2711 167.2711 167.8872
   168.9632 169.9591 169.9591 170.8897 174.4778 174.4778 176.4554 176.4554
   176.9410 176.9410 177.0015 177.0509 177.0509 177.2586 177.2586 177.4796
   177.6397 177.6510 177.7845 177.9062 178.1819 178.1819 178.6805 179.8781
   179.8781 181.9501 182.1396 182.1396 182.5788 182.7617 183.8641 183.8641
   184.1776 184.1776 184.5299 184.5299 184.6564 184.7611 184.9676 185.1160
   185.1160 185.2134 185.2200 185.2200 185.4043 185.4043 187.0301 187.4723
   188.6599 188.6599 188.7085 188.7085 190.0546 190.0563 191.0350 191.0350
   193.0858 193.0858 194.8297 194.8297 195.3460 195.6903 195.9555 195.9555
   196.0675 196.0675 196.8248 196.8248 197.8856 197.9925 198.3290 198.3290
   199.3572 199.6400 199.6400 199.7786 199.7786 200.6979 200.9136 200.9136
   200.9681 201.5661 201.5661 201.6922 202.5732 202.7014 202.7014 203.9328
   204.0785 204.5808 204.5808 205.0295 205.0295 205.5319 205.5319 205.7204
   205.7415 206.2535 206.2535 207.9021 208.7144 208.7144 211.1695 211.2939
   211.3626 211.3626 211.7261 211.7261 212.2552 212.2552 212.3259 212.4954
   214.1852 214.1852 216.3350 216.7524 216.7524 217.5019 217.8496 217.8496
   218.2977 219.3314 219.3314 219.5335 219.9923 219.9923 220.4702 220.5402
   220.5498 220.5498 220.7271 220.7428 220.7428 221.4243 222.3964 222.3964
   222.7552 223.5774 223.8456 223.8456 224.2375 224.9144 224.9144 225.1254
   225.1504 225.1504 225.6742 225.7933 225.7933 225.8230 227.3201 227.4258
   227.4258 227.9373 227.9373 229.4090 229.4090 229.8854 229.8854 230.8056
   232.0441 232.0441 232.7661 233.5498 233.5498 234.1856 235.1637 235.1637
   235.5091 236.0191 236.0191 236.0582 237.9983 237.9983 238.4214 238.5666
   238.5666 238.5975 238.7541 238.7541 239.8761 239.8761 239.8804 239.9519
   239.9519 240.1333 241.7717 241.9613 242.5615 242.5615 243.0099 243.0099
   243.6492 243.6492 244.4024 244.4590 245.6516 245.6516 245.6686 247.5788
   247.6443 247.7916 247.7916 247.9106 247.9106 249.9481 250.9829 250.9829
   251.8136 251.8136 252.0829 252.2371 253.2320 253.2320 253.2762 253.2828
   253.7991 253.7991 254.2732 254.2732 254.4714 254.4714 254.6137 254.8259
   255.3986 255.3986 255.4037 255.4037 255.4943 255.6547 256.2777 256.2777
   256.7941 256.7941 256.8224 257.2162 257.2162 257.4438 258.3365 259.3674
   260.7533 261.0655 261.3195 261.3195 261.3435 261.3435 261.6464 261.6464
   262.1150 262.1150 262.4109 262.4325 262.6319 262.8291 263.0980 263.0980
   263.2780 263.2780 263.7283 263.7283 263.8843 263.8843 264.1373 264.1405
   269.4570 269.4570 269.7497 270.0204 270.0951 270.0951 270.5136 270.5136
   271.4731 271.4778 271.4778 271.5241 271.5241 271.7252 272.0132 272.0132
   272.0540 272.0565 273.2545 273.2545 273.6775 273.6775 273.7434 273.7461
   275.7096 275.7497 275.7497 277.2245 277.2245 278.1664 278.4025 278.4025
   278.6901 278.6901 278.8745 278.8793 279.8315 280.6939 280.6939 281.2821
   282.0113 282.9596 282.9596 282.9615 282.9615 283.7706 283.7706 284.2235
   284.9107 284.9209 285.1843 285.1843 285.3878 285.3878 285.8168 285.8168
   286.7051 286.7051 286.7149 286.7296 286.8377 286.8377 289.8654 289.8654
   290.1301 290.1301 290.8380 290.8380 290.9653 291.2373 291.4611 291.4611
   291.7856 291.7857 292.8875 293.3700 293.6000 293.6000 294.0201 294.5771
   295.3172 295.3172 295.4085 295.4085 295.7539 296.5609 296.5609 296.6385
   296.6385 298.1676 298.2617 298.2617 298.9245 299.3742 299.3742 299.3833
   299.3833 299.5543 299.5543 299.8852 300.6756 300.6756 300.9427 301.0910
   306.6614 306.6614 306.8114 306.8114 307.7872 307.7872 309.1819 309.1819
   309.2433 309.8715 309.9145 309.9145 310.5587 310.6361 310.6361 310.9639
   310.9639 311.0531 311.2205 311.2205 311.2440 311.7003 311.9826 311.9826
   312.2601 312.2601 312.3668 312.7222 312.7222 312.8641 313.1090 313.1090
   313.1487 313.2182 314.0145 314.0578 314.0578 314.0894 314.0894 314.2417
   314.2687 314.3296 314.3905 314.3905 314.3983 314.3983 314.7735 314.7735
   315.0593 315.0593 315.2268 315.2834 317.3825 317.3825 317.4448 318.4555
   318.4555 318.8524 318.8973 318.8973 318.8983 318.9041 318.9041 319.0975
   322.5044 322.6080 322.6080 323.1388 323.2691 323.2691 324.0914 324.0914
   325.1119 325.1889 325.2293 325.2293 327.9677 327.9677 328.8799 329.1206
   329.1206 329.2806 329.4409 329.5222 329.5222 329.7676 329.7676 329.8688
   329.8688 329.8917 330.0677 330.1544 330.1544 330.2325 330.9281 330.9281
   331.4346 331.5724 331.6778 331.6778 331.7498 331.7498 331.8269 331.9451
   331.9451 332.1752 335.3321 335.3321 335.4829 336.5100 336.5504 336.6012
   336.6012 336.7484 337.3913 337.3913 337.5458 338.0590 338.0590 339.2246
   339.2246 339.5298 339.5298 339.5923 339.7645 339.7752 339.7752 340.1036
   340.1036 340.1513 340.1604 340.2037 343.9225 343.9225 344.3727 344.4571
   344.4571 344.7236 346.8012 346.8012 347.7154 347.7154 348.3269 348.3269
   348.8352 349.7530 349.7653 349.7653 349.7705 349.7773 349.7795 349.7795
   349.9119 349.9595 349.9595 350.0217 350.0217 350.6848 350.6848 350.8811
   350.8811 350.9931 352.8650 352.8650 352.9003 352.9164 352.9164 353.1001
   353.3682 353.5084 353.5084 353.7617 353.8193 353.8193 355.0456 355.4061
   355.7696 355.7696 355.9312 355.9312 355.9616 356.0828 356.0828 356.0946
   357.3514 357.3514 357.5094 357.5741 357.5741 357.5994 361.3435 361.3435
   363.8090 363.8090 363.8424 363.8424 363.9145 363.9267 363.9689 363.9689
   364.1370 364.1417 364.7292 364.7292 365.0915 365.1084 365.1276 365.1276
   365.5380 365.5380 367.7234 367.7234 367.7309 367.7331 367.7331 367.7403
   367.7461 367.7461 367.7738 368.0678 370.1223 370.9116 370.9116 371.0436
   371.4333 371.4333 372.1998 372.1998 372.2306 372.2320 372.3309 372.3309
   372.4554 372.4831 372.5570 372.5570 372.7152 372.7152 375.7882 375.7882
   375.7970 375.7970 375.9525 375.9531 377.3633 377.3633 378.5915 379.2878
   379.3750 379.3750 379.3961 379.6247 379.6247 379.8756 380.2028 380.3165
   380.3508 380.4076 380.4076 380.6640 380.6640 380.6770 380.6770 380.8765
   384.5702 384.5702 385.0549 385.2689 385.2689 385.3541 385.7595 385.7595
   385.9942 385.9942 386.4084 386.4258 386.5900 386.5900 386.6172 386.6336
   386.8834 386.8834 386.9913 386.9913 387.7419 387.9012 387.9012 387.9994
   388.1408 388.1408 388.1577 388.1577 388.1923 388.2056 389.3473 389.3787
   389.3802 389.3802 389.4797 389.4797 391.7766 391.7766 391.8210 391.8210
   391.8246 391.8316 392.2481 392.2481 392.2968 392.2968 392.3670 392.3739
   398.8654 398.9330 398.9330 399.2248 399.2248 399.4625 399.4718 399.4720
   399.4720 399.5429 399.6613 399.6613 399.8556 399.8556 399.9237 399.9237
   399.9752 399.9820 400.6916 400.6916 401.2241 401.4560 401.4560 401.6065
   403.6964 403.6964 404.5941 404.6528 404.6528 404.9265 404.9604 405.5605
   405.5605 405.7317 405.7317 405.9150 405.9704 406.3552 406.3552 406.8680
   406.8680 406.9727 406.9727 406.9740 407.1651 407.2271 407.2271 407.2701
   408.0408 408.1833 408.3118 408.3118 408.4033 408.6441 408.6441 408.8373
   410.3147 410.4778 410.4778 411.5299 411.5299 411.5376 411.5376 411.8207
   411.8207 412.0129 412.6731 412.9869 412.9869 413.0017 413.6080 413.6080
   415.9723 415.9723 416.2251 416.2254 416.2254 416.2587 416.5986 416.5986
   416.7191 416.7464 416.7464 416.7637 417.4826 417.4826 417.5034 417.5034
   417.9333 417.9345 417.9659 417.9659 417.9963 417.9963 419.5040 419.5040
   423.7412 423.7412 423.9046 424.1916 424.1916 424.5290 424.6041 424.6397
   424.6397 424.6843 424.6843 424.7014 427.3151 427.3151 427.6508 428.0659
   428.0659 428.2576 428.3687 428.3687 428.8815 428.8970 428.8970 428.9800
   428.9800 429.0244 429.1156 429.1424 429.1424 429.1503 429.2357 429.2357
   429.6439 429.6439 429.7160 429.7441 430.1411 430.1849 430.1849 430.2951
   430.2951 430.3670 432.1298 432.1587 432.1587 432.4688 432.4688 432.5215
   433.6953 434.2225 438.6549 438.6549 439.3029 439.3254 439.3254 439.3665
   439.3665 439.5293 439.5633 439.7885 439.7885 439.8337 440.2125 440.4436
   440.4436 440.4524 440.4524 440.4994 440.7631 440.8212 440.8212 440.8562
   440.8562 440.9775 440.9967 440.9967 441.0581 441.0657 441.0657 441.0849
   442.2571 442.2571 442.4229 442.5144 442.5144 442.5506 442.6502 442.6502
   442.6529 442.8015 442.8015 442.8084 442.8084 442.8209 442.8506 442.8506
   444.3680 444.3680 444.3688 444.3688 444.4253 444.4254 445.3735 445.3735
   446.2855 446.2855 446.2947 446.3088 450.1093 450.1093 450.6362 450.6362
   450.6704 450.6828 450.6865 450.6865 452.5564 452.6469 452.6469 452.6781
   457.0899 457.0899 457.2116 457.2116 457.3148 457.3148 457.3592 457.4736
   457.6567 457.6608 457.7394 457.7394 458.1452 458.1452 458.3936 458.4262
   458.4262 458.4807 458.4807 458.5152 458.5988 458.5988 458.6012 458.6169

          k = 0.0000 0.5000 0.0000 (  3895 PWs)   bands (ev):

   -33.9412 -14.9753 -14.9456 -14.9456  -5.5142   3.8162   5.2966   5.2966
     8.6292  10.3103  10.4957  11.1754  11.1754  13.7794  14.5726  16.3129
    16.6092  16.6092  20.4757  21.2717  22.9574  22.9574  23.3798  25.9647
    26.2957  26.2957  26.7297  31.1251  32.1809  32.1809  33.3392  34.5228
    34.5228  36.1026  37.0829  37.9436  39.9918  40.1523  40.1523  40.5424
    41.3599  41.3599  41.7890  41.7890  41.9973  43.7521  44.3313  45.4358
    46.7066  47.5372  48.3204  49.6623  49.6623  51.5128  51.5128  51.9123
    53.0314  53.7849  53.7849  54.4880  57.0762  57.0762  57.7597  58.1157
    59.3920  59.5171  59.5171  61.6992  62.1117  62.4084  62.4084  66.1205
    66.6078  67.0442  67.8325  67.8325  68.5380  69.0825  69.0825  69.8609
    70.7354  70.7354  71.1927  72.1063  73.6768  73.9032  74.3347  74.3347
    75.3135  76.1896  76.1896  77.3453  80.1292  81.1431  81.3541  81.4985
    81.4985  81.5359  82.6392  82.6392  83.5311  84.1088  84.2262  84.2262
    84.4331  86.4119  86.9666  87.0227  87.0227  89.0104  89.0453  89.0453
    89.5256  90.2987  90.3260  90.3260  91.3587  91.5735  92.4213  92.4451
    92.4451  92.7280  93.6927  93.9629  93.9629  94.5689  94.5689  95.3704
    96.2851  96.7286  96.7286  96.8684  97.9617  97.9680  97.9680 100.5363
   101.4313 101.7878 101.7878 102.1112 106.5594 107.0212 107.3626 107.6748
   107.6748 108.3382 108.5752 108.5752 108.9010 109.0919 109.8569 110.0220
   110.0220 112.5083 112.5083 112.6678 113.0913 113.9096 114.8365 115.6181
   115.6381 115.6381 115.9712 116.2632 116.8837 116.8837 118.8594 118.8594
   119.6106 120.3138 120.8688 121.3021 121.3021 122.6632 123.2291 123.6661
   124.4894 125.0568 125.0568 125.3388 127.5486 127.5486 128.4442 128.7756
   128.7756 129.3325 129.3406 129.4742 130.2494 130.4630 130.4630 131.1901
   131.2793 132.1679 132.1679 132.3667 132.3667 133.6138 134.3762 134.3762
   134.4322 135.3034 135.6766 135.9538 135.9538 136.9089 137.2191 137.6540
   137.6540 138.7310 139.0660 139.0660 139.3556 141.4598 141.4598 141.5464
   141.5725 142.0017 142.0936 142.0936 142.5192 142.7884 142.7884 143.9081
   145.2840 146.1606 147.2396 147.5740 148.0221 148.0221 148.5252 149.1874
   149.6287 149.6287 151.6155 151.8115 152.1352 152.1352 153.3554 153.5806
   154.1993 154.1993 155.5393 155.5393 155.6550 155.7867 156.1762 156.5325
   157.6846 157.6846 157.7025 158.1491 158.1491 159.0686 159.7026 160.0070
   160.2765 160.2765 160.7906 161.8613 162.0383 162.0619 162.0619 162.1773
   162.2766 162.3831 162.3831 163.9542 164.1216 164.1216 164.1241 164.4160
   164.8369 164.8369 164.9486 164.9972 165.5537 165.5537 166.8437 167.1697
   167.8847 167.8847 168.1555 168.2798 168.3600 168.3600 168.5271 168.6017
   169.0568 170.8008 170.8008 171.5846 171.5846 172.2202 173.0053 173.1921
   173.3953 174.0259 174.8025 174.8025 176.1225 176.2217 176.2217 176.2544
   177.8621 177.8621 178.7192 179.2682 179.9182 181.5745 181.5745 182.7541
   183.8870 184.1656 184.1656 184.1803 185.0222 185.5215 185.5215 186.8983
   186.8983 187.0557 188.2024 188.2024 188.3837 188.8769 189.0934 189.8423
   190.9757 190.9757 191.4186 191.8257 192.0069 192.0069 192.0823 192.8306
   192.8306 193.7308 194.3048 194.3048 194.3859 194.5544 194.6396 194.9427
   195.3875 195.3875 195.8104 196.7582 197.5122 197.7767 197.7767 197.8841
   200.1182 200.1182 200.5940 200.8792 203.0481 203.0481 203.2174 203.6764
   203.8123 203.8826 203.8826 205.7973 206.8396 206.8396 206.8408 208.3342
   208.3342 208.5649 208.7517 209.7388 209.7388 210.3308 210.8189 210.8189
   210.8462 210.9018 211.1202 211.1202 211.2224 211.7642 212.6486 212.6486
   212.7657 213.1965 214.3208 214.8208 214.8208 215.0675 215.5724 216.0166
   216.4819 216.5332 216.5332 216.9452 216.9877 217.2677 217.4745 217.4745
   217.6458 217.6458 218.1879 218.2159 218.5845 218.6846 218.7049 218.7049
   218.8556 219.4632 219.4632 221.2340 221.7119 221.7826 221.7826 221.8978
   221.9410 222.0606 222.0913 222.0913 223.2304 223.3408 224.1085 224.1085
   225.1215 225.5887 225.5887 225.6629 225.9333 226.4662 226.4662 226.9538
   227.1106 227.1106 227.6590 227.9643 228.7416 229.1034 229.1034 229.1059
   229.1447 229.4977 229.4977 230.0448 231.5365 231.7329 234.1029 234.1029
   234.5823 236.6660 236.8671 237.1250 237.1250 237.6316 237.6448 237.7771
   237.7771 238.1906 238.2719 238.3333 239.0109 239.0109 239.5615 239.5615
   239.6820 240.5839 240.5839 240.5928 241.1837 241.2741 241.3124 241.3124
   241.6239 242.4248 242.5468 242.5468 244.1982 244.3069 244.3069 245.4595
   245.4595 245.7216 246.7976 248.2302 248.2302 249.0445 249.2739 249.5880
   250.0729 250.2721 250.3533 250.3533 250.5676 250.9570 251.0197 251.0197
   251.5419 251.6361 251.6361 252.3134 252.3134 252.4188 252.4234 253.1403
   253.7620 253.7620 254.1156 254.4848 254.7718 255.4941 255.4941 255.9499
   255.9633 256.0347 256.0347 256.7673 257.1413 257.5312 257.5312 257.8601
   258.1197 258.3608 258.3608 259.6935 262.7662 262.8331 262.8331 262.9634
   263.7457 263.9017 263.9017 264.0264 264.0672 264.4646 264.4646 265.0791
   265.9351 265.9351 265.9726 266.4118 266.4771 266.8993 266.8993 266.9732
   267.6065 267.6065 267.8087 268.1159 268.3233 268.6831 268.6831 268.7851
   269.3857 269.8053 269.8312 269.8312 270.0755 270.0755 270.2064 270.2093
   270.5456 271.4055 271.4055 272.1491 272.1491 272.1801 272.3009 274.1072
   274.1072 274.4782 275.1072 275.4566 276.3368 276.3368 276.3679 276.6100
   277.3303 279.0920 281.0473 281.0473 281.3003 281.7123 281.7123 282.0339
   282.3207 283.0056 283.0967 283.0967 285.5510 286.1740 287.7845 287.7845
   288.3884 288.9644 288.9644 289.2983 289.3052 289.3115 290.1085 290.1085
   291.0364 291.5763 291.7111 291.7111 291.7807 292.0190 292.0190 292.0521
   292.1560 292.2215 292.3552 292.7870 292.7870 292.9694 293.4534 293.5647
   293.5959 293.5959 293.6080 293.8292 293.8292 293.9500 294.1880 294.8365
   294.8365 295.4645 295.4645 295.4785 295.5645 295.6805 295.7582 296.0150
   296.0150 296.7827 297.7771 297.7771 298.1457 298.1859 298.2403 298.2403
   298.2722 298.3151 298.8512 300.0191 300.0440 300.0440 300.6357 302.4523
   302.6480 302.6480 303.6011 303.9444 303.9444 304.0090 308.8761 308.8761
   309.0877 309.3679 309.4800 309.4800 309.9634 310.2014 310.7287 310.7475
   310.7475 310.9061 310.9061 310.9393 311.2342 311.2451 311.2717 311.2717
   311.5373 311.7365 311.7393 311.7393 311.8858 311.9177 311.9177 312.1343
   314.6380 314.6380 314.7616 314.8948 315.3568 315.5538 315.7221 315.7221
   316.2977 316.2977 316.8025 317.0565 317.1270 317.1270 317.8220 317.8354
   318.6454 318.6971 318.7514 318.7514 318.9637 320.8068 320.8068 320.9166
   321.1282 321.3301 322.2052 322.2423 322.2423 322.3923 322.3923 322.5481
   322.6022 322.6078 322.6078 322.6258 323.0283 323.4201 324.5353 324.5353
   325.0437 325.1389 326.1790 326.1790 326.8209 326.8766 327.2526 327.2526
   327.5217 327.5217 327.8499 327.8777 328.2305 328.3444 329.2058 329.2058
   329.2148 330.8329 331.4615 332.2725 332.4258 332.4258 332.5051 332.7587
   332.7587 333.7241 334.2409 334.2409 334.7876 334.8234 335.1270 335.1652
   335.1652 335.7291 335.7291 336.0608 336.1066 336.4107 336.6526 336.6526
   336.6654 336.6833 336.9882 337.1245 337.1245 337.4953 338.1012 338.1012
   339.1710 339.1810 339.1879 339.1879 339.8098 340.0171 340.0171 340.1717
   340.1994 340.3129 340.3218 340.3218 340.4856 340.4856 340.5209 340.8105
   342.2544 344.0780 344.0780 344.3750 344.6810 344.7375 344.7751 344.7751
   344.9647 346.4953 346.5704 346.6253 346.6253 346.6491 346.6697 346.6913
   346.6913 346.7207 347.0611 347.1648 347.1648 347.1983 347.3196 347.3517
   347.3517 347.4022 349.1333 349.2065 349.2065 349.4051 349.6074 349.6074
   349.7591 349.7712 349.8373 349.8373 350.7858 351.0888 351.0888 351.1755
   351.2415 354.0692 354.2363 354.2746 354.2746 356.5844 357.2949 357.2949
   357.9011 358.0407 358.3700 358.3700 358.6286 360.1296 360.5299 360.9146
   360.9146 361.1424 361.1674 361.3839 361.3839 362.1515 363.0918 363.3977
   363.3977 363.4973 363.8441 363.8441 363.8687 364.9752 365.3596 367.0498
   367.0498 368.0103 368.1371 368.6420 368.6420 369.3805 369.5510 369.5510
   369.7473 369.8440 370.0517 370.3679 370.4287 370.4287 370.5079 371.0574
   371.2865 371.2865 371.4786 371.7565 371.7565 371.7983 371.9104 372.0654
   372.7037 372.7037 372.7714 375.2622 375.4451 375.4451 375.5282 376.2346
   376.2346 376.4793 376.9169 376.9208 376.9208 376.9720 377.2462 377.2470
   377.4756 377.4756 377.5303 378.1272 379.0025 379.0025 379.7200 380.2865
   380.2865 381.6733 381.7722 381.7799 381.7799 381.8795 382.3031 382.9023
   383.5968 383.5968 383.7917 384.1056 384.2087 384.2087 384.7667 385.3992
   385.9163 385.9163 386.0896 386.1424 386.3674 386.6625 386.6625 386.8751
   386.8751 386.9290 386.9508 387.0818 387.0818 387.0862 387.1218 387.7032
   387.7032 388.6401 388.7235 388.7235 388.7377 390.2441 390.3835 390.3835
   390.5274 391.3965 391.5788 391.5788 391.6287 391.7283 392.1413 392.1798
   392.1798 392.2159 392.5630 392.5630 393.6179 393.8784 393.9171 393.9171
   393.9333 394.1403 394.1403 394.2931 394.3916 394.7435 394.7435 394.8361
   394.8392 397.3805 397.6681 397.6681 397.7276 398.0809 398.1429 398.1429
   398.1883 399.4379 400.6068 400.6469 400.6469 400.6594 403.2228 403.6031
   403.6031 403.9335 404.0490 404.0501 404.1490 404.1490 404.2033 404.7545
   404.7545 404.8074 404.8100 404.9051 404.9965 404.9965 405.2429 405.4727
   406.6634 406.6634 406.8024 406.8106 406.9080 406.9080 407.5257 408.1857
   408.9633 408.9633 409.4442 412.0307 413.2191 413.3096 413.3096 413.3557
   413.7307 413.7307 413.7813 413.8180 414.0131 414.0131 414.1758 414.1768
   414.1768 414.4298 414.6328 414.6328 414.6386 416.7092 416.8746 416.8746
   417.1506 418.8128 420.0616 420.0616 420.0959 420.3594 420.4508 420.4508
   420.5392 420.6094 420.6094 420.6479 420.7574 420.8395 421.3771 421.5710
   421.5710 421.6902 422.1606 422.1606 422.1731 422.1774 422.2508 422.5546
   422.5546 422.6423 423.6030 424.8258 424.9218 424.9470 424.9470 426.5095
   426.5095 427.1685 427.1685 427.1950 427.7597 427.8851 428.3468 428.4583
   428.4583 428.6345 428.6942 429.1737 429.1737 429.3414 429.3988 429.3988
   429.4240 429.4827 430.2649 430.2960 430.2960 430.3370 433.1150 433.2139
   433.2139 433.3222 433.3545 433.3545 433.4083 433.4969 434.4261 434.4767
   434.4767 434.5188 434.6314 434.8746 434.8746 434.9281 436.3126 436.3126
   436.3774 436.4776 436.7520 437.0192 437.1465 437.2413 437.2413 437.5644
   437.7565 437.7565 438.0686 438.2904 438.2904 438.9042 440.7997 440.9769
   440.9769 441.0163 441.5141 441.5141 442.0258 442.0360 442.5188 443.0636
   443.0636 443.3883 443.5638 443.5638 443.5718 443.9074 444.0546 444.1597
   444.2020 444.2020 444.4985 444.6420 444.6873 444.9237 444.9237 445.4193
   445.4193 445.4401 445.7380 445.7493 445.7493 445.7784 446.9932 447.1551
   447.1551 447.3504 448.6894 448.7549 448.7549 448.7561 448.9896 449.0701
   449.1843 449.1843 449.6681 449.6742 449.6908 449.6908 449.6935 449.6972
   449.6972 449.7456 450.7014 451.2075 451.2952 451.2952 451.3847 451.6296
   451.6296 451.6638 452.0252 453.0971 453.4577 453.4577 453.5878 454.3198
   455.7830 455.7830 455.8170 455.8930 456.7477 456.8372 456.8372 456.8512
   456.8636 456.9259 456.9259 456.9524 457.3181 457.3262 457.3262 457.3343

          k = 0.7500-0.2500 0.7500 (  3889 PWs)   bands (ev):

   -33.9381 -15.0093 -14.9622 -14.9494  -5.2494   3.2866   4.3234   4.8459
     9.2923  11.4864  11.5323  11.7460  11.7963  12.6470  14.1713  15.9242
    16.2141  19.0301  20.0187  20.9460  22.1743  22.3015  25.0002  25.9203
    26.5634  27.4183  27.8835  28.8939  29.5954  32.3139  32.4898  32.9542
    33.1404  34.3827  35.4864  36.5143  37.1225  39.2839  39.6281  40.3203
    41.5033  42.0346  42.4742  42.5312  43.8892  46.9820  47.4362  48.2266
    48.7272  49.4142  49.7275  50.2116  50.5971  51.2745  51.7845  52.6062
    53.0804  54.6646  55.2988  55.6123  56.9276  57.9325  59.1736  59.7148
    59.8458  60.6409  61.3151  62.0933  62.1560  63.1280  63.4779  63.4862
    63.9586  64.3010  65.2808  65.8479  66.5097  67.7777  68.7336  69.0290
    69.4728  70.0168  71.2885  71.3044  71.8694  71.9354  72.5305  73.6779
    74.2756  75.5351  76.2468  76.6501  77.1713  77.8650  78.3805  79.1718
    80.1663  80.7565  81.0109  81.6612  82.0580  82.8133  84.1859  84.4294
    85.1154  85.3244  85.7633  86.1481  86.9803  87.2289  87.8661  88.1421
    88.9536  90.2362  90.4265  91.5390  92.4930  93.6799  93.8217  94.2508
    95.0541  95.5541  95.6545  96.7906  97.5525  97.8666  97.8831  98.1882
    98.9511  99.6775  99.6821 100.3021 100.4581 101.7833 102.5956 102.7772
   103.0553 103.3811 103.4948 104.6942 105.4164 105.4573 105.6656 107.2343
   107.6100 108.0175 109.1286 109.4671 110.0884 110.1015 110.4643 110.5857
   111.6867 112.0709 112.9108 113.0695 113.7645 113.7689 114.0696 115.0181
   115.1853 115.4470 116.1968 117.1307 117.3057 117.6789 118.1078 118.9374
   118.9646 119.6609 120.0071 120.3427 120.8961 121.5468 121.7087 122.3386
   122.4568 123.0530 123.7021 123.8544 124.5363 125.0931 125.5452 125.7441
   126.4088 126.5681 127.0775 127.5306 128.2257 128.8083 128.8420 129.3034
   130.1158 130.7432 131.1426 131.5105 131.5648 132.3414 132.4396 133.8210
   133.9332 134.5709 135.0820 135.0872 135.2903 135.4701 136.8947 137.2222
   137.8313 138.5642 139.0809 139.7925 139.9034 140.8293 141.1964 141.7120
   142.0921 142.2481 142.7924 143.0594 143.3141 143.8191 144.4430 144.4649
   145.6911 145.7383 146.3916 146.6614 147.0599 147.3702 147.3952 147.9056
   147.9941 148.4225 148.5809 148.9730 149.4725 149.7256 150.5431 151.2326
   152.5058 152.9797 154.3824 154.4682 155.7702 155.9820 156.7497 156.8400
   157.4518 157.8102 158.0003 158.1080 158.1591 158.2375 158.7534 159.3607
   159.8814 160.0843 160.9564 161.3997 162.1969 162.6309 163.3521 163.4921
   164.2086 164.2879 165.2023 165.2456 165.8133 166.0654 166.3408 166.5649
   166.9906 167.3849 167.6912 167.9112 168.1905 168.4207 168.8917 169.0840
   169.6828 169.7803 170.1085 170.9655 171.5151 172.8108 173.3293 173.5330
   173.6676 174.7127 174.9566 175.2035 175.6351 176.1564 176.5499 176.6514
   176.8206 177.9173 178.2978 178.5326 178.8119 179.0321 179.4382 180.0443
   180.1207 180.6764 180.8590 181.0401 181.1191 181.4329 181.6799 181.6997
   182.1744 182.5817 182.8491 183.2369 183.4566 184.0595 184.1283 184.3889
   184.8563 185.1553 186.1244 187.1012 187.5573 187.9356 188.4927 188.7393
   189.2261 189.6358 189.8337 190.9386 191.4019 191.8309 192.0710 192.2312
   192.5988 192.7392 193.3209 193.3579 193.8321 193.8608 194.3344 194.4487
   195.2422 195.9754 196.6557 197.2547 197.4005 197.9854 198.4804 198.8979
   199.1613 199.2022 200.2736 200.8954 201.1016 201.3117 201.3958 201.6059
   201.9337 201.9481 202.1488 202.3744 202.8493 203.0080 203.3631 203.7592
   203.9582 204.2391 204.7067 204.7214 204.7919 205.5119 206.0904 206.1498
   206.3329 207.2788 207.6618 207.7037 207.8571 208.8835 209.0025 209.4020
   210.3755 210.4151 210.7976 211.0315 211.1833 211.2492 211.6094 212.4379
   212.5959 212.9843 213.4925 214.6521 214.6779 216.3308 216.3526 216.8535
   217.0735 218.0124 218.2629 218.2911 219.2626 219.3372 220.0072 220.0930
   220.4968 220.7389 221.0581 221.2856 221.4189 221.6444 221.6506 221.9854
   221.9953 223.0071 223.2388 224.4342 224.8244 225.1517 225.1800 225.6285
   225.8485 226.0465 226.4466 227.0278 227.3875 227.7637 227.7702 228.4729
   228.7384 229.0348 229.6140 229.6800 230.0994 230.3846 230.4658 230.7079
   230.9970 231.1729 231.7922 232.0568 232.3747 233.0724 233.2336 234.0506
   234.5573 235.4668 235.5729 236.9806 237.5300 237.9961 238.4891 238.9503
   239.3885 239.4171 239.8386 239.8948 240.4397 240.5239 240.7979 241.0035
   241.5998 241.7024 241.7612 242.3989 242.9490 243.0682 243.4833 243.6596
   243.8039 244.9114 245.0948 245.3105 245.5664 245.6655 246.0944 246.6847
   246.7613 246.9626 247.1351 247.5723 247.7784 247.8695 248.4682 248.5501
   248.5969 248.8067 248.8766 249.2262 249.9786 250.0560 251.0421 251.5552
   251.9619 252.2517 253.2958 253.3278 253.7447 253.9296 254.1322 254.1885
   254.8370 255.2184 255.8766 256.7309 257.4345 257.7664 257.8450 258.0658
   258.3780 258.8467 259.1587 259.8235 260.0976 260.5493 260.9336 261.2503
   261.3827 261.4988 261.8217 262.1169 262.1550 262.3843 263.2163 263.2176
   263.7424 264.3993 264.6875 264.7234 264.7956 265.0801 265.3718 265.7303
   265.8288 265.9147 266.3780 266.4686 266.4730 266.6710 267.4534 267.6020
   267.9064 268.9009 269.5636 269.9942 270.1519 270.4869 270.9478 271.0365
   271.2507 271.3326 271.5498 271.7512 272.4562 272.6095 272.8457 272.9621
   273.1444 273.5526 274.0603 274.4806 274.5250 274.8705 275.1468 275.2210
   275.4865 276.0851 276.1986 276.9163 277.1639 278.1550 278.3162 278.3949
   278.9105 279.1908 279.4039 279.4405 279.8866 280.2096 280.3262 280.3750
   280.6949 281.7863 281.8654 282.4073 282.4293 282.9957 283.5033 284.1804
   284.4859 284.9491 285.0369 285.1428 285.2082 285.2933 285.5204 285.9643
   286.1897 287.1481 287.4886 287.8661 288.4017 289.1000 289.7896 289.8849
   290.1303 290.3789 290.8149 291.4596 291.5201 291.7095 291.8509 292.0911
   292.4624 292.5293 292.7210 292.7876 292.8797 293.0645 293.2209 293.5904
   293.9051 293.9559 294.3351 294.5732 294.8299 295.5624 296.0301 296.3501
   296.7371 296.7665 297.0198 297.3897 297.8848 298.0628 298.4519 299.0374
   299.3277 299.6083 299.9479 300.0103 300.0901 300.3862 300.6332 301.0914
   301.4592 302.1936 302.4398 303.0998 303.1600 303.5084 303.5981 304.2439
   304.6401 304.9634 305.3971 305.7068 306.1705 306.2484 306.4127 306.5765
   306.6029 306.9644 307.0306 307.0670 308.0813 309.0729 309.2375 309.4308
   309.6453 309.6975 309.7392 310.0432 310.2360 310.3321 310.5678 310.6866
   310.7240 310.8383 311.1444 311.3711 312.3153 312.5482 313.0593 313.2435
   313.2517 313.9483 314.6196 315.0514 315.2581 315.8266 316.1214 316.3360
   316.5939 316.8108 316.8582 318.8305 319.2202 319.2953 319.4741 319.7882
   319.8533 320.7022 321.3732 321.6102 321.7538 322.1856 322.6202 322.6862
   323.5127 324.0217 324.8054 325.1182 325.1699 325.5278 325.5614 325.5777
   325.6935 325.7396 325.9887 326.4583 327.0835 327.0965 327.0985 327.5453
   327.5778 327.8033 327.9418 328.0511 328.3395 328.4895 328.5648 328.6013
   328.9354 328.9665 329.7422 330.1026 330.2390 331.1586 332.9586 333.0899
   333.3281 333.8316 333.9058 334.8810 335.7376 335.8574 336.0624 336.5940
   336.6151 336.9734 336.9943 337.1884 337.3050 337.4458 337.4662 337.9835
   338.0261 338.4685 338.6214 338.7390 339.3330 339.6591 339.9007 340.1031
   340.3892 340.4458 340.6120 340.9729 341.5161 341.6163 342.7677 342.8700
   342.9596 343.0097 343.0318 343.3158 343.6542 344.0924 344.2218 344.3446
   344.6726 344.6777 345.0434 345.2090 345.6894 346.2730 346.3038 346.6147
   347.1927 347.2138 347.3956 347.6477 348.2672 348.3927 348.9049 349.1042
   349.2767 349.9307 349.9312 350.1015 350.1493 350.6124 350.9326 351.4817
   351.8438 351.9221 352.2004 352.4819 352.4929 352.9798 354.0627 354.0713
   354.2367 354.4674 354.5800 354.8782 355.4781 355.6449 355.7521 355.7547
   355.8337 356.1762 356.4501 357.2195 357.6655 358.5668 358.6026 359.3860
   359.6694 360.1630 360.3770 360.4706 360.5555 360.7898 361.1996 361.5008
   361.6766 362.1525 362.6453 363.1885 363.9239 364.0784 364.1062 364.6774
   364.6958 365.3493 365.5837 365.9052 366.1572 366.4739 366.5736 366.6067
   366.7646 367.1705 367.7769 368.3226 368.3259 368.9364 368.9719 369.1110
   369.3934 369.5818 369.9069 370.5683 370.7413 370.7429 371.0278 371.1184
   371.2355 371.2590 371.8004 371.8751 372.5513 372.9732 373.2544 373.3973
   373.5228 373.7732 374.1986 374.2981 374.5388 374.6039 374.9346 375.0096
   375.5405 375.6172 376.0841 376.3816 376.5311 376.9435 377.2382 377.2488
   377.2707 377.4414 377.4904 377.8222 378.1882 378.2912 378.5906 378.6322
   379.2029 379.2428 379.7921 380.4060 380.5501 380.7647 380.7657 381.1877
   381.2473 381.4168 381.4887 381.6475 381.6943 381.9122 382.1194 382.2938
   382.3408 382.8759 385.6503 385.7975 386.1491 386.5747 386.8447 386.8645
   387.1173 387.4179 387.6539 387.7740 388.3999 388.7439 388.8151 389.4183
   389.8447 389.9257 389.9902 390.1700 390.1775 390.3459 390.3868 390.5649
   390.5959 391.0754 391.1746 391.3994 391.5653 391.6483 391.8233 391.9053
   392.3392 392.8001 392.9221 393.0068 393.1074 393.2983 393.7597 393.9869
   394.3132 394.5100 394.6280 394.8037 394.8954 395.6328 395.6330 395.7174
   395.8763 396.0580 396.8947 396.9546 397.4650 397.6380 398.7030 399.4258
   399.4619 399.9501 400.0499 400.1544 400.3233 400.9569 400.9806 401.2434
   401.5228 401.6055 401.6584 401.8393 402.3574 402.6476 402.9333 403.3727
   403.7804 404.3548 404.5580 404.7509 405.1155 405.5080 405.7082 405.8294
   406.4033 406.4195 406.6363 406.6626 406.8190 406.8906 406.9227 406.9760
   407.1699 407.1906 407.6531 408.4761 409.1209 409.4914 410.1404 410.7558
   410.8662 410.9332 411.0897 411.1649 411.7116 411.7468 412.1037 412.2920
   412.5467 412.8665 412.8711 414.1524 414.3619 414.4952 414.8450 415.2307
   415.3286 415.4496 415.4657 415.5713 415.5789 415.7450 415.7725 416.3660
   416.4268 416.5942 416.7085 416.8438 417.0761 417.3784 417.5578 419.0250
   419.0409 419.1309 419.4186 420.1730 420.4895 420.5240 421.3551 421.8201
   421.8238 421.9357 422.5359 422.5507 423.7397 423.8866 423.9661 424.0839
   424.3606 424.4139 424.6017 424.7144 425.3314 425.5250 425.6681 425.6747
   425.9624 426.2272 426.3512 426.3626 426.9660 427.3274 427.6175 428.4469
   428.4733 428.5143 428.6630 428.8559 428.9694 429.2836 429.5422 429.5475
   429.8462 430.5058 430.5449 430.8098 430.8907 431.0221 431.1107 431.1118
   431.2227 432.3274 432.3585 432.8999 432.9600 434.0145 434.3434 434.3549
   434.4183 434.4697 434.5306 434.5923 434.6601 434.9686 435.0894 435.2407
   436.3195 436.3674 436.5156 436.8839 437.4665 438.6066 438.7166 439.0257
   439.4998 439.5086 439.5729 439.9900 440.3315 440.6516 440.7110 440.9837
   441.3035 441.4047 441.4158 441.6529 442.2405 442.4310 442.6289 442.8335
   443.0514 443.4236 443.8269 444.0741 444.2289 444.3501 444.4004 444.6226
   445.0842 445.1172 445.3169 445.3419 445.4129 445.4225 445.8728 448.2959
   448.3696 449.3032 449.3596 449.4359 449.5536 449.5542 450.4459 450.6091
   450.6800 451.2073 452.1786 452.1889 452.2524 452.3510 452.6149 452.7065
   453.1960 453.2681 453.2735 453.5491 453.5850 454.2348 454.6586 454.7689
   455.1203 455.2703 455.2756 455.4833 455.9101 456.0456 456.2025 456.3497
   456.6665 456.8250 457.1667 457.3778 458.3510 458.3534 458.4869 459.2127
   459.3364 459.3780 459.4896 459.5453 459.5519 459.5521 459.8770 459.9549

          k = 0.5000 0.0000 0.5000 (  3875 PWs)   bands (ev):

   -33.9391 -15.0040 -14.9648 -14.9377  -5.2839   3.2952   4.4208   4.7873
    10.6203  10.7321  10.8447  11.2574  12.2043  13.2674  14.9148  15.3005
    15.3024  17.9009  19.7965  21.4546  21.9612  23.1380  24.6906  24.8198
    26.5275  28.0111  28.2832  29.2188  32.1959  32.5914  32.8548  33.3901
    33.6611  33.7439  35.1052  35.3622  38.6212  39.5289  39.6832  40.1190
    41.2126  42.4633  42.6189  42.9005  44.3501  44.9298  45.0703  45.8592
    48.0038  49.2872  50.1862  50.2729  51.0926  51.6936  52.2608  52.8099
    53.6009  54.5532  55.5778  55.6590  56.4471  56.5286  57.2767  58.5695
    59.1380  60.7859  61.5701  62.2244  62.3430  62.7480  63.1726  63.9401
    64.1730  64.7095  65.6723  66.2464  67.4394  68.0687  69.7343  69.8934
    70.0491  70.1716  72.0039  72.3177  72.8908  73.2121  73.3532  73.7322
    74.2254  75.3238  75.4985  76.7453  76.8221  76.9288  77.8130  77.8913
    79.6329  81.7179  81.9075  82.7686  83.7262  84.0650  84.0821  84.8694
    85.2873  86.0302  86.9714  88.1178  88.5577  88.5975  89.2754  89.2759
    89.5985  90.3056  90.5978  90.6994  90.7772  92.0563  92.1783  93.2506
    93.3936  95.5528  95.9953  96.0524  96.2099  96.6419  97.0402  97.8532
    98.2909  98.2963  98.6701  98.9464 100.1156 100.6795 100.6997 101.0920
   101.4164 102.0233 102.4558 103.5693 103.7076 104.7459 107.4261 107.7349
   108.2721 108.9655 109.0016 109.4298 109.6705 109.8870 110.2794 111.4960
   111.6922 112.3937 112.9411 112.9467 113.2589 113.5732 114.1926 114.3246
   114.3950 114.7610 115.3928 115.4816 116.3713 116.6086 117.9835 118.1531
   118.5670 119.0415 119.3738 120.5115 121.7283 122.1944 123.4817 123.6602
   124.2548 124.3701 124.7372 125.6415 126.1992 126.8497 127.0219 127.4946
   127.5771 127.6925 128.2334 128.4627 129.1086 129.6196 129.7213 129.7581
   130.0872 130.4754 131.2499 131.9059 132.4246 132.9647 133.0487 133.1160
   133.2267 134.3047 136.0028 136.7627 136.8529 137.5191 138.1052 138.5566
   138.9419 138.9579 138.9601 139.6273 139.7626 140.7391 141.2145 141.3876
   141.5459 141.7575 142.1440 142.2410 142.7924 142.9825 143.3219 144.8744
   144.8754 145.0790 147.4689 147.4978 147.5412 147.8427 148.1803 148.2621
   149.4233 149.5037 150.2923 150.3545 150.5545 150.5770 151.1485 151.2859
   151.5987 151.7727 152.1417 153.5142 154.0057 154.7079 155.6364 155.9561
   156.2047 156.3117 156.9938 157.1832 157.9863 158.4957 159.4642 160.0413
   160.3397 160.4680 160.5887 161.2919 161.4252 161.5206 161.6130 162.1710
   162.5586 162.8855 163.5897 164.3072 164.6140 165.5162 165.5563 166.0512
   166.1752 166.2457 166.9199 167.5732 168.0356 168.0653 168.4736 168.9734
   169.5086 169.9406 169.9918 170.1275 170.4104 172.0553 172.2381 172.7222
   172.8456 172.8575 173.6842 173.8326 174.6043 174.9584 175.1014 176.1862
   176.9815 177.6430 177.9688 178.0134 178.0715 178.7375 179.6450 179.8166
   180.2928 180.7554 181.9830 182.1001 182.5235 182.5517 183.0701 183.1354
   183.5421 184.0748 184.2760 184.3504 184.6186 184.7834 185.5171 185.5385
   185.7304 185.8213 186.1443 186.7399 186.7985 188.0384 188.2031 188.4579
   188.5183 189.0776 189.0873 189.5780 190.3644 190.6019 190.6972 192.4116
   192.6331 192.8609 193.1232 193.3039 194.7154 194.8546 196.1816 196.1931
   196.9811 197.5468 197.9330 197.9569 197.9805 198.2447 198.4746 198.5798
   199.4615 199.4739 199.6260 199.7476 199.9488 200.5996 200.8047 201.1196
   201.5261 201.8773 202.4613 202.7655 202.9085 202.9117 203.1764 203.4233
   203.4320 203.5514 204.0421 204.1895 204.6204 206.7809 206.8635 206.9145
   207.1018 208.6052 209.3489 209.4666 210.0859 210.1546 210.5730 211.2271
   211.9502 212.2900 212.3643 212.4666 212.5846 213.0591 213.3435 213.3469
   213.3612 213.4506 215.1051 215.8223 215.9250 216.1893 216.3813 216.5118
   216.5256 217.0773 217.4536 217.7763 217.9155 217.9622 218.2619 218.6265
   219.0556 220.5733 221.1599 221.7005 221.9156 222.0944 222.5120 223.2316
   223.4666 223.5433 224.1334 224.1823 224.4024 224.6935 224.7943 224.9563
   225.1159 226.4673 226.7465 226.7628 226.8203 227.1288 227.1986 227.5152
   227.5652 227.6897 228.4265 228.7193 228.7210 229.7697 230.3957 230.5508
   230.7375 232.6214 234.1093 234.3997 234.4832 234.8885 235.9032 236.2786
   236.5237 236.7608 237.0859 238.3709 238.6019 239.0151 239.3458 239.4688
   240.0085 240.0145 240.1903 240.2804 240.4928 240.7433 240.8150 241.0899
   241.2919 241.5010 241.5181 241.8275 241.9312 242.2088 242.3331 242.9821
   243.9421 244.0443 244.0660 244.0680 244.6038 244.8348 244.9468 245.2014
   245.3062 245.3898 245.8615 246.1820 247.1942 247.1945 247.2735 247.5399
   248.0134 248.3795 248.3889 248.7875 249.6344 249.9829 250.8040 252.0129
   252.2105 252.4028 252.5197 252.6779 252.9089 253.4742 253.4819 253.7247
   253.8414 254.2655 254.2717 254.3723 254.8056 256.1398 256.1453 256.6092
   257.1991 257.2355 257.2895 257.4187 258.0633 258.5426 258.8523 259.0341
   259.7298 260.1335 260.6014 261.9685 262.0333 262.2797 262.4058 262.5014
   262.6252 262.8368 263.1767 263.4959 263.8207 264.0007 264.5528 264.9671
   265.5713 266.0805 267.2476 267.7991 267.9339 268.1641 268.3624 268.6326
   268.7232 269.0335 269.0688 269.4921 269.5641 269.8017 269.8273 270.1719
   270.2110 270.5593 270.5760 271.7641 271.9725 272.4617 272.6988 273.4015
   273.4865 274.4195 275.0315 275.1848 275.4650 275.7228 276.0321 276.4142
   276.4861 276.9513 277.0488 277.5292 277.5488 278.2214 278.6665 278.7883
   278.9091 279.1139 280.2480 280.2873 280.6085 280.6775 281.2673 281.6081
   281.7309 281.9854 282.2551 283.0358 283.5602 283.6791 284.1942 284.1944
   284.7854 285.0782 285.1522 285.2262 286.0494 286.0687 286.3311 286.6144
   286.8562 287.0507 287.5239 287.6593 287.7823 288.2796 288.3551 288.4820
   288.5494 289.1864 289.9455 290.3023 290.3653 290.6940 290.9004 291.4274
   291.5801 291.7618 292.0146 292.0351 293.4574 293.9060 293.9638 294.3271
   294.4454 294.5453 294.6097 295.1900 295.2025 295.6956 296.5269 296.6860
   297.4036 297.7883 297.8313 298.2767 298.9718 298.9801 299.0199 299.5257
   300.1077 300.4417 300.5390 300.8358 300.8680 300.9113 300.9392 301.1586
   302.1360 302.7216 302.7403 303.4144 303.5942 303.9232 304.1674 304.4424
   304.9260 304.9492 305.2635 305.3208 305.5458 306.8379 306.9586 307.2081
   307.6849 307.9825 309.5257 309.6877 310.5836 310.5849 310.7983 311.0518
   311.1657 312.3637 312.6670 313.0216 313.0781 313.5761 313.7237 313.7711
   313.9237 313.9545 314.0627 314.1098 314.3949 314.5681 315.2299 315.2663
   315.8684 316.2924 316.7482 316.8422 317.3805 317.6672 317.8342 317.9727
   317.9751 318.4079 318.9132 319.0260 319.1034 319.1774 319.6778 320.0140
   320.6485 320.7256 320.7553 320.9143 321.7099 321.7875 321.8283 322.0818
   322.2023 322.3674 323.1420 323.4609 323.5362 323.6381 324.1423 325.4447
   325.5562 326.0144 326.0628 326.3000 326.3144 327.1718 327.2663 327.4972
   327.5610 328.0561 328.1124 328.1400 328.3509 328.5255 328.6615 328.7913
   328.8725 328.9078 329.8715 329.9329 330.3298 330.5678 330.6474 330.7183
   330.8585 330.9377 330.9775 331.0980 331.2053 331.3849 331.4914 331.7334
   332.8563 332.8679 335.3405 335.4939 337.8284 337.9868 338.2067 338.3057
   338.3614 338.3844 338.4092 338.6471 338.7519 338.8351 338.9447 339.0470
   339.0689 339.2614 340.1500 340.2153 340.8348 340.9743 341.1618 341.2453
   341.3403 341.8213 342.0348 342.0585 342.5824 342.7526 343.0752 343.0882
   344.0771 344.5558 345.3929 345.4516 345.8812 346.0738 346.1816 346.4378
   348.0915 348.2667 348.2859 348.9329 349.4827 349.5111 349.6262 349.6932
   349.8753 349.9423 350.7463 350.8387 351.0064 351.3477 351.4819 351.4869
   351.6441 351.7066 352.0089 352.0129 352.1961 353.2574 353.3063 354.0204
   354.3550 354.6698 354.7954 354.9217 354.9612 355.0084 355.0194 356.1637
   356.3711 356.6581 356.7134 357.1204 357.1458 357.9124 358.3304 358.6716
   358.8105 359.1698 359.2177 359.3046 359.9031 360.3814 360.3843 360.4692
   360.6459 361.3277 361.4478 361.8387 362.3647 363.3592 363.3840 363.4843
   363.6013 364.6711 364.7685 364.7955 364.8513 365.2458 365.7504 365.7992
   366.0774 366.4504 366.4657 366.4765 366.6159 366.7829 366.9951 367.7613
   367.8149 368.3877 368.4018 368.4837 368.5411 368.7073 368.7450 369.6414
   369.9787 370.1396 370.1520 370.1893 370.1919 370.3126 370.4554 370.7763
   371.3877 371.6003 372.7876 373.0041 373.0216 373.3623 373.3855 375.0890
   375.6248 376.4594 376.5815 376.6575 376.9729 376.9825 377.0707 377.3946
   377.7692 377.8307 378.3376 378.3849 378.8919 379.1195 379.3676 379.7989
   379.8627 380.0053 380.5661 381.1483 381.8691 382.0901 382.5814 382.5946
   382.6233 382.6302 382.6350 382.7123 382.7139 382.7350 382.9529 384.9000
   385.0434 385.5896 385.6736 386.0151 386.3723 386.4464 386.4873 387.0891
   387.7367 387.8635 388.0480 388.0495 388.1512 388.6528 388.9004 389.0823
   389.4315 390.0534 390.3044 391.3548 391.3807 391.5001 391.7266 391.8097
   392.0204 392.0271 392.5684 392.7578 392.8168 392.8826 393.0776 393.2843
   393.6013 393.6993 393.8632 394.0417 394.0823 394.1132 394.3170 394.3677
   394.6456 395.3490 395.7395 395.8745 396.3954 396.4027 396.6783 397.1454
   397.5013 397.5534 397.7523 397.7597 397.8816 398.2266 398.2465 399.5752
   399.7196 401.0426 401.0460 402.2383 402.5490 403.2685 403.5373 403.7020
   403.7686 404.0019 404.0414 404.2855 404.2919 404.6249 404.7238 404.9821
   404.9823 405.1777 405.2405 405.5365 405.6612 406.0986 406.0988 406.4744
   406.5119 406.5730 406.5864 406.7529 407.1317 407.1379 407.1826 407.3084
   407.4516 407.4525 407.5698 407.5748 407.6723 407.8922 408.3000 408.4587
   408.9372 409.3428 409.3707 410.0800 410.1133 410.2566 410.2771 411.1341
   411.8770 411.9590 411.9880 413.4470 413.6685 413.7355 413.8126 415.1568
   415.4892 415.5630 415.8592 416.2163 416.2504 416.2874 416.2926 416.7720
   416.8729 419.4280 419.4686 419.4836 419.5529 419.9194 419.9402 419.9494
   419.9880 421.3236 421.3442 421.4420 421.5995 422.3316 422.4724 422.7885
   422.7926 423.0682 423.1053 423.1508 423.2014 423.2136 423.2784 423.3604
   423.5099 423.7466 423.7905 424.0016 424.1878 424.8251 425.2144 425.6462
   425.7447 426.0575 426.1828 426.8603 426.9277 426.9303 427.0161 427.1547
   427.5650 427.8847 428.0147 428.1011 428.1506 428.3548 429.1204 429.2373
   429.3122 429.4996 429.6659 430.6103 430.7974 430.8415 430.8966 431.5197
   431.6240 432.2462 432.5414 432.6661 432.7664 434.5284 434.7255 434.7617
   434.8191 435.9603 435.9869 436.0198 436.0707 436.1288 436.1906 436.8134
   436.8249 437.6197 437.7549 437.8052 437.8547 437.8622 438.7580 439.0253
   439.0636 439.4786 439.5357 439.5696 439.6527 440.0282 440.0596 441.2156
   441.3240 441.4046 441.8149 442.1206 442.3451 443.0626 443.1689 443.7530
   443.7788 444.0304 444.0561 444.0962 444.2037 444.2610 444.3044 444.3614
   444.4077 446.1367 446.1834 447.7854 447.8201 448.4242 448.4946 448.5253
   448.5566 448.8647 448.8761 449.0951 449.1773 449.6327 449.7809 449.9763
   450.9196 450.9494 451.5449 451.8628 452.0066 452.0416 452.1406 452.7360
   452.7646 452.8874 453.0732 453.2192 453.2552 453.4389 453.6100 453.9020
   454.1300 454.6298 454.6489 454.6568 454.9215 455.1253 455.1296 455.7311
   455.9269 456.3902 456.4273 457.3521 457.4033 457.5970 457.6032 457.7681
   457.7996 458.2254 458.2969 458.4698 458.4725 458.6455 458.6618 458.7377

          k = 0.0000-1.0000 0.0000 (  3892 PWs)   bands (ev):

   -33.9370 -15.0072 -14.9612 -14.9612  -5.3008   3.4059   4.9754   4.9754
     7.9435  10.8866  10.8929  11.8408  11.8667  11.8667  15.9367  16.5743
    18.7190  18.7190  20.4314  20.4314  21.7868  23.0042  24.0801  26.6485
    26.6485  26.8174  27.0809  27.1084  30.3183  30.5243  30.5243  32.8027
    32.8027  35.2205  36.8034  37.0627  37.2178  39.8106  39.8106  40.6714
    40.6714  42.2436  42.7986  42.9472  43.7831  45.9406  45.9406  48.2121
    50.1348  50.1348  50.8626  50.8626  51.0968  51.2251  52.8050  52.8948
    53.4461  55.8556  56.6948  57.9068  57.9068  58.7178  58.8403  58.8403
    58.8783  60.0052  60.0052  60.3234  60.3315  60.3504  61.8491  61.8491
    64.2954  66.3384  66.9916  66.9916  68.9934  69.1471  69.8723  70.6151
    70.6151  70.7506  70.7506  70.7531  71.3848  71.7314  71.7314  72.2288
    72.2288  74.0302  74.5558  75.8522  76.7492  76.7492  76.7627  77.8680
    78.0465  78.1911  78.1911  82.5714  83.1615  83.1615  84.7779  86.4931
    86.6514  86.9176  86.9787  87.7496  87.7911  87.7911  88.6586  89.3592
    89.3592  89.4052  89.5935  89.5935  89.6081  92.1787  92.1787  92.7887
    93.1807  93.6033  93.6033  98.0967  98.4588  98.7255  99.0282  99.1764
    99.1764  99.9028 100.8771 100.8771 101.3808 102.1753 102.1753 102.4131
   102.8035 105.2764 107.2560 107.8689 108.0710 108.1170 108.1170 109.2535
   109.2535 110.0308 110.0308 110.1520 110.1520 110.2248 110.7919 111.3331
   111.4126 112.1732 113.3903 113.9211 114.3900 114.3900 114.8609 116.8949
   117.2569 117.2569 117.3570 117.3570 117.5083 117.5228 117.5228 119.0024
   120.2769 120.2967 120.3677 120.3677 120.6552 120.6918 120.7306 120.7352
   120.7352 120.9042 121.5148 121.7803 121.7803 122.0573 122.1631 125.7068
   125.7068 126.1025 126.1025 126.1775 126.3370 126.4155 126.7841 127.9288
   128.2498 130.1221 130.1221 130.3890 130.3890 131.5514 132.6430 133.6527
   133.6527 135.6112 135.8269 136.0355 136.1147 136.1840 136.1840 137.0108
   137.0108 137.4773 137.9910 138.4398 138.4398 138.8702 139.0204 139.3891
   139.3891 139.4856 140.0851 140.5663 140.6185 140.6900 140.6900 140.9329
   142.3914 143.6315 143.6315 146.0114 146.0151 146.0151 149.8817 153.9235
   154.0333 154.1490 154.1530 154.3285 154.4426 154.4426 155.0087 155.6977
   155.6977 155.9498 155.9498 156.7329 156.7329 157.9265 158.0921 158.0921
   158.2137 158.5477 158.5477 158.6858 158.9392 159.2802 159.2802 160.9826
   161.2878 162.4539 162.4539 162.8328 162.9301 163.1800 163.2031 164.1519
   164.2098 164.9119 164.9119 165.3678 165.7917 165.7917 165.8627 165.8627
   166.5491 167.1619 167.7203 168.0412 168.2103 168.2103 168.3526 168.3526
   168.4363 168.9360 169.7337 169.7337 169.9676 172.3708 172.9693 172.9693
   173.0071 173.4413 173.5569 173.9454 173.9454 174.1073 174.2300 176.1147
   177.1072 177.1072 177.2259 177.5079 177.5079 177.7568 177.7937 178.3188
   180.0835 180.0835 181.3009 182.5105 182.5487 183.4507 183.4507 183.6383
   183.9737 183.9737 183.9956 184.1326 184.1326 184.2848 184.9783 185.1428
   185.1428 185.4807 185.4807 185.9842 186.1970 186.4256 188.3063 188.3270
   188.5446 188.6196 189.1558 189.1558 189.2353 189.2353 189.2789 189.6465
   189.6978 192.2346 192.4357 192.4357 192.8111 193.0101 194.8918 194.8918
   195.2513 195.2513 196.2660 196.6650 196.6735 197.9020 197.9020 199.9431
   200.0098 200.0098 200.4793 202.0328 202.4437 202.4575 202.5987 202.5987
   202.7605 202.7605 203.2311 203.5056 203.7956 203.7956 203.8460 203.8460
   204.1122 204.2193 204.2197 204.7332 205.5671 205.5671 205.5891 207.6062
   208.4269 208.9105 209.0680 209.0997 209.1608 209.1608 209.2624 209.2624
   209.3189 209.6843 210.4639 210.4639 210.5166 210.6727 210.6727 210.7161
   213.9293 213.9293 215.8687 216.1054 216.6538 216.8272 216.8272 217.9448
   217.9448 218.2148 218.4021 218.6382 218.6382 218.7426 219.4058 220.5270
   221.1542 221.1542 221.8846 221.8846 222.3816 222.7847 222.8998 223.5402
   223.5402 223.5886 223.6352 223.8695 224.1487 224.5233 224.5594 224.5594
   224.6223 224.6736 224.6736 224.9439 225.0001 225.0798 225.0798 225.8953
   225.8973 225.8973 225.9048 225.9537 228.0743 228.3878 228.3878 228.4898
   228.9348 228.9593 228.9593 229.0263 229.6832 229.6832 232.2776 233.8212
   234.1402 234.1402 234.2180 234.5263 234.5654 237.1058 238.1420 238.6087
   238.7904 238.9177 238.9177 238.9594 238.9594 239.1424 239.4077 239.4077
   239.6078 239.6110 239.8442 239.8442 240.6002 242.2275 242.2275 242.8577
   246.8134 246.8707 246.8707 247.0311 247.4115 247.4115 247.7733 248.0290
   249.3945 249.5936 250.3723 250.3723 251.5762 252.0654 252.0654 252.2055
   252.2055 252.2970 252.5561 253.0599 254.1480 255.2066 255.2066 255.4900
   255.9988 256.0317 256.1842 256.4054 256.4054 256.6179 256.6636 256.8082
   257.2457 257.2457 257.3519 257.4906 257.4906 258.1591 258.2832 258.3302
   258.5108 258.5275 258.5275 258.6348 258.7299 258.7299 259.4250 259.5174
   259.5174 260.6992 262.2200 262.3083 262.4221 262.4221 262.5804 262.5804
   262.8522 262.8889 265.6776 265.6776 266.8499 267.1730 267.9685 267.9685
   268.4804 268.7417 269.3435 269.4106 269.6507 269.6507 270.1955 270.3592
   270.3592 270.5604 270.8162 271.1867 271.1867 271.1971 271.1971 271.3735
   271.4237 271.4625 271.4664 271.8303 271.8303 272.8452 272.9513 273.0106
   273.1228 273.1430 273.1430 273.5430 273.5430 273.9266 273.9266 274.1230
   274.1358 274.4077 274.4077 274.4181 274.4376 274.9765 275.6052 275.6052
   275.7707 275.7707 278.9177 279.9516 280.0068 280.0362 280.0362 280.0749
   280.0749 280.1442 280.1678 281.7362 281.7362 281.9559 282.4749 282.4759
   283.3089 283.4893 284.7577 284.7577 285.6277 285.6761 285.6761 285.8820
   286.4627 286.4627 286.9579 287.0860 287.9002 287.9002 288.9272 289.0069
   289.6380 290.0809 290.0809 290.2527 291.3476 291.3631 291.4026 291.4026
   291.4898 291.4898 291.5435 291.5823 291.7229 291.7229 291.8893 291.9529
   292.7419 292.7419 292.7611 292.7666 293.8259 294.3280 294.6438 294.6438
   294.7764 294.7764 294.7999 294.8035 294.8093 296.1171 296.1171 296.3988
   296.7127 297.0768 300.8013 301.1083 301.4540 301.4540 301.8174 301.8174
   302.8235 303.0475 303.0475 303.2379 303.3569 303.4293 303.4293 303.4849
   303.4849 303.6645 305.7206 307.2162 307.2556 307.9778 307.9778 308.3469
   308.5406 308.5521 308.5521 308.6072 308.6796 308.6796 309.6050 309.6278
   309.6390 309.6621 309.6621 309.7022 309.7258 309.7258 309.8042 309.9685
   311.2102 311.2247 311.2247 311.2383 311.9135 311.9226 313.9929 314.4746
   314.4746 314.6921 314.6921 314.6923 314.6923 316.0195 316.0220 316.7978
   316.7978 317.0342 317.2028 317.8438 318.6291 319.9494 321.1392 321.3552
   321.3552 321.5602 321.6861 321.6861 322.2886 322.6798 322.8684 322.9889
   322.9889 323.1311 323.3330 323.4549 323.4549 323.7395 324.2719 324.2719
   324.6550 324.7358 325.0899 325.3880 325.3880 325.4451 325.4600 325.4795
   325.5133 325.5133 325.5476 325.9746 325.9746 326.5465 327.3722 328.1919
   328.1919 329.1100 329.4449 329.4554 329.4554 329.4867 329.6482 330.0065
   330.0065 330.0636 331.7756 333.2422 333.4489 333.5767 333.5767 334.1000
   334.2033 334.2033 337.3740 337.3740 338.6354 338.7278 338.7278 338.7293
   338.7293 338.8642 338.8673 339.1257 339.1516 339.3359 340.3869 340.5778
   340.5778 340.5872 341.0351 341.0351 342.4982 342.8716 343.2433 343.2433
   343.3213 343.5546 343.9759 343.9811 343.9811 343.9955 344.5579 344.5646
   344.5646 344.5801 345.9659 346.3676 346.3676 346.3875 347.5910 347.5910
   348.5597 348.8769 348.8892 348.8892 349.1861 349.1861 349.3843 349.4502
   350.9635 351.8096 351.9078 353.0823 353.0823 353.6687 353.9458 354.0798
   354.0798 354.4204 354.4204 354.6330 355.1262 355.1262 355.2407 355.4212
   356.5411 357.3642 357.4604 357.8104 357.8104 358.3263 358.3875 358.3875
   358.7557 358.7557 359.2559 359.4146 360.0916 360.0938 363.6137 363.9756
   364.0648 364.0648 364.4946 364.6553 364.6553 364.7986 365.0316 365.1191
   365.1191 365.2185 365.4200 365.4246 365.4246 365.4450 367.4239 367.7039
   367.7039 369.3868 369.3868 369.4264 369.5230 369.6540 369.7799 370.6115
   371.6118 371.6118 371.7319 371.8161 371.8917 371.8917 371.9746 371.9746
   371.9827 371.9827 372.1971 372.3288 372.3445 372.3551 372.4543 372.8415
   373.1627 373.1986 373.2636 373.2653 373.2653 373.4148 373.4148 373.5055
   373.7401 373.7401 373.8253 373.8806 373.8806 373.9301 374.0088 374.0819
   374.4461 374.4461 374.5303 374.6616 374.6849 374.7064 374.7663 374.7663
   374.8883 374.8883 375.1485 375.1485 375.3117 375.3956 375.3971 375.4368
   375.5500 375.5500 375.5530 375.5530 375.5830 375.7869 375.8691 375.8691
   375.8987 375.9420 376.4656 376.5121 376.5121 376.5175 379.6031 379.6031
   379.6290 379.6467 379.7356 379.8770 379.8770 379.8823 381.9018 381.9493
   382.0418 382.0418 382.1123 382.1123 382.2917 382.2969 390.9059 391.0580
   391.0580 391.1129 391.1672 391.1672 391.1715 391.1852 391.3875 391.5516
   391.5516 391.6021 391.6599 391.6908 391.6908 391.7034 392.5331 392.5331
   392.9174 393.6040 393.9761 394.2052 394.2291 394.2359 394.2359 394.3440
   394.3440 394.3934 394.4375 394.6155 394.6155 394.7091 395.3221 395.3840
   395.3840 395.4144 395.4164 395.6106 395.6106 395.6166 395.6230 395.7446
   395.7821 395.7821 395.9030 396.0446 396.0446 396.1141 401.9889 403.1254
   403.2495 403.2495 403.2841 403.8027 404.3864 404.3864 404.7106 404.9931
   405.0038 405.0038 405.3623 405.4145 405.4145 405.5391 405.6299 405.6338
   405.9667 406.2129 406.2218 406.2218 406.2454 406.5498 406.5498 406.6922
   406.7270 406.9369 406.9369 407.0000 408.9111 408.9376 408.9376 409.0305
   409.4465 409.4698 409.4698 409.7414 409.7414 409.8832 410.8207 410.9579
   411.5195 413.6107 413.7383 413.7383 414.5893 414.5893 414.6084 414.6212
   414.6325 414.6325 414.6421 414.6548 416.3986 416.4406 416.4461 416.4461
   416.4570 416.4570 416.4572 416.4711 419.4396 419.4396 419.6474 419.9167
   420.4501 420.4501 420.6198 420.8491 422.3805 422.5108 422.5108 422.5246
   424.3358 424.4057 424.5870 424.5870 424.5872 424.5872 424.8904 425.1054
   426.1108 426.1108 426.1224 426.1328 426.1460 426.2023 426.2023 426.2336
   426.8523 426.8585 426.8585 426.9850 427.2426 427.2785 427.2785 427.3953
   428.1790 428.1802 428.2245 428.2245 428.2283 428.2283 428.3219 428.3275
   428.4048 428.6862 428.6862 428.9042 428.9491 429.0893 429.0893 429.1519
   429.1519 429.1721 429.3336 429.3336 430.2830 430.3053 430.3053 430.3290
   434.6477 434.9503 435.0000 435.0000 435.9449 435.9469 437.5092 438.0596
   438.1762 438.1762 440.3446 440.3446 440.6435 440.7894 440.8458 440.9778
   441.0019 441.0019 441.0370 441.0731 441.1267 441.1267 441.1721 441.2036
   441.2309 441.2309 441.4678 441.7525 442.6858 442.6858 442.7012 442.7424
   443.2415 443.2415 444.5493 444.5493 445.0545 445.0707 445.2984 445.2984
   445.5113 445.5769 445.6983 445.6983 445.8683 445.9724 446.0809 446.1494
   446.2351 446.2351 446.2586 446.2606 446.2612 446.2612 446.2783 446.3279
   446.3279 446.3423 453.0071 454.0590 455.2327 455.2327 455.9723 455.9962
   456.1086 456.1086 456.1657 456.1747 456.1860 456.1860 456.2424 456.3865
   456.3865 456.5610 456.5610 456.6177 456.6211 456.6211 456.7220 456.7299
   457.3046 457.8187 457.8187 458.3932 458.3976 458.4202 458.4202 458.4948
   460.1882 460.2243 461.2538 461.2644 461.2753 461.2753 461.2969 461.3241

          k =-0.5000-1.0000 0.0000 (  3884 PWs)   bands (ev):

   -33.9370 -14.9842 -14.9842 -14.9671  -5.2166   3.9425   3.9425   4.2528
    10.2739  10.2739  11.0908  11.5588  11.8722  14.4073  14.8127  15.3494
    15.3494  19.7268  19.7268  20.3050  22.8095  25.2961  25.3622  25.3622
    27.2501  27.2756  27.2756  27.5785  28.8121  30.3844  31.7573  31.7573
    33.7989  33.7989  34.1775  35.0147  35.9141  41.1029  41.1029  42.4759
    42.5776  42.7826  42.7826  43.5519  46.2363  46.4497  47.0112  47.6845
    48.5008  48.5008  49.9962  49.9962  50.4438  50.7447  51.8107  51.8107
    54.7493  54.7493  55.8464  56.8229  58.1454  58.1454  58.2543  58.3276
    60.3507  60.3507  60.6794  60.9668  62.3351  63.0062  63.0062  63.6363
    63.6363  64.5508  65.0244  65.3516  66.8466  68.6018  68.6018  70.8093
    70.8093  71.5840  71.6486  72.3212  72.4931  72.9044  72.9955  72.9955
    74.2697  74.5950  74.8319  75.7871  75.7871  77.0937  77.4801  77.4801
    79.1277  79.4415  79.5834  80.9053  80.9053  81.4226  81.4226  81.5040
    81.5309  84.6103  85.8930  86.3526  86.3526  87.1666  88.2160  88.2160
    88.3554  90.6865  90.6865  91.6424  93.8234  95.3925  95.3925  96.9779
    96.9779  97.3789  97.4774  98.2803  98.2803  99.5938  99.6803 100.3092
   100.3092 101.1091 101.8567 101.8665 102.0434 102.4395 102.4395 102.9780
   103.3447 103.3447 104.9044 105.4792 105.4792 105.8662 106.2246 106.5588
   106.9793 108.1967 108.1967 109.5857 109.7928 110.7443 110.7839 110.7839
   111.5827 112.0563 112.0563 112.5270 113.3068 113.5497 113.6925 113.6925
   114.4842 115.7861 115.7861 116.0157 116.2673 117.2638 117.5658 117.5658
   118.0782 119.8520 119.8520 120.2346 120.2826 120.9532 121.7549 121.7549
   122.4729 123.6637 123.6932 123.9677 123.9677 125.7296 126.4784 126.4784
   126.8898 126.9052 127.2337 127.5975 127.5975 128.3637 128.7909 128.7965
   129.3806 129.3806 129.6417 130.1124 130.1124 130.6640 130.6640 130.8774
   131.9547 132.4902 133.9260 133.9260 135.5787 136.4284 136.5812 136.5812
   136.8541 137.2290 137.2290 138.5205 139.9245 140.6646 140.6646 140.8974
   142.6448 142.6448 144.6542 144.9722 145.0891 145.0891 145.3105 145.6789
   145.6971 145.7908 146.4066 146.4066 147.3384 148.1774 148.1774 148.4954
   149.2105 149.8140 150.3469 150.3469 151.3260 151.3260 151.7814 151.9041
   152.6150 152.8570 152.8570 153.8736 154.1554 155.0662 155.6475 155.6475
   155.7319 157.2686 157.2686 157.3390 157.4730 158.3624 158.4831 158.4831
   158.9973 159.1548 160.2634 160.2634 160.5551 161.7995 162.5057 164.8977
   165.0325 165.2803 165.2803 165.6223 165.6223 166.4715 166.4829 166.4869
   166.4869 166.6950 166.8937 166.8937 169.5588 169.8093 170.0734 170.1760
   170.1760 171.0002 171.3088 172.4770 172.4770 174.8109 174.8109 175.1779
   176.5804 176.6769 177.6588 178.3970 178.3970 178.6174 179.0824 179.1448
   179.6962 179.6962 179.8639 180.0680 180.0680 180.2120 180.3980 180.4410
   180.4410 180.6521 181.1345 181.1345 181.3005 181.7798 182.4666 182.4666
   183.4048 183.4333 183.4333 184.5100 184.9292 185.2588 185.2588 185.7180
   185.9659 186.1072 186.1627 186.1627 186.2902 186.5336 186.5711 186.5711
   186.6579 187.2057 187.2057 187.6114 188.6590 190.2480 190.2480 191.4941
   192.4831 192.4831 192.8424 193.8445 195.1935 195.1936 195.1936 195.7203
   195.7203 195.7535 195.8317 195.9094 196.2153 196.2284 196.2284 196.2603
   196.9383 197.1323 197.1323 198.0223 198.9946 198.9946 199.8107 199.8275
   199.8275 199.8803 200.1375 200.1912 200.9811 201.1848 201.1848 201.1956
   203.5362 203.5362 204.5808 204.5881 204.9133 204.9133 204.9139 205.5648
   207.3984 208.3780 208.3780 208.8832 208.9073 209.4422 209.4422 209.7095
   210.2964 211.1433 211.2665 211.2665 211.3623 211.4796 211.9985 211.9985
   212.3916 212.8226 212.8226 212.9626 213.0983 214.9837 214.9837 215.3517
   216.8313 217.0456 217.1381 217.1381 218.4286 218.7917 218.7917 218.8948
   219.6011 219.7473 219.7473 219.8445 221.9765 222.0481 223.9520 223.9520
   224.6691 224.6691 225.4360 225.8249 226.1054 228.0947 228.2734 228.2734
   228.3416 228.7471 228.9756 228.9923 228.9923 229.0411 229.0883 229.5447
   229.5447 229.6135 230.1096 230.2581 230.4319 230.4319 230.7509 231.2059
   231.2059 231.3797 231.5960 231.5960 231.6455 231.7332 231.9333 232.0705
   232.0705 233.0292 234.9160 236.7195 237.8333 237.8333 238.3771 238.4483
   238.4483 238.8219 239.8393 240.6454 240.6454 240.9485 241.6184 241.6184
   242.1810 242.4476 242.4476 242.5580 242.7735 243.3937 244.1958 244.1958
   245.5748 245.8263 245.9263 245.9263 246.0278 246.5592 246.5592 246.7866
   246.8998 246.8998 247.0025 247.4138 247.7011 248.1613 248.7252 248.7252
   248.8919 248.8919 248.9128 249.1759 250.5125 250.6772 250.6772 251.1804
   251.1804 251.2425 251.2895 252.0587 252.6780 252.6780 252.8905 253.4376
   253.4655 253.6353 253.6353 254.2712 254.2712 254.2817 254.3368 254.4548
   254.6385 256.3799 256.3799 257.0886 258.7409 258.7409 259.7597 259.7902
   263.0031 263.6379 263.6379 264.2186 264.6771 264.6771 264.8417 264.9071
   266.7693 266.7693 267.2492 267.3078 267.8901 268.9376 268.9376 269.2007
   269.2862 269.2862 269.8338 269.8647 270.1340 270.3355 270.3355 270.7540
   270.7750 270.7750 270.9672 271.1168 271.2216 271.2216 271.3387 271.6448
   272.2413 272.2413 272.7145 272.8686 273.0069 273.0069 273.0699 273.7534
   274.2662 274.2662 274.3423 274.3958 274.8372 274.8389 274.8389 276.5618
   277.9981 278.0952 278.0952 278.1213 279.9285 280.5006 280.5497 280.5497
   280.7602 280.9212 280.9806 280.9806 280.9838 281.2591 281.2591 281.5706
   281.5960 281.6291 281.6975 281.6975 282.3429 282.8309 282.8309 282.9326
   283.0127 283.2084 283.2556 283.2556 284.2599 284.3540 284.3540 284.6594
   285.6930 285.7228 285.7290 285.7290 285.9060 286.0616 286.4473 286.4473
   288.1366 288.1366 288.3681 288.7452 288.8334 288.9212 289.1046 289.4106
   289.4106 290.6808 291.3107 291.7216 291.7216 292.6560 293.4796 294.4516
   294.4516 295.3749 295.3972 295.3972 295.5585 295.8344 295.9581 296.3843
   296.3843 297.2456 297.4001 297.4001 297.4210 298.1886 298.5577 298.5812
   298.5812 298.5986 298.8771 298.8771 299.1539 299.1570 299.2783 300.2499
   300.4507 300.4507 300.5003 300.9404 301.0092 301.0092 302.0846 303.2207
   303.2207 303.6924 303.7484 304.5945 304.5945 304.5975 306.0367 306.0367
   306.2750 306.2969 306.4176 306.4176 306.4611 306.6182 307.6999 307.7257
   307.7257 307.8000 307.8924 308.0465 308.0465 308.2872 309.0204 309.0204
   310.6140 310.6140 310.6617 310.6724 311.8773 312.6391 312.6391 314.1010
   315.2411 315.3483 315.3483 315.3938 315.8049 315.8049 316.1062 316.3147
   316.3147 316.3227 316.6378 316.6596 316.6851 316.6851 317.6211 318.0356
   319.3428 319.8954 319.8954 320.0982 320.1733 320.6495 320.6495 321.5565
   322.1158 322.2598 322.2598 322.3694 323.1537 323.1564 323.1564 323.9597
   325.0768 325.7406 325.7406 325.9686 327.0526 327.0526 327.7030 327.8755
   327.9202 327.9202 328.1116 328.2136 328.2735 328.2735 328.2746 328.3670
   328.9352 331.2282 331.2282 331.2293 331.4548 331.5282 331.5403 331.5403
   335.2279 335.3335 335.3335 335.6873 336.7135 336.9397 336.9397 337.1396
   337.2811 337.5312 337.5312 337.5746 338.0181 338.0181 338.2128 338.4064
   338.7296 338.7972 338.8045 338.8045 339.6815 339.9148 339.9148 340.3010
   341.0235 341.0791 341.0791 341.1047 345.9237 347.0290 347.0290 347.5564
   347.6123 348.1663 348.1663 348.2540 348.2702 348.2976 348.2999 348.3258
   348.3658 348.3658 348.5243 348.5243 348.6794 348.6794 348.8753 348.9084
   349.6956 349.9880 350.0256 350.0256 350.1295 350.9657 351.5112 351.5112
   351.6576 352.3658 352.9522 352.9522 354.0901 354.6369 354.6918 354.6918
   355.2215 355.3358 355.6350 355.6350 356.5339 356.5754 356.5952 356.5952
   356.9186 356.9186 357.0628 357.1392 357.3822 357.3822 357.5455 357.6655
   357.7002 357.7051 357.8182 357.8182 358.2502 358.2646 358.2963 358.2963
   358.3695 358.4022 358.4361 358.4361 358.6272 358.6514 358.6514 358.6567
   359.0087 359.1330 359.1330 359.1814 361.5324 361.6009 361.6009 361.6358
   364.1774 364.1774 364.2111 364.4447 364.6173 365.3107 365.3107 365.6432
   365.8602 366.0722 366.3404 366.3404 366.3541 366.3633 366.8464 366.8464
   366.9596 366.9596 367.0320 367.0962 367.1520 367.4453 367.9314 367.9815
   368.0319 368.0319 368.0688 368.3614 368.3687 368.3687 369.4806 369.9325
   369.9325 370.3148 370.5899 371.3137 371.6883 371.6883 371.7236 371.7988
   371.8142 371.8142 376.9222 376.9222 377.0040 377.0178 377.9707 377.9707
   379.2086 379.2086 379.2191 379.2238 380.0207 380.5502 380.6526 380.6526
   380.7899 380.9570 381.3688 382.0916 382.2245 382.2245 382.6016 382.6016
   382.8128 382.8694 383.4064 383.4771 383.5255 383.5255 383.8905 383.8905
   383.8946 383.9551 384.3006 384.4437 384.4437 384.5347 384.9673 385.0807
   385.0807 385.0816 385.1343 385.3178 385.3595 385.3595 385.6963 385.6963
   388.2772 388.4526 388.4526 388.5486 390.4135 390.6828 390.7901 390.7901
   390.9715 390.9843 390.9843 391.2423 393.4791 393.4791 394.7840 394.9247
   395.3672 395.3672 395.4551 395.4914 395.5289 395.5289 396.7371 397.0402
   397.4082 397.7786 397.7786 398.2847 398.4573 398.4573 398.4970 398.6353
   399.5394 399.5394 399.6522 399.9223 399.9658 399.9975 399.9975 400.0764
   400.8870 401.0657 401.0657 401.0698 401.0795 401.1653 401.1653 401.2148
   403.4695 403.4695 403.8386 403.9320 404.2159 404.4710 404.5206 404.5435
   404.5435 404.5760 404.5903 404.6284 404.6284 404.9259 404.9303 404.9303
   405.2878 405.6911 405.6911 405.7903 406.1643 407.3760 407.4704 407.4704
   407.5851 407.6839 408.1848 408.2062 408.2062 408.5769 408.6435 408.6450
   408.6450 408.8821 408.9696 408.9696 409.0246 409.0246 409.0639 409.1352
   409.1753 409.3017 409.3543 409.3543 409.3810 409.3810 409.5079 409.5101
   409.5888 409.6153 409.6153 409.6172 409.8353 410.2961 410.3368 410.3368
   414.9540 415.2237 415.2285 415.2285 419.3586 419.3808 419.3808 419.3957
   419.4149 419.4430 419.4450 419.4450 422.0315 422.2913 422.2913 422.3082
   423.3978 423.5497 423.5497 423.8548 423.8895 423.8895 423.9586 424.4209
   425.5587 425.8014 425.8014 425.8100 425.8295 425.8833 425.8833 425.8884
   426.3998 426.3998 426.5168 426.5848 426.9351 426.9351 427.0427 427.2112
   427.8977 428.0631 428.0631 428.0814 430.0155 430.2124 430.2124 430.9467
   430.9858 431.1046 431.1046 431.4186 431.4276 431.4276 431.4853 431.5715
   433.6206 433.6206 433.6328 433.7127 433.7194 433.8603 433.8603 433.8729
   434.1644 434.2300 434.2300 434.4100 434.4282 434.4878 434.7467 434.7467
   435.3546 435.3676 435.3676 435.4421 435.4701 435.4984 435.4984 435.5737
   437.0384 437.0639 437.1221 437.1221 439.0159 439.0563 439.0586 439.0586
   441.4400 441.4400 441.4432 442.2400 442.4034 442.5227 442.5227 442.5808
   442.6177 442.6177 442.6760 442.8518 443.7519 443.7612 443.7612 443.7723
   444.2746 444.3489 444.3489 444.3976 445.2049 445.6736 445.7648 445.7778
   445.8424 445.8424 445.9084 445.9084 450.6128 451.6870 451.6870 451.7772
   451.8275 451.8406 451.8490 451.8490 451.8507 452.7405 452.7814 453.2001
   453.2085 453.2085 454.8927 454.8927 455.1134 455.1188 455.1232 455.1232
   455.4012 455.4157 455.8509 455.8510 455.8510 455.8631 456.3415 456.6855
   456.6855 456.7544 457.6294 457.9227 457.9438 457.9456 457.9456 458.0887
   458.1074 458.1074 458.2714 458.6158 458.6158 458.6480 459.5723 459.5723

     the Fermi energy is     6.6300 ev
     (compare with:     6.7580 eV, computed in scf)

     Writing all to output data dir out/mp-1415.save/
 
     init_run     :      0.06s CPU      0.08s WALL (       1 calls)
     electrons    :    953.82s CPU   1028.53s WALL (       1 calls)

     Called by init_run:
     wfcinit      :      0.00s CPU      0.00s WALL (       1 calls)
     potinit      :      0.01s CPU      0.01s WALL (       1 calls)
     hinit0       :      0.02s CPU      0.04s WALL (       1 calls)

     Called by electrons:
     c_bands      :    953.82s CPU   1028.52s WALL (       1 calls)
     v_of_rho     :      0.01s CPU      0.01s WALL (       1 calls)

     Called by c_bands:
     init_us_2    :      0.00s CPU      0.00s WALL (       8 calls)
     init_us_2:cp :      0.00s CPU      0.00s WALL (       8 calls)
     cegterg      :    933.02s CPU   1006.55s WALL (       8 calls)

     Called by *egterg:
     cdiaghg      :    872.18s CPU    944.60s WALL (      86 calls)
     h_psi        :     17.63s CPU     18.14s WALL (      94 calls)
     g_psi        :      0.12s CPU      0.12s WALL (      78 calls)

     Called by h_psi:
     h_psi:calbec :      0.33s CPU      0.35s WALL (      94 calls)
     vloc_psi     :     16.93s CPU     17.40s WALL (      94 calls)
     add_vuspsi   :      0.26s CPU      0.27s WALL (      94 calls)

     General routines
     calbec       :      0.33s CPU      0.35s WALL (      94 calls)
     fft          :      0.01s CPU      0.02s WALL (      10 calls)
     fftw         :     15.35s CPU     15.77s WALL (  119670 calls)
 
     Parallel routines
 
     PWSCF        :  15m54.71s CPU  17m 9.85s WALL

 
   This run was terminated on:   6:17:43  29Dec2023            

=------------------------------------------------------------------------------=
   JOB DONE.
=------------------------------------------------------------------------------=
