
     Program PWSCF v.7.1 starts on  5Apr2024 at 10:18:24 

     This program is part of the open-source Quantum ESPRESSO suite
     for quantum simulation of materials; please cite
         "P. Giannozzi et al., J. Phys.:Condens. Matter 21 395502 (2009);
         "P. Giannozzi et al., J. Phys.:Condens. Matter 29 465901 (2017);
         "P. Giannozzi et al., J. Chem. Phys. 152 154105 (2020);
          URL http://www.quantum-espresso.org", 
     in publications or presentations arising from this work. More details at
     http://www.quantum-espresso.org/quote

     Parallel version (MPI), running on     8 processors

     MPI processes distributed on     1 nodes
     237554 MiB available memory on the printing compute node when the environment starts
 
     Reading input from pw_CdI2_nscf_k1_E56.in
Warning: card &IONS ignored
Warning: card / ignored
Warning: card &CELL ignored
Warning: card / ignored

     Current dimensions of program PWSCF are:
     Max number of different atomic species (ntypx) = 10
     Max number of k-points (npk) =  40000
     Max angular momentum in pseudopotentials (lmaxx) =  4

     Atomic positions and unit cell read from directory:
     out/CdI2.save/
     Atomic positions from file used, from input discarded
 
 
     R & G space division:  proc/nbgrp/npool/nimage =       8
     Subspace diagonalization in iterative solution of the eigenvalue problem:
     one sub-group per band group will be used
     scalapack distributed-memory algorithm (size of sub-group:  2*  2 procs)

 
     Parallelization info
     --------------------
     sticks:   dense  smooth     PW     G-vecs:    dense   smooth      PW
     Min         126     126     35                17763    17763    2639
     Max         128     128     36                17775    17775    2654
     Sum        1015    1015    283               142153   142153   21167
 
     Using Slab Decomposition
 


     bravais-lattice index     =            4
     lattice parameter (alat)  =       8.0815  a.u.
     unit-cell volume          =    2509.9427 (a.u.)^3
     number of atoms/cell      =            3
     number of atomic types    =            2
     number of electrons       =        54.00
     number of Kohn-Sham states=         1200
     kinetic-energy cutoff     =      56.0000  Ry
     charge density cutoff     =     224.0000  Ry
     Exchange-correlation= PBE
                           (   1   4   3   4   0   0   0)

     celldm(1)=   8.081496  celldm(2)=   0.000000  celldm(3)=   5.491082
     celldm(4)=   0.000000  celldm(5)=   0.000000  celldm(6)=   0.000000

     crystal axes: (cart. coord. in units of alat)
               a(1) = (   1.000000   0.000000   0.000000 )  
               a(2) = (  -0.500000   0.866025   0.000000 )  
               a(3) = (   0.000000   0.000000   5.491082 )  

     reciprocal axes: (cart. coord. in units 2 pi/alat)
               b(1) = (  1.000000  0.577350  0.000000 )  
               b(2) = (  0.000000  1.154701  0.000000 )  
               b(3) = (  0.000000  0.000000  0.182113 )  


     PseudoPot. # 1 for Cd read from file:
     /usr/scratch4/magr4985/FGWC/FGWC/pseudo/SG15/Cd.upf
     MD5 check sum: 810a600e5a5ac944c8c8f48f0d721646
     Pseudo is Norm-conserving, Zval = 20.0
     Generated using ONCVPSP code by D. R. Hamann
     Using radial grid of  602 points,  6 beta functions with: 
                l(1) =   0
                l(2) =   0
                l(3) =   1
                l(4) =   1
                l(5) =   2
                l(6) =   2

     PseudoPot. # 2 for I  read from file:
     /usr/scratch4/magr4985/FGWC/FGWC/pseudo/SG15/I.upf
     MD5 check sum: 8277ef51204d8074ead4596f3b37a2aa
     Pseudo is Norm-conserving, Zval = 17.0
     Generated using ONCVPSP code by D. R. Hamann
     Using radial grid of  602 points,  6 beta functions with: 
                l(1) =   0
                l(2) =   0
                l(3) =   1
                l(4) =   1
                l(5) =   2
                l(6) =   2

     atomic species   valence    mass     pseudopotential
        Cd            20.00   112.41100     Cd( 1.00)
        I             17.00   126.90450     I ( 1.00)

     12 Sym. Ops., with inversion, found



   Cartesian axes

     site n.     atom                  positions (alat units)
         1           Cd  tau(   1) = (   0.0000000   0.0000000   2.7455410  )
         2           I   tau(   2) = (   0.5000000   0.2886752   3.1557127  )
         3           I   tau(   3) = (   0.0000000   0.5773502   2.3353693  )

     number of k points=     2  Gaussian smearing, width (Ry)=  0.0005
                       cart. coord. in units 2pi/alat
        k(    1) = (   0.0000000   0.0000000   0.0000000), wk =   0.5000000
        k(    2) = (   0.0000000  -0.5773503   0.0000000), wk =   1.5000000

     Dense  grid:   142153 G-vectors     FFT dimensions: (  40,  40, 216)

     Estimated max dynamical RAM per process >     361.64 MB

     Estimated total dynamical RAM >       2.83 GB

     The potential is recalculated from file :
     out/CdI2.save/charge-density

     Starting wfcs are random

     Band Structure Calculation
     Davidson diagonalization with overlap

     ethr =  5.00E-06,  avg # of iterations = 11.0

     total cpu time spent up to now is      207.1 secs

     End of band structure calculation

          k = 0.0000 0.0000 0.0000 ( 17889 PWs)   bands (ev):

  -103.9432 -64.9726 -64.9726 -64.9665 -46.1265 -46.1265 -46.1262 -46.1262
   -46.1117 -46.1117 -46.1113 -46.1113 -46.1059 -46.1056 -14.2172 -13.7714
    -9.9022  -9.9022  -9.7968  -9.7320  -9.7320  -5.6104  -3.2365  -2.6434
    -2.6434  -2.3922  -2.3922   0.3859   2.1692   3.5766   3.6179   3.9656
     3.9656   4.2684   4.9019   5.7522   6.0108   6.6142   6.6142   6.7503
     7.5903   8.1861   8.6520   8.6520   8.7990   8.9601   8.9819   8.9819
    10.5859  11.0787  11.4295  11.4295  12.8384  12.8705  12.8705  13.0968
    13.9323  14.0979  14.1504  14.1504  14.3903  14.3903  14.7225  14.7271
    15.0032  15.0032  15.0920  15.0920  15.1646  15.1649  15.1649  15.2602
    15.2709  15.2709  15.3294  15.5387  16.1940  16.2547  16.2547  16.3403
    16.3403  16.4030  16.5511  16.5511  16.6337  16.6337  16.7638  17.1536
    17.6304  17.7373  18.2978  18.2978  18.3511  18.3511  18.6205  18.6205
    18.7885  18.7970  18.7970  18.9393  19.1811  19.4786  20.8521  20.9200
    20.9200  20.9352  21.0558  21.0558  21.2759  21.2759  21.6235  21.6235
    21.8964  21.9093  22.2875  22.6641  22.7475  23.1215  23.1215  23.4731
    23.9767  23.9767  24.3602  24.3793  24.3793  24.5697  24.6396  24.6396
    24.6495  24.6495  24.8002  24.8002  25.2304  25.2304  25.3059  25.5967
    25.5967  25.6700  26.9991  27.0543  27.1469  27.5997  27.8059  27.8059
    28.2446  28.2809  28.2809  28.4398  28.4398  28.8468  28.9685  28.9685
    29.5157  29.6862  30.3619  30.4731  30.4735  30.4735  30.7772  30.7772
    30.8583  31.1970  31.1970  31.7036  31.8513  32.6591  32.6591  32.8796
    32.8796  32.9348  33.1663  33.1663  33.2132  33.4086  33.4086  33.9877
    34.0048  34.1819  34.1930  34.1930  34.4891  34.7768  34.8377  35.5270
    35.5270  35.6809  36.3234  36.3234  36.3594  36.3594  36.5993  36.5993
    36.6915  36.7810  36.7810  36.7960  36.9928  36.9950  36.9950  37.0195
    37.0523  37.0523  37.1051  37.1051  37.2310  37.2310  37.2736  37.2736
    37.2968  37.6370  37.7834  37.7834  37.9156  38.0161  38.0161  38.0710
    38.0710  38.1868  38.2727  38.3086  38.3086  38.3715  38.4207  38.4207
    38.5411  38.5411  38.9325  38.9362  38.9362  39.1812  39.1812  39.3350
    39.4164  39.8137  40.1340  40.1340  40.1847  40.2266  40.2862  40.2862
    40.3206  40.4431  40.5207  40.5329  40.5329  40.9016  40.9016  41.7120
    41.7120  41.8203  41.9643  41.9643  42.3889  42.4643  42.5537  42.5537
    42.5908  42.5908  42.9377  42.9377  42.9737  42.9860  43.3464  43.3464
    43.4174  43.6725  43.8129  43.8129  44.0141  44.0400  44.0400  44.3003
    44.3003  44.4166  44.4166  44.4590  44.5599  44.6912  44.6912  44.8920
    44.9277  44.9277  45.2415  46.1891  46.2867  46.2895  46.3816  46.4204
    46.4204  46.6226  46.6226  46.6791  46.9207  46.9207  47.0873  47.0873
    47.1343  47.2231  47.4100  47.5148  47.5148  47.6315  47.6315  47.7725
    47.8960  47.8960  47.9892  48.0447  48.0447  48.0783  48.1703  48.1844
    48.1844  48.2436  48.2436  48.4099  48.5172  48.5172  48.8926  48.8926
    48.9809  48.9809  48.9896  49.1118  49.3804  49.3804  49.3853  49.6276
    49.6276  49.6828  49.6857  49.6857  49.8080  49.8080  49.9228  49.9228
    49.9941  50.0567  50.2799  50.3875  50.3875  50.5448  50.6550  50.6590
    50.9907  50.9907  51.0753  51.0753  51.2385  51.3088  51.3088  51.5803
    51.5803  51.6317  51.7409  51.7755  51.7755  51.8928  51.9135  51.9135
    52.0770  52.0777  52.0777  52.7225  53.0557  53.0557  53.1566  53.7176
    53.7633  53.7633  53.7795  53.7795  53.9295  53.9445  53.9445  54.0961
    54.2489  54.3632  54.4575  54.4575  54.4649  54.7622  54.7622  55.0938
    55.1948  55.1948  55.3480  55.3480  55.5097  55.5097  55.7982  55.9613
    56.5301  56.5301  56.5435  56.5932  56.6010  56.7710  56.7710  57.0713
    57.1224  57.1224  57.1821  57.1821  57.7115  57.7569  57.8267  57.8293
    57.8293  57.8635  57.8635  57.9689  57.9689  58.1420  58.4120  58.4120
    58.4207  59.1991  59.2646  59.5069  59.5069  59.8462  59.8462  60.1948
    60.1948  60.2489  60.2935  60.4957  60.5199  60.7765  60.7765  61.3026
    61.3266  61.4061  61.4061  61.6287  61.6287  61.7827  61.8225  61.8408
    61.8408  62.0662  62.0702  62.0702  62.6551  63.0742  63.0742  63.3648
    63.4401  63.4401  63.8408  63.8408  63.9659  64.0901  64.2403  64.2730
    64.3566  64.3566  64.7642  64.7642  65.0148  65.0148  65.2700  65.2700
    65.4895  65.4895  65.5324  65.5572  65.6139  65.9189  65.9189  65.9603
    65.9603  66.2007  66.2050  66.3040  66.3040  66.3701  66.8647  66.8647
    66.9403  67.0207  67.0207  67.2180  67.2180  67.4474  67.5398  67.5398
    67.6947  68.0938  68.4951  68.4951  68.7975  69.2752  69.2752  69.3976
    69.6314  69.6314  69.9107  69.9423  69.9423  69.9614  69.9614  70.1953
    70.1953  70.4267  70.5376  70.8927  70.8927  70.9386  70.9386  71.2866
    71.3639  71.3890  71.6615  71.9424  71.9424  71.9594  71.9594  72.0788
    72.0895  72.1378  72.2586  72.2586  72.3504  72.3504  72.5000  72.5000
    72.5431  72.9612  72.9612  73.0394  73.0394  73.0676  73.0847  73.0847
    73.2086  73.2393  73.2393  73.4039  73.4039  73.4445  73.8829  73.8829
    74.1915  74.1998  74.2193  74.5284  74.5284  75.0922  75.3171  75.3171
    75.3869  75.6163  75.6163  76.1179  76.2161  76.2161  76.6638  76.6638
    76.7155  76.8750  77.1535  77.1535  77.4251  77.4251  77.7842  77.7842
    77.8176  77.8626  77.8915  78.2154  78.3016  78.4211  78.4211  78.5408
    78.5408  78.6589  78.7528  78.7528  78.8455  78.9284  78.9284  78.9851
    79.1841  79.1841  79.2075  79.2838  79.4619  79.6591  79.6883  79.8353
    79.8353  79.9447  79.9447  79.9557  79.9792  80.0616  80.0748  80.0748
    80.1191  80.1191  80.3553  80.3553  80.4126  80.4126  80.4744  80.5401
    80.5787  80.5787  80.6938  80.7083  80.7083  80.7298  80.7834  80.7834
    80.7872  80.8223  80.8661  80.8661  80.8921  80.8921  80.9183  80.9441
    80.9535  80.9535  80.9688  80.9688  80.9881  81.0348  81.0348  81.1623
    81.1623  81.1635  81.1635  81.3448  81.4352  81.6325  81.7309  81.7357
    81.7503  81.7503  81.7578  81.7578  81.7882  81.9105  81.9105  81.9451
    81.9451  82.0883  82.0883  82.1971  82.2078  82.2104  82.2104  82.2327
    82.3091  82.3289  82.3289  82.5714  82.5714  82.5722  82.6593  82.6593
    82.7923  82.7923  82.8521  82.8521  83.1160  83.2091  83.2091  83.3028
    83.6156  83.6375  83.7027  83.7027  83.7433  83.9044  83.9044  83.9677
    84.0229  84.1030  84.1587  84.1587  84.1760  84.1760  84.2366  84.2636
    84.2749  84.2749  84.3315  84.3315  84.5822  84.7311  84.7311  84.8325
    84.8999  84.8999  84.9923  85.0059  85.0059  85.4943  85.4943  85.7233
    85.7472  85.7472  85.7778  85.7778  85.8668  85.9019  85.9019  85.9948
    86.0012  86.3535  86.3685  86.3838  86.3838  86.4329  86.4472  86.4472
    86.4566  86.7839  86.7839  87.0843  87.0843  87.0938  87.0998  87.0998
    87.1613  87.1954  87.2689  87.3086  87.3086  87.5393  87.5393  87.6030
    87.6361  87.6361  87.9698  87.9698  88.1701  88.1701  88.2095  88.2402
    88.2913  88.4266  88.6563  88.6563  88.7380  88.7380  88.7573  89.2288
    89.2288  89.4040  89.4040  89.4492  89.5125  89.5543  89.5600  89.5600
    89.6548  89.7037  89.7037  89.8407  89.8771  89.8771  89.8898  90.0781
    90.0781  90.2374  90.2374  90.2805  90.2805  90.2957  90.2957  90.3301
    90.3858  90.3858  90.3949  90.5104  90.7208  90.8659  90.9246  90.9246
    91.0611  91.1754  91.1754  91.2029  91.2029  91.7130  91.7130  91.7450
    91.8506  91.8506  92.0060  92.4708  92.5065  92.5065  92.7192  92.7192
    92.8660  92.9941  92.9941  93.2872  93.2891  93.2891  93.4592  93.4592
    93.4693  93.6179  93.6455  93.7278  93.8363  93.8364  93.8630  93.8630
    94.1789  94.3543  94.3676  94.3676  94.5342  94.5342  94.6174  94.6174
    94.6197  94.7045  94.7045  94.7944  94.8290  94.8803  95.0916  95.0916
    95.2317  95.2933  95.2933  95.7459  95.7459  96.0845  96.3237  96.5921
    96.5921  96.6837  96.6837  96.9592  96.9592  96.9994  97.1805  97.2144
    97.2144  97.4246  97.5765  97.7377  98.0504  98.0587  98.0860  98.0860
    98.2093  98.2093  98.2614  98.3432  98.3432  98.5185  98.5185  98.6536
    98.6536  98.6728  98.6946  98.7392  98.8004  98.9833  98.9833  99.0034
    99.1186  99.1186  99.1959  99.1959  99.2766  99.2821  99.2821  99.3452
    99.3452  99.3619  99.3619  99.4529  99.4529  99.6074 100.0071 100.1495
   100.1495 100.2624 100.4504 100.4504 100.5607 100.6302 100.6302 101.0899
   101.1857 101.2334 101.2334 101.6575 101.6575 101.8284 101.8284 102.0470
   102.0470 102.0738 102.0738 102.0803 102.1996 102.3045 102.3439 102.5734
   102.5996 102.5996 102.6851 102.7371 102.7371 102.7456 102.7456 102.7538
   102.7730 102.8280 102.8280 102.9464 102.9914 103.0068 103.0068 103.0491
   103.0491 103.0708 103.2808 103.3260 103.3260 103.6891 103.6891 103.6897
   103.7241 103.7241 103.7880 103.7909 103.7909 103.8184 103.8850 103.8850
   103.9165 103.9165 103.9714 103.9714 104.0300 104.0318 104.1233 104.5235
   104.5235 104.5502 104.5502 104.5550 104.7466 104.9138 104.9138 104.9215
   104.9662 104.9667 104.9667 105.0290 105.0290 105.4996 105.5198 105.5198
   105.5518 105.5757 105.5757 105.6501 105.6947 105.6947 105.9713 105.9713
   106.1304 106.1835 106.2200 106.2200 106.5430 106.6161 106.6191 106.6191
   106.6655 106.7606 106.7606 107.3461 107.3461 107.3530 107.3822 107.5594
   107.5594 107.7689 107.9145 108.1217 108.1217 108.1915 108.3096 108.3219
   108.3219 108.3819 108.3819 108.6173 108.6605 108.6605 108.6770 108.8671
   108.8671 108.9916 108.9916 109.0331 109.0389 109.0862 109.1461 109.1995
   109.1995 109.2243 109.2243 109.3477 109.3477 109.6227 109.6227 109.6442
   109.7466 109.7466 109.7483 109.8875 110.1143 110.1143 110.2527 110.2527
   110.3780 110.5650 110.5650 110.5902 110.5902 110.6799 111.0941 111.0991
   111.0991 111.1789 111.1789 111.2691 111.2691 111.3057 111.3382 111.4496
   111.5187 111.5187 111.7282 111.7314 111.7344 111.7344 111.9258 111.9258
   112.0002 112.0002 112.0849 112.2331 112.5238 112.5238 112.6303 112.6303
   112.6570 112.9932 112.9932 113.3500 113.3834 113.4939 113.4939 113.5830
   113.7288 113.7288 113.8676 113.9069 113.9069 114.4877 114.5354 114.6505
   114.6505 114.8211 114.8211 115.1146 115.1737 115.1972 115.2516 115.2712
   115.2712 115.3780 115.4764 115.6466 115.8396 115.8396 115.8583 115.8583
   115.9590 116.0959 116.1275 116.1275 116.1360 116.1360 116.4064 116.5331
   116.5331 116.6701 116.7552 116.7552 116.8488 116.8772 116.8772 116.9655
   117.0485 117.0485 117.2987 117.2987 117.4315 117.4315 117.4720 117.9125
   117.9242 117.9242 118.2002 118.5973 118.6055 118.6055 118.8018 118.8018
   119.2608 119.2608 119.4523 119.5509 119.5509 119.9603 120.0862 120.0862
   120.0949 120.0949 120.1219 120.5385 120.5385 120.6809 120.7349 120.7976
   120.7976 120.8608 120.8933 120.8933 121.1204 121.1205 121.1920 121.3421
   121.3421 121.4189 121.4931 121.4931 121.6019 121.6146 121.6146 121.6353
   121.7832 121.8292 121.8292 121.8634 121.8634 121.9170 122.0983 122.1848
   122.3202 122.3202 122.7831 122.8151 122.8151 122.8989 122.8989 122.9754
   123.0691 123.0691 123.1206 123.1911 123.1911 123.3277 123.4509 123.4509
   123.5774 123.6054 123.9435 123.9435 124.0873 124.0873 124.1262 124.2163
   124.3066 124.3066 124.8542 124.8542 124.8843 125.0933 125.2797 125.4640

          k = 0.0000-0.5774 0.0000 ( 17750 PWs)   bands (ev):

  -103.9432 -64.9728 -64.9727 -64.9664 -46.1264 -46.1262 -46.1260 -46.1257
   -46.1118 -46.1117 -46.1115 -46.1114 -46.1056 -46.1054 -13.6924 -13.6468
    -9.8687  -9.8147  -9.7201  -9.6758  -9.5823  -6.0393  -5.1303  -3.8457
    -3.6213  -2.8638  -2.6063   0.0140   2.7050   3.8450   3.9514   4.5128
     5.8614   5.8888   6.0791   6.4696   6.8763   6.8953   7.4009   7.5068
     8.0912   8.2199   8.6421   8.7469   9.1444   9.1698   9.6940  10.0400
    10.2639  10.2742  10.9147  11.0479  11.1166  11.4332  11.7396  11.8384
    12.0928  12.2228  12.3278  12.3310  12.6017  12.8439  12.8985  13.0576
    13.2609  13.3228  13.5205  13.5908  13.8821  13.9197  14.2334  15.3478
    15.5734  15.6196  15.9206  16.3221  16.4439  16.4729  16.5914  16.7401
    16.7971  17.4296  17.6022  17.6899  18.0790  18.4447  18.4931  18.6786
    18.8161  18.9302  19.0346  19.7097  19.8451  20.0068  20.2881  20.3708
    20.6530  20.6958  21.1546  21.3947  22.0888  22.1197  22.1313  22.4781
    22.5807  22.8169  22.8770  22.9594  23.0004  23.2395  23.2971  23.3636
    23.4435  23.4535  23.4751  23.6544  24.0627  24.1352  24.2090  24.2913
    24.4068  24.4553  24.5328  24.5749  24.7268  24.8204  24.8293  24.9005
    25.1864  25.2710  25.4458  25.4824  25.6669  25.8395  25.8669  26.0091
    26.4871  26.5576  26.6506  26.7275  26.8266  26.9933  27.0822  27.1313
    27.2337  27.3345  27.5714  27.7307  28.5466  28.6016  28.6502  28.7223
    28.8549  28.9593  29.0389  29.1093  29.1350  29.1548  29.1550  29.4876
    29.5127  29.6000  29.8633  29.8804  29.8925  30.0126  30.1448  30.4077
    30.4978  30.5281  30.5414  30.6077  30.6844  30.7888  30.9076  31.1255
    31.1723  31.6117  32.2291  32.2501  32.2507  32.3792  32.5148  32.6838
    32.7277  32.9403  32.9847  33.0259  33.1720  33.3609  33.5890  33.9232
    33.9488  34.5005  34.5006  34.7364  34.9589  35.0383  35.2146  35.3491
    35.6607  35.6767  35.9420  35.9779  36.0075  36.3185  36.4703  36.5686
    36.6506  36.8571  37.0422  37.0685  37.1528  37.2793  37.6805  37.7721
    37.8383  37.9586  38.2971  38.3629  38.6546  38.7590  38.8231  38.9830
    39.1415  39.2853  39.3947  39.4516  39.5016  39.6530  39.6896  39.7821
    39.8331  39.8933  39.9639  40.0215  40.0472  40.1522  40.3695  40.7217
    40.7528  40.7665  40.8085  40.9177  40.9213  41.0662  41.1488  41.2512
    41.3405  41.3470  41.5080  41.5384  41.6641  41.6882  41.8251  41.9686
    42.2751  42.2800  42.3785  42.4945  42.5523  42.6524  42.6626  42.7582
    42.9331  43.2774  43.2922  43.3066  43.3256  43.4203  43.5449  43.6941
    43.8810  43.9236  44.1107  44.2218  44.7530  44.9691  45.1128  45.1318
    45.6124  45.6251  45.8104  45.8118  45.8852  46.1555  46.1727  46.2645
    46.2886  46.3473  46.3590  46.6109  46.6193  46.7741  47.0827  47.0951
    47.3721  47.4699  47.4878  47.7286  47.7433  47.7546  48.0428  48.0590
    48.1496  48.3995  48.7803  48.8561  48.8707  49.1978  49.2436  49.2492
    49.4739  49.4829  49.5148  49.6527  49.6609  49.7432  49.9729  49.9762
    50.0053  50.2791  50.6417  50.6646  51.1202  51.1828  51.3168  51.4493
    51.4794  51.6246  51.8375  51.8982  52.0344  52.0688  52.1960  52.3242
    52.6234  52.6511  52.7815  52.8471  52.9267  53.2410  53.3095  53.3392
    53.5410  53.7904  53.8395  53.9183  53.9595  54.0068  54.0936  54.3919
    54.5799  54.6164  54.7571  55.0912  55.1634  55.2926  55.3755  55.4492
    55.5280  55.7734  55.8667  55.9171  55.9905  56.0768  56.0798  56.2686
    56.3045  56.3633  56.4231  56.4341  56.5157  56.5922  56.6193  56.6861
    56.7943  56.9236  57.2344  57.3461  57.4219  57.4469  57.5740  57.6476
    57.7072  57.8131  57.8291  57.8634  57.8986  57.9779  58.0438  58.0540
    58.1604  58.1951  58.2824  58.3533  58.4896  58.5591  58.5631  58.5957
    58.6474  58.8432  58.9505  59.0461  59.1614  59.3090  59.4255  59.5323
    59.6881  59.7190  59.8307  59.9111  60.1705  60.2761  60.4138  60.4326
    60.5786  60.7635  60.7826  60.9137  60.9604  61.1632  61.2083  61.2890
    61.3282  61.4000  61.4680  61.5111  61.6317  61.6397  61.7197  61.7813
    61.7961  61.8185  61.8447  61.9332  62.0115  62.3709  62.4120  62.4349
    62.5385  62.5679  62.6417  62.6788  62.8029  62.8128  62.9242  62.9244
    62.9664  63.0149  63.0320  63.0676  63.2088  63.3052  63.3154  63.3976
    63.4417  63.5456  63.6089  63.7638  63.7955  63.9584  64.0335  64.1886
    64.2846  64.3167  64.3736  64.4308  64.6297  64.6806  64.7494  64.8337
    64.9724  65.0592  65.1363  65.1723  65.1988  65.3122  65.4539  65.5319
    65.5567  65.6060  65.6096  65.8476  65.8845  66.0972  66.1318  66.1428
    66.1609  66.2610  66.4651  66.6457  66.6818  66.7368  67.1489  67.1553
    67.3694  67.5129  67.5253  67.6004  67.7596  67.9265  68.0393  68.0895
    68.0958  68.1263  68.3300  68.6238  68.6729  68.7136  68.8603  68.9123
    68.9967  69.0644  69.3255  69.5170  69.5308  69.5671  69.6329  69.6695
    69.7090  69.8937  70.0321  70.2071  70.3681  70.3782  70.5361  70.5466
    70.7230  70.7711  70.8179  70.8258  70.9730  71.0314  71.2125  71.3036
    71.4910  71.6111  71.6297  71.6544  71.7186  71.8547  71.9066  71.9383
    72.0451  72.1975  72.3684  72.4269  72.4639  72.5624  72.6428  72.7499
    72.7559  72.7961  72.9550  72.9550  73.0555  73.2095  73.2774  73.3253
    73.3607  73.7529  73.7871  73.8618  73.9136  73.9493  73.9613  74.0668
    74.0945  74.2813  74.3389  74.4139  74.4557  74.6194  74.6207  74.7389
    74.8003  74.9298  74.9793  75.1543  75.1669  75.3141  75.3406  75.4301
    75.4957  75.7144  75.7475  75.7626  75.8235  76.0126  76.1426  76.2562
    76.2952  76.3309  76.4298  76.4931  76.5785  76.8250  76.8590  77.1183
    77.3464  77.3949  77.4250  77.5548  77.6202  77.6491  77.7214  77.8032
    77.8947  78.1122  78.1938  78.1991  78.2340  78.2625  78.3424  78.3599
    78.5974  78.6249  78.6623  78.7555  78.9517  78.9915  79.1688  79.2662
    79.3211  79.3784  79.4447  79.4449  79.5464  79.6079  79.6158  79.6187
    79.6738  79.6820  79.9507  79.9605  80.0217  80.1203  80.1456  80.2046
    80.2753  80.3079  80.4938  80.5511  80.5827  80.6492  80.7384  80.7955
    80.8931  81.0034  81.0535  81.1018  81.1153  81.1608  81.2238  81.3667
    81.6943  81.7092  81.8333  82.0374  82.0849  82.1458  82.2169  82.2918
    82.3101  82.3470  82.5187  82.6060  82.6842  82.7228  82.7933  82.8511
    83.0586  83.1289  83.6243  83.6906  83.7211  83.8133  83.8769  83.9441
    84.1566  84.1946  84.4627  84.5107  84.5682  84.5770  84.6799  84.8504
    84.8993  84.9141  85.1322  85.1548  85.1662  85.1954  85.2941  85.3003
    85.5828  85.6009  85.7094  85.7150  85.7437  85.9096  85.9688  86.0180
    86.0296  86.1805  86.3753  86.5092  86.5623  86.5929  86.6427  86.7433
    86.9013  86.9200  87.2303  87.2533  87.4844  87.6214  87.6454  87.6638
    87.8674  87.8718  88.0036  88.1226  88.1467  88.2868  88.5272  88.5524
    88.5623  88.6184  88.8955  88.8958  88.9502  88.9600  89.0014  89.0086
    89.0602  89.0821  89.1212  89.2021  89.2776  89.4647  89.5100  89.5243
    89.6200  89.6335  89.7062  89.8467  89.9619  90.0327  90.0500  90.1611
    90.1657  90.2150  90.2455  90.3212  90.3418  90.4445  90.4683  90.5755
    90.6326  90.6855  90.7200  90.7330  90.7425  90.8524  90.8839  91.0610
    91.0790  91.2012  91.3632  91.4511  91.4803  91.4949  91.5584  91.6898
    91.7196  91.9051  92.0433  92.0933  92.2072  92.2098  92.2173  92.2346
    92.3535  92.4163  92.6292  92.7091  92.7329  92.7607  92.8398  92.8769
    93.1228  93.7127  93.8156  93.8291  93.8932  94.0133  94.0681  94.0937
    94.1025  94.2756  94.3471  94.6164  94.7053  94.8137  94.8486  95.0082
    95.0455  95.0793  95.3546  95.3784  95.4314  95.5902  95.6272  95.7001
    95.7616  95.8639  95.9859  96.0886  96.1073  96.1649  96.2209  96.5241
    96.6440  96.6890  96.7703  96.8394  96.8597  96.8709  96.9000  96.9550
    97.0336  97.0725  97.1448  97.3215  97.3252  97.4081  97.4187  97.4921
    97.5048  97.5169  97.6224  97.7405  97.7924  97.8063  97.9288  98.0812
    98.1191  98.2678  98.2860  98.3546  98.5063  98.6124  98.6309  98.6434
    98.7717  98.8628  98.9456  99.0594  99.1227  99.2025  99.3471  99.3805
    99.4963  99.6543  99.7091  99.8260  99.9026 100.0768 100.0929 100.1882
   100.3954 100.5301 100.5393 100.5668 100.6215 100.9765 100.9873 101.1105
   101.2187 101.3393 101.4361 101.4699 101.7519 101.8166 101.8776 102.0377
   102.1077 102.1337 102.3347 102.4442 102.5229 102.5542 102.5762 102.5846
   102.8001 102.8639 102.9186 103.1004 103.2468 103.3540 103.4218 103.5538
   103.5729 103.6436 103.6878 103.8141 103.8776 103.9066 104.0859 104.1556
   104.2194 104.2621 104.4665 104.5039 104.5159 104.6566 104.6852 104.8039
   104.8516 104.9053 104.9490 105.0092 105.0960 105.1943 105.3235 105.3563
   105.4132 105.4151 105.4442 105.4901 105.5152 105.5308 105.6432 105.6939
   105.7168 105.7562 105.7639 105.9408 106.0199 106.1898 106.2289 106.2392
   106.3756 106.4072 106.5235 106.5594 106.6815 106.6840 106.6956 106.8056
   106.8218 106.8414 106.9460 106.9654 107.0204 107.0734 107.1836 107.2164
   107.2641 107.2804 107.3653 107.4456 107.5089 107.5456 107.5952 107.6308
   107.6647 107.7234 107.7257 107.8084 108.0245 108.0636 108.0958 108.2196
   108.2631 108.2848 108.4308 108.5332 108.6355 108.7261 108.7388 108.8924
   108.9123 108.9639 109.0185 109.2333 109.2591 109.3298 109.3733 109.4402
   109.4493 109.4945 109.5193 109.7806 109.8740 109.9048 109.9927 110.0045
   110.1014 110.1635 110.4131 110.4172 110.4574 110.6069 110.6886 110.7314
   110.7402 110.8010 110.9166 110.9354 110.9460 111.0489 111.1178 111.2002
   111.2056 111.3158 111.3912 111.4420 111.4454 111.4974 111.5102 111.6273
   111.6292 111.6721 111.7462 111.7855 111.8678 111.8994 111.9185 111.9237
   111.9914 112.0516 112.1019 112.1875 112.2288 112.2511 112.3154 112.4235
   112.4328 112.5034 112.5896 112.6165 112.7768 112.7927 112.8226 112.9357
   112.9381 113.0551 113.1083 113.1403 113.1443 113.2819 113.3002 113.4140
   113.4370 113.4448 113.6902 113.7004 113.7746 113.8139 113.9396 113.9946
   114.1115 114.1955 114.2024 114.2221 114.2366 114.3106 114.3300 114.4579
   114.5032 114.5307 114.7903 114.7908 114.8397 114.9938 115.0589 115.1088
   115.1596 115.2598 115.3878 115.4260 115.4662 115.6262 115.6520 115.7083
   115.8199 115.8511 116.1044 116.1403 116.1532 116.1760 116.3273 116.3871
   116.5243 116.5629 116.6756 116.6945 116.7159 116.7460 116.8493 116.8823
   117.1525 117.1719 117.3017 117.3051 117.3188 117.3700 117.4035 117.5763
   117.6468 117.6780 117.7258 117.8209 118.0172 118.1128 118.1787 118.1992
   118.3218 118.3289 118.4012 118.5145 118.6237 118.6442 118.7150 118.7986
   118.8432 118.9274 119.0104 119.0442 119.0488 119.0655 119.2868 119.3067
   119.3458 119.5187 119.5298 119.5635 119.6835 119.6900 119.7071 119.7817
   120.0190 120.1466 120.1689 120.2030 120.2342 120.2940 120.3406 120.5530
   120.6439 120.7469 120.7681 120.9874 121.0748 121.2136 121.2184 121.2285
   121.3117 121.3995 121.4399 121.4844 121.5359 121.6368 121.7265 121.7287
   121.8731 121.8883 121.8964 121.9365 121.9392 122.0171 122.0349 122.1300
   122.1524 122.1571 122.2861 122.3567 122.3954 122.4136 122.6322 122.6398
   122.6409 122.7145 122.7329 122.8067 122.8910 122.9788 123.0359 123.0617
   123.1778 123.1974 123.2337 123.2431 123.2718 123.4719 123.4889 123.5055

     the Fermi energy is    -1.7921 ev
     (compare with:    -1.4831 eV, computed in scf)

     Writing all to output data dir out/CdI2.save/
 
     init_run     :      0.39s CPU      0.46s WALL (       1 calls)
     electrons    :    201.15s CPU    206.37s WALL (       1 calls)

     Called by init_run:
     wfcinit      :      0.00s CPU      0.00s WALL (       1 calls)
     potinit      :      0.03s CPU      0.04s WALL (       1 calls)
     hinit0       :      0.05s CPU      0.10s WALL (       1 calls)

     Called by electrons:
     c_bands      :    201.15s CPU    206.37s WALL (       1 calls)
     v_of_rho     :      0.03s CPU      0.03s WALL (       1 calls)

     Called by c_bands:
     init_us_2    :      0.00s CPU      0.00s WALL (       2 calls)
     init_us_2:cp :      0.00s CPU      0.00s WALL (       2 calls)
     cegterg      :    196.03s CPU    201.12s WALL (       2 calls)

     Called by *egterg:
     cdiaghg      :    153.93s CPU    158.65s WALL (      24 calls)
     h_psi        :      7.96s CPU      8.10s WALL (      26 calls)
     g_psi        :      0.07s CPU      0.08s WALL (      22 calls)

     Called by h_psi:
     h_psi:calbec :      0.28s CPU      0.29s WALL (      26 calls)
     vloc_psi     :      7.24s CPU      7.36s WALL (      26 calls)
     add_vuspsi   :      0.35s CPU      0.35s WALL (      26 calls)

     General routines
     calbec       :      0.28s CPU      0.29s WALL (      26 calls)
     fft          :      0.02s CPU      0.07s WALL (      10 calls)
     fftw         :      6.37s CPU      6.46s WALL (   40670 calls)
 
     Parallel routines
 
     PWSCF        :   3m22.14s CPU   3m27.83s WALL

 
   This run was terminated on:  10:21:52   5Apr2024            

=------------------------------------------------------------------------------=
   JOB DONE.
=------------------------------------------------------------------------------=
