
     Program PWSCF v.7.1 starts on 18Nov2023 at  0: 2:44 

     This program is part of the open-source Quantum ESPRESSO suite
     for quantum simulation of materials; please cite
         "P. Giannozzi et al., J. Phys.:Condens. Matter 21 395502 (2009);
         "P. Giannozzi et al., J. Phys.:Condens. Matter 29 465901 (2017);
         "P. Giannozzi et al., J. Chem. Phys. 152 154105 (2020);
          URL http://www.quantum-espresso.org", 
     in publications or presentations arising from this work. More details at
     http://www.quantum-espresso.org/quote

     Parallel version (MPI), running on     8 processors

     MPI processes distributed on     1 nodes
     123538 MiB available memory on the printing compute node when the environment starts
 
     Reading input from pw_mp-463_nscf_k60_E118.in
Warning: card &IONS ignored
Warning: card / ignored
Warning: card &CELL ignored
Warning: card / ignored

     Current dimensions of program PWSCF are:
     Max number of different atomic species (ntypx) = 10
     Max number of k-points (npk) =  40000
     Max angular momentum in pseudopotentials (lmaxx) =  4

     Atomic positions and unit cell read from directory:
     out/mp-463.save/
     Atomic positions from file used, from input discarded
 
 
     R & G space division:  proc/nbgrp/npool/nimage =       8
     Subspace diagonalization in iterative solution of the eigenvalue problem:
     one sub-group per band group will be used
     scalapack distributed-memory algorithm (size of sub-group:  2*  2 procs)

 
     Parallelization info
     --------------------
     sticks:   dense  smooth     PW     G-vecs:    dense   smooth      PW
     Min         204     204     57                 5472     5472     826
     Max         205     205     58                 5476     5476     828
     Sum        1639    1639    463                43799    43799    6615
 
     Using Slab Decomposition
 


     bravais-lattice index     =            2
     lattice parameter (alat)  =      10.0322  a.u.
     unit-cell volume          =     252.4249 (a.u.)^3
     number of atoms/cell      =            2
     number of atomic types    =            2
     number of electrons       =        16.00
     number of Kohn-Sham states=         2704
     kinetic-energy cutoff     =     118.0000  Ry
     charge density cutoff     =     472.0000  Ry
     Exchange-correlation= PBE
                           (   1   4   3   4   0   0   0)

     celldm(1)=  10.032228  celldm(2)=   0.000000  celldm(3)=   0.000000
     celldm(4)=   0.000000  celldm(5)=   0.000000  celldm(6)=   0.000000

     crystal axes: (cart. coord. in units of alat)
               a(1) = (  -0.500000   0.000000   0.500000 )  
               a(2) = (   0.000000   0.500000   0.500000 )  
               a(3) = (  -0.500000   0.500000   0.000000 )  

     reciprocal axes: (cart. coord. in units 2 pi/alat)
               b(1) = ( -1.000000 -1.000000  1.000000 )  
               b(2) = (  1.000000  1.000000  1.000000 )  
               b(3) = ( -1.000000  1.000000 -1.000000 )  


     PseudoPot. # 1 for F  read from file:
     /usr/scratch4/magr4985/MG/HTDF/pseudo/SG15/F.upf
     MD5 check sum: 1d8275f47d602dd53cad6bcdc0eda7dc
     Pseudo is Norm-conserving, Zval =  7.0
     Generated using ONCVPSP code by D. R. Hamann
     Using radial grid of  602 points,  4 beta functions with: 
                l(1) =   0
                l(2) =   0
                l(3) =   1
                l(4) =   1

     PseudoPot. # 2 for K  read from file:
     /usr/scratch4/magr4985/MG/HTDF/pseudo/SG15/K.upf
     MD5 check sum: 254690d02b26e0029262a4c77e854448
     Pseudo is Norm-conserving, Zval =  9.0
     Generated using ONCVPSP code by D. R. Hamann
     Using radial grid of  602 points,  6 beta functions with: 
                l(1) =   0
                l(2) =   0
                l(3) =   1
                l(4) =   1
                l(5) =   2
                l(6) =   2

     atomic species   valence    mass     pseudopotential
        F              7.00    18.99840     F ( 1.00)
        K              9.00    39.09830     K ( 1.00)

     48 Sym. Ops., with inversion, found



   Cartesian axes

     site n.     atom                  positions (alat units)
         1           K   tau(   1) = (   0.0000000   0.0000000   0.0000000  )
         2           F   tau(   2) = (  -0.5000000   0.5000000   0.5000000  )

     number of k points=     8  Gaussian smearing, width (Ry)=  0.0005
                       cart. coord. in units 2pi/alat
        k(    1) = (   0.0000000   0.0000000   0.0000000), wk =   0.0312500
        k(    2) = (  -0.2500000   0.2500000  -0.2500000), wk =   0.2500000
        k(    3) = (   0.5000000  -0.5000000   0.5000000), wk =   0.1250000
        k(    4) = (   0.0000000   0.5000000   0.0000000), wk =   0.1875000
        k(    5) = (   0.7500000  -0.2500000   0.7500000), wk =   0.7500000
        k(    6) = (   0.5000000   0.0000000   0.5000000), wk =   0.3750000
        k(    7) = (   0.0000000  -1.0000000   0.0000000), wk =   0.0937500
        k(    8) = (  -0.5000000  -1.0000000   0.0000000), wk =   0.1875000

     Dense  grid:    43799 G-vectors     FFT dimensions: (  50,  50,  50)

     Estimated max dynamical RAM per process >     483.20 MB

     Estimated total dynamical RAM >       3.78 GB

     The potential is recalculated from file :
     out/mp-463.save/charge-density

     Starting wfcs are random

     Band Structure Calculation
     ParO style diagonalization

     ethr =  5.00E-06,  avg # of iterations =  5.5

     total cpu time spent up to now is     8654.1 secs

     End of band structure calculation

          k = 0.0000 0.0000 0.0000 (  5577 PWs)   bands (ev):

   -24.4126 -16.9444  -7.6508  -7.6508  -7.6508   1.6481   1.6481   1.6481
     7.9545  12.3974  12.3974  12.3974  14.0515  14.0515  18.7154  26.2002
    26.2002  26.2002  26.3144  26.3144  26.3144  28.8195  28.8195  28.8195
    30.6495  30.6495  34.9440  40.6433  40.6433  40.6433  42.3626  43.8594
    43.8594  46.2010  46.2010  46.2010  54.5764  54.5764  54.5764  55.0649
    55.0649  55.0649  55.6925  56.5730  56.5730  56.5730  57.7559  57.7559
    57.7559  58.6268  58.6268  58.6268  60.9238  60.9238  60.9238  60.9576
    60.9576  62.1300  62.1515  64.2857  64.2857  69.1494  69.1494  69.1494
    71.9303  71.9303  71.9303  80.0093  80.6006  80.6006  80.6006  86.2200
    86.2200  89.7124  89.7124  89.7124  92.6927  92.6927  92.6927  94.8890
    96.3894  96.3894  96.3894  96.8826  97.8794  97.8794  99.5509  99.5509
    99.5509 100.7025 100.7025 100.7025 101.8046 101.8046 101.8046 101.9616
   101.9616 101.9616 102.1532 102.1532 102.4562 102.4562 102.4562 103.1501
   103.4337 103.4337 103.4337 105.1521 105.1521 106.0505 106.0505 106.0505
   106.7630 111.2826 111.2826 113.0840 113.0840 113.0840 114.5610 114.5610
   114.5610 119.6996 121.4722 121.4722 121.4722 124.6040 125.1925 125.1925
   125.1925 125.4794 125.4794 125.6891 125.6891 125.6891 125.7505 125.7505
   125.7505 125.7951 125.7951 125.7951 126.1803 126.1803 130.0486 130.0486
   130.0486 135.9678 136.6101 136.6101 136.6101 139.5269 140.6392 140.6392
   140.6392 140.9886 140.9886 140.9886 141.6654 141.6654 141.6654 141.7508
   141.7508 141.7508 141.8234 145.6626 145.6722 145.6722 145.6722 145.6897
   145.6897 148.1763 148.1763 148.1763 149.4893 149.4893 152.8257 152.8257
   152.8257 163.6071 163.6071 163.6071 163.7451 163.7451 163.7451 168.5008
   168.5008 168.6067 168.6067 168.6067 168.8977 175.4222 175.4222 175.9287
   175.9287 175.9287 178.1025 178.1025 178.1025 178.1813 178.1813 178.1813
   179.3170 179.3170 179.3170 180.1955 180.1955 180.1955 180.5535 180.9278
   180.9278 181.8724 181.8724 181.8724 182.1997 182.6428 183.5152 183.5152
   183.5152 183.9891 183.9891 184.0190 184.0190 184.0190 184.8972 185.1070
   185.1070 185.1070 185.2516 185.2516 185.2516 185.5182 186.7481 186.7481
   186.7481 187.0931 187.0931 187.2032 187.2032 187.2032 187.8859 187.8859
   187.8859 188.3429 189.8735 189.8735 189.8735 189.9671 189.9671 190.0058
   190.0058 190.0058 190.5506 190.5506 190.5506 190.7306 190.7306 190.7710
   190.7710 190.7710 191.4797 199.6629 199.6629 201.2034 201.2034 201.2034
   203.0399 203.0399 203.0399 207.1639 207.1639 207.1639 207.5623 207.5623
   207.5623 207.7434 207.7434 207.7434 209.8982 212.0706 212.0706 212.1566
   212.1566 212.1566 212.1703 212.1703 212.1703 212.2985 215.4548 215.4548
   215.4548 220.2201 220.2201 220.4127 224.6440 225.8528 225.8528 225.8528
   225.9274 225.9274 225.9274 226.2856 226.2856 226.2856 226.2977 226.2977
   226.3973 226.3973 226.3973 227.0969 227.0969 227.0969 227.9171 227.9171
   227.9171 229.8470 229.8470 230.2103 231.2868 231.2868 231.2868 231.3336
   231.3336 231.3336 231.3562 231.3562 231.3562 231.4336 231.4336 231.5615
   231.5615 231.5615 233.7690 238.0166 238.0166 241.4096 241.4096 241.4096
   242.9994 242.9994 242.9994 250.8324 251.1718 251.1718 251.1718 252.6433
   252.6433 252.6433 252.7198 258.7153 259.0463 259.0463 259.9065 259.9065
   259.9065 260.6849 260.6849 260.6849 262.7009 262.7009 262.7009 264.2538
   266.4181 266.4181 266.4181 267.2950 267.2950 267.8970 267.8970 267.8970
   268.4665 268.4665 268.4665 268.5100 268.5100 268.5100 268.7616 268.7616
   268.7616 269.7905 269.7905 269.7905 270.6467 270.6467 270.6467 270.7172
   271.0383 271.0383 271.0383 271.1759 271.1759 271.1782 271.1782 271.1782
   272.8839 272.8839 273.5679 273.5850 273.5850 273.5850 273.6378 273.6378
   273.6378 273.6458 273.6458 273.7619 273.7619 273.7619 273.9674 273.9674
   273.9674 274.1088 274.6539 284.0332 284.0332 284.0332 286.0349 286.0349
   286.0349 288.3326 288.3326 289.3902 292.3149 292.3149 292.3149 292.3762
   292.3762 292.3762 292.5148 292.5148 292.6816 292.6816 292.6816 292.9600
   292.9600 292.9600 293.4298 294.1052 294.1052 294.1052 296.1554 296.1554
   296.2520 296.2520 296.2860 296.2860 296.2860 296.4178 296.4178 296.4178
   296.4806 296.4806 296.4806 296.5369 296.5369 296.5369 296.7139 296.7139
   296.7139 297.6385 297.7648 297.7648 297.7648 297.8870 297.8870 297.8870
   297.9365 297.9365 298.0056 303.9838 303.9838 303.9838 304.4499 304.7780
   304.7780 304.7780 305.6330 305.6330 305.6330 307.0767 307.0767 307.0767
   307.3372 307.7903 307.7903 307.7903 308.1340 308.1340 308.4377 308.4377
   308.4377 308.7398 309.1853 311.8368 311.8368 312.0158 312.0158 312.0158
   312.3238 312.3238 312.3238 312.4331 312.4331 312.4331 312.5190 312.5190
   312.5793 312.5793 312.5793 312.9824 313.3085 313.3085 313.3085 313.4162
   313.4162 314.6313 314.6313 314.6313 314.6441 314.6441 314.6441 314.8082
   314.8082 314.8082 314.8223 314.8223 314.8223 315.8528 315.8528 315.8853
   315.8853 315.8853 315.8983 322.7206 322.7206 325.3122 325.3122 325.3122
   333.6306 342.7049 342.7049 342.7049 343.0869 343.0869 343.0869 347.6312
   347.6312 350.3103 350.3103 350.3103 351.8461 351.8461 351.8461 352.0121
   352.0121 352.3098 352.3945 352.5249 352.5249 352.5249 352.5663 352.5663
   352.5663 352.6948 352.6948 352.6948 352.8315 352.8315 352.8315 352.8720
   352.8720 352.9075 353.9107 353.9107 353.9107 354.9231 356.2822 356.2822
   356.2822 356.4924 356.4924 356.4924 356.5505 356.5505 356.5505 356.8517
   356.8517 356.8517 358.5522 360.3896 360.3896 360.3896 360.4135 360.4135
   360.4135 360.4135 360.4442 360.4442 360.4442 360.4526 360.4526 360.4526
   360.5388 360.5388 360.5388 361.3987 361.3987 361.4792 361.4792 361.4792
   361.5444 371.3535 371.3535 371.3535 372.7851 372.7851 372.7851 373.5184
   373.5184 376.2937 376.2937 376.2937 376.4335 376.4335 376.4335 376.9435
   379.7762 379.7762 379.8990 379.9207 379.9207 379.9207 380.0706 380.0706
   380.0909 380.0909 380.0909 380.1912 380.1912 380.1912 380.2108 380.2108
   380.2108 380.2813 380.2813 380.2813 381.5469 382.0546 382.0546 382.0546
   383.2548 383.2548 383.2548 384.7854 384.7854 387.0268 387.0268 387.0268
   391.4400 392.9245 392.9245 393.6850 393.6850 393.6850 393.9307 393.9307
   393.9307 393.9468 393.9468 393.9468 393.9590 393.9590 393.9590 393.9790
   394.0315 394.5948 394.5948 394.5948 395.6284 396.7546 396.7546 396.7613
   396.7613 396.7613 396.8438 396.8438 396.8438 396.8775 396.8775 396.8775
   397.1918 398.5645 398.5645 398.5645 399.6091 399.6091 399.6091 400.3114
   400.3114 400.3114 400.3299 400.3299 400.3541 400.3541 400.3541 400.4490
   400.4490 400.4490 400.5360 400.6787 400.6787 401.1337 401.1337 401.1337
   401.7995 402.1818 402.1818 402.1818 402.4252 402.4252 402.4252 402.6010
   402.6010 402.6133 402.6133 402.6133 402.7362 413.7647 413.7647 413.7647
   417.0924 417.0924 418.7046 418.7046 419.0856 419.0856 419.0856 420.2443
   420.2443 420.2443 420.4649 420.4649 420.4649 420.7664 420.7664 420.7664
   421.2751 421.2751 421.3833 421.3833 421.3833 421.5347 421.5862 421.5862
   421.5862 422.2495 426.4186 429.4104 429.4104 429.4104 430.7507 430.7507
   430.7507 432.9722 435.1063 435.1768 435.1768 435.8530 435.8530 435.8530
   435.9075 435.9075 435.9075 436.1208 436.1208 436.1208 436.1959 436.1959
   436.1959 436.2843 436.2843 438.2616 438.2616 438.2616 439.1274 439.1274
   439.1274 439.1677 439.1677 439.1677 439.2026 439.2026 439.2026 439.3346
   439.3346 439.3346 439.6366 439.6366 439.6366 439.6594 439.6594 439.7134
   439.7134 439.7134 439.7748 439.7748 439.9000 439.9000 439.9000 439.9870
   439.9870 439.9870 439.9988 439.9988 439.9988 440.8720 441.3163 441.3478
   441.3478 441.3478 441.3885 441.3885 441.3885 441.4467 441.6766 441.6766
   442.3035 442.3035 442.3035 442.4023 442.4023 442.4023 442.4278 442.4278
   442.5047 442.5047 442.5047 442.5678 442.5678 442.5678 444.2154 444.3512
   444.3947 444.3947 444.3947 444.3970 444.3970 446.2270 446.2270 446.2365
   446.2365 446.2365 446.2511 446.2511 446.2511 446.2513 446.2513 446.2513
   446.3071 446.3071 446.3188 446.3188 446.3188 446.4857 446.5993 446.5993
   446.5993 446.7094 446.7094 446.7094 446.8114 457.8988 457.8988 457.8988
   458.7583 458.7583 458.7583 459.7194 461.2702 466.7471 466.7471 466.7471
   466.8776 466.8776 466.9260 466.9260 466.9260 466.9297 466.9297 466.9297
   466.9636 466.9636 466.9695 466.9695 466.9695 469.1168 469.1168 469.1168
   470.4363 470.4363 474.6247 474.6247 474.6247 475.3694 475.4826 475.4826
   475.4826 475.6842 475.6842 475.6842 475.8127 475.8127 475.8127 478.9542
   478.9542 479.0177 479.0177 479.0177 479.1234 483.2396 483.2819 483.2819
   483.2819 483.3123 483.3123 485.2384 485.2384 485.2384 485.2664 485.2664
   485.2664 485.2918 485.2918 485.2918 485.2959 485.2959 485.2959 486.4985
   486.4985 486.5463 486.5463 486.5463 486.5714 500.8165 500.8165 500.8165
   505.4698 505.4698 505.4698 506.1601 506.1601 506.7808 507.1692 507.1692
   507.1692 507.1852 507.1852 507.1852 507.2185 507.2185 507.2185 507.2711
   507.2711 507.2751 507.2751 507.2751 507.5863 509.3559 509.3559 509.3559
   512.8169 512.8169 512.8169 515.3940 515.3940 515.8546 515.8546 515.8546
   516.4567 516.4567 516.4567 516.6610 517.0523 517.5432 517.5432 517.5432
   519.0914 519.2756 519.2756 519.2756 519.2957 519.2957 521.9355 521.9355
   521.9355 522.3031 522.3031 522.3031 522.7259 522.7259 522.9812 522.9812
   522.9812 523.1237 523.2313 523.2313 523.2313 523.4097 523.4097 523.8376
   523.8376 523.8376 524.0099 524.0099 524.0099 524.2569 524.3958 524.4168
   524.4168 524.8071 524.8071 524.8071 524.8691 524.8691 524.8691 524.9477
   524.9477 524.9477 526.0525 526.0525 526.0525 526.1054 526.1054 526.1164
   526.1164 526.1164 526.2118 526.2118 526.2151 526.2151 526.2151 526.2506
   526.2506 526.2506 526.6404 527.2004 527.2221 527.2221 527.2221 527.2626
   527.2626 527.2754 527.2754 527.2754 527.2905 527.2905 527.2905 529.7429
   529.7429 529.7818 529.7818 529.7818 529.7826 529.7826 529.7826 529.8245
   529.8245 529.8245 529.8677 543.1257 543.1257 543.1257 544.6195 544.6195
   546.2201 546.9845 546.9845 546.9845 547.3018 547.3018 547.3018 547.9583
   548.1624 548.1624 548.1624 548.2680 548.2680 548.2680 548.3703 548.3703
   548.3703 548.4682 548.4682 548.5771 548.5771 548.5771 548.7406 548.7406
   548.7406 548.8872 548.8872 549.0755 549.0755 549.0755 549.2348 549.3349
   549.3349 549.3349 549.4182 549.4182 549.4182 552.1873 552.1873 552.2090
   552.2090 552.2090 552.2343 552.2371 552.2371 552.2371 552.2434 552.2434
   552.2434 552.3689 552.3689 552.4699 552.4699 552.4699 552.5237 552.5440
   552.5440 552.5440 552.5655 552.5655 552.5655 553.5873 553.5873 553.6441
   553.6441 553.6441 553.6836 556.2796 556.2796 556.2796 559.2519 559.2519
   559.2519 559.5525 559.5525 560.1937 560.1937 560.1937 561.2548 561.5787
   561.5787 561.5787 561.5865 561.5865 561.8067 561.8067 561.8067 562.0425
   562.0425 562.0425 562.2094 565.0273 565.4609 565.4609 565.4609 565.8098
   565.8098 565.8098 566.3416 566.3416 566.3830 566.3830 566.3830 566.8254
   566.8254 566.8254 566.8309 566.9515 566.9515 566.9515 567.0165 567.0165
   567.0165 567.0165 567.0165 570.1578 570.1578 570.1578 570.2711 570.2711
   570.2711 570.2936 570.2943 570.2943 570.3517 570.3517 570.3517 570.3667
   570.3667 570.3667 570.4406 570.4406 570.4406 570.5648 570.6787 570.6787
   570.6787 570.6864 570.6864 570.6919 570.6919 570.6919 570.8186 570.8186
   570.8186 571.0360 571.0454 572.0183 572.0183 572.0183 572.0965 572.0965
   572.1091 572.1091 572.1091 572.1167 572.1167 572.1554 572.3181 572.3181
   572.3181 572.3245 572.3245 572.3245 572.3259 572.3259 572.3259 572.3386
   572.3386 572.3386 572.6672 601.7200 601.7200 601.7200 605.8050 605.8050
   605.8050 605.8732 605.8732 605.8732 605.9355 605.9355 606.3024 606.3767
   606.3767 606.3767 606.4752 606.4752 606.4752 606.4780 606.5143 606.5143
   606.5143 606.6668 606.6668 606.6668 606.7123 606.7123 607.7215 607.7215
   607.7215 608.4581 608.8782 610.0648 610.0648 610.4837 610.4837 610.4837
   610.5197 610.5197 610.5197 610.5612 610.5612 610.5747 610.5747 610.5747
   610.6734 610.6734 610.6734 610.6933 610.7078 610.7078 610.7949 610.7949
   610.7949 610.8287 610.8287 610.8287 610.8848 610.8848 610.8848 610.9507
   611.1391 611.1391 611.1391 611.6665 611.6665 611.6665 611.6933 611.6933
   611.6933 612.5314 612.5817 612.5817 612.6718 612.6718 612.6718 612.8857
   612.8857 613.1248 613.1248 613.1248 613.2940 613.3366 613.3366 613.3366
   613.3402 613.3402 613.3402 613.3845 613.3845 613.3845 613.6126 613.6126
   613.6489 613.6489 613.6489 616.8851 616.8851 616.8851 616.8894 616.8894
   616.8934 616.8934 616.8934 616.9047 616.9047 616.9164 616.9164 616.9164
   616.9340 616.9340 616.9340 618.3317 618.3650 618.3650 618.3650 618.3980
   618.3980 618.3980 618.4308 631.4329 631.4329 631.4329 633.1223 633.1223
   633.6764 633.7502 633.7978 633.7978 633.7978 633.8894 633.8894 633.8894
   633.8979 633.8979 633.9771 633.9771 633.9771 634.0644 634.0644 634.0644
   634.0779 634.0779 634.0779 636.6057 636.6057 636.6057 637.1745 637.1745
   637.6737 638.0349 638.0349 638.0349 638.0372 638.0372 638.0661 638.1385
   638.1385 638.1385 638.1636 638.1636 638.1636 638.1957 638.1957 638.1957
   638.2321 638.2321 638.2321 638.2972 638.2972 638.3853 638.3853 638.3853
   638.4495 645.2262 645.2262 645.2262 646.0286 646.0286 646.0286 646.1274
   646.4167 652.5141 652.5141 652.5141 652.5262 652.5262 652.5262 652.5378
   652.5378 652.5378 652.5411 652.5411 652.5411 653.5756 653.5756 653.5805
   653.5805 653.5805 653.6008 653.6008 653.6008 653.6330 653.6330 653.6330
   653.6675 653.6675 653.6918 653.6918 653.6918 657.8190 657.8298 657.8298
   657.8339 657.8339 657.8339 673.8817 673.8817 673.8817 674.8485 674.8485
   674.8485 674.8646 674.8646 674.9108 674.9108 674.9108 674.9726 678.8971
   678.8971 678.8971 683.4491 683.7209 683.7209 683.8060 683.8060 683.8060
   684.2657 684.2657 684.2657 686.3028 686.3028 686.4076 686.4076 686.4076
   687.5313 688.5140 688.5140 688.5140 689.1131 689.1131 689.1131 689.2173
   689.2173 689.2173 689.6181 689.6181 689.6181 691.7613 692.1214 692.1214
   692.1214 692.2299 692.2299 692.6882 692.6882 692.6882 692.8010 692.8010
   692.8010 692.9357 692.9651 692.9651 693.1658 693.1658 693.1658 693.2110
   693.2110 693.2110 693.3432 693.3432 693.3432 693.3471 693.6599 693.6599
   693.7471 693.8275 693.8275 693.8275 693.9220 693.9220 693.9220 693.9595
   693.9595 693.9595 694.0064 694.0064 694.0064 694.0649 694.0649 695.5755
   695.5755 695.5880 695.5880 695.5880 695.5925 695.5925 695.5925 695.6148
   695.6148 695.6148 695.6245 696.5641 696.5641 696.5641 696.7683 696.7837
   696.7837 696.7837 696.7840 696.7840 698.0364 698.0575 698.0575 698.0575
   698.3209 698.6925 698.6925 698.6925 698.6982 698.6982 698.6982 698.7057
   698.7057 698.7057 698.7184 698.7184 698.7184 698.8875 698.8875 698.9003
   698.9003 698.9003 699.0560 699.0560 699.0560 699.1201 699.1201 699.2284
   699.2284 699.2284 699.2407 699.2461 699.2461 699.2461 699.3046 699.3046
   699.3046 699.3280 699.3280 699.3280 699.4134 699.4134 699.4134 699.4633
   699.4633 699.9750 699.9750 700.0084 700.0084 700.0084 700.0287 700.3323
   700.3323 700.3992 700.3992 700.3992 700.5499 700.5499 700.5499 700.6524
   700.6524 700.6524 700.8587 701.3574 701.3574 701.3574 701.3618 701.3618
   701.4855 701.4855 701.4855 701.5664 701.5664 701.5664 701.6216 714.6990
   714.6990 714.6990 715.4751 715.4751 715.4751 715.4905 715.5553 718.7112
   718.7112 718.7112 719.0480 719.0480 719.0772 719.0772 719.0772 719.1418
   719.1418 719.1418 719.2552 719.4137 719.4137 719.4137 719.4522 719.4522
   719.4630 719.4630 719.4630 719.5660 719.5660 719.5660 719.6399 723.0048
   723.0048 723.0260 723.0260 723.0260 723.0292 723.0292 723.0292 723.0390
   723.0390 723.0390 723.0483 723.0483 723.0483 723.0587 723.0587 732.9215
   732.9215 732.9215 734.0285 734.1714 734.1714 734.1714 734.3945 734.4614
   734.4614 734.5027 734.5027 734.5027 734.7403 734.7403 734.7403 734.8270
   734.8270 734.8270 734.9301 734.9301 734.9301 734.9398 734.9398 736.2725
   736.2725 736.2725 736.3024 736.3024 736.8100 736.8356 736.8356 736.8356
   736.8987 736.8987 736.8987 737.0652 737.0652 737.0652 737.1435 737.1435
   737.1435 737.2169 737.2169 737.4166 737.4166 737.4166 737.5300 738.5077
   738.5149 738.5149 738.5149 738.5229 738.5229 738.5229 738.5319 738.6648
   738.6648 738.6697 738.6697 738.6697 738.7035 738.7035 738.7035 738.7094
   738.7094 738.7203 738.7203 738.7203 738.7268 738.7268 738.7268 741.8770
   741.8770 741.8770 742.3545 742.3963 742.3963 742.3963 742.4753 742.6364
   742.6364 742.6364 742.6823 742.6823 742.6875 742.6875 742.6875 742.7330
   742.7330 742.7445 742.7445 742.7445 742.7624 742.7624 742.7624 743.4338
   743.4338 743.4550 743.4550 743.4550 743.4816 743.4816 743.4816 743.4823
   743.4823 743.4823 743.4836 743.4836 743.4844 743.4844 743.4844 743.7037
   743.7654 743.7654 743.7654 743.8152 743.8152 743.8152 743.8588 756.2436
   756.2436 756.2436 756.8229 756.8229 756.8590 762.7593 762.7593 762.7593
   763.1105 763.1460 763.1460 763.1460 763.1740 763.7357 763.7357 763.7508
   763.7508 763.7508 763.7538 763.7538 763.7538 763.7741 763.7741 763.7741
   763.7915 763.7915 763.7915 763.8061 763.8061 773.3278 773.3278 773.3278
   774.1341 774.1341 774.1529 774.5124 774.5124 774.5124 774.5524 774.5524
   774.5524 774.5761 774.5761 774.5761 774.6338 774.6338 774.6338 774.9697
   774.9697 775.0137 775.0137 775.0137 775.1035 778.5715 778.5715 778.5715
   778.6199 778.6607 778.6607 778.6607 778.7347 780.3112 780.3112 780.3112
   780.5250 780.5348 780.5348 783.3265 783.3265 783.3265 783.3473 783.3473
   783.3473 783.3514 783.3514 783.3514 783.3598 783.3598 783.3598 783.5215
   783.5484 783.5484 783.5493 783.5493 783.5493 783.7797 783.7797 783.7797
   783.7888 783.7888 783.7888 783.7930 783.7930 783.7930 783.8088 783.8088
   783.8088 783.8557 783.8557 783.8829 783.8829 783.8829 783.8980 788.3604
   788.3604 788.3780 788.3789 788.3789 788.3789 802.6986 802.6986 802.6986
   803.3239 803.3610 803.3610 803.3610 803.3879 803.7563 803.7563 803.7563
   803.7632 803.7632 803.8006 803.8006 803.8006 803.8118 803.8118 803.8118
   803.8198 803.8198 803.8198 803.8378 803.8378 806.9464 806.9464 806.9464
   806.9523 806.9555 806.9555 807.1041 807.1041 807.1041 807.1668 807.1668
   807.1668 807.1758 807.1758 807.1758 807.1766 807.1766 807.1766 807.1774
   807.1774 807.1774 807.1967 807.2099 807.2099 808.2047 808.2047 808.2047
   808.2049 808.2049 808.2049 808.2160 808.2160 808.2215 808.2215 808.2298
   808.2298 808.2298 808.2362 808.2362 808.2362 808.2941 808.3344 808.3344
   808.3344 808.3689 808.3689 808.3689 808.4006 814.4676 814.4676 814.4676
   815.2921 815.3648 815.3648 815.3648 815.4196 818.2828 818.2828 818.3195
   818.3195 818.3195 818.4267 818.4267 818.4267 818.5364 818.5364 818.5364
   818.5545 818.5545 818.5545 818.6829 818.6829 821.1038 821.1594 821.1594
   821.1594 821.3019 821.3019 821.3019 821.4057 821.7169 821.7169 821.7606
   821.7606 821.7606 821.8144 821.8144 821.8144 821.8244 821.8244 821.8244
   821.8795 821.8795 821.8795 821.9089 821.9089 824.1504 824.1504 824.1606
   824.1606 824.1606 824.2687 824.2687 824.2687 824.3248 824.3248 824.3248
   824.3973 824.3973 824.3973 824.4129 824.4129 824.4285 824.5740 824.5740
   824.5740 824.7008 824.7008 824.7008 824.8168 825.2682 825.2682 825.2956
   825.2956 825.2956 825.3209 825.3209 825.3209 825.3296 825.3296 825.3296
   825.3685 825.3685 825.3685 825.3894 825.3894 826.3956 826.4184 826.4184
   826.4184 826.4411 826.4411 826.4411 826.4636 845.8959 845.8959 845.8959
   846.2591 846.3119 846.3119 847.0454 847.0454 847.0454 847.0647 847.0647
   847.0647 847.0856 847.0856 847.0856 847.1530 847.1530 847.1530 847.8468
   847.8468 847.8938 847.8938 847.8938 847.9465 857.8081 857.8081 857.8081
   857.9240 857.9240 857.9240 857.9672 857.9672 857.9672 857.9725 857.9725
   857.9755 862.9109 862.9109 862.9109 863.4813 863.9537 863.9537 863.9537
   864.5499 864.9407 864.9407 864.9605 864.9605 864.9605 865.6067 865.6067
   865.6067 865.8735 865.8735 865.8735 866.1958 868.4787 868.4787 868.4918
   868.4918 868.4918 868.5027 868.5112 868.5112 868.5112 868.5542 868.5542
   868.5542 868.6120 868.6120 868.6667 868.6667 868.6667 868.6766 868.6766
   868.6784 868.6784 868.6784 868.7017 868.7204 868.7204 868.7204 868.8003
   868.8003 868.8003 868.9655 868.9655 868.9655 868.9773 868.9773 868.9773
   869.0550 871.2015 871.2693 871.2693 871.2693 871.3298 871.3298 871.3298
   871.3516 871.3516 871.3627 871.3627 871.3627 872.3522 872.3522 872.3522
   872.3708 872.3708 872.3742 872.3742 872.3742 872.4317 872.4317 872.4346
   872.4346 872.4346 872.4531 872.4531 872.4531 872.7952 872.7952 872.7952
   872.8010 872.8010 872.8115 873.0002 873.0002 873.0002 873.0163 873.0163
   873.0163 873.0224 873.0224 873.0224 873.0274 873.0274 873.0274 873.2226
   873.2226 873.2443 873.2443 873.2443 873.2548 889.7195 889.7373 889.7373
   889.7373 889.7386 889.7386 889.7386 889.8324 889.8324 889.8324 889.8455
   889.8455 890.0353 890.0353 890.0353 890.1355 890.2718 890.2718 890.2718
   890.2730 890.2730 890.3018 890.3018 890.3018 892.2546 892.2546 892.2546
   892.4567 892.4567 892.5480 893.7041 893.7041 893.7041 893.7074 893.7074
   893.7074 893.7138 893.7138 893.7328 893.7328 893.7328 893.7623 893.9306
   893.9306 893.9526 893.9526 893.9526 894.0157 894.0157 894.0157 894.0353
   894.0353 894.0353 894.0527 900.5395 900.5395 900.5395 900.8837 900.9280
   900.9280 900.9280 901.1622 901.1622 901.1622 901.2177 901.2177 902.8079
   902.8079 902.8079 902.8429 902.8429 902.8429 902.9215 902.9215 903.0627
   903.0627 903.0627 903.2328 905.7491 906.0506 906.0506 906.0506 906.4077
   906.4077 906.4077 906.6554 906.6554 906.7822 906.7822 906.7822 907.0871
   907.0871 907.0871 907.1555 907.1555 907.1555 907.1802 907.2322 907.2322
   907.2322 907.2946 907.2946 907.8276 907.8276 907.8670 907.8670 907.8670
   907.9993 907.9993 907.9993 908.0374 908.0374 908.0374 908.0702 908.3578
   908.3578 908.3578 908.3604 908.3604 908.3604 908.3834 908.4136 908.4136
   908.4136 908.4464 908.4464 908.7352 908.7352 908.7352 908.7464 908.7464
   908.7464 908.7471 908.7471 908.7471 908.7506 908.7506 908.7506 911.7740
   911.7740 911.7884 911.7884 911.7884 911.8606 911.8606 911.8606 911.9023
   911.9023 911.9023 911.9560 911.9717 912.0327 912.0327 912.0327 912.0815
   912.0815 912.0815 912.1375 912.1375 912.1430 912.1430 912.1430 912.7295
   912.7295 912.7295 912.7341 912.8477 912.8477 912.8477 912.8923 913.2470
   913.2470 913.2619 913.2619 913.2619 913.3035 913.3035 913.3035 913.3069
   913.3069 913.3069 913.3183 913.3183 913.3183 913.3221 913.3221 913.9966
   914.0004 914.0004 914.0030 914.0030 914.0030 933.8047 933.8047 933.8047
   933.9306 933.9309 933.9309 934.0679 934.0679 934.0679 934.0888 934.0888
   934.0888 934.1100 934.1100 934.1100 934.1167 934.1167 934.1167 934.1770
   934.2127 934.2127 934.2127 934.2333 934.2333 941.8987 941.8987 941.8987
   942.0441 942.0441 942.0902 944.1910 944.1910 944.1910 944.2769 944.2769
   944.2769 944.3336 944.4136 945.0674 945.0674 945.0674 945.0741 945.0741
   945.0741 945.1305 945.1305 945.1305 945.1435 945.1435 945.1435 948.4691
   948.4691 948.4692 948.4692 948.4692 948.4929 949.9094 949.9094 949.9411
   949.9411 949.9411 949.9487 949.9487 949.9487 949.9549 949.9549 949.9549
   950.0211 950.0211 950.0735 950.0735 950.0735 950.2087 950.2089 950.2089
   950.2089 950.2253 950.2253 950.2253 950.2253 950.2253 950.2618 950.2626
   950.2626 950.2626 950.3070 950.3070 950.3070 950.3309 950.3309 950.3309
   950.3434 950.3588 950.3588 950.3588 950.3730 950.3730 950.4191 950.4191
   950.4191 950.4767 950.4767 950.4767 950.5088 952.3505 952.3505 952.3562
   952.3562 952.3562 952.3653 952.3653 952.3653 952.3840 952.3840 952.3840
   952.5111 952.5111 952.5217 952.5217 952.5217 952.6000 952.6518 952.6518
   952.6518 952.7728 952.7728 952.7728 952.7886 952.8705 952.8705 952.8705
   952.8792 952.8792 952.9135 952.9135 952.9152 952.9152 952.9152 953.6694
   953.7292 953.7292 953.7292 953.7641 953.7641 953.7641 953.8341 953.8341
   953.8341 953.8965 953.8965 953.9114 953.9114 953.9114 953.9153 953.9153
   953.9153 953.9551 953.9884 953.9884 953.9889 953.9889 953.9889 954.7767
   954.7965 954.7965 954.7965 954.7998 954.7998 954.7998 954.8636 954.8636
   954.8636 954.9220 954.9220 954.9220 954.9565 954.9565 954.9780 954.9780
   954.9780 955.0066 955.0066 955.0066 955.0133 955.0133 955.0133 956.1404
   956.1404 956.1511 956.1511 956.1511 956.1513 958.1564 958.1564 958.1564
   958.1706 958.1706 958.1720 958.1720 958.1720 958.2243 958.2243 958.2243
   958.2392 958.2392 958.2596 958.2596 958.2596 958.3957 958.4475 958.4475
   958.4475 958.4740 958.4740 958.4740 958.4924 977.3665 977.3779 977.3779
   977.3779 977.4152 977.4152 977.4166 977.4166 977.4166 977.4815 977.4815
   977.4815 977.4871 977.4871 977.4871 977.5089 977.5089 977.5089 977.5324
   977.5324 977.5324 977.5354 977.5751 977.5751 977.7011 977.7011 977.7156
   977.7156 977.7156 977.7621 977.8556 977.8556 977.8556 977.8794 977.8794
   977.8794 977.8864 977.8864 977.8864 977.9453 977.9453 977.9453 977.9782
   977.9782 978.0413 978.0413 978.0413 978.0829 992.3562 992.3562 992.3562
   992.4328 992.4512 992.4512 992.4512 992.4592 992.5791 992.5791 992.6472
   992.6472 992.6472 992.7616 993.0084 993.0084 993.0084 993.0354 993.0354

          k =-0.2500 0.2500-0.2500 (  5459 PWs)   bands (ev):

   -24.3613 -16.9929  -7.7942  -7.6698  -7.6698   1.2035   1.4630   1.4630
     9.4798  11.8220  13.1243  13.1243  14.6362  14.6362  20.2494  22.7528
    23.2804  23.2804  25.2157  27.1478  27.1478  28.0010  28.0010  31.0293
    33.7213  33.7213  37.7141  37.7141  38.4894  41.5099  42.1731  44.8243
    44.8243  44.8490  47.0961  47.0961  48.5681  50.2994  50.2994  50.3597
    52.6381  52.6381  53.4168  55.0723  55.0723  55.6226  57.0058  59.5385
    59.5385  60.5328  60.5328  62.5870  63.3117  63.3117  63.5330  65.0739
    65.0739  66.0711  68.6798  69.4677  69.9911  69.9911  71.2001  71.2001
    72.6727  72.6727  75.1095  76.6722  79.9426  79.9426  82.2130  82.2130
    83.4333  84.8015  84.8015  86.3739  88.7089  88.7089  89.0139  89.0139
    89.4064  90.6819  92.0137  92.0137  93.0800  94.8439  95.9813  95.9813
    97.8620  98.4227  98.4227  99.8790 100.1321 100.1990 100.1990 101.8224
   103.3872 103.3872 103.8009 103.8477 104.6365 104.6365 105.5779 105.5779
   107.9326 107.9326 108.0285 108.9041 108.9041 109.9352 110.5913 110.5913
   113.8593 114.2159 114.2159 114.8001 115.3952 115.8764 115.8764 116.2409
   117.5463 117.5463 118.2101 119.9111 119.9111 121.5171 121.5171 122.1404
   122.8322 124.3097 124.3097 124.9156 124.9156 125.1463 125.6389 125.6389
   126.6234 126.9491 126.9491 128.5527 131.2196 131.2196 131.4224 132.4709
   133.8206 133.8310 133.8310 134.6612 134.6612 135.7345 136.6569 136.6569
   137.4432 139.3550 139.3550 139.7347 141.7097 143.1694 143.1694 146.8087
   146.8087 147.1079 148.8388 148.8388 149.2498 150.3353 150.3353 151.0403
   153.3203 153.3203 154.6954 154.6954 155.0377 155.4570 156.6081 156.6081
   159.3817 159.3817 160.1255 160.8484 161.4153 161.4153 162.3134 162.3134
   162.9151 162.9151 164.0862 164.2501 164.4381 164.9931 164.9931 166.2492
   166.8337 166.8337 166.8810 167.4714 168.2181 168.2181 170.6890 170.6890
   170.8682 170.8682 171.9809 172.0577 173.5139 176.1062 176.1062 178.3541
   178.3541 178.5138 179.3327 179.3327 180.0849 180.4193 181.3359 181.3359
   183.0388 183.3949 183.3949 183.5443 184.0749 184.0749 184.8245 184.8245
   184.9754 186.3522 186.3522 186.3672 186.4136 188.2918 188.3040 188.3040
   188.7494 188.7494 189.4705 190.2421 190.2421 190.7489 190.7489 190.9783
   192.9624 193.2061 193.2061 193.3429 194.0467 195.7540 195.7540 196.1309
   196.1790 196.1790 196.5287 197.0414 197.0414 198.2514 198.2514 200.1523
   200.1523 200.6388 201.3510 201.5557 201.5557 202.6648 202.6751 203.6392
   203.6392 205.2210 205.3924 205.3924 205.6433 205.6433 205.8966 208.1456
   208.1456 208.7108 210.2263 210.2263 210.4957 210.4957 211.1539 211.5585
   212.8334 212.8334 213.6232 215.2133 215.3496 215.3496 216.5280 216.5280
   217.0076 217.3489 217.3927 217.3927 219.5832 219.5832 220.0559 220.6114
   221.1240 221.4540 221.4540 222.7165 222.7165 223.0003 223.0003 224.2372
   225.0632 225.0632 226.5863 228.0171 228.8114 228.8114 231.0986 231.0986
   231.7153 231.9422 232.5073 232.5073 232.5821 235.4097 235.4097 237.0264
   237.0264 237.7849 238.0691 238.0691 238.9496 239.7954 239.7954 240.4693
   240.8249 241.6676 242.6175 242.6175 243.5063 243.5063 244.5000 246.3327
   246.3327 246.7324 246.9448 246.9448 247.8265 247.8265 248.2531 248.3127
   248.7024 248.7971 248.7971 249.7014 249.7014 250.2624 250.7615 251.6726
   251.6726 252.9862 254.9599 254.9599 256.1899 256.1899 256.7975 257.9971
   258.4505 258.4505 259.2177 259.2177 259.7718 259.7718 260.3757 260.7381
   260.7381 260.8162 262.7447 262.7447 262.7779 264.9270 265.5743 265.5743
   266.1476 266.1476 266.9056 266.9582 267.1253 267.1253 268.1971 269.9366
   269.9366 271.6288 271.9062 271.9062 272.6020 272.6020 272.6352 272.8572
   273.0173 273.0173 273.8071 275.1636 275.1636 275.5432 276.2423 276.2423
   277.3141 277.6517 277.6517 278.1328 278.3654 279.0572 279.0572 279.7217
   279.7217 281.4454 281.6517 282.3899 282.7258 282.7258 284.7612 284.7612
   284.8421 284.8421 285.0709 285.3357 285.9187 285.9187 287.0634 287.0634
   288.0290 288.0290 288.0310 288.1424 288.4145 288.4145 288.4336 289.2824
   289.9940 289.9940 291.5325 291.5654 291.5654 291.8515 291.8515 292.1393
   293.2024 293.7088 293.9443 293.9443 294.7436 294.7436 295.3667 295.4723
   295.4723 295.8531 295.8531 296.1496 296.5331 296.9506 296.9506 297.0301
   297.6037 297.6037 297.7400 298.7664 299.5239 299.5239 300.1076 300.1076
   301.0886 301.0886 301.4477 301.8076 302.8183 302.8183 303.8730 303.8855
   303.8855 304.9441 304.9441 304.9770 305.4035 305.4035 305.5598 305.8902
   305.8902 306.0309 306.9331 306.9331 307.0222 308.6363 311.1888 311.1888
   312.5407 313.3028 313.3028 314.2281 314.8279 314.8279 315.7560 316.2315
   318.0720 318.0860 318.2254 318.2254 318.6949 318.6949 318.8580 318.8580
   318.9812 320.7264 321.2594 321.2594 321.4838 323.6580 323.6580 324.1551
   324.5934 324.5934 324.9897 324.9897 326.2292 326.2292 326.6903 327.1137
   327.6995 327.6995 329.1974 329.1974 329.4491 329.4491 330.3506 330.6759
   331.1301 331.1301 331.3640 331.8573 331.8573 332.0240 332.0240 332.9861
   333.8869 333.8869 334.0719 334.1926 334.1926 335.0863 335.1027 335.8839
   335.8839 338.1287 338.1850 338.1850 339.3143 340.1931 341.2691 341.2691
   342.6666 342.6969 342.6969 343.2829 344.0505 344.0505 344.0948 344.2449
   344.2449 344.2461 345.3301 345.3301 345.5332 345.8897 345.8897 346.5314
   348.1975 348.1975 349.3579 349.3579 349.9259 350.1720 350.1720 350.8999
   351.9945 351.9945 353.2714 354.1375 354.1375 354.4386 355.8077 355.8077
   357.0759 357.5903 358.6634 358.6634 359.3436 359.3436 359.8679 360.0247
   360.2794 360.2794 361.5264 361.5264 361.5982 362.0308 364.1144 364.1144
   364.2422 367.2838 367.2838 367.7572 368.1256 368.1256 369.3825 369.3825
   369.8015 369.8015 369.9614 370.3376 370.3376 370.3956 371.2116 371.2116
   371.3106 371.8078 372.0969 372.5660 372.5660 373.4024 374.5829 374.5829
   374.5850 374.9141 375.0661 375.0661 375.9252 375.9954 375.9954 376.3643
   376.3643 377.1349 377.3269 377.3269 377.8886 378.6073 378.6073 379.5745
   381.3781 381.3781 382.2916 382.3334 382.3334 384.5881 384.7352 384.7352
   384.8612 385.7154 386.8281 386.8281 387.1093 387.3002 387.3002 388.3656
   388.3656 388.3761 389.3565 389.6992 389.6992 390.2050 391.5645 391.5645
   392.0032 392.5745 393.4076 393.4076 394.2048 394.2048 394.6692 394.8166
   394.8166 395.0495 395.2845 395.2845 396.2001 396.2292 396.2292 396.5499
   396.8547 396.8547 397.6826 397.8879 397.8879 398.0200 398.1341 398.1341
   398.5318 398.5318 399.0926 401.0880 401.0880 401.4751 401.4751 402.2881
   402.2881 402.5016 402.5976 402.6644 403.7319 404.6805 404.6805 405.2476
   405.2476 405.5009 405.6698 405.6698 405.9055 406.2522 406.2522 407.0418
   407.6030 407.6030 407.9954 407.9954 408.0582 408.3050 409.0162 409.0162
   409.3517 409.9229 409.9229 410.2419 410.4701 410.4701 410.8832 410.8832
   410.9029 411.1778 411.1778 411.4895 411.7171 412.8204 412.8204 413.1745
   414.6145 414.6145 414.7892 415.4997 415.5052 415.5052 415.7784 416.0934
   416.0934 416.2702 416.5198 416.5198 417.9230 418.1728 418.1728 419.0534
   419.0534 419.1552 419.6034 423.4112 423.4112 423.4382 423.9608 423.9608
   425.1822 425.2913 425.2913 425.3218 425.3218 425.6781 425.6781 425.6905
   425.9383 427.3747 427.3747 427.7249 428.4000 428.4000 429.7755 429.7755
   429.8795 429.9073 430.4873 430.4873 431.1160 431.8521 431.8521 431.9091
   432.4575 432.4575 432.5706 433.8315 433.8315 434.2099 434.3023 434.3023
   434.4454 435.1518 435.8425 435.8425 436.3985 437.3485 437.3485 437.7704
   438.7526 438.7526 438.7537 439.1341 439.4446 439.4446 440.6894 440.6894
   440.8639 440.9128 440.9128 441.0138 441.5841 441.5841 443.0771 443.4314
   443.4314 444.2517 444.5899 444.5899 445.9692 445.9692 446.3902 447.5755
   447.8642 447.8642 448.3082 451.1012 451.1012 451.7539 451.7539 451.8708
   452.1743 452.2553 452.4316 452.4316 452.5903 452.5903 452.7436 453.2735
   453.2735 453.5111 453.5111 453.8917 453.8917 453.9026 453.9159 454.3116
   454.4262 454.4262 454.5194 457.2828 457.2828 457.3613 458.6249 458.6249
   459.2253 459.7257 459.7257 460.4391 460.5164 460.5164 460.6541 461.0505
   461.0505 461.4601 461.4766 461.4766 461.6267 462.7092 462.8759 462.8759
   464.0551 464.1127 464.1330 464.1330 465.1880 465.1880 465.2902 465.3628
   465.3628 469.1067 469.1067 469.1084 469.6054 470.3527 470.3527 471.1963
   471.4392 471.4392 471.7899 472.1549 472.1549 472.1728 472.6134 472.6134
   472.6674 472.9164 473.1669 473.1669 473.5026 476.6533 476.6533 477.6820
   478.0762 478.0762 478.6008 478.6008 478.6605 478.8193 479.6610 479.6610
   480.6086 480.6086 481.4150 481.4150 481.8762 482.6536 482.6536 483.7159
   484.7551 484.7551 484.9776 484.9776 485.4012 485.7254 486.3584 486.3584
   486.9156 487.4015 487.4015 487.6085 487.8700 487.8700 488.0614 488.4412
   488.4412 490.3046 491.1500 491.1500 491.4064 492.7852 492.7852 493.4409
   493.9502 493.9502 494.2142 494.5478 494.5478 495.9073 497.7993 497.7993
   499.1641 500.1365 500.1365 500.3508 501.3327 501.3327 501.7396 502.3935
   502.3935 502.4714 502.5278 502.7575 502.7575 503.0921 505.7021 506.7753
   506.7753 507.1825 507.1825 507.2467 507.3996 507.3996 507.5894 507.5894
   508.0266 508.0266 508.0465 508.0899 508.1357 509.3758 509.3758 509.6786
   510.6564 510.6564 510.7324 510.7324 510.9062 513.3001 513.3001 514.8000
   515.0042 515.0042 515.1719 515.1719 515.6934 516.4044 516.5055 516.5055
   516.6352 516.7402 516.7402 517.1834 517.2546 517.2988 517.2988 517.3543
   517.3543 517.6369 518.9799 519.4570 519.5128 519.5128 520.1562 520.1562
   520.1891 520.1891 520.2150 520.7568 520.7568 521.2447 521.2447 521.3077
   521.8551 521.8551 521.9854 522.8668 523.7320 524.4082 524.4082 524.6195
   524.8825 524.8825 525.0016 526.5559 526.5559 526.6057 527.6838 527.6838
   528.4268 528.4667 528.4667 528.7411 528.7411 528.7642 529.1087 529.3046
   529.3046 529.5202 530.7812 530.7812 531.1273 531.1273 531.1632 531.2251
   531.9879 531.9879 532.5309 533.4806 533.4806 533.6835 533.6835 533.6998
   533.9544 534.0615 534.0615 534.0844 534.8089 534.8089 534.8936 536.1372
   536.2543 536.2543 538.2969 538.3171 538.3171 540.3552 540.3552 540.4281
   540.6014 540.6014 540.8992 540.8992 540.9522 541.1311 544.6579 544.6579
   544.9252 545.4188 546.0162 546.0162 546.6233 546.6233 546.6699 546.8681
   546.8681 547.3762 548.6062 548.6062 548.9277 549.0448 549.0940 549.0940
   549.6539 549.6539 550.2545 550.2545 550.3923 550.5499 550.5613 550.5613
   550.7493 550.8488 550.9681 550.9681 551.1300 551.1300 551.1631 551.7984
   551.7984 551.8042 552.0629 552.0629 552.1633 553.1194 553.9004 553.9004
   555.4242 555.4242 555.6287 556.9659 556.9659 557.0401 557.8083 558.8158
   558.8158 559.2482 559.5995 559.5995 559.6406 560.7762 560.7762 560.7799
   561.0163 561.3072 561.3072 561.3914 561.3914 561.4060 561.8320 561.9687
   561.9687 562.3731 562.3731 562.4718 562.4731 562.4731 562.5647 563.2623
   564.3403 564.3403 565.1027 565.1027 566.1309 566.2945 566.2945 566.3201
   566.3526 566.3526 566.9337 567.9622 567.9622 568.0720 568.9733 568.9733
   569.4835 570.0624 570.0624 571.3872 571.3872 571.5346 571.9652 571.9652
   572.0934 572.1523 572.1523 572.2005 573.1463 573.1463 573.2059 574.8107
   574.9313 574.9313 575.2293 575.2293 575.3123 575.6316 575.6316 575.6840
   576.3136 576.3136 576.5714 579.1806 579.1806 579.3235 579.5596 579.5596
   579.6785 579.9452 579.9452 580.0358 581.5639 581.5639 581.8391 582.7713
   582.7713 582.7930 582.8453 582.8453 582.8466 584.3919 584.4640 584.4640
   584.8018 584.8018 585.4250 585.5537 585.5537 585.6345 587.4184 587.4184
   587.7196 589.5184 589.5184 589.6421 590.1472 590.1472 590.2445 590.7739
   591.2255 591.2255 591.4236 591.4628 591.4628 591.5346 592.0263 592.0263
   592.1541 592.5435 592.5435 594.5788 594.7862 594.7862 595.5142 595.5142
   595.8529 595.8529 595.9328 596.3996 596.5888 596.6383 596.6383 596.7231
   597.0638 597.0638 597.3095 598.8473 598.8473 598.9880 598.9880 599.0205
   599.1227 599.2290 599.5520 599.5520 599.7071 599.7071 599.7534 599.9334
   599.9334 599.9671 600.2197 600.2197 600.3211 603.7049 603.7049 604.0113
   604.0113 604.1469 604.5869 604.5869 604.7259 604.7259 604.8333 604.8604
   607.0203 607.0203 607.0677 607.5096 607.5096 607.7187 608.2663 608.8938
   608.8938 609.2170 609.2170 609.2353 609.4864 609.4864 609.6823 610.0776
   610.0776 610.2518 610.3632 610.3632 610.6620 611.5419 611.5419 611.5536
   612.7853 613.2440 613.2440 615.4707 615.4707 615.4945 616.1301 616.1301
   616.3593 616.3859 616.3859 616.4048 616.5503 616.5503 617.1873 619.6051
   622.2587 622.2587 622.2942 622.8808 622.8808 622.9425 624.1041 624.1041
   624.1750 624.5699 624.5699 624.6601 626.0992 626.0992 626.5106 627.2645
   627.2645 627.4786 627.5672 627.5672 627.6359 628.0967 628.0967 628.4975
   628.5050 628.5050 628.5084 629.3607 629.3607 629.5812 630.9771 631.1026
   631.1026 631.5919 631.5969 631.5969 631.8854 631.8854 631.9471 632.6195
   632.9477 632.9477 637.3812 637.3812 637.6176 638.3115 638.7597 638.7597
   638.9758 639.3073 639.3073 639.3362 640.5293 640.5293 640.8760 641.2531
   641.2531 641.2765 641.6762 641.6762 644.3796 644.3796 644.6243 644.6411
   644.6411 644.6879 645.8219 645.8219 646.0158 648.3315 648.7387 648.7387
   649.6458 649.6458 649.8274 649.9999 650.0177 650.0177 650.0237 650.7455
   650.7455 650.8672 650.8672 651.0221 651.1527 651.9324 651.9324 652.3702
   652.8487 652.8487 652.9634 652.9634 653.0958 654.4263 654.4780 654.4780
   656.2122 656.2734 656.2734 657.0894 657.0894 657.1292 657.2403 657.4477
   657.4477 657.7267 657.9505 657.9505 658.0232 658.4356 658.4356 658.4934
   660.8438 660.8438 661.3397 661.3397 661.5355 661.9079 661.9079 662.0072
   662.3806 662.3806 662.5586 663.1265 663.2816 663.2816 663.3583 665.1280
   665.1280 665.4972 665.7898 665.7898 667.1586 667.1586 667.2905 667.5471
   667.9401 667.9401 667.9426 669.2461 669.2461 669.3375 669.6389 669.6389
   669.6764 669.7769 669.8134 669.8134 670.4337 670.4337 670.4370 670.6607
   670.6607 670.6793 670.6793 670.7149 673.0185 673.0185 673.4425 673.8406
   673.8406 673.8967 675.3254 675.3254 675.6321 675.6321 675.6394 675.6893
   676.8966 677.0125 677.0125 677.0761 677.2728 677.2728 677.3413 677.4819
   677.4819 677.5484 677.5527 677.5527 677.8828 677.8828 677.9768 680.2218
   680.2218 680.2347 681.6873 681.7050 681.7050 681.7573 681.7573 681.8344
   681.8433 681.8433 682.6933 682.7176 682.7176 682.9887 683.1253 683.1253
   683.1746 684.4629 685.2220 685.2220 688.9660 688.9660 689.1299 690.2770
   690.2973 690.2973 691.3670 691.3670 691.7472 692.5499 692.6892 692.6892
   692.9447 692.9447 693.1604 693.2649 693.2649 693.3148 694.2342 694.2342
   694.4230 694.9668 694.9668 695.0217 695.1429 695.1429 695.1937 695.2544
   695.2544 695.3722 695.5582 695.8627 695.8627 696.4286 696.4286 696.4578
   696.4658 696.4658 696.7073 697.3100 697.4613 697.4613 697.5210 697.9442
   697.9442 698.0883 700.9419 700.9476 700.9476 702.6380 702.6380 702.6491
   704.2584 704.2584 704.2735 704.3319 704.3319 704.4967 704.5388 704.5388
   704.5625 705.2708 705.2708 705.3429 705.3429 705.4189 705.9007 705.9007
   706.0473 706.2934 706.2934 706.3622 706.3845 706.3845 706.3960 707.2980
   707.2980 707.3757 708.3241 708.5248 708.5248 708.7297 708.7297 708.8267
   708.8611 708.8611 709.0166 710.1291 710.1291 710.2257 710.2644 710.2787
   710.2787 710.7256 711.5037 711.5037 711.9633 711.9633 711.9798 713.0108
   713.0108 713.0488 717.4529 717.7475 717.7475 718.5104 718.5993 718.5993
   718.7540 718.7540 718.8220 720.4354 720.5303 720.5303 721.3234 721.3234
   721.3479 723.2301 723.2818 723.2818 723.7827 723.8753 723.8753 723.9212
   723.9761 724.0063 724.0063 724.3215 724.9265 724.9265 725.5412 725.5412
   725.5758 726.2408 726.2408 726.7737 726.8156 727.0783 727.0783 727.9191
   727.9191 728.0918 728.0918 728.2205 728.2258 728.2659 728.2659 728.4421
   729.0983 729.5153 729.5153 730.6440 730.6440 730.8494 730.9503 730.9503
   731.0055 731.0603 731.0996 731.0996 731.5660 731.7941 731.7941 732.3090
   732.3090 732.5739 732.8585 733.0018 733.0018 735.3937 735.3937 735.4378
   735.4378 735.4421 735.5129 735.7394 735.7394 735.7446 735.9830 736.0693
   736.0693 737.3292 737.3955 737.3955 737.7398 737.7398 737.7765 737.7797
   737.7797 737.8148 738.9575 738.9575 738.9779 740.1002 740.1002 740.3094
   740.9915 740.9915 741.0064 741.1547 741.2850 741.2850 742.2889 742.3327
   742.3327 742.7010 742.7290 742.7290 742.8010 742.8010 742.8300 743.7502
   743.7502 743.9119 744.8826 745.3631 745.3631 745.3698 745.4150 745.4150
   745.6087 745.7632 745.7632 746.5732 747.9891 747.9891 748.5568 748.5568
   748.7501 749.0924 749.0924 749.0946 749.4194 749.4194 749.4305 749.5744
   749.5744 750.0825 750.9579 751.3892 751.3892 751.4612 751.5210 751.5210
   751.5273 751.5602 751.5602 751.5639 751.6122 751.6122 753.8051 753.8051
   753.9005 754.2192 754.2192 754.2463 755.4808 755.4808 755.5867 755.8694
   755.8694 755.9981 758.8338 758.8338 758.9626 759.0107 759.0107 759.0802
   759.6619 759.6619 759.6901 759.7758 759.7758 759.7809 760.5772 760.5772
   760.5804 760.5832 760.9382 760.9382 761.0036 762.3684 762.5529 762.5529
   762.9923 762.9923 763.0791 764.6896 764.6896 765.7653 765.9035 765.9035
   767.1143 767.1323 767.1323 767.3259 767.3259 767.3677 769.2658 769.2658
   769.2867 769.4112 769.4112 769.5733 769.5733 769.5781 769.6034 770.5132
   770.5453 770.5453 770.8974 771.1960 771.2745 771.2745 774.0742 774.0742
   774.1259 774.4807 774.4807 774.4934 774.5199 774.5199 774.5322 774.9970
   774.9970 775.0855 775.0900 775.0900 775.1834 775.4953 775.4953 775.5019
   776.1656 776.1764 776.1764 776.2975 776.2975 776.3118 777.3176 777.3176
   780.9486 781.0439 781.0439 781.7723 781.7723 781.8436 782.7942 783.0485
   783.0485 785.8040 785.8040 785.9082 786.1421 786.1421 786.1781 786.2707
   786.3805 786.3805 786.3887 786.4702 786.4702 787.1227 787.1227 787.1563
   788.0408 788.0408 788.0741 788.2732 788.2732 788.3751 789.5758 789.6743
   789.6743 791.0834 791.1096 791.1096 791.1300 791.3540 791.3540 791.6729
   791.7158 791.7158 791.8632 791.8669 791.8669 792.9398 792.9398 793.2902
   795.8523 795.8523 795.8595 796.4213 796.4213 796.4399 798.3200 798.3200
   798.3793 799.6032 799.6032 799.6633 799.7754 799.7754 799.7866 801.4227
   801.4227 801.4277 801.4932 801.4932 801.4934 804.0224 804.0224 804.1452
   804.3803 804.7224 804.7224 804.8553 804.8680 804.8680 804.9503 804.9503
   804.9766 805.0749 805.0749 805.0776 805.8037 805.8037 805.9385 806.8377
   809.1713 809.1761 809.1761 809.1848 809.1848 809.1926 809.8077 809.8077
   809.8431 810.3048 810.3207 810.3207 812.5808 812.5808 812.7359 813.0758
   813.0758 813.0778 813.4219 813.4219 813.4709 814.5732 814.5732 816.2114
   816.8335 816.8335 817.4530 817.4530 817.7229 817.7563 817.7681 817.7681
   817.7709 817.8561 817.9186 817.9186 817.9236 817.9754 817.9754 818.3814
   818.3814 820.2108 820.2552 820.2552 821.9826 821.9826 822.0774 822.3207
   822.3207 822.3676 824.1773 824.2463 824.2463 824.5481 824.5481 824.5599
   825.9986 825.9986 826.1396 826.1396 826.1632 826.1680 826.8837 826.8837
   826.8967 827.5056 827.5056 827.5361 827.9050 827.9050 827.9436 827.9862
   828.0387 828.0387 828.2649 828.2649 828.3036 828.7663 828.7663 828.8085
   829.1086 829.1086 829.1672 829.9949 829.9949 829.9993 833.0399 833.0399
   833.0412 833.7326 833.7326 833.7372 833.9392 833.9498 833.9498 834.0805
   834.0805 834.0894 835.6221 837.9053 838.1065 838.1065 839.0115 839.0116
   839.0116 839.3858 839.3858 839.4075 840.1822 840.1943 840.1943 840.2905
   840.2905 840.3138 841.0917 841.0917 841.1238 841.6300 841.6300 841.7164
   841.8214 841.8214 841.8403 842.4610 842.4610 842.5244 845.6661 845.6661
   845.6890 845.7575 845.7597 845.7597 847.2009 847.2009 847.2151 847.2641
   847.2641 847.2693 848.0397 848.1587 848.1587 849.7373 850.3171 850.3468
   850.3468 850.8727 850.8727 850.8912 850.9239 850.9239 852.0087 852.0087
   852.0255 852.1497 852.1497 852.4319 853.0841 853.0841 853.2007 853.5553
   853.5553 853.6029 854.7485 854.7485 855.0214 855.0214 855.0231 855.3075
   855.4109 855.6344 855.6344 855.7255 856.3443 856.3443 857.2395 857.2458
   857.2458 857.7589 857.7813 857.7813 857.8015 857.9550 857.9550 858.0233
   858.0333 858.0333 858.0570 858.1599 858.1792 858.1792 858.3164 858.3164
   858.7260 858.7270 858.7270 858.8853 858.8857 858.8857 862.5604 862.5604
   862.6870 863.0565 863.0565 863.3339 863.3407 863.3407 863.3789 864.8528
   864.8758 864.8758 865.6310 865.6310 865.6447 868.8059 868.8059 868.8548
   869.1410 869.1445 869.1445 869.7344 869.8119 869.8119 869.8211 870.2798
   870.2855 870.2855 870.3313 870.3313 870.3481 871.1705 871.1705 873.8036
   873.8036 873.8147 874.9179 874.9179 874.9233 875.0764 875.0764 875.1409
   875.1573 875.1573 875.1646 875.2554 876.1693 876.1693 876.4406 877.9992
   877.9992 878.7315 878.7315 878.7405 878.7917 878.7917 878.8049 881.4727
   881.7782 881.7782 881.8525 881.8525 882.2743 882.2869 882.2869 882.3320
   882.3320 882.3584 882.4135 882.4144 882.4144 883.1294 883.1294 883.2148
   883.3176 884.3784 885.9970 885.9970 886.0271 886.8371 886.8371 886.8627
   887.3187 887.3187 887.3261 889.2712 889.2712 889.2763 890.0709 890.1237
   890.1237 890.1251 890.1962 890.1962 890.8687 890.8687 890.9448 891.8835
   891.8835 891.9461 891.9461 891.9886 892.0710 892.0710 892.0951 892.4051
   892.4051 892.4158 892.5521 892.5521 892.5596 893.5297 893.5334 893.5334
   893.6283 893.6283 893.6386 894.7231 894.7231 894.7305 895.1579 895.1579
   895.2012 895.7871 896.4861 896.4861 897.9081 897.9140 897.9140 898.0316
   898.0316 898.0710 898.4347 898.4460 898.4460 900.0887 900.0887 900.5075
   900.5075 900.5222 900.6703 900.8340 900.8417 900.8417 900.8639 901.0922
   901.0922 902.4514 902.4514 902.4757 902.7903 902.7903 902.7991 902.8623
   902.8623 902.9055 903.2388 903.2647 903.2647 903.9943 903.9964 903.9964
   904.0501 904.0501 904.0585 905.2278 905.2278 905.2394 905.7163 905.7163
   905.7291 906.3268 906.3415 906.3415 906.9247 906.9663 906.9663 907.1256
   907.1256 907.1527 907.9357 907.9357 907.9461 909.6134 909.6524 909.6524
   909.7603 909.7603 909.7970 910.8402 910.8402 910.9223 911.0809 911.1226
   911.1226 911.3225 911.3225 911.3626 912.6681 912.6681 912.6685 913.3823
   913.3823 913.4100 913.4690 913.4690 913.4819 913.7149 913.7567 913.7567
   913.7869 913.9768 913.9768 916.5557 916.5557 916.5962 916.9093 916.9102
   916.9102 917.0221 917.0235 917.0235 917.3597 917.3597 917.4664 918.3257
   918.3257 918.3580 918.3914 918.3914 918.4571 919.3368 919.3368 919.3403
   920.2189 920.3081 920.3081 920.4531 920.4533 920.4533 921.7794 921.7794
   921.7872 921.9373 921.9373 921.9600 923.5087 923.5087 923.5391 924.2738
   924.2738 924.2754 924.3042 924.3042 924.3102 924.3794 924.8322 924.8322
   924.8438 925.2589 925.3706 925.3706 925.6975 925.6975 925.7834 927.2585
   927.2585 927.2814 928.2058 928.2058 928.2091 929.3615 929.3615 929.3629
   931.0765 931.0765 931.0779 932.0423 932.0423 932.1884 932.7270 932.7270
   932.7339 932.7775 932.7775 932.7841 932.8171 932.8171 933.9971 934.0013
   934.0013 935.8509 935.8634 935.8634 935.9575 935.9575 935.9710 937.1582
   937.1582 937.1809 937.2189 937.2256 937.2256 937.6593 937.6593 937.6679
   938.1274 938.1274 938.1792 938.4676 938.4676 938.4880 938.6282 938.6282
   938.6384 940.3296 940.3296 940.3529 940.6669 940.6669 940.6793 940.6831
   940.6831 940.6866 940.9739 940.9863 940.9863 943.1387 943.1680 943.1680
   943.4706 943.4794 943.4794 944.0145 944.1100 944.1100 944.3496 944.3630
   944.3630 945.7941 945.7941 945.8110 947.6972 947.7163 947.7163 948.0418
   948.0418 948.1100 948.5107 948.5107 948.5288 948.8055 948.8055 948.8077
   951.2070 951.2070 951.2083 951.2874 951.2874 951.2915 951.3022 951.3022
   951.4629 951.5118 951.6863 951.6863 951.8842 951.8842 951.9009 954.4086
   954.4086 954.4384 955.0193 955.0193 955.0229 955.6396 957.5205 957.5205
   957.5243 957.5503 957.5503 957.5574 959.1972 959.2053 959.2053 959.4033
   959.4033 959.4808 959.4915 959.5491 959.5491 960.4460 960.5279 960.5279
   960.6045 960.8838 960.8838 961.5725 961.5725 961.6606 961.6606 961.6633
   961.7664 963.3310 963.3310 963.3385 964.0887 964.3298 964.3298 965.3463
   965.3463 965.4007 966.7157 966.7157 966.7475 966.8604 966.8667 966.8667
   967.8979 967.8979 967.9087 968.2132 968.2132 968.2148 969.4296 969.4296
   969.4488 969.6273 969.6273 969.6400 969.9983 969.9983 970.0015 970.8928
   970.8928 970.8985 971.5782 971.5782 971.5861 972.1849 972.4473 972.7464
   972.7464 972.8958 972.8958 973.3500 973.3500 973.3579 973.7236 973.7409
   973.7409 974.2052 974.2052 974.2431 974.6724 974.6850 974.6850 975.3650
   975.3650 975.3752 977.1738 977.1738 977.2959 977.4981 977.4981 977.4989
   979.9929 980.3128 980.3128 980.3380 980.3837 980.3837 980.7653 980.7653
   980.7674 981.9614 981.9614 981.9626 982.7999 982.7999 982.8018 982.9526
   983.0412 983.0412 983.1227 983.1227 983.1899 985.7841 985.7841 985.9399
   987.3998 987.4029 987.4029 988.9964 989.0194 989.0194 989.4230 989.4230
   989.4316 989.6804 989.6804 989.6897 989.7817 989.7817 989.7846 990.7894
   990.8034 990.8034 991.2707 991.2707 991.3161 992.3204 992.3545 992.3545
   993.4258 993.4629 993.4629 993.5655 993.5655 993.5888 994.0913 996.6835
   996.6835 996.6871 997.5393 997.5450 997.5450 997.5990 997.5990 997.6235
   997.6235 997.6488 998.1187 998.1187 998.1384 999.8881 999.8881 999.8965

          k = 0.5000-0.5000 0.5000 (  5480 PWs)   bands (ev):

   -24.3091 -17.0426  -7.9347  -7.6883  -7.6883   0.8413   1.2857   1.2857
    10.8170  12.4268  13.7864  13.7864  15.9275  15.9275  17.8491  20.2834
    20.2834  22.2921  26.6878  27.7913  27.7913  28.2817  28.2817  33.1921
    35.6649  35.6649  36.6066  36.8149  36.8149  41.7353  42.1098  42.1098
    43.0744  44.6043  44.7684  44.7684  46.8259  48.8655  51.5480  51.5480
    52.3197  53.5560  53.5560  54.4163  55.2270  55.2270  57.8313  58.2535
    58.2535  58.5588  62.7851  62.7851  65.7249  65.9980  65.9980  69.8256
    70.6436  70.6436  71.9239  71.9239  72.3633  72.3633  74.3764  74.3764
    74.8048  74.9796  76.0809  76.0809  76.9100  76.9303  77.8211  79.3005
    79.3005  82.9842  83.7882  83.7882  84.2934  86.8100  86.8100  87.3038
    87.3038  87.8704  87.8704  90.8671  90.8671  92.7238  93.6378  95.3109
    95.4065  96.1689  96.1689  98.6646  98.9105  99.3680  99.3680  99.9329
    99.9329 101.0856 103.6986 104.9081 104.9081 105.3742 107.2574 107.2574
   108.2252 108.5560 108.5560 109.3817 110.6617 111.1982 111.1982 113.8027
   113.8027 114.8616 115.6757 115.6757 115.8182 115.8182 116.8807 116.8807
   117.5524 117.7760 118.7642 120.9084 121.5886 121.5886 121.8799 124.1697
   124.1697 126.5452 126.5452 126.7745 127.6671 127.6671 129.4413 129.4413
   129.7998 129.8021 131.1449 131.1449 131.2142 132.5008 132.8820 134.0784
   134.0784 134.3211 134.3211 135.5778 138.4805 138.4805 139.0181 139.0181
   140.7056 140.7202 140.7429 140.7429 141.0312 141.0312 142.1289 142.1289
   146.5953 146.5953 147.1657 148.1040 148.1040 148.1312 150.9354 150.9354
   151.1703 151.1703 151.2302 151.2808 151.8647 152.4823 152.4823 154.2520
   155.3394 158.0256 158.0256 159.0500 159.9888 161.1918 161.1918 162.6064
   162.6064 164.3519 164.3519 164.6144 165.2638 165.6581 166.5862 166.5862
   168.2430 168.5816 168.5816 169.6717 169.6717 170.3781 170.6489 170.6489
   171.3022 171.3022 171.4635 171.5218 171.5834 171.8578 171.8578 172.1158
   172.1158 173.4132 176.5233 176.5233 177.5402 179.0953 179.9706 179.9706
   180.0627 180.0627 180.9335 181.7170 181.7170 181.7739 182.6049 182.7426
   182.7426 183.0956 183.0956 183.9501 183.9501 184.1347 184.5221 184.5221
   186.7363 187.7267 187.7267 188.0725 188.3610 190.5719 190.5719 191.3448
   191.5067 191.9279 191.9279 193.1666 197.2682 197.2682 197.4370 198.1187
   198.5610 198.5610 199.3827 199.9217 199.9217 202.0534 202.0534 202.2667
   202.4529 202.7149 202.7149 203.3043 203.3043 204.3948 205.0754 205.0754
   205.2609 205.2609 205.2842 205.5624 206.6239 206.8249 208.0470 208.0470
   208.4106 208.9725 208.9725 214.7353 214.7353 214.8220 214.8220 218.0831
   218.4757 218.8728 218.8728 219.2680 219.2680 220.5599 223.4502 223.4502
   223.6675 223.8264 223.8865 223.8865 224.0233 224.0233 224.1151 224.1151
   224.4186 224.4186 224.5371 224.5410 224.6661 225.2596 226.4376 227.3270
   227.3270 231.0947 231.6128 231.6128 232.2718 232.2718 232.4848 233.1571
   233.2390 233.4499 233.4499 233.5581 233.5581 233.5982 233.5982 233.8000
   233.8000 234.3526 234.8974 235.0857 235.0857 235.1627 235.6873 236.8512
   236.8512 236.9000 236.9000 238.1438 238.1439 240.3051 243.7849 243.7849
   244.9192 244.9192 245.9843 245.9843 246.3253 246.5006 246.5006 246.6691
   246.7872 246.7872 247.7896 247.7896 248.8491 249.2796 249.2796 251.8040
   251.8040 252.3913 252.8860 252.8860 253.9138 254.7667 255.7643 255.7643
   255.8182 255.8182 256.0267 256.0375 256.7079 256.8351 256.8351 257.2329
   257.3412 257.9530 257.9530 259.4206 259.4206 259.8889 259.8889 260.9704
   264.5650 264.5650 264.9586 265.3606 265.8247 265.8247 266.7254 266.7254
   267.0252 267.0252 267.0426 267.6206 267.7476 267.7757 267.7757 267.9114
   272.1476 273.1179 273.1179 274.0601 274.0601 275.8936 275.8936 275.9529
   275.9529 276.0776 276.4631 276.4887 276.4887 276.6508 277.2323 278.2047
   278.2047 278.4854 278.8141 279.6224 279.6224 281.3882 281.3882 281.4181
   281.8089 284.3520 284.3520 285.1124 285.3695 285.7448 285.7778 285.7778
   286.5226 286.5226 286.9108 286.9108 286.9274 286.9274 287.5021 287.8172
   288.6157 288.6157 290.3938 290.3938 290.5977 290.8254 290.8254 293.0831
   293.0831 294.0009 294.4039 295.4503 295.4503 295.6391 297.0129 297.0129
   297.6540 297.9232 297.9232 299.0585 299.1491 299.1491 299.1908 299.1908
   299.3655 299.5263 302.0432 302.0716 302.0716 302.1016 302.1016 302.1832
   302.9491 302.9491 303.3882 306.8412 306.8412 307.4942 307.5158 307.5158
   309.3041 309.3041 309.6837 309.6844 309.8661 310.6109 310.6109 312.7236
   314.3155 314.5075 314.5075 315.3473 315.3473 317.4253 317.4253 318.1947
   318.2775 318.2775 318.7112 319.3603 319.3603 319.4503 319.5881 319.7815
   320.6612 320.6612 320.8003 321.1442 321.1442 321.2045 321.2122 321.2122
   321.5975 323.3153 323.3153 324.1229 324.1229 325.1062 325.1062 325.1957
   325.6396 325.6396 326.3726 326.8278 326.8278 327.3219 328.2348 328.8335
   329.0268 329.9516 330.2775 330.2775 330.4665 330.4665 330.5172 330.7042
   330.7042 330.7279 330.7279 330.9860 330.9860 331.0363 331.0901 331.1236
   331.1236 332.2014 332.3044 332.3044 332.3900 332.3900 332.4944 332.5244
   338.9381 338.9381 340.1015 340.2508 340.2508 340.2733 340.5541 340.5541
   341.2738 341.4651 341.4651 341.6662 341.6662 341.9816 341.9816 342.0844
   342.1015 342.4144 343.1678 343.1678 343.4045 343.4045 343.4790 343.4816
   347.9961 347.9961 348.4413 349.3971 350.6960 350.6960 350.8578 350.8578
   351.2860 351.5654 351.5654 352.3204 353.2288 355.1212 355.9324 355.9324
   356.9016 357.2562 357.2562 359.4374 359.4374 359.6716 359.9921 359.9921
   360.2432 360.2432 360.7786 360.7786 360.9251 360.9251 361.0775 361.0821
   361.8833 361.8833 361.9043 363.3874 363.8709 363.8709 364.2730 364.2730
   364.6911 364.6911 365.7517 365.7519 367.6350 368.5991 368.5991 370.4291
   371.0724 371.0724 371.6399 372.0921 372.0921 372.1703 372.1703 372.9518
   373.5949 373.5949 374.0333 375.6469 375.6469 375.8600 375.8684 375.8684
   375.8823 375.8823 376.0821 376.0824 377.4520 377.4520 377.6638 378.0280
   378.7427 379.4434 380.2478 380.2478 381.9912 382.0696 382.0696 384.6569
   385.6292 385.6292 385.7285 385.7285 388.3294 388.3294 389.8457 389.8457
   390.5319 390.7921 390.7921 391.2091 391.4341 391.4341 392.1656 392.1656
   392.1894 392.5506 392.9025 392.9245 392.9345 392.9345 393.0359 393.0359
   393.0398 393.0398 393.3304 393.9290 394.1901 394.3344 394.3344 394.4147
   394.4147 394.8098 395.0224 395.0224 395.1074 395.1240 395.1240 395.5250
   395.5250 395.5906 395.8951 395.8951 395.9255 395.9827 396.9096 396.9096
   396.9419 396.9419 396.9464 397.1587 399.9252 399.9252 401.7370 401.7370
   401.9761 402.6042 402.7910 403.7941 403.7941 403.8120 403.8120 404.6685
   406.1186 406.3751 406.3751 406.5309 406.5309 406.5926 407.5113 408.9924
   408.9924 411.0858 411.0858 412.0478 413.2934 413.2934 414.3422 414.4802
   414.4802 414.5178 414.6087 414.6087 414.6993 414.7764 414.7764 415.1973
   415.4950 415.4950 415.7425 415.7425 415.9600 415.9702 416.3044 416.3044
   416.8631 417.2020 417.2020 417.6365 417.6365 417.6711 417.6711 417.7070
   417.7446 418.2139 422.1048 423.1145 423.1145 424.0948 424.7564 424.7564
   425.0718 425.5528 425.5528 425.7039 425.8787 425.8787 426.4417 426.4417
   426.9732 426.9732 426.9762 427.0102 427.0102 427.3862 427.3862 427.3881
   427.3927 427.4520 427.4561 431.0108 433.0774 433.0774 434.2744 434.2744
   434.3079 435.2673 438.0165 438.0165 438.6688 438.6688 438.6741 438.6741
   438.9292 438.9292 438.9343 439.0333 439.5082 439.5082 441.3165 441.3165
   441.6487 441.8763 442.2451 442.6305 442.6305 443.6505 443.6505 444.5984
   445.0419 445.6251 445.6251 445.7139 445.7347 445.7347 446.1896 446.1896
   446.2767 446.2894 446.2894 446.5843 446.5999 447.6157 447.6157 447.7896
   447.7896 448.1843 449.4853 449.4853 449.6734 449.6734 449.6947 449.7499
   449.8408 450.1561 450.1561 452.1222 452.1222 453.7332 457.3120 457.3120
   457.6091 457.6855 457.6855 457.9144 457.9144 457.9192 458.1863 458.3946
   458.3946 458.6108 458.6108 458.6836 458.6836 458.8349 458.8369 459.3643
   461.2487 461.2487 461.2556 461.2556 461.2633 461.2878 464.6327 464.6327
   466.4659 467.0297 467.4404 467.4520 467.4520 467.5563 467.5563 468.2354
   468.2354 468.2550 468.2550 468.5478 468.6353 468.6353 468.6659 468.6868
   469.5311 469.5311 470.0509 470.6521 470.6521 471.4605 471.4605 471.5132
   471.5137 471.5949 471.5949 472.4790 475.9897 475.9897 476.2485 478.0575
   478.1859 478.1859 478.8408 478.9325 478.9325 479.0343 479.3253 479.3512
   479.3512 479.4234 479.4774 479.6734 479.6734 479.7094 479.7094 480.0751
   484.9756 484.9756 485.5072 486.2259 486.2259 486.9943 486.9943 487.1460
   487.2846 487.5361 487.5361 487.6344 487.6344 487.7530 488.0046 488.0046
   488.3201 488.3201 488.5691 488.5691 488.5906 488.5964 488.7168 488.7168
   488.7460 488.7510 488.8803 488.9840 489.0315 489.0315 490.8516 490.8631
   491.0057 491.0057 491.0209 491.0209 492.2541 492.2541 492.2606 492.2606
   492.2757 492.3178 492.3178 492.3204 492.3507 492.3507 492.4430 492.4528
   501.2667 501.2667 501.3874 501.8349 501.8349 501.9530 502.2748 502.2748
   502.3238 502.3238 502.3913 502.4747 502.4753 502.4771 502.6022 502.6022
   502.6773 502.6773 503.8628 503.8628 506.3789 506.3789 506.5683 507.8549
   509.1800 509.1800 509.6240 509.7138 509.7138 510.2082 510.9662 510.9662
   511.4926 511.5645 511.5645 511.6683 511.7693 511.7693 511.9117 511.9117
   511.9340 511.9799 512.1806 512.1806 512.5721 512.5721 512.6346 512.6486
   514.0205 515.6521 515.6521 515.7546 515.7546 515.8890 516.1398 516.7514
   518.2014 518.8504 518.8504 519.1606 519.1606 519.2034 519.2034 519.3633
   520.6825 520.7689 520.7689 520.9450 520.9450 520.9492 520.9492 522.1226
   522.9514 523.0011 523.0011 523.0274 523.0274 523.2662 523.2662 523.2886
   523.3205 523.3342 523.3342 523.3375 523.3375 523.4849 523.4849 523.4894
   523.5220 523.5719 525.8754 525.8754 525.8786 525.8786 527.0454 527.0455
   531.3408 531.3408 532.2992 532.2992 532.3767 532.4680 534.1517 534.1517
   534.2032 534.3214 534.3214 534.6835 537.0607 537.0607 538.1807 539.7229
   539.7229 539.9168 539.9832 540.2896 540.2896 540.5854 540.5854 541.2004
   541.7256 541.7256 541.9660 541.9660 542.0605 542.1171 542.2312 542.3063
   542.3063 542.5117 542.5117 542.5206 542.5206 542.6065 542.7317 542.7317
   542.8590 543.0832 543.7234 543.7234 543.7299 543.7299 543.8435 544.0097
   547.6649 548.6585 551.7986 551.7986 552.6017 552.6017 552.6364 552.9958
   553.0118 553.0849 553.0849 553.2412 553.2412 553.4883 553.4883 553.5358
   553.5358 553.6262 553.6836 553.7466 553.7466 553.7478 553.8323 553.8888
   553.9898 553.9957 553.9957 554.0257 554.0257 554.1069 554.1291 554.1291
   555.4347 555.4347 555.7871 555.8078 555.8078 556.1999 556.2928 556.2928
   556.3083 556.3083 556.4877 556.4877 556.4891 556.4900 556.4900 556.5216
   557.2818 557.2818 557.2905 557.2905 557.3317 557.3320 561.3556 561.3556
   561.5251 562.0197 562.0197 562.5650 566.6278 566.6278 566.7273 566.7273
   566.7507 566.7651 572.5071 572.5071 572.6906 574.6876 574.6876 575.3277
   575.3277 575.3381 575.3381 575.4551 575.4551 575.4551 575.4786 575.5187
   575.6555 575.6555 575.7369 575.7369 575.7385 575.8413 575.9213 575.9213
   575.9539 576.0053 577.2215 577.2215 577.7322 577.8707 577.8707 578.1138
   582.4152 582.4152 583.4769 583.4769 583.5037 583.7398 583.9842 583.9842
   584.1263 584.2782 584.2782 584.5502 585.8499 586.0051 586.0051 586.1919
   586.1919 586.5651 586.5896 586.6579 586.6579 586.7759 586.7759 586.8209
   591.0431 592.0731 592.5521 592.5521 592.7901 592.7901 593.9195 594.7510
   594.7510 595.0553 595.0553 595.0825 595.1746 595.4493 596.2224 596.2224
   596.3715 596.3715 597.4291 597.4291 597.5883 597.5883 597.6339 597.6484
   598.1528 598.1718 598.1718 598.2555 598.2555 598.3383 598.3428 598.3428
   598.3760 598.3760 598.3917 598.4022 599.3332 600.5233 600.5233 601.2513
   601.2513 601.6099 604.5875 604.5875 604.9157 604.9243 604.9243 605.0782
   605.4736 605.6535 606.2932 606.2932 606.3065 606.3065 606.5061 606.6997
   606.8363 606.8363 606.9483 606.9483 608.1145 608.1145 608.1301 608.1301
   608.1961 608.1964 608.5405 608.5405 608.5586 608.5586 608.8886 608.9065
   609.3325 609.3325 609.3541 609.3693 609.3693 609.3814 609.5626 609.5626
   609.5627 609.5627 609.5664 609.5822 613.2532 613.3514 613.7800 613.7800
   613.9884 614.1805 614.1805 614.3058 615.3421 615.3421 615.7423 615.7423
   615.9046 616.0854 617.5671 617.5671 617.6207 617.6207 617.7371 617.7391
   618.6406 618.6437 618.7494 618.7494 618.7626 618.7626 620.4029 620.4029
   620.4069 620.4069 620.6843 620.6971 620.6971 620.7224 620.7224 620.7653
   620.8292 620.8292 620.8304 620.8304 620.8876 620.8880 626.0301 626.0301
   626.4910 626.6297 626.6297 626.8498 627.9812 628.2478 628.2478 628.4172
   628.4172 628.5350 629.6678 629.6678 629.7322 629.7322 629.8863 629.9289
   629.9991 630.0291 630.1075 630.1075 630.1179 630.1179 630.9266 630.9270
   630.9270 630.9375 630.9375 630.9626 635.3788 636.7095 636.7095 636.8081
   637.0197 637.0197 637.3513 637.5907 637.5907 637.6161 637.6161 637.7211
   637.7228 637.8166 637.9460 637.9460 637.9629 637.9629 641.4813 641.4813
   641.4924 641.4924 641.6502 641.6504 645.8797 645.8797 646.9986 647.0353
   647.0353 647.4064 648.3066 648.3066 648.3582 648.3582 648.4144 648.6011
   648.6337 648.6337 648.6563 648.7276 648.7276 648.7703 648.7999 648.7999
   648.8208 648.8208 648.8265 648.8528 649.6402 650.2639 650.2704 650.2704
   650.3693 650.3693 650.6337 650.6337 650.7470 650.8816 650.9234 650.9234
   651.0931 651.1451 651.3094 651.3094 651.3420 651.3420 651.4298 651.4298
   651.4318 651.4318 651.4679 651.4896 651.7984 651.7984 651.7994 651.7994
   651.9720 651.9732 660.1045 660.1045 660.2614 660.2614 660.2692 660.3239
   660.4245 660.6811 661.2647 661.2647 661.2776 661.2776 663.9724 663.9724
   663.9733 663.9801 663.9801 663.9940 668.8945 668.8945 668.9766 669.0445
   669.0558 669.0558 670.4578 670.6413 671.0086 671.0086 671.0870 671.0870
   671.1107 671.1123 671.1580 671.1580 671.3418 671.6801 671.6801 671.8069
   674.5731 674.5731 674.6486 674.6486 674.6669 674.6734 676.2247 676.2247
   676.3935 676.3935 676.6661 676.6661 676.6845 676.7331 677.9909 678.2171
   678.2171 678.4374 680.0366 680.3239 680.3239 680.4203 680.4203 681.0932
   681.7845 682.0642 682.0642 682.1500 682.1500 682.1627 682.4427 682.5196
   682.5196 682.6371 682.6371 682.6616 684.3905 684.4055 684.4055 684.4556
   684.4556 684.4892 688.6919 689.5452 689.5452 690.0729 690.1134 690.1134
   691.0414 691.0414 691.0446 691.0446 691.2025 691.2059 691.5419 691.5419
   691.9326 691.9809 691.9809 692.2418 692.4655 692.5116 692.5116 692.6636
   692.6636 692.7097 694.5278 694.5278 694.5997 694.7134 694.7134 694.7645
   695.0868 695.0868 695.2047 695.3752 695.4092 695.4092 699.6301 699.6301
   700.0355 700.0372 700.0372 700.0700 700.3800 700.6792 701.2577 701.2577
   701.2630 701.2630 702.4803 702.5872 702.5872 702.8719 702.8719 703.0573
   703.3939 703.3939 703.4059 703.4813 703.4813 703.5368 703.8040 703.8648
   703.8648 703.9206 703.9206 704.0403 704.9380 704.9383 704.9602 704.9602
   704.9610 704.9610 705.0293 705.0293 705.0473 705.0473 705.0538 705.0806
   705.5781 705.5781 705.5823 705.5823 705.6935 705.6938 707.5860 708.1271
   711.8761 711.8761 711.9797 711.9797 712.4860 712.5446 712.7127 712.7127
   712.7153 712.7153 713.0303 713.0303 713.1298 713.2348 713.2348 713.2829
   713.6986 713.6986 713.7400 713.8318 713.8318 713.8683 714.2525 714.2525
   714.2749 714.2749 714.3469 714.3665 715.0153 715.0182 715.0182 715.0292
   715.0292 715.0551 715.9974 716.0702 716.0702 716.1008 716.1008 716.1485
   716.1485 716.1889 716.2697 716.2697 716.2759 716.2859 716.6690 716.6690
   716.6692 716.6692 718.2467 718.2467 722.8693 723.1149 723.2075 723.2075
   723.2380 723.2380 726.6978 726.6987 726.7188 726.7188 726.7230 726.7230
   727.3897 727.3897 727.3943 727.3943 727.4854 727.4854 730.8710 730.8710
   731.1848 731.2653 731.2653 731.4289 735.5172 735.5172 735.6443 735.6443
   735.6449 735.6562 735.6562 735.6751 735.6867 735.7005 735.7005 735.7146
   736.2469 736.2519 736.2519 736.2677 736.2677 736.2840 741.4902 741.4902
   742.6239 742.8733 742.8733 743.1226 743.3792 743.8682 743.8682 743.9848
   744.0340 744.0340 744.0778 744.1987 744.1987 744.6842 744.6842 744.9122
   745.5102 745.5627 745.5627 745.6743 745.6743 745.7998 745.8143 745.8143
   745.8176 745.9120 745.9155 745.9155 746.5943 746.6180 746.6180 746.6789
   746.6789 746.7074 746.7696 746.7987 746.7987 746.8486 746.8486 746.8762
   747.3102 747.3577 747.3577 747.3898 747.3898 747.4009 747.6127 747.6127
   747.6152 747.6194 747.6194 747.6379 750.8191 751.2341 755.8479 755.9409
   755.9409 756.1976 756.1976 756.1993 756.6913 756.6913 756.7122 756.7122
   756.7282 756.7327 758.0883 758.0883 758.1385 758.1385 758.1424 758.1737
   758.4671 758.4671 758.4688 758.4688 758.4723 758.4745 758.9406 758.9406
   758.9458 758.9458 762.8386 763.3873 763.3873 763.3957 763.5157 763.5157
   764.4109 764.4994 764.5558 764.5558 764.7178 764.7178 765.2450 765.2450
   765.3019 765.3019 765.4422 765.4642 766.1029 766.1029 766.1234 766.1234
   766.1334 766.1363 767.6520 767.6520 767.6622 767.6622 767.7194 767.7297
   767.7596 767.7596 767.7617 767.7617 767.7644 767.7711 767.8904 767.8904
   767.9054 767.9065 767.9065 767.9142 769.6700 769.6700 769.6737 769.6783
   769.6783 769.6935 772.0254 772.4884 772.4884 772.5676 772.5820 772.5820
   777.6170 777.6170 777.6309 777.6309 777.6515 777.7181 778.4602 778.4602
   778.6418 778.6539 778.6545 778.6545 778.6580 778.6763 778.6763 778.7109
   778.7109 778.7110 778.9233 778.9323 778.9323 778.9431 778.9431 778.9668
   778.9919 778.9958 779.0639 779.0639 779.0650 779.0650 781.4060 781.4060
   781.4066 781.4066 781.4235 781.4237 788.2344 788.2802 788.4602 788.4602
   788.4648 788.4648 788.5143 788.5143 788.6996 788.7016 788.7016 788.7170
   789.1773 789.1827 789.1827 789.1937 789.1937 789.2088 791.5461 791.5461
   791.5470 791.5470 791.6437 791.6437 796.7121 797.4569 798.0749 798.0749
   798.1033 798.1033 798.1582 798.1740 798.6982 798.6982 798.8895 798.8895
   799.3096 799.3331 799.3331 799.3964 799.4078 799.4078 799.5193 799.5425
   799.5425 799.5477 799.5489 799.5489 800.9916 800.9916 800.9936 800.9936
   801.3233 801.3329 806.1470 806.1470 806.8436 806.8451 806.8794 806.8794
   807.0063 807.0063 807.0780 807.0780 807.0810 807.0900 807.4199 807.6132
   807.6132 807.6780 807.6780 807.7051 808.3518 808.3835 808.3835 808.4101
   808.4157 808.4157 808.4547 808.4547 808.4580 808.4580 808.4811 808.5178
   808.6724 808.7258 808.7258 808.7478 808.7525 808.7525 809.4939 809.5107
   809.5107 809.5299 809.5299 809.5635 811.0006 811.0011 811.0011 811.0020
   811.0020 811.0022 812.3284 812.3284 812.3301 812.3301 812.3433 812.3434
   813.9989 814.0110 814.0110 814.0368 814.0368 814.0561 819.5759 819.5759
   819.6155 819.7009 819.7009 819.7343 821.5725 821.6428 821.6428 821.7179
   821.8084 821.8084 822.0083 822.0083 822.0125 822.0125 822.2097 822.2102
   822.2522 822.2604 822.3802 822.3802 822.3803 822.3803 822.6031 822.6031
   822.6055 822.6055 822.6237 822.6285 823.4628 823.5331 823.5331 823.5762
   823.6000 823.6000 825.6752 825.8657 831.4356 831.4356 831.4456 831.4456
   831.5256 831.5881 831.7386 831.7386 831.7569 831.7742 831.7745 831.7745
   833.7622 833.7622 833.7625 833.7625 838.8342 838.8342 839.1486 839.2248
   839.2248 839.2536 839.6670 839.7217 839.8889 839.8889 839.8917 839.8917
   840.3022 840.3623 840.3623 840.3883 840.3883 840.4073 841.3014 841.3014
   841.3139 841.3139 841.3238 841.3367 841.7528 841.7528 841.7966 841.7966
   841.7990 841.7990 842.1566 842.3530 842.7095 842.7095 842.7363 842.7363
   843.0966 843.1306 843.1312 843.1312 843.1439 843.1439 844.1398 844.1634
   844.1634 844.2083 844.2083 844.2423 844.8337 844.8337 844.8353 844.8360
   844.8360 844.8384 845.3181 845.3181 845.3216 845.3216 845.7056 845.7056
   852.1769 852.1769 852.2902 852.3033 852.3362 852.3362 852.3606 852.3685
   852.3685 852.4040 852.4040 852.4332 854.7464 854.7464 854.7610 854.7624
   854.7642 854.7642 858.0766 858.0766 858.1101 858.1101 858.1120 858.1320
   858.7343 858.8856 858.8856 859.0985 859.1001 859.1001 860.8310 860.8310
   861.0561 861.0561 861.1760 861.3086 861.4075 861.4237 861.4237 861.5310
   861.6064 861.6064 861.7277 861.7824 861.8015 861.8015 861.8081 861.8081
   863.0845 863.1830 863.1830 863.3740 863.3740 863.5699 863.6334 863.8203
   863.8203 863.9477 863.9477 863.9609 864.2052 864.2052 864.2241 864.2241
   864.2367 864.2685 873.3028 873.3028 873.4128 873.4795 873.4939 873.4939
   873.5055 873.5857 873.7408 873.8385 873.8385 873.9075 873.9075 873.9494
   874.0800 874.0832 874.0832 874.1771 874.1771 874.2611 874.2611 874.2694
   874.2772 874.2772 874.4501 874.5065 874.5065 874.5111 874.5111 874.5284
   874.6067 874.6219 874.6219 874.6277 874.6277 874.6493 875.3818 875.3906
   875.3906 875.3913 875.3939 875.3939 875.5908 875.5908 875.5963 875.5963
   875.6074 875.6152 875.6708 875.6708 875.6738 875.6738 875.7281 875.7383
   875.9622 875.9625 875.9789 875.9789 875.9828 875.9828 876.1557 876.1657
   876.1657 876.1899 876.1899 876.2066 881.1734 881.1734 881.3374 881.3866
   881.3866 881.4048 882.7914 882.7931 882.7931 882.8366 882.8472 882.8472
   884.3004 884.3196 884.3196 884.3592 884.3592 884.3895 887.3775 887.3775
   887.3785 887.3785 887.3814 887.3822 892.7980 892.7980 892.8714 892.9273
   892.9273 892.9726 894.2363 894.2363 894.2473 894.2473 894.2509 894.2516
   894.5555 894.5624 894.5624 894.5701 894.6435 894.6596 894.6596 894.7004
   895.1631 895.1928 895.1928 895.2455 895.2455 895.2767 895.7350 895.7887
   895.7887 895.8072 895.8072 895.8129 896.2156 896.2156 896.2293 896.2293
   896.2952 896.3042 896.3278 896.3345 896.3866 896.3866 896.3893 896.3893
   897.1183 897.1766 897.1766 897.2382 897.2382 897.3945 897.6273 897.6620
   897.6620 897.7347 897.7347 897.7580 902.6314 902.6314 902.7062 902.7185
   902.7185 902.7214 905.3329 905.3329 905.3597 905.3601 905.3601 905.3705
   906.4555 906.4555 906.4561 906.4569 906.4569 906.4577 908.4159 908.4238
   908.4238 908.4397 908.4397 908.4507 909.4738 909.4738 909.4739 909.4765
   909.4765 909.4783 914.0363 914.1700 914.6023 914.6023 914.6125 914.6125
   916.4666 916.4666 916.5485 916.5490 916.5490 916.5540 917.1635 917.1635
   917.1780 917.1789 917.1789 917.1866 917.2192 917.2289 917.2289 917.2346
   917.2346 917.2450 918.8837 918.8837 918.8850 918.8850 919.0088 919.0088
   924.1759 924.3573 924.3573 924.4280 924.5074 924.5250 924.5250 924.6012
   924.9977 924.9977 925.0030 925.0030 925.3588 925.3740 925.3740 925.3799
   925.3854 925.3854 926.9284 927.0268 927.0268 927.2062 927.2062 927.4330
   927.4835 927.5376 927.5376 927.6187 927.6740 927.6740 927.7085 927.7332
   927.7332 927.7478 927.7478 927.7550 927.8793 927.8829 927.8829 927.9113
   927.9113 927.9304 928.0165 928.0367 928.0367 928.0782 928.0782 928.1193
   928.4029 928.4121 928.4121 928.4123 928.4123 928.4233 930.0005 930.0005
   930.0019 930.0019 930.1729 930.1729 933.2814 933.3612 935.8177 935.8177
   935.8272 935.8670 935.8670 935.9294 936.4025 936.4025 936.4030 936.4030
   936.5072 936.5088 936.8159 936.8159 936.8206 936.8206 939.6864 939.6906
   939.6906 939.6932 939.6932 939.7073 939.7073 939.7077 939.7116 939.7237
   939.7237 939.7275 940.8309 940.8309 940.8310 940.8310 942.3236 942.3236
   948.8453 948.8453 948.8674 948.8746 948.8746 948.8900 949.1578 949.1578
[...]
   429.0707 429.2970 429.2970 429.4702 436.9296 436.9296 437.2778 438.0237
   438.0237 438.0387 438.0754 438.7398 438.8728 438.8809 438.9176 438.9176
   439.1966 439.1966 439.4999 439.6419 439.8587 439.8587 439.9532 440.0610
   441.0153 442.7312 442.7312 443.0623 443.4263 443.4263 444.7168 444.7920
   445.4076 445.4076 446.0008 447.2691 447.8239 447.8239 447.8325 448.0169
   448.0999 448.0999 448.3636 448.7558 448.7606 448.8645 448.8645 448.9524
   449.1613 449.9442 449.9701 449.9701 450.0053 450.0698 450.0698 450.4628
   450.4815 450.4815 450.5838 450.6286 450.6286 450.6372 450.7071 450.7100
   450.7382 450.8727 450.8727 451.1656 451.2371 451.3531 451.3531 451.5342
   451.9196 451.9196 452.0966 452.2660 454.1674 454.1802 454.1802 454.2211
   458.9768 459.3066 459.3066 459.6772 459.6772 459.7689 460.1167 460.1735
   460.1739 460.1739 460.3367 461.1407 461.1910 461.2407 461.2407 461.3730
   461.4274 461.7210 461.7210 461.8749 462.1847 462.2264 462.2264 462.2587
   462.5249 462.6291 462.6291 462.6789 465.2635 466.8375 466.8375 467.0477
   467.2734 467.2734 468.0473 468.0729 468.4398 470.2110 470.5818 470.5818
   470.9717 471.3683 475.6055 475.6055 475.6163 475.6192 476.9509 476.9509
   477.5911 477.6272 477.7040 477.7040 479.5497 480.0129 480.2721 480.2721
   480.6407 480.8448 480.8448 480.8854 480.9194 481.2626 481.2685 481.2685
   481.4885 481.6674 482.6608 482.6608 482.7545 482.7676 482.7676 482.8005
   482.8474 482.8724 484.2224 484.2224 484.3001 484.3199 484.3199 484.3279
   484.3931 484.4709 485.2673 485.2673 485.9027 486.0320 486.0320 487.0214
   490.1008 490.1008 490.5728 490.8831 491.3490 491.3490 492.1232 492.1427
   492.2051 492.3709 492.3709 492.5322 496.0045 496.0111 496.0111 496.0589
   497.7524 498.2432 498.2432 498.8673 498.8673 498.8993 498.9344 499.8415
   500.8832 500.8832 501.6476 502.0226 502.1956 502.1956 502.3138 502.5771
   502.6142 502.6142 503.1957 503.2011 503.3343 503.3343 503.4608 503.4982
   503.7203 503.7203 503.7720 503.9370 503.9614 503.9614 504.0287 504.1080
   507.1045 507.1045 507.4918 507.5058 507.9228 507.9228 507.9833 507.9862
   509.2938 509.2938 510.2561 510.9423 510.9697 511.0773 511.3367 511.3367
   511.5416 511.8112 511.8287 511.8287 512.5186 512.5186 512.8400 512.8837
   512.9265 513.0803 513.0803 513.2488 514.1860 514.1872 514.2520 514.2520
   514.5550 514.5550 514.7511 514.8445 514.8445 514.8477 514.9267 514.9399
   514.9399 514.9458 515.0543 515.0897 515.1753 515.1753 515.3217 515.4505
   515.4515 515.8376 515.8376 515.8819 521.3937 521.3937 522.4684 522.8087
   523.4531 523.6520 523.6520 523.8102 526.3462 526.3784 526.3784 526.3846
   526.4673 526.4673 526.4910 526.5015 531.9961 532.3243 532.3243 533.4766
   533.5965 533.5965 533.7109 533.7526 533.9145 533.9145 534.1178 534.7258
   534.8180 534.8973 534.8973 534.9190 535.0186 535.1520 535.1520 535.2742
   536.0993 536.6254 536.6254 537.0399 537.0638 537.0638 537.1119 537.1375
   538.4463 538.4463 538.4598 538.4844 542.4781 542.4781 542.4961 543.3582
   543.3995 543.3995 543.6529 543.8169 543.9892 543.9892 544.3161 544.7981
   545.8365 545.8656 545.9349 545.9349 546.0364 546.0364 546.0757 546.0899
   546.2755 546.3768 546.3768 546.4517 546.5807 546.5807 546.6275 546.7687
   546.7817 546.7834 546.7834 546.7857 546.8311 546.8343 546.8343 546.9249
   550.4144 550.4144 550.4239 550.4331 552.7614 552.7614 552.8360 553.2833
   555.6054 555.6054 556.1804 556.3559 556.3773 556.3773 556.4926 556.6844
   557.8731 557.8731 557.9164 557.9244 557.9383 557.9457 557.9457 558.0067
   558.6919 558.6919 558.7995 560.3693 562.1114 562.6842 562.6842 562.8652
   563.1786 563.2905 563.3164 563.3164 567.7728 567.7728 567.8085 567.8988
   567.9255 567.9255 567.9273 567.9920 570.4122 570.4136 570.4136 570.5117
   570.9493 570.9493 570.9900 570.9948 571.6379 571.6400 571.6569 571.6569
   572.2367 573.4349 573.4349 573.4521 574.6088 574.6088 575.8657 575.8657
   575.9754 575.9964 576.3734 576.4084 576.4497 576.5578 576.6520 576.6520
   576.7658 576.7658 576.8037 576.8372 576.8893 577.4895 577.4895 577.7736
   577.8891 577.8926 577.8926 577.9309 578.0319 578.1080 579.3167 579.3167
   579.4176 579.4518 579.5794 579.5794 579.6373 579.6556 582.7196 582.7196
   582.7293 582.7310 587.5151 587.5151 587.6470 587.6890 588.2031 588.2031
   588.7626 588.9150 589.8836 589.8836 589.9213 589.9227 591.9681 591.9681
   593.4606 593.5416 593.5416 593.8635 595.2113 595.2113 595.4552 595.5916
   596.7359 596.7359 597.9574 598.0440 598.2894 598.7850 598.7850 598.8133
   598.9082 598.9082 599.0426 599.0581 603.5174 603.7375 603.7375 603.7587
   603.7682 604.8523 604.8523 606.0712 606.1185 606.1185 607.1435 607.2111
   607.3149 607.3149 607.6191 607.6656 608.3541 608.3541 608.4431 608.5583
   608.7086 608.7086 608.7720 608.8470 608.8827 608.8827 608.9298 609.2595
   609.6557 609.6557 609.8559 610.0226 610.0609 610.0609 610.1469 610.1941
   610.1941 610.2095 610.2839 610.4768 610.6619 610.7056 610.7139 610.7139
   610.7888 610.8183 611.0033 611.0033 611.7255 611.7646 611.7646 611.8225
   611.9560 611.9572 611.9572 612.0472 612.1250 612.1259 612.1259 612.1495
   613.9170 613.9170 614.2396 614.2496 616.3516 616.3516 617.1526 617.2884
   619.0660 619.0660 619.1369 619.3709 620.2291 620.2291 620.2952 620.4683
   620.5197 620.5851 620.5851 620.6766 620.6976 620.7589 620.7589 620.8536
   621.0445 621.0474 621.0474 621.0622 621.0761 621.1242 621.1242 621.1981
   621.3835 621.3835 621.3969 621.4175 629.0407 629.6366 629.6366 629.8067
   630.2725 630.2725 630.4771 630.4934 630.8497 630.8497 630.8981 631.0010
   631.0225 631.0225 631.3661 631.5018 631.5580 631.5580 631.6243 631.7587
   632.1248 632.1248 632.1447 632.1827 632.1842 632.1999 632.1999 632.2633
   632.7376 632.7376 633.1224 633.4637 633.4637 633.4736 633.4856 633.5748
   634.1220 634.1220 634.4795 634.5313 634.6384 634.6384 634.6460 634.8969
   637.4410 637.4410 637.4554 637.5139 639.2696 639.6254 639.6254 640.0995
   642.2490 642.2490 642.2746 642.2746 642.3326 642.3488 642.3530 642.3530
   642.3738 642.3738 642.4115 642.4388 642.4531 642.4630 642.4630 642.4738
   645.8418 645.8418 645.8619 645.8627 646.3242 646.3242 646.3367 646.3426
   651.0638 651.0638 651.0753 651.3509 652.0724 652.0724 652.3139 652.3549
   652.5067 652.7417 652.7417 652.8356 652.9674 652.9674 653.0214 653.0370
   653.0386 653.0386 653.0806 653.1312 653.3322 653.3509 653.5296 653.5296
   659.2239 659.2239 660.0982 660.5163 660.8022 660.8377 660.8377 661.1075
   662.0446 662.1231 662.1231 662.2034 662.3271 662.3271 662.5125 662.6139
   663.1065 663.1491 663.1762 663.1762 663.2451 663.4548 663.4548 663.5570
   663.6675 663.6675 663.6928 663.8098 663.9380 663.9608 663.9608 663.9827
   667.5920 668.8231 668.8231 668.8919 669.4132 669.4132 669.5494 669.7061
   672.2996 672.2996 672.4285 672.6621 672.6743 672.6743 672.7281 672.9577
   673.0352 673.2166 673.2166 673.4135 673.4238 673.4238 673.6489 673.6920
   673.7434 673.7779 673.7906 673.7906 674.7775 674.7817 674.7927 674.7927
   675.2568 675.2568 675.3000 675.3232 675.4535 675.4535 675.4706 675.4732
   675.4732 675.4791 675.5343 675.5551 675.8212 675.8212 675.8272 675.8306
   675.8962 675.8962 675.9222 675.9553 678.1559 678.1572 678.2622 678.2622
   678.3995 678.3995 678.4341 678.4366 683.4221 683.4221 683.5987 684.0737
   684.2037 684.2037 684.2655 684.3274 684.4360 684.4453 684.4453 684.4689
   685.1295 685.1295 685.2102 685.2151 685.2493 685.2493 685.2829 685.3080
   685.3119 685.3170 685.3170 685.3222 690.8058 690.8058 690.9128 690.9671
   692.7416 694.0504 694.0504 694.0636 694.5053 694.5053 694.5654 694.5728
   694.5771 694.7371 695.0622 695.0622 695.1377 695.1377 695.1943 695.2106
   695.8508 695.9179 695.9179 695.9194 695.9313 695.9776 695.9776 695.9973
   696.1350 696.1626 696.4435 696.4546 696.4546 696.4964 696.5002 696.5035
   696.5035 696.5341 699.6915 699.6915 699.7056 699.7062 704.3414 704.3414
   704.5312 704.5978 705.7180 705.9572 705.9572 706.0296 706.1307 706.1307
   706.2133 706.2361 706.3617 706.3617 706.4914 706.5039 706.5039 706.5112
   706.5203 706.5424 709.4120 709.4120 713.6238 714.2062 714.2069 714.2069
   716.4381 716.4381 716.7907 716.7916 716.8266 716.8266 716.9519 716.9688
   717.2010 717.2010 717.3009 717.3094 717.3553 717.3636 717.7412 717.7412
   720.0925 720.1444 720.1444 720.2397 722.9718 722.9718 723.1546 723.1546
   723.5561 723.9574 724.4512 724.5444 724.5999 724.6034 724.6034 724.6966
   725.0001 725.2630 725.2884 725.2884 725.7988 725.7988 725.8497 725.9075
   725.9181 725.9181 725.9332 725.9343 726.7161 726.7161 726.7207 726.8775
   726.8909 726.8909 726.9075 726.9217 728.0757 728.0890 728.0906 728.0906
   728.3955 728.3955 728.4212 728.4350 728.7318 728.7318 728.7812 728.7882
   728.8032 728.8032 728.8251 728.8285 731.1982 731.1982 731.2134 731.2139
   731.3173 731.3173 731.6582 731.6671 736.3955 736.5610 736.5610 736.6116
   737.3999 737.3999 737.4124 737.4400 737.4714 737.4714 737.4887 737.4892
   738.9248 738.9248 738.9825 738.9833 739.0260 739.1358 739.1358 739.1525
   739.6104 739.6104 739.6922 739.7200 739.7254 739.7326 739.7326 739.7446
   739.7446 739.7476 739.8480 739.8808 740.2434 740.2440 740.2440 740.2444
   746.5480 746.5480 746.6838 746.9658 746.9658 746.9751 746.9850 747.0345
   747.0813 747.0925 747.0925 747.1016 747.5066 747.5291 747.8759 747.8759
   749.0787 749.0795 749.0903 749.0903 749.4267 749.4267 749.4600 749.4625
   753.9713 753.9713 754.2340 754.3499 757.1717 757.1717 757.9110 757.9586
   758.6103 758.6827 758.6827 758.8358 759.1812 759.1878 759.2260 759.2260
   759.8798 759.8847 759.8847 759.9254 759.9652 759.9652 759.9780 759.9808
   760.2535 760.2535 760.3690 760.4049 760.4746 760.4973 760.4973 760.5005
   763.5579 763.5579 763.5782 763.5795 764.6550 764.6550 764.7532 764.7846
   767.8972 767.8972 768.3945 768.4029 768.4779 769.1418 769.1418 769.2107
   769.5632 769.6372 769.6372 769.8445 769.8572 770.0089 770.0089 770.0923
   770.1832 770.1832 770.3227 770.3817 770.3869 770.4046 770.4202 770.4202
   770.4640 770.4640 770.6398 770.6416 770.6440 770.6601 770.8853 770.8853
   771.0136 771.0263 771.1144 771.1144 771.2623 771.2623 771.2691 771.2698
   771.4109 771.4109 771.4387 771.4446 773.2742 773.2745 773.2745 773.2984
   776.3383 776.4152 776.4157 776.4157 778.3008 778.3008 778.3269 778.3362
   779.6739 779.6739 779.8767 779.9073 780.5131 780.5294 780.5294 780.5505
   781.2986 781.2986 781.3106 781.3153 782.8721 782.8721 782.8735 782.8942
   785.0284 785.0284 785.0635 785.0638 785.1887 785.1887 785.1961 785.2041
   786.5277 786.7791 786.7829 786.7829 787.7601 787.7601 787.9949 788.0363
   790.6045 790.6083 790.6083 790.7138 791.4440 791.4440 791.4461 791.7044
   791.7389 791.8431 791.8431 791.9008 795.6971 795.6971 795.7618 795.7618
   796.9707 796.9707 797.1358 797.1554 800.6192 800.6192 800.6264 800.6326
   800.7520 800.7710 800.7744 800.7744 800.7912 800.7912 800.8141 800.8166
   801.2166 801.2166 801.2477 801.2740 801.8055 801.8266 801.8266 801.8686
   802.0299 802.2083 802.2083 802.2333 802.3418 802.3418 802.4019 802.4078
   802.4423 802.6866 802.6866 802.7553 802.9025 802.9025 802.9601 802.9617
   804.0069 804.0176 804.0176 804.0290 804.0726 804.0726 804.1609 804.2043
   805.6898 805.6981 805.6981 805.7242 809.4176 809.4176 809.4541 809.4612
   810.9700 810.9700 811.1179 811.1613 811.7442 811.7442 811.7482 811.7905
   812.4386 812.4665 812.4665 812.5574 812.5581 812.5632 812.5724 812.5724
   816.4772 816.7263 816.7263 816.9171 821.3317 821.3317 821.3489 821.5945
   821.6185 821.6185 821.6208 821.6659 822.2601 822.3745 822.6277 822.6277
   822.6526 822.6526 822.6859 822.6873 822.7306 822.7306 822.7642 822.7699
   822.8264 822.9609 823.1287 823.1287 823.1350 823.1445 823.9182 823.9182
   823.9340 823.9348 823.9884 823.9884 823.9929 824.0014 824.0861 824.0861
   824.0923 824.1003 824.3384 824.3443 824.3475 824.3475 824.5006 824.5006
   824.5439 824.5487 824.8898 824.8898 824.8990 824.9003 824.9187 824.9187
   825.2707 825.2791 825.4216 825.4216 825.4317 825.4343 826.8888 826.8888
   826.9000 826.9007 828.9754 828.9754 829.0209 829.0809 830.7545 830.7545
   830.9615 830.9959 831.1882 831.2412 831.2412 831.3013 831.7403 831.7965
   831.7965 831.8453 831.9256 831.9256 832.0172 832.0768 832.7706 832.7706
   832.9506 832.9793 833.0265 833.0332 833.1164 833.1164 833.9392 833.9392
   834.0229 834.1181 834.2650 834.2650 834.3561 834.4971 834.5419 834.5491
   834.5491 834.6401 834.6914 834.6959 834.7222 834.7222 834.7455 834.7879
   834.7879 834.8669 834.8669 834.8836 834.9112 834.9582 834.9657 834.9863
   835.1382 835.1382 835.1638 835.1831 835.1831 835.2306 837.5414 837.5414
   838.4827 838.4827 838.4898 838.4904 839.0308 839.0308 839.0332 839.0340
   843.6780 843.7079 843.7079 843.7220 844.7488 844.7488 844.8155 844.8328
   845.3025 845.3025 845.3049 845.3281 845.3733 845.3733 845.3825 845.3881
   845.3925 845.3954 845.3954 845.4157 846.3624 846.3624 846.3783 846.3826
   846.3837 846.3849 846.3849 846.3858 850.9713 850.9713 851.8244 851.9439
   855.3480 855.3981 855.3981 855.4563 855.4563 855.4606 855.4773 855.4878
   855.6875 855.6875 855.6956 855.6956 855.7029 855.7033 855.7049 855.7082
   856.4229 856.4229 856.4780 856.4786 856.6836 856.6842 856.6857 856.6857
   859.3817 859.3817 859.7224 859.7303 864.0221 864.0221 864.0397 864.1198
   865.0233 865.0233 865.0503 865.0513 865.4910 865.5036 865.5036 865.5173
   866.4869 866.4869 866.5541 866.5855 866.5949 866.6087 866.6087 866.6212
   867.2604 867.3355 867.3355 867.3760 867.7037 867.7037 867.7049 867.7062
   871.7767 871.7767 871.8470 871.8707 875.5154 875.5732 875.9022 875.9022
   876.0385 876.0385 876.1050 876.1398 876.4802 876.4802 876.4983 876.5065
   876.9903 876.9903 877.0108 877.0218 877.1485 877.1584 877.1584 877.1593
   877.5774 877.5790 877.5888 877.5888 877.7696 877.7696 877.7820 877.7842
   881.0548 881.0548 881.0627 881.0647 885.9537 885.9537 885.9776 885.9922
   885.9931 886.0030 886.0156 886.0156 887.5426 887.5426 887.6871 887.8058
   887.9606 887.9606 887.9835 887.9989 888.0897 888.0908 888.0908 888.0996
   888.1625 888.1699 888.1699 888.2041 890.6472 890.6472 890.7556 890.7845
   892.9366 893.0652 893.0652 893.1010 895.9164 895.9164 895.9417 896.0065
   896.1592 896.1823 896.1823 896.2526 896.8908 896.8908 896.9148 896.9251
   896.9627 897.0161 897.0161 897.0517 897.4097 897.4183 897.4308 897.4308
   897.4396 897.4396 897.4541 897.4580 898.1643 898.1643 898.3856 898.4504
   898.4780 898.4872 898.5431 898.5431 898.5718 898.5718 898.6009 898.6014
   898.8063 898.8214 899.0869 899.0869 900.1576 900.1576 900.1735 900.1892
   900.1907 900.1987 900.1987 900.2031 902.4194 902.4194 902.4213 902.4219
   905.4386 905.4386 905.4389 905.4707 908.2503 908.2682 908.2682 908.3167
   908.4560 908.4560 908.4820 908.4878 908.4901 908.5060 908.5060 908.5081
   910.2707 910.2707 910.2733 910.2769 910.3018 910.3018 910.3100 910.3131
   912.5254 912.6330 912.6330 912.7381 915.0529 915.0761 915.0761 915.0856
   917.6298 917.6335 917.6335 917.6446 918.1228 918.1228 918.2338 918.2338
   918.2379 918.2403 918.2412 918.2541 918.4837 918.5330 918.5330 918.5441
   919.3149 919.3306 919.3330 919.3330 919.4136 919.4136 919.4425 919.4596
   919.8743 919.8868 919.8918 919.8918 920.0017 920.0017 920.0045 920.0089
   922.9599 922.9599 922.9762 922.9766 923.8038 923.8041 923.8675 923.8675
   925.1890 925.1890 925.1978 925.2117 926.1313 926.1549 926.1706 926.1706
   929.6126 929.6126 929.6216 929.6250 929.8099 929.8459 929.8459 929.8710
   929.9371 929.9396 929.9455 929.9455 930.1770 930.1770 930.2431 930.2534
   930.2778 930.3000 930.3031 930.3031 930.4024 930.4024 930.4155 930.4198
   930.4207 930.4337 930.4337 930.4398 930.8992 930.9165 930.9231 930.9231
   931.0101 931.0101 931.0309 931.0466 931.1671 931.1698 931.1698 931.1886
   931.1926 931.2119 931.2119 931.2237 931.7314 931.7338 931.7410 931.7410
   931.8905 931.8905 931.9034 931.9106 934.4083 934.4083 934.4163 934.4163
   934.9768 934.9768 934.9999 935.0005 939.7123 939.7123 939.7280 939.7309
   940.1643 940.1643 940.1861 940.1928 940.2198 940.2198 940.2229 940.2282
   941.0179 941.0481 941.0481 941.0781 941.5108 941.5108 941.5133 941.5136
   950.0960 950.0960 950.1745 950.2035 950.2116 950.2376 950.2376 950.2469
   951.7134 951.7134 951.7232 951.7288 951.7327 951.7337 951.7378 951.7378
   952.1337 952.1474 952.1474 952.1596 952.1718 952.1909 952.1909 952.1964
   952.4009 952.4024 952.4024 952.4072 952.5660 952.5660 952.5713 952.5733
   956.8159 956.8238 956.8415 956.8415 958.2017 958.4364 959.8479 959.8479
   959.8947 959.8947 960.2725 960.2905 960.3907 960.3907 960.5095 960.5354
   960.5949 960.5949 960.5989 960.6175 961.0663 961.0688 961.0818 961.0818
   961.5038 961.5038 961.5506 961.5550 961.7934 961.8246 961.8246 961.8602
   962.0392 962.0719 962.0719 962.1062 962.3405 962.3405 962.4513 962.4683
   962.6263 962.6544 963.0612 963.0612 963.3517 963.3859 963.3859 963.3920
   963.4372 963.4372 963.4372 963.4677 963.5365 963.5637 963.6239 963.6239
   963.6696 963.7119 963.7119 963.7125 963.7214 963.7228 972.5183 972.5183
   972.5323 972.5411 973.2175 973.2308 973.2368 973.2368 973.4271 973.4271
   973.4553 973.4562 973.5049 973.5060 973.5060 973.5101 973.8804 973.8804
   973.8897 973.8898 974.8319 974.8478 974.8478 974.8538 976.2570 976.2570
   979.2635 979.2635 979.3263 979.3863 980.5532 980.5633 980.5633 980.5790
   981.7756 981.7944 981.7944 981.8147 982.0304 982.0304 982.0319 982.0320
   982.0818 982.0960 982.0960 982.1365 983.4875 983.5121 983.5121 983.5311
   984.0779 984.0781 984.0918 984.0918 984.1129 984.1129 984.1922 984.2344
   984.2839 984.3089 984.3089 984.3337 984.3984 984.4155 984.4155 984.4406
   984.5001 984.5005 984.5099 984.5099 984.5709 984.5709 984.6102 984.6190
   989.2987 989.2987 989.2987 989.3091 989.8479 989.8479 990.7934 990.8430
   992.9377 992.9377 992.9526 993.0078 993.0185 993.0814 993.0814 993.1212
   993.3953 993.4512 993.4512 993.5248 993.7108 993.7600 993.7600 993.7837
   994.4584 994.4584 994.4656 994.4701 994.5042 994.5293 994.5293 994.5420
   994.6102 994.6254 994.6332 994.6332 994.6557 994.6557 994.6625 994.6783
   995.8228 995.8358 995.8358 995.8451 995.8931 995.8968 995.8968 995.9154

     the Fermi energy is     7.5753 ev
     (compare with:     7.2361 eV, computed in scf)

     Writing all to output data dir out/mp-463.save/
 
     init_run     :      0.10s CPU      0.11s WALL (       1 calls)
     electrons    :   8084.63s CPU   8653.79s WALL (       1 calls)

     Called by init_run:
     wfcinit      :      0.00s CPU      0.00s WALL (       1 calls)
     potinit      :      0.02s CPU      0.02s WALL (       1 calls)
     hinit0       :      0.02s CPU      0.02s WALL (       1 calls)

     Called by electrons:
     c_bands      :   8084.62s CPU   8653.78s WALL (       1 calls)
     v_of_rho     :      0.01s CPU      0.02s WALL (       1 calls)

     Called by c_bands:
     init_us_2    :      0.00s CPU      0.00s WALL (       8 calls)
     init_us_2:cp :      0.00s CPU      0.00s WALL (       8 calls)
     paro_k       :   7813.70s CPU   8362.60s WALL (       8 calls)

     Called by paro_*:
     h_psi        :     49.05s CPU     50.49s WALL (    1588 calls)
     g_psi        :      0.82s CPU      0.94s WALL (  170264 calls)

     Called by h_psi:
     h_psi:calbec :      0.86s CPU      0.89s WALL (    1588 calls)
     vloc_psi     :     47.25s CPU     48.59s WALL (    1588 calls)
     add_vuspsi   :      0.65s CPU      0.67s WALL (    1588 calls)

     General routines
     calbec       :      0.85s CPU      0.88s WALL (    1588 calls)
     fft          :      0.01s CPU      0.01s WALL (      10 calls)
     fftw         :     41.73s CPU     42.90s WALL (  279270 calls)
 
     Parallel routines
 
     PWSCF        :      2h14m CPU      2h24m WALL

 
   This run was terminated on:   2:27: 3  18Nov2023            

=------------------------------------------------------------------------------=
   JOB DONE.
=------------------------------------------------------------------------------=
