
     Program PWSCF v.6.8 starts on 21Mar2022 at 13:51: 2 

     This program is part of the open-source Quantum ESPRESSO suite
     for quantum simulation of materials; please cite
         "P. Giannozzi et al., J. Phys.:Condens. Matter 21 395502 (2009);
         "P. Giannozzi et al., J. Phys.:Condens. Matter 29 465901 (2017);
         "P. Giannozzi et al., J. Chem. Phys. 152 154105 (2020);
          URL http://www.quantum-espresso.org", 
     in publications or presentations arising from this work. More details at
     http://www.quantum-espresso.org/quote

     Parallel version (MPI), running on    16 processors

     MPI processes distributed on     2 nodes
     R & G space division:  proc/nbgrp/npool/nimage =      16
     480887 MiB available memory on the printing compute node when the environment starts
 
     Reading input from aiida.in

     Current dimensions of program PWSCF are:
     Max number of different atomic species (ntypx) = 10
     Max number of k-points (npk) =  40000
     Max angular momentum in pseudopotentials (lmaxx) =  4

     Atomic positions and unit cell read from directory:
     ./out/aiida.save/
     Atomic positions from file used, from input discarded
 
     Message from routine setup:
     using ibrav=0 with symmetry is DISCOURAGED, use correct ibrav instead

     Subspace diagonalization in iterative solution of the eigenvalue problem:
     a serial algorithm will be used

 
     Parallelization info
     --------------------
     sticks:   dense  smooth     PW     G-vecs:    dense   smooth      PW
     Min          64      64     19                 1378     1378     220
     Max          65      65     21                 1381     1381     221
     Sum        1039    1039    313                22075    22075    3527
 
     Using Slab Decomposition
 


     bravais-lattice index     =            0
     lattice parameter (alat)  =       7.2005  a.u.
     unit-cell volume          =     263.9777 (a.u.)^3
     number of atoms/cell      =            2
     number of atomic types    =            1
     number of electrons       =         8.00
     number of Kohn-Sham states=          400
     kinetic-energy cutoff     =      72.0000  Ry
     charge density cutoff     =     288.0000  Ry
     Exchange-correlation= PBE
                           (   1   4   3   4   0   0   0)

     GPU acceleration is ACTIVE.

     Message from routine print_cuda_info:
     High GPU oversubscription detected. Are you sure this is what you want?

     GPU used by master process:

        Device Number: 0
        Device name: NVIDIA A100-SXM4-40GB
        Compute capability : 80
        Ratio of single to double precision performance  : 2
        Memory Clock Rate (KHz): 1215000
        Memory Bus Width (bits): 5120
        Peak Memory Bandwidth (GB/s): ******

     celldm(1)=   7.200468  celldm(2)=   0.000000  celldm(3)=   0.000000
     celldm(4)=   0.000000  celldm(5)=   0.000000  celldm(6)=   0.000000

     crystal axes: (cart. coord. in units of alat)
               a(1) = (  -0.707107   0.000000   0.707107 )  
               a(2) = (   0.000000   0.707107   0.707107 )  
               a(3) = (  -0.707107   0.707107   0.000000 )  

     reciprocal axes: (cart. coord. in units 2 pi/alat)
               b(1) = ( -0.707107 -0.707107  0.707107 )  
               b(2) = (  0.707107  0.707107  0.707107 )  
               b(3) = ( -0.707107  0.707107 -0.707107 )  


     PseudoPot. # 1 for Si read from file:
     ./pseudo/Si.upf
     MD5 check sum: 79dec85d05fec7cbd5344aef70449f80
     Pseudo is Norm-conserving + core correction, Zval =  4.0
     Generated using ONCVPSP code by D. R. Hamann
     Using radial grid of 1510 points,  6 beta functions with: 
                l(1) =   0
                l(2) =   0
                l(3) =   1
                l(4) =   1
                l(5) =   2
                l(6) =   2

     atomic species   valence    mass     pseudopotential
        Si             4.00    28.08500     Si( 1.00)

     24 Sym. Ops. (no inversion) found


                                    s                        frac. trans.

      isym =  1     identity                                     

 cryst.   s( 1) = (     1          0          0      )
                  (     0          1          0      )
                  (     0          0          1      )

 cart.    s( 1) = (  1.0000000  0.0000000 -0.0000000 )
                  (  0.0000000  1.0000000  0.0000000 )
                  ( -0.0000000 -0.0000000  1.0000000 )


      isym =  2     180 deg rotation - cart. axis [0,0,1]        

 cryst.   s( 2) = (     0          1         -1      )
                  (     1          0         -1      )
                  (     0          0         -1      )

 cart.    s( 2) = ( -1.0000000 -0.0000000 -0.0000000 )
                  ( -0.0000000 -1.0000000  0.0000000 )
                  (  0.0000000  0.0000000  1.0000000 )


      isym =  3     180 deg rotation - cart. axis [0,1,0]        

 cryst.   s( 3) = (    -1          0          0      )
                  (    -1          0          1      )
                  (    -1          1          0      )

 cart.    s( 3) = ( -1.0000000  0.0000000  0.0000000 )
                  ( -0.0000000  1.0000000 -0.0000000 )
                  (  0.0000000 -0.0000000 -1.0000000 )


      isym =  4     180 deg rotation - cart. axis [1,0,0]        

 cryst.   s( 4) = (     0         -1          1      )
                  (     0         -1          0      )
                  (     1         -1          0      )

 cart.    s( 4) = (  1.0000000 -0.0000000  0.0000000 )
                  (  0.0000000 -1.0000000 -0.0000000 )
                  ( -0.0000000  0.0000000 -1.0000000 )


      isym =  5     120 deg rotation - cart. axis [-1,-1,-1]     

 cryst.   s( 5) = (    -1          0          1      )
                  (    -1          1          0      )
                  (    -1          0          0      )

 cart.    s( 5) = ( -0.0000000  1.0000000  0.0000000 )
                  (  0.0000000  0.0000000  1.0000000 )
                  (  1.0000000 -0.0000000 -0.0000000 )


      isym =  6     120 deg rotation - cart. axis [-1,1,1]       

 cryst.   s( 6) = (     0          1          0      )
                  (     0          0          1      )
                  (     1          0          0      )

 cart.    s( 6) = (  0.0000000 -1.0000000  0.0000000 )
                  ( -0.0000000 -0.0000000  1.0000000 )
                  ( -1.0000000  0.0000000 -0.0000000 )


      isym =  7     120 deg rotation - cart. axis [1,1,-1]       

 cryst.   s( 7) = (     1          0         -1      )
                  (     0          0         -1      )
                  (     0          1         -1      )

 cart.    s( 7) = (  0.0000000  1.0000000 -0.0000000 )
                  ( -0.0000000  0.0000000 -1.0000000 )
                  ( -1.0000000 -0.0000000  0.0000000 )


      isym =  8     120 deg rotation - cart. axis [1,-1,1]       

 cryst.   s( 8) = (     0         -1          0      )
                  (     1         -1          0      )
                  (     0         -1          1      )

 cart.    s( 8) = ( -0.0000000 -1.0000000 -0.0000000 )
                  (  0.0000000 -0.0000000 -1.0000000 )
                  (  1.0000000  0.0000000  0.0000000 )


      isym =  9     120 deg rotation - cart. axis [1,1,1]        

 cryst.   s( 9) = (     0          0         -1      )
                  (     0          1         -1      )
                  (     1          0         -1      )

 cart.    s( 9) = (  0.0000000 -0.0000000  1.0000000 )
                  (  1.0000000  0.0000000  0.0000000 )
                  ( -0.0000000  1.0000000 -0.0000000 )


      isym = 10     120 deg rotation - cart. axis [-1,1,-1]      

 cryst.   s(10) = (    -1          1          0      )
                  (    -1          0          0      )
                  (    -1          0          1      )

 cart.    s(10) = ( -0.0000000  0.0000000  1.0000000 )
                  ( -1.0000000 -0.0000000  0.0000000 )
                  (  0.0000000 -1.0000000 -0.0000000 )


      isym = 11     120 deg rotation - cart. axis [1,-1,-1]      

 cryst.   s(11) = (     0          0          1      )
                  (     1          0          0      )
                  (     0          1          0      )

 cart.    s(11) = ( -0.0000000 -0.0000000 -1.0000000 )
                  ( -1.0000000  0.0000000 -0.0000000 )
                  (  0.0000000  1.0000000  0.0000000 )


      isym = 12     120 deg rotation - cart. axis [-1,-1,1]      

 cryst.   s(12) = (     1         -1          0      )
                  (     0         -1          1      )
                  (     0         -1          0      )

 cart.    s(12) = (  0.0000000  0.0000000 -1.0000000 )
                  (  1.0000000 -0.0000000 -0.0000000 )
                  ( -0.0000000 -1.0000000  0.0000000 )


      isym = 13     inv. 180 deg rotation - cart. axis [1,1,0]   

 cryst.   s(13) = (     0          1          0      )
                  (     1          0          0      )
                  (     0          0          1      )

 cart.    s(13) = ( -0.0000000 -1.0000000 -0.0000000 )
                  ( -1.0000000 -0.0000000  0.0000000 )
                  (  0.0000000  0.0000000  1.0000000 )


      isym = 14     inv. 180 deg rotation - cart. axis [1,-1,0]  

 cryst.   s(14) = (     1          0         -1      )
                  (     0          1         -1      )
                  (     0          0         -1      )

 cart.    s(14) = (  0.0000000  1.0000000 -0.0000000 )
                  (  1.0000000  0.0000000  0.0000000 )
                  ( -0.0000000 -0.0000000  1.0000000 )


      isym = 15     inv.  90 deg rotation - cart. axis [0,0,-1]  

 cryst.   s(15) = (     0         -1          0      )
                  (     0         -1          1      )
                  (     1         -1          0      )

 cart.    s(15) = (  0.0000000 -1.0000000  0.0000000 )
                  (  1.0000000 -0.0000000 -0.0000000 )
                  ( -0.0000000  0.0000000 -1.0000000 )


      isym = 16     inv.  90 deg rotation - cart. axis [0,0,1]   

 cryst.   s(16) = (    -1          0          1      )
                  (    -1          0          0      )
                  (    -1          1          0      )

 cart.    s(16) = ( -0.0000000  1.0000000  0.0000000 )
                  ( -1.0000000  0.0000000 -0.0000000 )
                  (  0.0000000 -0.0000000 -1.0000000 )


      isym = 17     inv. 180 deg rotation - cart. axis [1,0,1]   

 cryst.   s(17) = (     1          0          0      )
                  (     0          0          1      )
                  (     0          1          0      )

 cart.    s(17) = (  0.0000000  0.0000000 -1.0000000 )
                  ( -0.0000000  1.0000000 -0.0000000 )
                  ( -1.0000000 -0.0000000  0.0000000 )


      isym = 18     inv. 180 deg rotation - cart. axis [-1,0,1]  

 cryst.   s(18) = (    -1          0          0      )
                  (    -1          1          0      )
                  (    -1          0          1      )

 cart.    s(18) = ( -0.0000000  0.0000000  1.0000000 )
                  (  0.0000000  1.0000000  0.0000000 )
                  (  1.0000000 -0.0000000 -0.0000000 )


      isym = 19     inv.  90 deg rotation - cart. axis [0,1,0]   

 cryst.   s(19) = (     0         -1          1      )
                  (     1         -1          0      )
                  (     0         -1          0      )

 cart.    s(19) = ( -0.0000000 -0.0000000 -1.0000000 )
                  (  0.0000000 -1.0000000 -0.0000000 )
                  (  1.0000000  0.0000000  0.0000000 )


      isym = 20     inv.  90 deg rotation - cart. axis [0,-1,0]  

 cryst.   s(20) = (     0          1         -1      )
                  (     0          0         -1      )
                  (     1          0         -1      )

 cart.    s(20) = (  0.0000000 -0.0000000  1.0000000 )
                  ( -0.0000000 -1.0000000  0.0000000 )
                  ( -1.0000000  0.0000000 -0.0000000 )


      isym = 21     inv. 180 deg rotation - cart. axis [0,1,1]   

 cryst.   s(21) = (     1         -1          0      )
                  (     0         -1          0      )
                  (     0         -1          1      )

 cart.    s(21) = (  1.0000000  0.0000000 -0.0000000 )
                  (  0.0000000 -0.0000000 -1.0000000 )
                  ( -0.0000000 -1.0000000  0.0000000 )


      isym = 22     inv. 180 deg rotation - cart. axis [0,1,-1]  

 cryst.   s(22) = (     0          0          1      )
                  (     0          1          0      )
                  (     1          0          0      )

 cart.    s(22) = (  1.0000000 -0.0000000  0.0000000 )
                  (  0.0000000  0.0000000  1.0000000 )
                  ( -0.0000000  1.0000000 -0.0000000 )


      isym = 23     inv.  90 deg rotation - cart. axis [-1,0,0]  

 cryst.   s(23) = (     0          0         -1      )
                  (     1          0         -1      )
                  (     0          1         -1      )

 cart.    s(23) = ( -1.0000000 -0.0000000 -0.0000000 )
                  ( -0.0000000  0.0000000 -1.0000000 )
                  (  0.0000000  1.0000000  0.0000000 )


      isym = 24     inv.  90 deg rotation - cart. axis [1,0,0]   

 cryst.   s(24) = (    -1          1          0      )
                  (    -1          0          1      )
                  (    -1          0          0      )

 cart.    s(24) = ( -1.0000000  0.0000000  0.0000000 )
                  ( -0.0000000 -0.0000000  1.0000000 )
                  (  0.0000000 -1.0000000 -0.0000000 )


   Cartesian axes

     site n.     atom                  positions (alat units)
         1           Si  tau(   1) = (   0.0000000   0.0000000   0.0000000  )
         2           Si  tau(   2) = (  -0.3535534   0.3535534   0.3535534  )

   Crystallographic axes

     site n.     atom                  positions (cryst. coord.)
         1           Si  tau(   1) = (  0.0000000  0.0000000  0.0000000  )
         2           Si  tau(   2) = (  0.2500000  0.2500000  0.2500000  )

     number of k points=    29
                       cart. coord. in units 2pi/alat
        k(    1) = (   0.0000000   0.0000000   0.0000000), wk =   0.0039063
        k(    2) = (  -0.0883883   0.0883883  -0.0883883), wk =   0.0312500
        k(    3) = (  -0.1767767   0.1767767  -0.1767767), wk =   0.0312500
        k(    4) = (  -0.2651650   0.2651650  -0.2651650), wk =   0.0312500
        k(    5) = (   0.3535534  -0.3535534   0.3535534), wk =   0.0156250
        k(    6) = (   0.0000000   0.1767767   0.0000000), wk =   0.0234375
        k(    7) = (  -0.0883883   0.2651650  -0.0883883), wk =   0.0937500
        k(    8) = (  -0.1767767   0.3535534  -0.1767767), wk =   0.0937500
        k(    9) = (   0.4419417  -0.2651650   0.4419417), wk =   0.0937500
        k(   10) = (   0.3535534  -0.1767767   0.3535534), wk =   0.0937500
        k(   11) = (   0.2651650  -0.0883883   0.2651650), wk =   0.0937500
        k(   12) = (   0.1767767   0.0000000   0.1767767), wk =   0.0468750
        k(   13) = (   0.0000000   0.3535534   0.0000000), wk =   0.0234375
        k(   14) = (  -0.0883883   0.4419417  -0.0883883), wk =   0.0937500
        k(   15) = (   0.5303301  -0.1767767   0.5303301), wk =   0.0937500
        k(   16) = (   0.4419417  -0.0883883   0.4419417), wk =   0.0937500
        k(   17) = (   0.3535534   0.0000000   0.3535534), wk =   0.0468750
        k(   18) = (   0.0000000   0.5303301   0.0000000), wk =   0.0234375
        k(   19) = (   0.6187184  -0.0883883   0.6187184), wk =   0.0937500
        k(   20) = (   0.5303301   0.0000000   0.5303301), wk =   0.0468750
        k(   21) = (   0.0000000  -0.7071068   0.0000000), wk =   0.0117188
        k(   22) = (  -0.1767767   0.3535534   0.0000000), wk =   0.0937500
        k(   23) = (   0.4419417  -0.2651650   0.6187184), wk =   0.1875000
        k(   24) = (   0.3535534  -0.1767767   0.5303301), wk =   0.0937500
        k(   25) = (   0.5303301  -0.1767767   0.7071068), wk =   0.0937500
        k(   26) = (   0.4419417  -0.0883883   0.6187184), wk =   0.1875000
        k(   27) = (   0.3535534   0.0000000   0.5303301), wk =   0.0937500
        k(   28) = (  -0.1767767  -0.7071068  -0.0000000), wk =   0.0468750
        k(   29) = (  -0.3535534  -0.7071068   0.0000000), wk =   0.0234375

                       cryst. coord.
        k(    1) = (   0.0000000   0.0000000   0.0000000), wk =   0.0039063
        k(    2) = (   0.0000000   0.0000000   0.1250000), wk =   0.0312500
        k(    3) = (   0.0000000   0.0000000   0.2500000), wk =   0.0312500
        k(    4) = (  -0.0000000  -0.0000000   0.3750000), wk =   0.0312500
        k(    5) = (  -0.0000000  -0.0000000  -0.5000000), wk =   0.0156250
        k(    6) = (   0.0000000   0.1250000   0.1250000), wk =   0.0234375
        k(    7) = (   0.0000000   0.1250000   0.2500000), wk =   0.0937500
        k(    8) = (   0.0000000   0.1250000   0.3750000), wk =   0.0937500
        k(    9) = (  -0.0000000   0.1250000  -0.5000000), wk =   0.0937500
        k(   10) = (  -0.0000000   0.1250000  -0.3750000), wk =   0.0937500
        k(   11) = (   0.0000000   0.1250000  -0.2500000), wk =   0.0937500
        k(   12) = (  -0.0000000   0.1250000  -0.1250000), wk =   0.0468750
        k(   13) = (   0.0000000   0.2500000   0.2500000), wk =   0.0234375
        k(   14) = (   0.0000000   0.2500000   0.3750000), wk =   0.0937500
        k(   15) = (   0.0000000   0.2500000  -0.5000000), wk =   0.0937500
        k(   16) = (  -0.0000000   0.2500000  -0.3750000), wk =   0.0937500
        k(   17) = (  -0.0000000   0.2500000  -0.2500000), wk =   0.0468750
        k(   18) = (   0.0000000   0.3750000   0.3750000), wk =   0.0234375
        k(   19) = (   0.0000000   0.3750000  -0.5000000), wk =   0.0937500
        k(   20) = (   0.0000000   0.3750000  -0.3750000), wk =   0.0468750
        k(   21) = (   0.0000000  -0.5000000  -0.5000000), wk =   0.0117188
        k(   22) = (   0.1250000   0.2500000   0.3750000), wk =   0.0937500
        k(   23) = (   0.1250000   0.2500000  -0.5000000), wk =   0.1875000
        k(   24) = (   0.1250000   0.2500000  -0.3750000), wk =   0.0937500
        k(   25) = (   0.1250000   0.3750000  -0.5000000), wk =   0.0937500
        k(   26) = (   0.1250000   0.3750000  -0.3750000), wk =   0.1875000
        k(   27) = (   0.1250000   0.3750000  -0.2500000), wk =   0.0937500
        k(   28) = (   0.1250000  -0.5000000  -0.3750000), wk =   0.0468750
        k(   29) = (   0.2500000  -0.5000000  -0.2500000), wk =   0.0234375

     Dense  grid:    22075 G-vectors     FFT dimensions: (  40,  40,  40)

     Dynamical RAM for                 wfc:       1.04 MB

     Dynamical RAM for     wfc (w. buffer):       1.04 MB

     Dynamical RAM for           str. fact:       0.02 MB

     Dynamical RAM for           local pot:       0.00 MB

     Dynamical RAM for          nlocal pot:       0.09 MB

     Dynamical RAM for                qrad:       1.36 MB

     Dynamical RAM for          rho,v,vnew:       0.17 MB

     Dynamical RAM for           G-vectors:       0.09 MB

     Dynamical RAM for          h,s,v(r/c):      29.30 MB

     Dynamical RAM for          <psi|beta>:       0.22 MB

     Dynamical RAM for                 psi:       2.08 MB

     Dynamical RAM for                hpsi:       2.08 MB

     Dynamical RAM for      wfcinit/wfcrot:       5.74 MB

     Estimated static dynamical RAM per process >       3.00 MB

     Estimated max dynamical RAM per process >      36.67 MB

     Estimated total dynamical RAM >     586.71 MB

     The potential is recalculated from file :
     ./out/aiida.save/charge-density

     Starting wfcs are    8 randomized atomic wfcs +  392 random wfcs

     Band Structure Calculation
     Davidson diagonalization with overlap

     Computing kpt #:     1  of    29
     total cpu time spent up to now is        5.0 secs

     Computing kpt #:     2  of    29
     total cpu time spent up to now is        6.9 secs

     Computing kpt #:     3  of    29
     total cpu time spent up to now is        8.8 secs

     Computing kpt #:     4  of    29
     total cpu time spent up to now is       10.7 secs

     Computing kpt #:     5  of    29
     total cpu time spent up to now is       12.6 secs

     Computing kpt #:     6  of    29
     total cpu time spent up to now is       14.5 secs

     Computing kpt #:     7  of    29
     total cpu time spent up to now is       16.4 secs

     Computing kpt #:     8  of    29
     total cpu time spent up to now is       18.2 secs

     Computing kpt #:     9  of    29
     total cpu time spent up to now is       20.1 secs

     Computing kpt #:    10  of    29
     total cpu time spent up to now is       22.0 secs

     Computing kpt #:    11  of    29
     total cpu time spent up to now is       23.9 secs

     Computing kpt #:    12  of    29
     total cpu time spent up to now is       25.8 secs

     Computing kpt #:    13  of    29
     total cpu time spent up to now is       27.7 secs

     Computing kpt #:    14  of    29
     total cpu time spent up to now is       29.5 secs

     Computing kpt #:    15  of    29
     total cpu time spent up to now is       31.5 secs

     Computing kpt #:    16  of    29
     total cpu time spent up to now is       33.3 secs

     Computing kpt #:    17  of    29
     total cpu time spent up to now is       35.2 secs

     Computing kpt #:    18  of    29
     total cpu time spent up to now is       37.1 secs

     Computing kpt #:    19  of    29
     total cpu time spent up to now is       38.9 secs

     Computing kpt #:    20  of    29
     total cpu time spent up to now is       40.7 secs

     Computing kpt #:    21  of    29
     total cpu time spent up to now is       42.6 secs

     Computing kpt #:    22  of    29
     total cpu time spent up to now is       44.5 secs

     Computing kpt #:    23  of    29
     total cpu time spent up to now is       46.3 secs

     Computing kpt #:    24  of    29
     total cpu time spent up to now is       48.1 secs

     Computing kpt #:    25  of    29
     total cpu time spent up to now is       49.9 secs

     Computing kpt #:    26  of    29
     total cpu time spent up to now is       51.7 secs

     Computing kpt #:    27  of    29
     total cpu time spent up to now is       53.6 secs

     Computing kpt #:    28  of    29
     total cpu time spent up to now is       55.4 secs

     Computing kpt #:    29  of    29
     total cpu time spent up to now is       57.2 secs

     ethr =  5.00E-06,  avg # of iterations =  9.3

     total cpu time spent up to now is       57.2 secs

     End of band structure calculation

          k = 0.0000 0.0000 0.0000 (  2733 PWs)   bands (ev):

    -5.6484   6.4781   6.4781   6.4781   9.0425   9.0425   9.0425  10.0865
    14.2186  14.2186  14.5333  17.8122  17.8122  17.8122  22.0361  29.7640
    29.7640  29.7640  30.8332  30.8332  32.7045  32.7045  32.7045  36.1980
    36.1980  36.1980  41.4603  41.4603  41.4603  45.2540  45.2540  45.4718
    47.3860  47.3860  49.4746  49.4746  49.4746  51.2888  51.2888  51.2888
    52.1862  52.2446  52.2446  52.2446  52.3356  52.3356  52.3356  53.5660
    53.5660  53.5660  57.7785  58.7175  58.7175  58.7175  59.0100  59.0100
    59.0100  64.4192  65.5451  72.8850  72.8850  77.0202  77.0202  77.0202
    77.1506  77.1506  77.8383  77.8383  77.8383  78.8264  78.8264  78.8264
    80.3394  86.3707  86.3707  86.3707  89.9433  89.9433  91.6536  91.6536
    91.6536  92.4708  92.4708  92.4708  93.8467  93.8467  93.8467  93.9380
    93.9380  94.9848  96.3590  96.3590  96.3590  98.1375  98.1375  98.1375
    99.3150  99.3150  99.3150 100.2591 100.2591 100.2591 100.6641 101.5279
   101.5279 101.5279 101.8472 101.8472 101.8507 101.8507 101.8507 101.9777
   107.4464 107.4464 107.4464 108.0018 108.0018 111.9839 115.3852 115.3852
   115.3852 117.7530 117.7530 117.7530 117.9092 117.9092 117.9092 118.4993
   118.4993 118.4993 119.1043 119.1043 119.7717 121.0929 121.0929 121.0929
   125.3704 125.3704 127.1774 127.1774 127.1774 128.6338 129.3888 129.3888
   132.9237 132.9237 132.9237 133.0988 133.9889 133.9889 133.9889 134.3201
   134.9121 134.9121 134.9121 135.1891 135.1891 135.1891 135.2130 135.2130
   135.2130 136.3094 136.3094 136.3094 136.8898 136.8898 136.8898 143.8791
   144.1694 147.6327 147.6327 147.6327 150.0540 150.0540 150.1796 150.1796
   150.1796 154.4003 154.4003 154.4003 157.2802 157.2802 160.0818 160.0818
   160.0818 161.9704 167.0947 167.0947 167.7923 167.7923 167.7923 168.9221
   170.4428 170.4428 170.4428 170.6598 171.4004 171.4004 171.4004 172.2336
   172.2336 172.2336 173.6559 173.6559 173.6559 173.9171 173.9171 174.4134
   174.4134 174.4134 174.5108 174.5108 174.5108 175.0562 175.0562 175.0562
   175.4452 175.4452 175.8647 175.8647 175.8647 176.5697 176.9010 176.9010
   176.9010 177.1603 177.1603 177.1603 177.4412 177.6949 177.6949 177.6949
   178.6297 179.2317 179.3719 179.3719 180.6287 180.6287 180.6287 180.9122
   181.1013 181.1013 181.1013 181.8397 181.8397 182.8468 182.8468 182.8468
   183.3048 183.3048 183.3048 183.4630 183.4630 183.4630 183.5644 183.5644
   183.6563 183.6563 183.6563 190.3138 190.3138 196.6769 197.4437 197.4437
   197.4437 198.0430 198.0430 198.0430 200.9931 200.9931 200.9931 201.0411
   201.0411 201.0411 201.2886 201.2886 201.2886 203.5487 203.5487 203.5756
   203.5785 203.5785 203.5785 205.8717 205.8717 205.8717 206.3756 206.3756
   206.3801 206.3801 206.3801 209.0439 209.8057 214.3625 214.3625 214.3625
   214.3993 214.3993 214.3993 214.4315 214.4315 214.4385 214.4385 214.4385
   214.5984 214.5984 214.5984 220.3758 220.3758 220.5996 220.5996 220.5996
   220.6135 221.4003 221.4003 221.4003 222.4162 222.4162 222.4162 222.7040
   222.9269 222.9269 222.9269 222.9409 222.9409 222.9409 223.4688 223.4688
   223.5683 223.5683 223.5683 236.4444 236.4444 236.4444 240.8654 240.8654
   240.8654 241.5601 241.7010 243.0029 243.0029 243.0029 243.1535 243.1535
   243.9410 243.9410 248.9163 248.9163 248.9163 249.1375 249.1375 249.1375
   249.9531 249.9531 249.9531 250.3789 252.7096 252.7096 254.4157 254.4157
   254.4157 254.5732 254.5732 254.5732 255.0776 255.0776 255.0776 255.1021
   255.1426 255.1426 255.3807 255.3807 255.3807 255.4310 255.6914 258.6884
   258.6884 258.6884 258.6944 258.6944 258.6944 258.7097 258.7097 258.7097
   258.7462 258.7462 258.7462 262.9663 262.9663 263.1756 263.2413 263.2413
   263.2413 263.3115 263.3115 263.3115 263.3707 263.3707 263.3707 265.4081

     occupation numbers 
     1.0000   1.0000   1.0000   1.0000   0.0000   0.0000   0.0000   0.0000
     0.0000   0.0000   0.0000   0.0000   0.0000   0.0000   0.0000   0.0000
     0.0000   0.0000   0.0000   0.0000   0.0000   0.0000   0.0000   0.0000
     0.0000   0.0000   0.0000   0.0000   0.0000   0.0000   0.0000   0.0000
     0.0000   0.0000   0.0000   0.0000   0.0000   0.0000   0.0000   0.0000
     0.0000   0.0000   0.0000   0.0000   0.0000   0.0000   0.0000   0.0000
     0.0000   0.0000   0.0000   0.0000   0.0000   0.0000   0.0000   0.0000
     0.0000   0.0000   0.0000   0.0000   0.0000   0.0000   0.0000   0.0000
     0.0000   0.0000   0.0000   0.0000   0.0000   0.0000   0.0000   0.0000
     0.0000   0.0000   0.0000   0.0000   0.0000   0.0000   0.0000   0.0000
     0.0000   0.0000   0.0000   0.0000   0.0000   0.0000   0.0000   0.0000
     0.0000   0.0000   0.0000   0.0000   0.0000   0.0000   0.0000   0.0000
     0.0000   0.0000   0.0000   0.0000   0.0000   0.0000   0.0000   0.0000
     0.0000   0.0000   0.0000   0.0000   0.0000   0.0000   0.0000   0.0000
     0.0000   0.0000   0.0000   0.0000   0.0000   0.0000   0.0000   0.0000
     0.0000   0.0000   0.0000   0.0000   0.0000   0.0000   0.0000   0.0000
     0.0000   0.0000   0.0000   0.0000   0.0000   0.0000   0.0000   0.0000
     0.0000   0.0000   0.0000   0.0000   0.0000   0.0000   0.0000   0.0000
     0.0000   0.0000   0.0000   0.0000   0.0000   0.0000   0.0000   0.0000
     0.0000   0.0000   0.0000   0.0000   0.0000   0.0000   0.0000   0.0000
     0.0000   0.0000   0.0000   0.0000   0.0000   0.0000   0.0000   0.0000
     0.0000   0.0000   0.0000   0.0000   0.0000   0.0000   0.0000   0.0000
     0.0000   0.0000   0.0000   0.0000   0.0000   0.0000   0.0000   0.0000
     0.0000   0.0000   0.0000   0.0000   0.0000   0.0000   0.0000   0.0000
     0.0000   0.0000   0.0000   0.0000   0.0000   0.0000   0.0000   0.0000
     0.0000   0.0000   0.0000   0.0000   0.0000   0.0000   0.0000   0.0000
     0.0000   0.0000   0.0000   0.0000   0.0000   0.0000   0.0000   0.0000
     0.0000   0.0000   0.0000   0.0000   0.0000   0.0000   0.0000   0.0000
     0.0000   0.0000   0.0000   0.0000   0.0000   0.0000   0.0000   0.0000
     0.0000   0.0000   0.0000   0.0000   0.0000   0.0000   0.0000   0.0000
     0.0000   0.0000   0.0000   0.0000   0.0000   0.0000   0.0000   0.0000
     0.0000   0.0000   0.0000   0.0000   0.0000   0.0000   0.0000   0.0000
     0.0000   0.0000   0.0000   0.0000   0.0000   0.0000   0.0000   0.0000
     0.0000   0.0000   0.0000   0.0000   0.0000   0.0000   0.0000   0.0000
     0.0000   0.0000   0.0000   0.0000   0.0000   0.0000   0.0000   0.0000
     0.0000   0.0000   0.0000   0.0000   0.0000   0.0000   0.0000   0.0000
     0.0000   0.0000   0.0000   0.0000   0.0000   0.0000   0.0000   0.0000
     0.0000   0.0000   0.0000   0.0000   0.0000   0.0000   0.0000   0.0000
     0.0000   0.0000   0.0000   0.0000   0.0000   0.0000   0.0000   0.0000
     0.0000   0.0000   0.0000   0.0000   0.0000   0.0000   0.0000   0.0000
     0.0000   0.0000   0.0000   0.0000   0.0000   0.0000   0.0000   0.0000
     0.0000   0.0000   0.0000   0.0000   0.0000   0.0000   0.0000   0.0000
     0.0000   0.0000   0.0000   0.0000   0.0000   0.0000   0.0000   0.0000
     0.0000   0.0000   0.0000   0.0000   0.0000   0.0000   0.0000   0.0000
     0.0000   0.0000   0.0000   0.0000   0.0000   0.0000   0.0000   0.0000
     0.0000   0.0000   0.0000   0.0000   0.0000   0.0000   0.0000   0.0000
     0.0000   0.0000   0.0000   0.0000   0.0000   0.0000   0.0000   0.0000
     0.0000   0.0000   0.0000   0.0000   0.0000   0.0000   0.0000   0.0000
     0.0000   0.0000   0.0000   0.0000   0.0000   0.0000   0.0000   0.0000
     0.0000   0.0000   0.0000   0.0000   0.0000   0.0000   0.0000   0.0000

          k =-0.0884 0.0884-0.0884 (  2719 PWs)   bands (ev):

    -5.4402   4.8669   6.1812   6.1812   9.0337   9.4774   9.4774  11.3843
    13.7277  13.7277  15.3301  17.2488  18.9946  18.9946  23.2851  27.7766
    27.7766  28.1417  30.5051  30.5051  33.1952  33.1952  34.0133  36.3886
    38.3192  38.3192  39.2339  41.0030  41.0030  43.5320  43.5320  45.5914
    45.5914  46.0185  49.0021  49.0021  49.0889  49.3418  50.6548  51.0412
    51.0412  51.8451  51.8576  51.8576  53.5236  54.5362  54.5496  54.5496
    56.8710  56.8710  56.9998  58.3483  58.3483  58.6427  61.4973  61.4973
    62.8980  66.2107  67.2933  70.5037  70.5037  73.6193  74.8298  74.8298
    76.2437  76.2437  76.2884  77.9772  77.9772  78.9673  80.5751  80.5751
    84.2095  85.9597  85.9597  86.0319  87.3851  87.3851  89.2132  89.9482
    89.9482  91.8127  91.9962  91.9962  92.2863  92.9546  93.6377  93.6377
    94.3179  94.3179  95.5579  96.2695  96.5573  96.5573  97.9346  97.9346
    98.1783  98.1783  98.6265  98.6284 101.3599 101.3599 102.6637 102.6637
   103.0164 103.3373 104.5325 104.9200 104.9200 105.6105 105.6105 106.4173
   106.9945 106.9945 107.6316 109.2610 109.2610 110.7879 110.7879 112.9482
   113.1282 114.5046 114.5046 115.9145 118.6610 119.0531 119.0531 119.2495
   119.2495 119.9483 121.6365 122.0087 122.0087 122.1962 122.5538 122.5538
   123.2197 125.5501 125.5501 126.6610 126.6610 127.3282 128.2007 128.2007
   128.2781 129.0620 129.5771 129.5771 130.4293 131.2793 131.2793 133.9793
   135.3837 135.3837 135.5872 136.8738 137.1120 137.1120 137.5594 137.5594
   138.6108 140.8118 140.8118 141.8324 142.4418 142.4418 143.1673 143.9722
   143.9722 145.7098 146.3713 147.0818 148.9720 148.9720 149.7986 149.7986
   151.1684 154.5119 155.0661 155.0661 156.6918 158.5225 158.5225 159.3083
   159.3083 163.4082 163.4580 163.4580 163.8145 163.8145 164.5802 165.3328
   165.3328 165.3970 165.6555 167.7918 168.5306 168.5306 168.6391 169.1172
   169.8440 170.1701 170.1701 170.5781 170.5781 171.2051 171.2051 171.4822
   171.4822 172.0314 173.0993 173.0993 173.4315 173.5164 174.1077 174.1077
   174.3394 175.8958 175.9785 175.9785 176.4682 176.4682 176.6134 177.2132
   177.2132 177.2461 178.0709 178.0709 178.5140 179.4412 179.4673 179.4673
   181.3825 181.3825 181.4487 181.5605 182.1964 182.1964 182.3104 182.3104
   183.2602 184.0296 184.0296 184.7626 185.6516 185.6516 186.0409 186.4956
   186.4956 186.8387 186.8387 187.6131 188.1970 188.1970 188.3863 188.8673
   190.2484 190.2484 190.3945 191.4764 191.5751 191.5751 191.9228 193.3780
   194.0815 194.0815 195.9372 195.9372 195.9628 197.4428 197.4428 197.7418
   199.6820 199.6820 200.8530 200.8530 201.5203 201.5203 202.3921 204.2871
   205.0379 205.0379 206.4456 206.4456 207.3586 207.7221 207.7977 208.6842
   208.6842 209.6675 209.6675 209.6865 209.9510 209.9510 211.1969 211.5137
   211.5137 212.3633 213.1484 213.1484 213.1621 214.7922 214.7922 215.2265
   215.3688 215.3688 215.8615 217.1169 217.1169 217.6572 220.0950 220.0950
   220.2103 221.4537 221.7252 221.7252 222.1874 224.0055 224.0312 224.0312
   226.0001 226.4733 226.4733 229.0386 229.0386 229.8709 230.1972 230.1972
   230.5747 232.6193 233.5200 233.5200 234.3284 234.3284 235.9536 236.3728
   236.3728 236.5822 238.6032 238.6032 240.0538 241.1208 241.1208 242.1779
   242.1779 245.0865 245.0865 245.1270 245.7856 245.9130 245.9130 246.1888
   246.8112 248.8667 249.1110 249.1110 249.4031 249.4031 249.5868 250.3495
   250.5698 250.5698 250.9267 250.9267 251.0062 252.0928 252.1674 252.1674
   253.2336 253.2336 253.3528 254.9573 255.0659 255.0659 256.8901 258.3440
   258.3440 259.0589 259.0589 259.3190 261.3421 261.3421 261.4247 262.2227
   262.4415 262.4415 262.5636 262.8021 262.8021 263.2758 263.7572 263.7572
   264.4301 264.9110 264.9110 266.5839 266.5839 266.9606 266.9723 267.2853

     occupation numbers 
     1.0000   1.0000   1.0000   1.0000   0.0000   0.0000   0.0000   0.0000
     0.0000   0.0000   0.0000   0.0000   0.0000   0.0000   0.0000   0.0000
     0.0000   0.0000   0.0000   0.0000   0.0000   0.0000   0.0000   0.0000
     0.0000   0.0000   0.0000   0.0000   0.0000   0.0000   0.0000   0.0000
     0.0000   0.0000   0.0000   0.0000   0.0000   0.0000   0.0000   0.0000
     0.0000   0.0000   0.0000   0.0000   0.0000   0.0000   0.0000   0.0000
     0.0000   0.0000   0.0000   0.0000   0.0000   0.0000   0.0000   0.0000
     0.0000   0.0000   0.0000   0.0000   0.0000   0.0000   0.0000   0.0000
     0.0000   0.0000   0.0000   0.0000   0.0000   0.0000   0.0000   0.0000
     0.0000   0.0000   0.0000   0.0000   0.0000   0.0000   0.0000   0.0000
     0.0000   0.0000   0.0000   0.0000   0.0000   0.0000   0.0000   0.0000
     0.0000   0.0000   0.0000   0.0000   0.0000   0.0000   0.0000   0.0000
     0.0000   0.0000   0.0000   0.0000   0.0000   0.0000   0.0000   0.0000
     0.0000   0.0000   0.0000   0.0000   0.0000   0.0000   0.0000   0.0000
     0.0000   0.0000   0.0000   0.0000   0.0000   0.0000   0.0000   0.0000
     0.0000   0.0000   0.0000   0.0000   0.0000   0.0000   0.0000   0.0000
     0.0000   0.0000   0.0000   0.0000   0.0000   0.0000   0.0000   0.0000
     0.0000   0.0000   0.0000   0.0000   0.0000   0.0000   0.0000   0.0000
     0.0000   0.0000   0.0000   0.0000   0.0000   0.0000   0.0000   0.0000
     0.0000   0.0000   0.0000   0.0000   0.0000   0.0000   0.0000   0.0000
     0.0000   0.0000   0.0000   0.0000   0.0000   0.0000   0.0000   0.0000
     0.0000   0.0000   0.0000   0.0000   0.0000   0.0000   0.0000   0.0000
     0.0000   0.0000   0.0000   0.0000   0.0000   0.0000   0.0000   0.0000
     0.0000   0.0000   0.0000   0.0000   0.0000   0.0000   0.0000   0.0000
     0.0000   0.0000   0.0000   0.0000   0.0000   0.0000   0.0000   0.0000
     0.0000   0.0000   0.0000   0.0000   0.0000   0.0000   0.0000   0.0000
     0.0000   0.0000   0.0000   0.0000   0.0000   0.0000   0.0000   0.0000
     0.0000   0.0000   0.0000   0.0000   0.0000   0.0000   0.0000   0.0000
     0.0000   0.0000   0.0000   0.0000   0.0000   0.0000   0.0000   0.0000
     0.0000   0.0000   0.0000   0.0000   0.0000   0.0000   0.0000   0.0000
     0.0000   0.0000   0.0000   0.0000   0.0000   0.0000   0.0000   0.0000
     0.0000   0.0000   0.0000   0.0000   0.0000   0.0000   0.0000   0.0000
     0.0000   0.0000   0.0000   0.0000   0.0000   0.0000   0.0000   0.0000
     0.0000   0.0000   0.0000   0.0000   0.0000   0.0000   0.0000   0.0000
     0.0000   0.0000   0.0000   0.0000   0.0000   0.0000   0.0000   0.0000
     0.0000   0.0000   0.0000   0.0000   0.0000   0.0000   0.0000   0.0000
     0.0000   0.0000   0.0000   0.0000   0.0000   0.0000   0.0000   0.0000
     0.0000   0.0000   0.0000   0.0000   0.0000   0.0000   0.0000   0.0000
     0.0000   0.0000   0.0000   0.0000   0.0000   0.0000   0.0000   0.0000
     0.0000   0.0000   0.0000   0.0000   0.0000   0.0000   0.0000   0.0000
     0.0000   0.0000   0.0000   0.0000   0.0000   0.0000   0.0000   0.0000
     0.0000   0.0000   0.0000   0.0000   0.0000   0.0000   0.0000   0.0000
     0.0000   0.0000   0.0000   0.0000   0.0000   0.0000   0.0000   0.0000
     0.0000   0.0000   0.0000   0.0000   0.0000   0.0000   0.0000   0.0000
     0.0000   0.0000   0.0000   0.0000   0.0000   0.0000   0.0000   0.0000
     0.0000   0.0000   0.0000   0.0000   0.0000   0.0000   0.0000   0.0000
     0.0000   0.0000   0.0000   0.0000   0.0000   0.0000   0.0000   0.0000
     0.0000   0.0000   0.0000   0.0000   0.0000   0.0000   0.0000   0.0000
     0.0000   0.0000   0.0000   0.0000   0.0000   0.0000   0.0000   0.0000
     0.0000   0.0000   0.0000   0.0000   0.0000   0.0000   0.0000   0.0000

          k =-0.1768 0.1768-0.1768 (  2716 PWs)   bands (ev):

    -4.8324   2.5019   5.7012   5.7012   8.5760   9.9964   9.9964  13.5757
    13.6911  13.6911  15.5546  18.4699  21.2567  21.2567  24.5401  24.5401
    24.7177  26.8143  30.6808  30.6808  33.5313  33.5313  34.5924  36.2976
    36.9245  38.7161  38.7161  40.2273  40.2273  41.2463  41.2463  45.2479
    45.2479  45.4572  45.9881  46.4553  48.2913  48.2913  50.7410  51.0182
    51.0182  51.4359  52.0328  53.8506  53.8506  56.8190  56.8190  58.0532
    58.1270  58.1270  60.0298  61.5134  64.0390  64.0390  64.8697  64.8697
    65.5222  67.3224  67.3224  68.4536  69.0692  70.2359  70.2359  73.0102
    73.5520  73.5520  73.7484  76.5346  76.5346  79.3321  81.8081  81.8081
    83.6480  83.6480  83.8142  84.0277  85.7598  85.7598  86.9075  87.6648
    88.0109  88.0109  90.0929  90.0929  90.8469  92.8636  92.8636  92.9230
    93.6181  93.6181  94.6472  97.0188  97.3893  97.3893  97.8333  97.8333
    98.0636 100.0122 100.1945 100.1945 101.6066 102.0369 102.0369 103.8267
   103.8267 105.2897 105.2897 105.9218 106.1630 106.1630 106.8701 108.6336
   109.3974 109.3974 111.0473 112.1821 112.7093 112.7093 113.3826 113.3826
   113.8423 115.9781 116.1734 116.1734 116.2211 117.2611 117.2611 118.1315
   119.0199 119.0199 119.2333 120.1127 120.1127 121.6404 121.6404 123.4225
   124.1509 124.8223 125.1560 125.1560 125.9264 125.9264 127.1692 127.1692
   127.4067 128.4882 129.0959 129.5891 129.5891 132.4274 134.1080 134.1080
   137.3594 137.3594 138.0628 138.5054 138.5054 139.3976 139.5165 139.5165
   142.0452 142.9825 142.9825 143.2918 146.1460 146.1460 147.4486 148.2286
   148.2286 148.7083 148.9329 150.0282 150.0282 150.3023 150.3023 152.3996
   152.3996 152.9021 153.2085 153.2085 154.4201 154.4577 154.7601 155.0078
   155.0078 155.9063 157.7458 158.4053 158.4053 159.0967 159.0967 159.1041
   160.1007 160.1007 160.5766 164.1163 164.1163 164.3767 165.8321 165.8697
   165.8697 165.9012 167.2355 167.2355 167.6027 169.0756 169.0756 169.4271
   170.5093 170.5093 172.0274 173.1309 173.1824 173.1824 173.6365 173.6365
   173.8399 175.8170 175.8170 176.3651 176.6456 176.6456 177.9039 177.9039
   179.1488 179.1488 179.1811 179.3226 180.5052 180.6040 180.6040 180.7510
   181.5074 181.5074 181.6870 181.7841 182.3813 182.3813 182.5363 185.0546
   185.0546 186.0139 186.0139 186.1626 187.7767 187.8964 187.8964 188.6895
   188.6895 189.3748 190.0856 190.0856 190.1918 192.3019 192.4615 192.4615
   192.9104 192.9104 193.2947 193.8803 193.8803 194.4023 196.0850 196.2128
   196.2128 196.2956 196.7304 196.7304 197.3256 197.3256 198.5895 199.0230
   199.0230 199.5189 199.5189 199.6128 200.8385 200.8385 201.1920 201.5783
   203.2169 205.5486 205.5486 206.6458 206.6458 207.1964 208.4334 208.4334
   209.2882 209.3748 209.4988 209.4988 210.6710 211.1013 211.1013 211.6930
   212.4155 212.4155 213.0041 213.3622 213.4519 213.4519 217.5414 217.5414
   219.5341 219.7129 219.7129 220.8186 221.1895 221.1895 222.6360 223.3937
   223.3937 224.0511 224.8668 224.8668 226.0380 226.0380 226.4806 227.1631
   227.2725 227.2725 228.0691 228.6723 228.6723 228.9288 231.1252 231.1252
   231.7498 232.8608 232.8608 234.3268 234.6725 234.6725 235.1689 236.9839
   236.9839 237.8559 237.8559 237.9902 238.0944 238.2064 238.7608 238.8046
   238.8046 240.4190 240.4190 241.1595 241.8764 242.0700 242.0700 242.3309
   242.3309 242.9553 242.9553 243.4113 245.0105 246.1021 246.1021 246.5032
   247.4040 247.4040 248.4641 248.4641 248.6800 249.0572 249.6542 249.6542
   250.5138 250.5138 252.1367 253.1297 253.1297 253.7647 253.7647 254.2782
   255.3618 255.5501 255.6598 255.6598 257.1087 257.1087 259.4589 261.2820
   261.4734 261.4734 261.7611 261.7611 262.2018 262.2448 262.4604 262.4604
   262.8511 266.0775 266.0775 267.7263 267.7263 268.2632 268.6422 268.6422

     occupation numbers 
     1.0000   1.0000   1.0000   1.0000   0.0000   0.0000   0.0000   0.0000
     0.0000   0.0000   0.0000   0.0000   0.0000   0.0000   0.0000   0.0000
     0.0000   0.0000   0.0000   0.0000   0.0000   0.0000   0.0000   0.0000
     0.0000   0.0000   0.0000   0.0000   0.0000   0.0000   0.0000   0.0000
     0.0000   0.0000   0.0000   0.0000   0.0000   0.0000   0.0000   0.0000
     0.0000   0.0000   0.0000   0.0000   0.0000   0.0000   0.0000   0.0000
     0.0000   0.0000   0.0000   0.0000   0.0000   0.0000   0.0000   0.0000
     0.0000   0.0000   0.0000   0.0000   0.0000   0.0000   0.0000   0.0000
     0.0000   0.0000   0.0000   0.0000   0.0000   0.0000   0.0000   0.0000
     0.0000   0.0000   0.0000   0.0000   0.0000   0.0000   0.0000   0.0000
     0.0000   0.0000   0.0000   0.0000   0.0000   0.0000   0.0000   0.0000
     0.0000   0.0000   0.0000   0.0000   0.0000   0.0000   0.0000   0.0000
     0.0000   0.0000   0.0000   0.0000   0.0000   0.0000   0.0000   0.0000
     0.0000   0.0000   0.0000   0.0000   0.0000   0.0000   0.0000   0.0000
     0.0000   0.0000   0.0000   0.0000   0.0000   0.0000   0.0000   0.0000
     0.0000   0.0000   0.0000   0.0000   0.0000   0.0000   0.0000   0.0000
     0.0000   0.0000   0.0000   0.0000   0.0000   0.0000   0.0000   0.0000
     0.0000   0.0000   0.0000   0.0000   0.0000   0.0000   0.0000   0.0000
     0.0000   0.0000   0.0000   0.0000   0.0000   0.0000   0.0000   0.0000
     0.0000   0.0000   0.0000   0.0000   0.0000   0.0000   0.0000   0.0000
     0.0000   0.0000   0.0000   0.0000   0.0000   0.0000   0.0000   0.0000
     0.0000   0.0000   0.0000   0.0000   0.0000   0.0000   0.0000   0.0000
     0.0000   0.0000   0.0000   0.0000   0.0000   0.0000   0.0000   0.0000
     0.0000   0.0000   0.0000   0.0000   0.0000   0.0000   0.0000   0.0000
     0.0000   0.0000   0.0000   0.0000   0.0000   0.0000   0.0000   0.0000
     0.0000   0.0000   0.0000   0.0000   0.0000   0.0000   0.0000   0.0000
     0.0000   0.0000   0.0000   0.0000   0.0000   0.0000   0.0000   0.0000
     0.0000   0.0000   0.0000   0.0000   0.0000   0.0000   0.0000   0.0000
     0.0000   0.0000   0.0000   0.0000   0.0000   0.0000   0.0000   0.0000
     0.0000   0.0000   0.0000   0.0000   0.0000   0.0000   0.0000   0.0000
     0.0000   0.0000   0.0000   0.0000   0.0000   0.0000   0.0000   0.0000
     0.0000   0.0000   0.0000   0.0000   0.0000   0.0000   0.0000   0.0000
     0.0000   0.0000   0.0000   0.0000   0.0000   0.0000   0.0000   0.0000
     0.0000   0.0000   0.0000   0.0000   0.0000   0.0000   0.0000   0.0000
     0.0000   0.0000   0.0000   0.0000   0.0000   0.0000   0.0000   0.0000
     0.0000   0.0000   0.0000   0.0000   0.0000   0.0000   0.0000   0.0000
     0.0000   0.0000   0.0000   0.0000   0.0000   0.0000   0.0000   0.0000
     0.0000   0.0000   0.0000   0.0000   0.0000   0.0000   0.0000   0.0000
     0.0000   0.0000   0.0000   0.0000   0.0000   0.0000   0.0000   0.0000
     0.0000   0.0000   0.0000   0.0000   0.0000   0.0000   0.0000   0.0000
     0.0000   0.0000   0.0000   0.0000   0.0000   0.0000   0.0000   0.0000
     0.0000   0.0000   0.0000   0.0000   0.0000   0.0000   0.0000   0.0000
     0.0000   0.0000   0.0000   0.0000   0.0000   0.0000   0.0000   0.0000
     0.0000   0.0000   0.0000   0.0000   0.0000   0.0000   0.0000   0.0000
     0.0000   0.0000   0.0000   0.0000   0.0000   0.0000   0.0000   0.0000
     0.0000   0.0000   0.0000   0.0000   0.0000   0.0000   0.0000   0.0000
     0.0000   0.0000   0.0000   0.0000   0.0000   0.0000   0.0000   0.0000
     0.0000   0.0000   0.0000   0.0000   0.0000   0.0000   0.0000   0.0000
     0.0000   0.0000   0.0000   0.0000   0.0000   0.0000   0.0000   0.0000
     0.0000   0.0000   0.0000   0.0000   0.0000   0.0000   0.0000   0.0000

          k =-0.2652 0.2652-0.2652 (  2734 PWs)   bands (ev):

    -3.9175   0.4425   5.3693   5.3693   8.2150   9.9228   9.9228  14.4105
    15.1143  15.1143  16.3658  20.3825  20.3825  20.8246  23.3761  25.2157
    25.2157  29.7398  30.5223  30.5223  30.6315  33.6453  33.6453  35.2235
    35.2235  36.6453  37.6410  39.3887  39.3887  40.3958  40.3958  41.7221
    44.3166  44.6991  47.6934  47.6934  48.8246  48.8246  50.2479  51.0480
    51.2196  51.2196  54.2944  55.5030  55.5030  58.3293  58.3293  60.4825
    61.6954  61.6954  61.7649  63.8108  63.8108  65.1394  65.1394  66.3545
    66.5346  68.4727  68.5519  68.5519  69.3163  70.1599  70.1599  71.7861
    71.7861  73.6430  73.8804  73.8804  75.2063  77.9571  78.5065  79.1947
    79.1947  80.9118  80.9118  82.0987  84.0304  84.0304  84.9381  85.9669
    87.2104  87.2104  89.9422  89.9422  92.3967  92.3967  93.1157  93.1157
    93.3157  93.3940  95.2678  95.2678  95.4357  96.3704  98.0822  98.0822
    98.9476 100.3294 101.5232 101.5232 103.0236 103.0236 103.2205 104.2778
   104.2778 104.7350 105.4967 107.0212 107.0212 107.3263 108.7025 108.7025
   109.5956 109.8196 109.8196 112.3243 112.6696 112.6781 112.6781 114.4049
   114.4049 114.9305 116.2859 116.2859 117.8215 118.2905 118.3388 118.3388
   120.7586 120.7586 121.0498 121.5159 121.5159 122.7381 123.1562 123.1562
   124.2330 124.2330 124.8904 125.0681 126.0996 126.7835 126.7835 127.5252
   127.5252 131.8560 131.8560 131.9984 133.2006 133.4870 133.4870 134.3176
   134.3176 135.4470 136.8162 139.1874 139.8904 139.8904 142.4713 142.6284
   142.6284 143.9846 143.9846 144.2150 144.7986 144.7986 146.5884 147.3415
   147.3415 147.7836 148.5001 148.5001 149.4218 150.0487 150.3176 150.3176
   151.6030 151.6030 152.0800 152.7673 152.7673 154.5093 154.9374 154.9374
   155.3580 156.7570 156.7570 156.8973 158.2806 158.2831 158.2831 159.5872
   160.3560 160.4307 160.4307 161.2661 161.2661 161.6949 162.7874 162.7874
   164.1911 165.3813 165.5039 165.5039 167.9000 167.9000 168.5950 168.7952
   168.7952 168.8018 171.2039 171.3889 171.8282 171.8282 172.5224 172.6595
   172.9492 172.9492 173.5905 173.5905 173.7984 173.9984 173.9984 175.3553
   175.3553 175.6838 178.3591 178.3591 179.6811 179.6811 179.7099 183.0029
   183.0575 183.0575 183.2456 183.2456 183.3302 183.9527 184.5320 184.5320
   185.2590 185.5708 185.5708 186.2498 186.4705 186.4705 187.6571 189.3082
   189.3082 189.3803 190.6017 190.6017 191.0760 192.0106 192.0106 192.9643
   193.2917 193.2917 193.4540 193.4540 193.5531 195.7639 196.0011 196.5623
   196.5623 197.4509 200.4328 200.4328 201.3901 202.0081 202.0081 202.5305
   203.1300 203.1300 203.4871 204.3212 204.3212 204.5751 205.1521 206.7048
   206.7048 208.2866 208.2866 208.7578 209.8394 209.8394 210.2280 210.2280
   210.3150 211.2597 211.4107 211.4107 212.4689 212.4689 212.7845 213.9898
   213.9898 214.0070 215.3355 216.3142 216.3142 216.4866 219.3431 219.3431
   219.6732 219.7755 220.9655 220.9655 221.9788 222.3844 222.3844 223.4549
   223.4549 224.1385 224.7036 224.7036 226.2446 226.2446 226.4616 226.7696
   227.9012 227.9012 228.7457 229.7852 230.2029 230.2029 230.7344 230.7344
   230.8753 231.3263 231.3263 231.4372 232.1093 232.1093 232.7252 233.9757
   233.9757 233.9835 234.0360 234.8142 234.8142 235.2959 235.6107 235.6107
   236.1527 236.1527 237.0436 238.4161 238.4161 239.3868 239.3868 239.5708
   241.1298 242.9389 242.9389 243.2689 245.2663 245.2663 246.4792 246.4792
   246.9598 247.2991 247.8733 247.8733 248.2286 248.5422 249.1212 249.1212
   250.1966 250.5467 250.5467 251.0967 252.5394 252.5394 253.5508 253.6930
   254.5574 254.5574 255.8375 255.8375 255.9281 255.9281 256.2135 257.1673
   257.1673 257.3285 258.4198 258.4198 259.2941 260.2517 260.2517 260.3305
   262.2176 262.4582 262.4582 262.6085 262.6085 263.0962 263.4614 264.5423

     occupation numbers 
     1.0000   1.0000   1.0000   1.0000   0.0000   0.0000   0.0000   0.0000
     0.0000   0.0000   0.0000   0.0000   0.0000   0.0000   0.0000   0.0000
     0.0000   0.0000   0.0000   0.0000   0.0000   0.0000   0.0000   0.0000
     0.0000   0.0000   0.0000   0.0000   0.0000   0.0000   0.0000   0.0000
     0.0000   0.0000   0.0000   0.0000   0.0000   0.0000   0.0000   0.0000
     0.0000   0.0000   0.0000   0.0000   0.0000   0.0000   0.0000   0.0000
     0.0000   0.0000   0.0000   0.0000   0.0000   0.0000   0.0000   0.0000
     0.0000   0.0000   0.0000   0.0000   0.0000   0.0000   0.0000   0.0000
     0.0000   0.0000   0.0000   0.0000   0.0000   0.0000   0.0000   0.0000
     0.0000   0.0000   0.0000   0.0000   0.0000   0.0000   0.0000   0.0000
     0.0000   0.0000   0.0000   0.0000   0.0000   0.0000   0.0000   0.0000
     0.0000   0.0000   0.0000   0.0000   0.0000   0.0000   0.0000   0.0000
     0.0000   0.0000   0.0000   0.0000   0.0000   0.0000   0.0000   0.0000
     0.0000   0.0000   0.0000   0.0000   0.0000   0.0000   0.0000   0.0000
     0.0000   0.0000   0.0000   0.0000   0.0000   0.0000   0.0000   0.0000
     0.0000   0.0000   0.0000   0.0000   0.0000   0.0000   0.0000   0.0000
     0.0000   0.0000   0.0000   0.0000   0.0000   0.0000   0.0000   0.0000
     0.0000   0.0000   0.0000   0.0000   0.0000   0.0000   0.0000   0.0000
     0.0000   0.0000   0.0000   0.0000   0.0000   0.0000   0.0000   0.0000
     0.0000   0.0000   0.0000   0.0000   0.0000   0.0000   0.0000   0.0000
     0.0000   0.0000   0.0000   0.0000   0.0000   0.0000   0.0000   0.0000
     0.0000   0.0000   0.0000   0.0000   0.0000   0.0000   0.0000   0.0000
     0.0000   0.0000   0.0000   0.0000   0.0000   0.0000   0.0000   0.0000
     0.0000   0.0000   0.0000   0.0000   0.0000   0.0000   0.0000   0.0000
     0.0000   0.0000   0.0000   0.0000   0.0000   0.0000   0.0000   0.0000
     0.0000   0.0000   0.0000   0.0000   0.0000   0.0000   0.0000   0.0000
     0.0000   0.0000   0.0000   0.0000   0.0000   0.0000   0.0000   0.0000
     0.0000   0.0000   0.0000   0.0000   0.0000   0.0000   0.0000   0.0000
     0.0000   0.0000   0.0000   0.0000   0.0000   0.0000   0.0000   0.0000
     0.0000   0.0000   0.0000   0.0000   0.0000   0.0000   0.0000   0.0000
     0.0000   0.0000   0.0000   0.0000   0.0000   0.0000   0.0000   0.0000
     0.0000   0.0000   0.0000   0.0000   0.0000   0.0000   0.0000   0.0000
     0.0000   0.0000   0.0000   0.0000   0.0000   0.0000   0.0000   0.0000
     0.0000   0.0000   0.0000   0.0000   0.0000   0.0000   0.0000   0.0000
     0.0000   0.0000   0.0000   0.0000   0.0000   0.0000   0.0000   0.0000
     0.0000   0.0000   0.0000   0.0000   0.0000   0.0000   0.0000   0.0000
     0.0000   0.0000   0.0000   0.0000   0.0000   0.0000   0.0000   0.0000
     0.0000   0.0000   0.0000   0.0000   0.0000   0.0000   0.0000   0.0000
     0.0000   0.0000   0.0000   0.0000   0.0000   0.0000   0.0000   0.0000
     0.0000   0.0000   0.0000   0.0000   0.0000   0.0000   0.0000   0.0000
     0.0000   0.0000   0.0000   0.0000   0.0000   0.0000   0.0000   0.0000
     0.0000   0.0000   0.0000   0.0000   0.0000   0.0000   0.0000   0.0000
     0.0000   0.0000   0.0000   0.0000   0.0000   0.0000   0.0000   0.0000
     0.0000   0.0000   0.0000   0.0000   0.0000   0.0000   0.0000   0.0000
     0.0000   0.0000   0.0000   0.0000   0.0000   0.0000   0.0000   0.0000
     0.0000   0.0000   0.0000   0.0000   0.0000   0.0000   0.0000   0.0000
     0.0000   0.0000   0.0000   0.0000   0.0000   0.0000   0.0000   0.0000
     0.0000   0.0000   0.0000   0.0000   0.0000   0.0000   0.0000   0.0000
     0.0000   0.0000   0.0000   0.0000   0.0000   0.0000   0.0000   0.0000
     0.0000   0.0000   0.0000   0.0000   0.0000   0.0000   0.0000   0.0000

          k = 0.3536-0.3536 0.3536 (  2764 PWs)   bands (ev):

    -3.2588  -0.6071   5.2561   5.2561   8.0876   9.8038   9.8038  14.2390
    17.0960  17.0960  17.9570  17.9570  18.0274  19.7966  26.0911  26.7256
    28.3288  28.3288  28.5119  28.5119  32.4420  33.1884  33.1884  34.3277
    34.3277  35.1817  38.0419  39.2205  39.2205  39.7453  39.7453  40.7909
    43.4405  43.8878  47.6974  47.6974  49.7679  49.7679  50.1873  50.8101
    53.2299  53.2299  55.2558  55.2558  56.2580  59.6471  59.6471  60.3504
    61.3721  61.3721  61.7393  63.1725  63.1725  66.3592  66.3592  66.3655
    66.3655  66.9116  69.3754  69.5569  70.2921  70.2921  71.8649  72.2063
    73.1694  73.1694  74.9687  75.1654  75.2483  75.2483  77.4040  78.5725
    78.9372  78.9372  79.6974  79.6974  81.5567  81.5567  83.7227  83.7227
    85.7830  89.0246  90.2250  90.2250  91.9559  92.6190  92.6190  93.3566
    93.3566  93.4689  94.5443  97.2287  97.2287  98.1354  98.1354  99.1483
   100.2433 100.5292 100.9770 101.1331 101.1331 102.2980 102.3122 102.3122
   103.6386 103.9756 103.9756 106.9319 106.9319 109.6742 110.4781 110.4781
   110.7088 111.8891 111.8891 111.9542 113.1143 113.1143 113.3826 113.3826
   113.4938 113.5304 113.8122 116.0281 116.0281 116.0784 116.0784 117.5851
   121.3013 121.3013 121.7058 122.3317 122.3317 124.5030 124.7098 125.0236
   125.0236 125.5870 125.5870 127.8676 127.8676 127.9191 131.1699 131.1699
   131.4668 131.4668 132.4591 132.5510 134.3082 134.3091 136.0111 136.0111
   136.1757 136.2434 136.2434 137.0867 137.0867 137.7103 138.1541 138.1541
   138.4452 138.4452 142.1435 142.3046 142.3046 142.3623 144.1543 146.0832
   146.5582 146.5582 146.9860 149.7066 149.7066 149.9269 149.9269 152.4771
   152.4771 152.6256 152.7570 154.7393 155.6259 155.6259 155.7039 156.8573
   156.8573 157.0206 158.3687 158.9531 158.9531 159.2820 159.2820 161.4830
   162.0901 162.0901 162.8542 162.9169 162.9169 163.3113 163.3113 163.5357
   164.2629 164.2629 164.6829 164.7047 164.8243 164.9162 164.9668 164.9668
   166.2008 166.2008 168.1183 168.4978 168.4978 170.8265 171.0647 171.0647
   171.7136 171.7136 173.1874 173.5654 173.8543 173.8543 174.6827 174.6827
   174.9439 174.9439 175.1796 175.3219 179.7839 180.0174 180.0174 180.8269
   180.8269 183.0363 183.3649 183.9313 184.5087 184.5087 184.9730 184.9730
   185.6137 186.1398 186.1398 186.2491 187.4036 187.4036 187.9635 188.5540
   188.5540 189.4978 190.3666 190.4253 190.4325 190.4325 192.6186 192.6186
   194.8127 196.2091 196.2760 196.2760 196.8636 197.1393 197.1393 197.8873
   197.8873 198.0408 198.0408 198.1797 198.1797 198.2006 198.2129 198.3587
   204.6174 204.6174 205.5012 206.9710 206.9710 208.6596 208.6596 209.0295
   210.1972 210.1972 211.0978 211.6593 212.8338 212.8338 213.1836 213.1836
   213.9192 214.2297 214.2297 214.5607 215.2714 215.2740 215.6976 215.6976
   215.9820 216.0486 216.6863 216.6863 218.8407 218.8407 219.0691 219.1452
   219.1452 219.6831 221.1111 221.1111 221.4734 221.4734 222.8195 222.8195
   222.9321 223.2942 223.2942 223.3034 224.4635 225.0789 225.5513 225.5513
   225.6020 225.6020 225.6463 225.6463 226.5167 226.5188 226.5902 226.5902
   226.6708 226.6708 227.4471 227.4473 230.0836 232.8422 232.8854 232.8854
   235.0934 235.0934 235.1754 235.4029 236.2836 236.2836 237.5631 237.5631
   238.0356 238.0356 240.8019 240.8019 241.4424 241.4424 241.8052 241.8389
   242.3795 242.3795 243.4694 243.9671 243.9671 244.4065 244.5874 244.7537
   245.1759 245.1759 245.7788 245.7788 246.5401 247.8016 247.8016 247.8332
   247.8857 247.8994 247.8994 248.5476 248.7475 248.7475 252.3741 252.3741
   252.8819 252.8819 253.2068 255.8548 255.8548 256.1935 256.2177 256.2901
   256.2901 256.2945 256.2945 256.4777 256.6205 256.6205 256.7298 256.8350
   261.9944 261.9944 262.6670 263.6243 263.6243 263.7629 264.5204 264.6141

     occupation numbers 
     1.0000   1.0000   1.0000   1.0000   0.0000   0.0000   0.0000   0.0000
     0.0000   0.0000   0.0000   0.0000   0.0000   0.0000   0.0000   0.0000
     0.0000   0.0000   0.0000   0.0000   0.0000   0.0000   0.0000   0.0000
     0.0000   0.0000   0.0000   0.0000   0.0000   0.0000   0.0000   0.0000
     0.0000   0.0000   0.0000   0.0000   0.0000   0.0000   0.0000   0.0000
     0.0000   0.0000   0.0000   0.0000   0.0000   0.0000   0.0000   0.0000
     0.0000   0.0000   0.0000   0.0000   0.0000   0.0000   0.0000   0.0000
     0.0000   0.0000   0.0000   0.0000   0.0000   0.0000   0.0000   0.0000
     0.0000   0.0000   0.0000   0.0000   0.0000   0.0000   0.0000   0.0000
     0.0000   0.0000   0.0000   0.0000   0.0000   0.0000   0.0000   0.0000
     0.0000   0.0000   0.0000   0.0000   0.0000   0.0000   0.0000   0.0000
     0.0000   0.0000   0.0000   0.0000   0.0000   0.0000   0.0000   0.0000
     0.0000   0.0000   0.0000   0.0000   0.0000   0.0000   0.0000   0.0000
     0.0000   0.0000   0.0000   0.0000   0.0000   0.0000   0.0000   0.0000
     0.0000   0.0000   0.0000   0.0000   0.0000   0.0000   0.0000   0.0000
     0.0000   0.0000   0.0000   0.0000   0.0000   0.0000   0.0000   0.0000
     0.0000   0.0000   0.0000   0.0000   0.0000   0.0000   0.0000   0.0000
     0.0000   0.0000   0.0000   0.0000   0.0000   0.0000   0.0000   0.0000
     0.0000   0.0000   0.0000   0.0000   0.0000   0.0000   0.0000   0.0000
     0.0000   0.0000   0.0000   0.0000   0.0000   0.0000   0.0000   0.0000
     0.0000   0.0000   0.0000   0.0000   0.0000   0.0000   0.0000   0.0000
     0.0000   0.0000   0.0000   0.0000   0.0000   0.0000   0.0000   0.0000
     0.0000   0.0000   0.0000   0.0000   0.0000   0.0000   0.0000   0.0000
     0.0000   0.0000   0.0000   0.0000   0.0000   0.0000   0.0000   0.0000
     0.0000   0.0000   0.0000   0.0000   0.0000   0.0000   0.0000   0.0000
     0.0000   0.0000   0.0000   0.0000   0.0000   0.0000   0.0000   0.0000
     0.0000   0.0000   0.0000   0.0000   0.0000   0.0000   0.0000   0.0000
     0.0000   0.0000   0.0000   0.0000   0.0000   0.0000   0.0000   0.0000
     0.0000   0.0000   0.0000   0.0000   0.0000   0.0000   0.0000   0.0000
     0.0000   0.0000   0.0000   0.0000   0.0000   0.0000   0.0000   0.0000
     0.0000   0.0000   0.0000   0.0000   0.0000   0.0000   0.0000   0.0000
     0.0000   0.0000   0.0000   0.0000   0.0000   0.0000   0.0000   0.0000
     0.0000   0.0000   0.0000   0.0000   0.0000   0.0000   0.0000   0.0000
     0.0000   0.0000   0.0000   0.0000   0.0000   0.0000   0.0000   0.0000
     0.0000   0.0000   0.0000   0.0000   0.0000   0.0000   0.0000   0.0000
     0.0000   0.0000   0.0000   0.0000   0.0000   0.0000   0.0000   0.0000
     0.0000   0.0000   0.0000   0.0000   0.0000   0.0000   0.0000   0.0000
     0.0000   0.0000   0.0000   0.0000   0.0000   0.0000   0.0000   0.0000
     0.0000   0.0000   0.0000   0.0000   0.0000   0.0000   0.0000   0.0000
     0.0000   0.0000   0.0000   0.0000   0.0000   0.0000   0.0000   0.0000
     0.0000   0.0000   0.0000   0.0000   0.0000   0.0000   0.0000   0.0000
     0.0000   0.0000   0.0000   0.0000   0.0000   0.0000   0.0000   0.0000
     0.0000   0.0000   0.0000   0.0000   0.0000   0.0000   0.0000   0.0000
     0.0000   0.0000   0.0000   0.0000   0.0000   0.0000   0.0000   0.0000
     0.0000   0.0000   0.0000   0.0000   0.0000   0.0000   0.0000   0.0000
     0.0000   0.0000   0.0000   0.0000   0.0000   0.0000   0.0000   0.0000
     0.0000   0.0000   0.0000   0.0000   0.0000   0.0000   0.0000   0.0000
     0.0000   0.0000   0.0000   0.0000   0.0000   0.0000   0.0000   0.0000
     0.0000   0.0000   0.0000   0.0000   0.0000   0.0000   0.0000   0.0000
     0.0000   0.0000   0.0000   0.0000   0.0000   0.0000   0.0000   0.0000

          k = 0.0000 0.1768 0.0000 (  2722 PWs)   bands (ev):

    -5.3701   5.1609   5.6477   5.6477   8.4811  10.2126  10.2126  11.0556
    13.0250  14.5263  15.6372  18.2908  18.2908  18.7885  23.8788  27.3191
    27.3191  28.4944  29.4332  30.1324  33.2857  33.7636  33.7636  38.1432
    38.1432  38.6058  39.8653  39.8653  39.9090  42.2079  44.1220  44.7087
    46.8646  47.2608  47.6150  47.6150  49.0029  49.3985  49.3985  50.7477
    50.7477  52.1138  53.3701  53.7357  54.6956  54.6956  54.8316  55.4443
    55.4443  55.7839  55.8776  58.4324  58.7523  58.7523  62.4360  63.9629
    63.9629  66.5950  67.0224  67.3362  73.0275  74.0561  74.0561  74.6290
    76.1155  77.2974  77.4233  77.4233  77.4490  78.4207  78.7875  78.7875
    84.0527  85.9046  86.2397  87.1956  87.1956  87.8219  88.3133  88.8260
    88.8260  89.8550  89.8550  91.6078  92.6329  93.8410  93.8410  94.3777
    94.5022  95.1619  95.1619  95.4760  97.5596  97.6023  97.6023  98.4578
    98.4578  98.7040  98.8364  98.9204 100.8959 102.1097 102.1097 102.4205
   103.5068 103.9908 105.0079 105.0079 105.6399 105.6399 105.9418 105.9809
   106.0902 106.9217 109.2791 109.2791 110.1985 111.5784 111.5784 111.6989
   112.8760 112.8760 113.7082 115.6922 115.8568 118.6286 119.2327 119.2801
   120.0046 120.0046 120.5797 122.5753 122.5753 123.2205 123.6226 123.6226
   123.8087 125.1502 125.3122 125.3122 126.3430 126.8970 126.8970 128.4441
   128.7441 129.1760 129.3424 131.7878 131.7878 133.1960 133.1960 134.0679
   134.5662 136.1387 136.4391 136.4391 136.5696 136.9716 136.9716 136.9998
   139.5166 139.6871 139.6871 140.0840 142.6201 142.7415 142.7415 142.9915
   146.2077 146.9907 148.0615 148.0615 148.5086 149.3548 150.1989 150.1989
   150.2096 153.5438 155.4320 155.5111 157.0968 157.0968 159.9229 160.1565
   160.1565 160.8699 162.7457 162.7457 163.2242 163.2242 163.4440 163.5111
   164.1074 165.1569 165.4565 165.7247 165.7247 167.2507 167.5603 168.6814
   168.9638 168.9638 170.0462 170.6289 170.7388 170.7388 171.3026 171.5520
   172.2044 172.6594 172.9787 172.9787 173.1044 173.3529 173.5327 173.5327
   174.0345 175.0924 175.0924 175.8706 176.4600 176.4600 176.6666 177.4705
   177.5026 177.5026 178.6643 178.6643 179.0213 179.5360 179.7826 180.0884
   180.1220 181.0133 181.0133 181.5535 182.4581 182.4581 182.6083 183.3459
   184.1437 184.3025 184.3025 184.9947 184.9947 185.2082 186.6059 186.6059
   187.0318 187.9513 188.2233 188.2233 188.2517 188.4481 189.3269 190.9512
   190.9512 191.6465 192.2258 193.2927 193.9001 194.0427 194.0427 194.4840
   194.7249 195.3782 195.3782 195.7413 196.5106 196.5106 198.9514 199.4000
   199.7993 200.0045 200.9808 200.9808 201.2648 201.5496 201.5496 202.1356
   203.6063 203.6951 203.6951 203.8618 206.6897 206.6897 206.7722 207.0407
   207.5151 207.5151 207.6665 208.1488 208.2491 208.2491 208.5264 210.5775
   213.1344 213.1344 213.2228 213.5711 214.4022 216.6000 216.6000 216.7589
   217.4921 217.4921 217.7414 217.7629 217.7629 218.2663 219.3595 219.7178
   221.1987 221.1987 221.7176 222.4211 225.3889 225.3889 226.4193 227.7927
   227.7927 228.1925 228.3806 228.5651 229.2795 229.2795 229.4304 230.0203
   230.1932 230.1932 231.6500 233.1268 233.2505 233.2505 234.4735 234.7360
   237.0081 237.4283 237.4283 237.8773 238.6990 238.7433 238.9243 238.9243
   241.4559 241.4559 241.9029 242.6181 244.2060 247.1823 247.9838 248.3633
   248.8302 248.8302 249.4763 249.6327 249.6327 249.6571 250.3082 250.3926
   250.3926 252.2665 252.6899 252.7797 252.7797 253.8488 253.8488 254.1697
   254.6881 254.6881 255.0560 255.1284 255.1897 255.7466 255.7466 257.7721
   257.7721 258.9474 258.9578 258.9578 259.2648 259.5295 260.0356 260.6485
   260.6485 261.2740 261.2740 261.9649 261.9958 262.2865 262.9035 263.5030
   263.6411 263.6810 263.6810 265.1949 266.0047 266.1426 266.1426 266.4823

     occupation numbers 
     1.0000   1.0000   1.0000   1.0000   0.0000   0.0000   0.0000   0.0000
     0.0000   0.0000   0.0000   0.0000   0.0000   0.0000   0.0000   0.0000
     0.0000   0.0000   0.0000   0.0000   0.0000   0.0000   0.0000   0.0000
     0.0000   0.0000   0.0000   0.0000   0.0000   0.0000   0.0000   0.0000
     0.0000   0.0000   0.0000   0.0000   0.0000   0.0000   0.0000   0.0000
     0.0000   0.0000   0.0000   0.0000   0.0000   0.0000   0.0000   0.0000
     0.0000   0.0000   0.0000   0.0000   0.0000   0.0000   0.0000   0.0000
     0.0000   0.0000   0.0000   0.0000   0.0000   0.0000   0.0000   0.0000
     0.0000   0.0000   0.0000   0.0000   0.0000   0.0000   0.0000   0.0000
     0.0000   0.0000   0.0000   0.0000   0.0000   0.0000   0.0000   0.0000
     0.0000   0.0000   0.0000   0.0000   0.0000   0.0000   0.0000   0.0000
     0.0000   0.0000   0.0000   0.0000   0.0000   0.0000   0.0000   0.0000
     0.0000   0.0000   0.0000   0.0000   0.0000   0.0000   0.0000   0.0000
     0.0000   0.0000   0.0000   0.0000   0.0000   0.0000   0.0000   0.0000
     0.0000   0.0000   0.0000   0.0000   0.0000   0.0000   0.0000   0.0000
     0.0000   0.0000   0.0000   0.0000   0.0000   0.0000   0.0000   0.0000
     0.0000   0.0000   0.0000   0.0000   0.0000   0.0000   0.0000   0.0000
     0.0000   0.0000   0.0000   0.0000   0.0000   0.0000   0.0000   0.0000
     0.0000   0.0000   0.0000   0.0000   0.0000   0.0000   0.0000   0.0000
     0.0000   0.0000   0.0000   0.0000   0.0000   0.0000   0.0000   0.0000
     0.0000   0.0000   0.0000   0.0000   0.0000   0.0000   0.0000   0.0000
     0.0000   0.0000   0.0000   0.0000   0.0000   0.0000   0.0000   0.0000
     0.0000   0.0000   0.0000   0.0000   0.0000   0.0000   0.0000   0.0000
     0.0000   0.0000   0.0000   0.0000   0.0000   0.0000   0.0000   0.0000
     0.0000   0.0000   0.0000   0.0000   0.0000   0.0000   0.0000   0.0000
     0.0000   0.0000   0.0000   0.0000   0.0000   0.0000   0.0000   0.0000
     0.0000   0.0000   0.0000   0.0000   0.0000   0.0000   0.0000   0.0000
     0.0000   0.0000   0.0000   0.0000   0.0000   0.0000   0.0000   0.0000
     0.0000   0.0000   0.0000   0.0000   0.0000   0.0000   0.0000   0.0000
     0.0000   0.0000   0.0000   0.0000   0.0000   0.0000   0.0000   0.0000
     0.0000   0.0000   0.0000   0.0000   0.0000   0.0000   0.0000   0.0000
     0.0000   0.0000   0.0000   0.0000   0.0000   0.0000   0.0000   0.0000
     0.0000   0.0000   0.0000   0.0000   0.0000   0.0000   0.0000   0.0000
     0.0000   0.0000   0.0000   0.0000   0.0000   0.0000   0.0000   0.0000
     0.0000   0.0000   0.0000   0.0000   0.0000   0.0000   0.0000   0.0000
     0.0000   0.0000   0.0000   0.0000   0.0000   0.0000   0.0000   0.0000
     0.0000   0.0000   0.0000   0.0000   0.0000   0.0000   0.0000   0.0000
     0.0000   0.0000   0.0000   0.0000   0.0000   0.0000   0.0000   0.0000
     0.0000   0.0000   0.0000   0.0000   0.0000   0.0000   0.0000   0.0000
     0.0000   0.0000   0.0000   0.0000   0.0000   0.0000   0.0000   0.0000
     0.0000   0.0000   0.0000   0.0000   0.0000   0.0000   0.0000   0.0000
     0.0000   0.0000   0.0000   0.0000   0.0000   0.0000   0.0000   0.0000
     0.0000   0.0000   0.0000   0.0000   0.0000   0.0000   0.0000   0.0000
     0.0000   0.0000   0.0000   0.0000   0.0000   0.0000   0.0000   0.0000
     0.0000   0.0000   0.0000   0.0000   0.0000   0.0000   0.0000   0.0000
     0.0000   0.0000   0.0000   0.0000   0.0000   0.0000   0.0000   0.0000
     0.0000   0.0000   0.0000   0.0000   0.0000   0.0000   0.0000   0.0000
     0.0000   0.0000   0.0000   0.0000   0.0000   0.0000   0.0000   0.0000
     0.0000   0.0000   0.0000   0.0000   0.0000   0.0000   0.0000   0.0000
     0.0000   0.0000   0.0000   0.0000   0.0000   0.0000   0.0000   0.0000

          k =-0.0884 0.2652-0.0884 (  2725 PWs)   bands (ev):

    -4.8920   3.2291   5.1254   5.2156   8.6255  10.2686  10.9870  11.2397
    14.1481  14.6988  16.6137  18.1845  19.7295  21.0159  24.2774  24.8103
    25.9509  28.2513  28.3396  29.7765  33.0222  34.1290  35.0009  36.6734
    38.2540  38.6809  38.9303  39.8015  40.3079  41.0253  42.6065  42.8494
    45.3461  45.8519  47.1176  47.3484  47.7072  49.2231  50.4313  50.7609
    51.6926  52.0566  52.3442  52.8544  54.5180  55.1391  56.2208  56.5747
    57.6682  58.1388  60.1970  60.6564  62.3449  63.0154  63.6337  64.5879
    66.5177  67.0628  68.8509  69.9401  70.3951  71.1937  71.2393  72.9442
    73.6083  74.7802  75.5972  75.8440  76.9487  78.2738  80.4970  81.2492
    82.3651  82.7849  83.4031  84.8092  85.4634  86.3489  87.2877  87.3274
    88.1788  88.6971  89.8488  89.9149  91.3135  91.4206  92.3064  93.2213
    94.7127  94.7650  95.6775  96.9540  97.1865  97.5701  97.8684  98.2392
    98.8506 100.3991 100.4219 100.7694 101.6139 101.9589 102.1841 103.6818
   103.9912 104.4045 104.8497 105.4813 105.7985 106.6644 106.7766 107.1702
   108.8958 109.0004 110.3782 110.7773 112.2941 112.5536 112.7469 113.3492
   114.0164 114.2629 115.1171 116.0326 116.4168 116.9499 117.4067 117.8277
   118.6442 119.2598 119.9913 120.0619 120.9288 121.6224 121.7789 122.9836
   123.2129 123.9546 124.9192 126.5778 127.0366 127.3089 127.3952 130.0286
   130.3033 131.3451 131.8476 132.2383 132.2996 132.6650 133.5708 135.0646
   135.3608 135.4102 136.0820 136.9003 137.7995 137.8745 138.3063 138.8148
   140.0628 142.4019 142.9940 143.1087 144.3127 144.5884 145.5888 145.6955
   146.2621 147.6856 148.4984 148.6860 149.2700 150.1660 150.3755 152.5446
   153.2564 153.5335 154.4940 154.5542 154.9207 155.2854 156.4236 156.7970
   157.1542 157.6096 157.7161 157.9035 158.7592 160.0480 160.0752 160.7209
   161.6688 161.7407 162.2878 162.4162 163.1815 164.6502 164.9479 165.2697
   165.6464 166.4482 166.9156 167.0859 167.4504 168.3374 168.4690 170.4830
   170.6370 171.1931 171.3450 171.4785 171.8723 172.4693 173.4791 173.7656
   174.3390 174.4904 175.1510 176.3407 176.3531 176.4951 177.0707 177.1104
   177.3245 178.0725 178.8948 178.9166 179.5303 180.0910 180.2806 181.0419
   182.1088 182.2270 182.7891 182.9014 183.1459 184.2110 184.6358 184.6950
   185.7568 186.4436 187.4468 187.9302 188.0789 188.6618 189.1112 189.1352
   189.4971 190.2149 190.2542 190.7001 190.9059 191.5573 192.1031 192.5369
   193.0556 193.5002 193.7862 194.1520 195.1435 195.1461 195.2975 195.8106
   195.8607 196.3268 196.5324 196.6390 197.4761 198.2034 198.3467 198.5425
   199.2774 199.9902 200.6177 201.1481 201.5637 201.7993 201.9321 202.4273
   202.4672 203.3086 203.5079 204.0639 204.7389 204.9870 205.6719 206.1167
   206.5169 207.0490 207.2748 209.3125 209.8454 209.9524 210.2752 211.0846
   211.8742 211.9673 214.8234 215.3866 215.9350 216.2656 217.2811 217.5090
   217.9283 219.0503 219.2814 219.9737 221.2909 222.0485 222.1656 222.8011
   223.7373 224.0246 224.1039 224.7526 225.1217 225.1229 226.7425 226.8642
   226.9181 227.2151 228.2478 228.2992 229.0151 229.0793 229.2813 230.2520
   231.9613 232.6136 233.2061 233.3542 234.2699 234.3549 234.4188 234.9745
   235.8880 236.8027 236.8614 237.1139 237.3373 238.6862 239.0713 239.5148
   239.9524 240.7542 241.3745 241.7613 242.0100 242.3257 243.1222 243.2996
   244.3759 244.4431 245.0589 245.3838 245.5553 246.4706 247.2237 248.4844
   248.8355 248.8970 250.0992 250.3477 250.4008 250.8955 251.9184 252.2809
   252.6711 252.7175 253.4560 253.8860 254.5805 255.0891 255.6657 255.9622
   256.1303 256.4418 257.1403 257.6775 259.0654 259.1036 259.5726 259.7817
   260.3267 260.6525 260.9991 261.0239 261.3795 262.1308 262.2680 262.6759
   263.0844 263.6318 263.7058 264.1913 264.4252 266.0633 266.3687 266.8995

     occupation numbers 
     1.0000   1.0000   1.0000   1.0000   0.0000   0.0000   0.0000   0.0000
     0.0000   0.0000   0.0000   0.0000   0.0000   0.0000   0.0000   0.0000
     0.0000   0.0000   0.0000   0.0000   0.0000   0.0000   0.0000   0.0000
     0.0000   0.0000   0.0000   0.0000   0.0000   0.0000   0.0000   0.0000
     0.0000   0.0000   0.0000   0.0000   0.0000   0.0000   0.0000   0.0000
     0.0000   0.0000   0.0000   0.0000   0.0000   0.0000   0.0000   0.0000
     0.0000   0.0000   0.0000   0.0000   0.0000   0.0000   0.0000   0.0000
     0.0000   0.0000   0.0000   0.0000   0.0000   0.0000   0.0000   0.0000
     0.0000   0.0000   0.0000   0.0000   0.0000   0.0000   0.0000   0.0000
     0.0000   0.0000   0.0000   0.0000   0.0000   0.0000   0.0000   0.0000
     0.0000   0.0000   0.0000   0.0000   0.0000   0.0000   0.0000   0.0000
     0.0000   0.0000   0.0000   0.0000   0.0000   0.0000   0.0000   0.0000
     0.0000   0.0000   0.0000   0.0000   0.0000   0.0000   0.0000   0.0000
     0.0000   0.0000   0.0000   0.0000   0.0000   0.0000   0.0000   0.0000
     0.0000   0.0000   0.0000   0.0000   0.0000   0.0000   0.0000   0.0000
     0.0000   0.0000   0.0000   0.0000   0.0000   0.0000   0.0000   0.0000
     0.0000   0.0000   0.0000   0.0000   0.0000   0.0000   0.0000   0.0000
     0.0000   0.0000   0.0000   0.0000   0.0000   0.0000   0.0000   0.0000
     0.0000   0.0000   0.0000   0.0000   0.0000   0.0000   0.0000   0.0000
     0.0000   0.0000   0.0000   0.0000   0.0000   0.0000   0.0000   0.0000
     0.0000   0.0000   0.0000   0.0000   0.0000   0.0000   0.0000   0.0000
     0.0000   0.0000   0.0000   0.0000   0.0000   0.0000   0.0000   0.0000
     0.0000   0.0000   0.0000   0.0000   0.0000   0.0000   0.0000   0.0000
     0.0000   0.0000   0.0000   0.0000   0.0000   0.0000   0.0000   0.0000
     0.0000   0.0000   0.0000   0.0000   0.0000   0.0000   0.0000   0.0000
     0.0000   0.0000   0.0000   0.0000   0.0000   0.0000   0.0000   0.0000
     0.0000   0.0000   0.0000   0.0000   0.0000   0.0000   0.0000   0.0000
     0.0000   0.0000   0.0000   0.0000   0.0000   0.0000   0.0000   0.0000
     0.0000   0.0000   0.0000   0.0000   0.0000   0.0000   0.0000   0.0000
     0.0000   0.0000   0.0000   0.0000   0.0000   0.0000   0.0000   0.0000
     0.0000   0.0000   0.0000   0.0000   0.0000   0.0000   0.0000   0.0000
     0.0000   0.0000   0.0000   0.0000   0.0000   0.0000   0.0000   0.0000
     0.0000   0.0000   0.0000   0.0000   0.0000   0.0000   0.0000   0.0000
     0.0000   0.0000   0.0000   0.0000   0.0000   0.0000   0.0000   0.0000
     0.0000   0.0000   0.0000   0.0000   0.0000   0.0000   0.0000   0.0000
     0.0000   0.0000   0.0000   0.0000   0.0000   0.0000   0.0000   0.0000
     0.0000   0.0000   0.0000   0.0000   0.0000   0.0000   0.0000   0.0000
     0.0000   0.0000   0.0000   0.0000   0.0000   0.0000   0.0000   0.0000
     0.0000   0.0000   0.0000   0.0000   0.0000   0.0000   0.0000   0.0000
     0.0000   0.0000   0.0000   0.0000   0.0000   0.0000   0.0000   0.0000
     0.0000   0.0000   0.0000   0.0000   0.0000   0.0000   0.0000   0.0000
     0.0000   0.0000   0.0000   0.0000   0.0000   0.0000   0.0000   0.0000
     0.0000   0.0000   0.0000   0.0000   0.0000   0.0000   0.0000   0.0000
     0.0000   0.0000   0.0000   0.0000   0.0000   0.0000   0.0000   0.0000
     0.0000   0.0000   0.0000   0.0000   0.0000   0.0000   0.0000   0.0000
     0.0000   0.0000   0.0000   0.0000   0.0000   0.0000   0.0000   0.0000
     0.0000   0.0000   0.0000   0.0000   0.0000   0.0000   0.0000   0.0000
     0.0000   0.0000   0.0000   0.0000   0.0000   0.0000   0.0000   0.0000
     0.0000   0.0000   0.0000   0.0000   0.0000   0.0000   0.0000   0.0000
     0.0000   0.0000   0.0000   0.0000   0.0000   0.0000   0.0000   0.0000

          k =-0.1768 0.3536-0.1768 (  2718 PWs)   bands (ev):

    -4.0591   1.1260   4.6146   4.8538   8.7398  10.1704  10.9642  11.9777
    15.8620  15.9083  16.6231  20.0203  20.1439  21.8483  23.3303  24.3505
    25.3170  28.5730  29.3328  30.3429  31.5600  32.3027  34.3457  35.9082
    37.0484  37.1450  37.2819  38.5796  39.6746  40.0472  41.6985  43.2954
    44.6337  44.9194  46.0201  46.6227  49.3601  49.5188  49.7980  51.1184
    52.3970  52.6826  53.5687  54.0554  55.9931  56.6611  56.7989  59.0764
    59.1488  61.2639  63.0788  63.2719  64.2025  64.8421  66.3878  66.7154
    67.5100  67.9195  68.0673  69.3478  69.6539  70.1849  70.7583  72.0726
    72.5536  73.5709  73.7297  74.5832  75.0118  77.1063  78.8139  79.8686
    79.9950  81.5852  81.8619  82.6513  83.5183  84.6494  86.0857  86.5873
    87.7547  88.0712  88.3173  88.6056  90.0902  91.0284  91.6121  92.3040
    93.3794  93.7807  94.8001  95.9026  96.7435  97.8966  98.3231  98.7548
   100.1145 100.4212 100.5163 100.5963 101.7599 102.5965 102.8622 104.0223
   104.2846 104.9919 105.5094 106.0000 106.6553 107.7205 107.9541 108.9396
   109.1274 110.1419 111.2296 111.6038 112.3862 112.5463 113.8398 114.4310
   115.0981 115.3013 115.9446 116.2811 116.4242 116.7552 118.7284 119.5704
   119.8388 120.9563 121.0281 121.3670 121.4307 121.9651 122.9179 123.1361
   123.7419 123.7572 125.4639 125.7040 126.4578 127.5866 127.8192 129.1041
   129.7089 130.5212 131.9445 132.9243 133.6425 133.7948 134.1115 135.2674
   135.9362 136.9233 137.6139 138.5595 139.6126 139.8722 141.0555 141.1535
   141.9793 142.7505 143.5287 143.6357 144.3437 144.5369 145.9212 146.8128
   147.0600 147.5663 147.8535 148.2278 149.1867 149.5800 149.6998 150.7196
   151.0903 151.4821 151.7490 152.7920 153.6450 153.7683 154.1570 155.0249
   155.4245 155.4327 156.6067 157.2181 157.4769 157.7110 158.1365 159.0362
   159.9173 160.8993 160.9101 161.4768 162.2383 162.6315 163.1760 164.1720
   164.2217 165.2036 165.4895 165.5683 165.8530 166.4479 168.0023 168.0108
   168.9989 169.7647 170.8443 171.1102 171.7626 171.9518 172.2093 173.1734
   173.6299 173.8850 174.2470 174.6638 174.8895 175.5029 176.0674 176.8633
   177.8360 177.9200 178.3454 178.5021 178.7233 179.4274 180.1510 180.4509
   180.8084 181.1034 182.3037 182.4473 182.5506 182.9095 183.1963 184.4403
   185.0078 186.2502 186.8430 187.6771 187.7204 188.8124 188.8958 189.8748
   190.8971 191.2447 191.5710 192.2436 192.7925 192.9735 193.1604 193.7622
   194.2302 194.3378 194.9484 195.0076 195.9755 196.2698 196.6346 196.8095
   197.6130 197.9867 198.2455 198.3736 198.9300 200.0420 200.2391 200.9633
   201.1852 202.6091 202.7117 203.3604 203.9475 204.1471 204.7908 205.3326
   205.4415 206.6210 206.8621 207.2521 207.4359 207.9509 208.4423 209.3191
   210.3342 210.7751 210.9644 211.6269 212.4636 212.7450 213.0056 213.4224
   213.8916 214.6174 214.9523 216.1978 216.5740 217.5603 217.7366 218.0569
   218.8699 219.4499 220.6104 221.0528 221.4489 221.5855 222.1679 222.4140
   222.4442 223.3584 223.3613 223.8279 224.3315 225.5737 225.6801 226.4127
   226.8812 227.1086 227.9064 228.4775 228.8668 229.0763 229.4752 229.7632
   229.8611 231.0964 231.3876 232.6503 232.8297 233.2165 233.7957 233.8331
   234.8225 235.3572 235.6234 236.1551 237.1191 237.6426 238.9054 239.1181
   239.1865 239.2992 240.5949 240.7140 241.7848 241.8241 242.2006 242.7894
   243.0176 243.5897 243.8822 244.1629 244.2086 244.6966 244.9512 245.1227
   245.5432 246.5559 246.8678 247.4596 248.5681 248.6362 248.9563 249.1120
   249.1723 249.6229 249.7890 251.1501 251.7730 252.4098 253.4141 253.5505
   253.7201 254.9928 255.5722 256.2653 256.6391 256.8856 256.9492 257.6653
   257.8116 258.1980 258.9835 259.3038 259.5578 260.2547 260.8015 260.9627
   261.8907 262.0371 262.6333 263.0676 263.7245 264.0674 264.2892 264.4223

     occupation numbers 
     1.0000   1.0000   1.0000   1.0000   0.0000   0.0000   0.0000   0.0000
     0.0000   0.0000   0.0000   0.0000   0.0000   0.0000   0.0000   0.0000
[...]
     0.0000   0.0000   0.0000   0.0000   0.0000   0.0000   0.0000   0.0000
     0.0000   0.0000   0.0000   0.0000   0.0000   0.0000   0.0000   0.0000
     0.0000   0.0000   0.0000   0.0000   0.0000   0.0000   0.0000   0.0000
     0.0000   0.0000   0.0000   0.0000   0.0000   0.0000   0.0000   0.0000
     0.0000   0.0000   0.0000   0.0000   0.0000   0.0000   0.0000   0.0000
     0.0000   0.0000   0.0000   0.0000   0.0000   0.0000   0.0000   0.0000
     0.0000   0.0000   0.0000   0.0000   0.0000   0.0000   0.0000   0.0000
     0.0000   0.0000   0.0000   0.0000   0.0000   0.0000   0.0000   0.0000
     0.0000   0.0000   0.0000   0.0000   0.0000   0.0000   0.0000   0.0000
     0.0000   0.0000   0.0000   0.0000   0.0000   0.0000   0.0000   0.0000
     0.0000   0.0000   0.0000   0.0000   0.0000   0.0000   0.0000   0.0000
     0.0000   0.0000   0.0000   0.0000   0.0000   0.0000   0.0000   0.0000
     0.0000   0.0000   0.0000   0.0000   0.0000   0.0000   0.0000   0.0000
     0.0000   0.0000   0.0000   0.0000   0.0000   0.0000   0.0000   0.0000
     0.0000   0.0000   0.0000   0.0000   0.0000   0.0000   0.0000   0.0000
     0.0000   0.0000   0.0000   0.0000   0.0000   0.0000   0.0000   0.0000
     0.0000   0.0000   0.0000   0.0000   0.0000   0.0000   0.0000   0.0000
     0.0000   0.0000   0.0000   0.0000   0.0000   0.0000   0.0000   0.0000
     0.0000   0.0000   0.0000   0.0000   0.0000   0.0000   0.0000   0.0000
     0.0000   0.0000   0.0000   0.0000   0.0000   0.0000   0.0000   0.0000
     0.0000   0.0000   0.0000   0.0000   0.0000   0.0000   0.0000   0.0000
     0.0000   0.0000   0.0000   0.0000   0.0000   0.0000   0.0000   0.0000
     0.0000   0.0000   0.0000   0.0000   0.0000   0.0000   0.0000   0.0000

          k =-0.1768-0.7071-0.0000 (  2722 PWs)   bands (ev):

    -1.3379  -1.3379   2.9746   2.9746   8.4298   8.4298  14.4238  14.4238
    17.1864  17.1864  19.5338  19.5338  22.2867  22.2867  24.0313  24.0313
    25.7901  25.7901  28.4265  28.4265  29.8449  29.8449  30.8117  30.8117
    37.1863  37.1863  38.9299  38.9299  39.3198  39.3198  43.2577  43.2577
    45.0637  45.0637  47.0849  47.0849  48.8144  48.8144  49.7771  49.7771
    54.2453  54.2453  54.8823  54.8823  58.0250  58.0250  59.1891  59.1891
    62.0469  62.0469  62.9310  62.9310  64.6756  64.6756  66.1368  66.1368
    66.8656  66.8656  69.7510  69.7510  71.7594  71.7594  73.2555  73.2555
    73.4367  73.4367  75.1584  75.1584  75.9176  75.9176  78.5658  78.5658
    79.7104  79.7104  82.7041  82.7041  83.5653  83.5653  86.0304  86.0304
    86.5533  86.5533  87.0132  87.0132  88.7454  88.7454  89.2824  89.2824
    92.2169  92.2169  92.5270  92.5270  93.6594  93.6594  94.2190  94.2190
    95.4572  95.4572  99.5532  99.5532 100.7848 100.7848 103.6363 103.6363
   104.9048 104.9048 106.1540 106.1540 106.9852 106.9852 109.8038 109.8038
   111.3054 111.3054 111.8180 111.8180 114.5366 114.5366 116.7279 116.7279
   117.1945 117.1945 118.9229 118.9229 120.2456 120.2456 122.3839 122.3839
   123.2139 123.2139 125.1566 125.1566 125.3414 125.3414 126.1997 126.1997
   127.0998 127.0998 128.5969 128.5969 130.3028 130.3028 130.9171 130.9171
   131.8874 131.8874 132.9031 132.9031 135.1854 135.1854 135.7762 135.7762
   136.2481 136.2481 137.9503 137.9503 138.9269 138.9269 139.1689 139.1689
   140.1420 140.1420 141.2162 141.2162 142.0583 142.0583 144.4824 144.4824
   144.9368 144.9368 146.8247 146.8247 147.6558 147.6558 147.9747 147.9747
   148.5566 148.5566 149.0397 149.0397 151.2484 151.2484 152.7550 152.7550
   153.2512 153.2512 154.4675 154.4675 154.9512 154.9512 155.9298 155.9298
   158.1534 158.1534 159.3544 159.3544 160.9942 160.9942 161.5336 161.5336
   163.1349 163.1349 163.6927 163.6927 164.3096 164.3096 166.2275 166.2275
   167.2537 167.2537 167.5518 167.5518 168.4404 168.4404 171.1018 171.1018
   174.1104 174.1104 175.4109 175.4109 176.4007 176.4007 177.4278 177.4278
   178.0533 178.0533 179.9348 179.9348 180.8742 180.8742 182.7630 182.7630
   183.9813 183.9813 184.9542 184.9542 185.2823 185.2823 185.7565 185.7565
   187.8029 187.8029 189.2432 189.2432 189.9636 189.9636 190.9195 190.9195
   192.0582 192.0582 192.8614 192.8614 193.5684 193.5684 194.4375 194.4375
   195.6800 195.6800 196.2149 196.2149 197.3384 197.3384 198.3870 198.3870
   199.5868 199.5868 200.5317 200.5317 200.8352 200.8352 201.1981 201.1981
   201.6731 201.6731 202.3061 202.3061 205.6187 205.6187 207.0477 207.0477
   207.6424 207.6424 209.7689 209.7689 210.4590 210.4590 211.4553 211.4553
   211.9810 211.9810 213.0049 213.0049 213.1141 213.1141 214.0886 214.0886
   215.1217 215.1217 215.8336 215.8336 218.1566 218.1566 219.3381 219.3381
   220.1408 220.1408 220.7256 220.7256 221.9295 221.9295 222.5389 222.5389
   224.0137 224.0137 224.8875 224.8875 225.7380 225.7380 226.2282 226.2282
   227.0708 227.0708 227.8651 227.8651 228.2128 228.2128 228.7129 228.7129
   230.3086 230.3086 230.4412 230.4412 232.5112 232.5112 233.2872 233.2872
   233.9594 233.9594 234.4498 234.4498 235.4590 235.4590 235.7478 235.7478
   236.2041 236.2041 237.1826 237.1826 239.5171 239.5171 240.0916 240.0916
   241.0987 241.0987 242.1272 242.1272 242.8545 242.8545 244.5828 244.5828
   245.4944 245.4944 246.5693 246.5693 246.8814 246.8814 248.0906 248.0906
   248.6530 248.6530 249.7818 249.7818 251.1152 251.1152 253.0322 253.0322
   254.1415 254.1415 254.9571 254.9571 255.6808 255.6808 256.2161 256.2161
   256.4435 256.4435 256.8954 256.8954 257.6390 257.6390 259.9847 259.9847
   260.3995 260.3995 261.3294 261.3294 261.7307 261.7307 262.5570 262.5570

     occupation numbers 
     1.0000   1.0000   1.0000   1.0000   0.0000   0.0000   0.0000   0.0000
     0.0000   0.0000   0.0000   0.0000   0.0000   0.0000   0.0000   0.0000
     0.0000   0.0000   0.0000   0.0000   0.0000   0.0000   0.0000   0.0000
     0.0000   0.0000   0.0000   0.0000   0.0000   0.0000   0.0000   0.0000
     0.0000   0.0000   0.0000   0.0000   0.0000   0.0000   0.0000   0.0000
     0.0000   0.0000   0.0000   0.0000   0.0000   0.0000   0.0000   0.0000
     0.0000   0.0000   0.0000   0.0000   0.0000   0.0000   0.0000   0.0000
     0.0000   0.0000   0.0000   0.0000   0.0000   0.0000   0.0000   0.0000
     0.0000   0.0000   0.0000   0.0000   0.0000   0.0000   0.0000   0.0000
     0.0000   0.0000   0.0000   0.0000   0.0000   0.0000   0.0000   0.0000
     0.0000   0.0000   0.0000   0.0000   0.0000   0.0000   0.0000   0.0000
     0.0000   0.0000   0.0000   0.0000   0.0000   0.0000   0.0000   0.0000
     0.0000   0.0000   0.0000   0.0000   0.0000   0.0000   0.0000   0.0000
     0.0000   0.0000   0.0000   0.0000   0.0000   0.0000   0.0000   0.0000
     0.0000   0.0000   0.0000   0.0000   0.0000   0.0000   0.0000   0.0000
     0.0000   0.0000   0.0000   0.0000   0.0000   0.0000   0.0000   0.0000
     0.0000   0.0000   0.0000   0.0000   0.0000   0.0000   0.0000   0.0000
     0.0000   0.0000   0.0000   0.0000   0.0000   0.0000   0.0000   0.0000
     0.0000   0.0000   0.0000   0.0000   0.0000   0.0000   0.0000   0.0000
     0.0000   0.0000   0.0000   0.0000   0.0000   0.0000   0.0000   0.0000
     0.0000   0.0000   0.0000   0.0000   0.0000   0.0000   0.0000   0.0000
     0.0000   0.0000   0.0000   0.0000   0.0000   0.0000   0.0000   0.0000
     0.0000   0.0000   0.0000   0.0000   0.0000   0.0000   0.0000   0.0000
     0.0000   0.0000   0.0000   0.0000   0.0000   0.0000   0.0000   0.0000
     0.0000   0.0000   0.0000   0.0000   0.0000   0.0000   0.0000   0.0000
     0.0000   0.0000   0.0000   0.0000   0.0000   0.0000   0.0000   0.0000
     0.0000   0.0000   0.0000   0.0000   0.0000   0.0000   0.0000   0.0000
     0.0000   0.0000   0.0000   0.0000   0.0000   0.0000   0.0000   0.0000
     0.0000   0.0000   0.0000   0.0000   0.0000   0.0000   0.0000   0.0000
     0.0000   0.0000   0.0000   0.0000   0.0000   0.0000   0.0000   0.0000
     0.0000   0.0000   0.0000   0.0000   0.0000   0.0000   0.0000   0.0000
     0.0000   0.0000   0.0000   0.0000   0.0000   0.0000   0.0000   0.0000
     0.0000   0.0000   0.0000   0.0000   0.0000   0.0000   0.0000   0.0000
     0.0000   0.0000   0.0000   0.0000   0.0000   0.0000   0.0000   0.0000
     0.0000   0.0000   0.0000   0.0000   0.0000   0.0000   0.0000   0.0000
     0.0000   0.0000   0.0000   0.0000   0.0000   0.0000   0.0000   0.0000
     0.0000   0.0000   0.0000   0.0000   0.0000   0.0000   0.0000   0.0000
     0.0000   0.0000   0.0000   0.0000   0.0000   0.0000   0.0000   0.0000
     0.0000   0.0000   0.0000   0.0000   0.0000   0.0000   0.0000   0.0000
     0.0000   0.0000   0.0000   0.0000   0.0000   0.0000   0.0000   0.0000
     0.0000   0.0000   0.0000   0.0000   0.0000   0.0000   0.0000   0.0000
     0.0000   0.0000   0.0000   0.0000   0.0000   0.0000   0.0000   0.0000
     0.0000   0.0000   0.0000   0.0000   0.0000   0.0000   0.0000   0.0000
     0.0000   0.0000   0.0000   0.0000   0.0000   0.0000   0.0000   0.0000
     0.0000   0.0000   0.0000   0.0000   0.0000   0.0000   0.0000   0.0000
     0.0000   0.0000   0.0000   0.0000   0.0000   0.0000   0.0000   0.0000
     0.0000   0.0000   0.0000   0.0000   0.0000   0.0000   0.0000   0.0000
     0.0000   0.0000   0.0000   0.0000   0.0000   0.0000   0.0000   0.0000
     0.0000   0.0000   0.0000   0.0000   0.0000   0.0000   0.0000   0.0000
     0.0000   0.0000   0.0000   0.0000   0.0000   0.0000   0.0000   0.0000

          k =-0.3536-0.7071 0.0000 (  2720 PWs)   bands (ev):

    -1.2462  -1.2462   2.5229   2.5229  10.7487  10.7487  11.5532  11.5532
    17.1945  17.1945  19.7053  19.7053  23.0816  23.0816  25.2954  25.2954
    25.6585  25.6585  26.5166  26.5166  30.4440  30.4440  34.2605  34.2605
    34.4863  34.4863  36.4116  36.4116  39.3631  39.3631  43.8158  43.8158
    44.9030  44.9030  47.0924  47.0924  50.1538  50.1538  51.2700  51.2700
    54.3161  54.3161  55.8397  55.8397  55.9135  55.9135  58.9310  58.9310
    62.6100  62.6100  63.4076  63.4076  64.1184  64.1184  66.5569  66.5569
    66.6252  66.6252  69.1469  69.1469  70.3576  70.3576  72.4759  72.4759
    73.5991  73.5991  74.9974  74.9974  76.3514  76.3514  79.6162  79.6162
    82.3806  82.3806  82.6818  82.6818  83.0854  83.0854  84.8129  84.8129
    85.4241  85.4241  87.9049  87.9049  88.5317  88.5317  89.6341  89.6341
    90.5188  90.5188  92.8188  92.8188  93.6576  93.6576  96.0363  96.0363
    96.9968  96.9968  98.2848  98.2848 100.4289 100.4289 102.1268 102.1268
   103.7855 103.7855 105.1606 105.1606 107.7105 107.7105 110.1577 110.1577
   110.7156 110.7156 114.5286 114.5286 115.3923 115.3923 116.8586 116.8586
   119.7603 119.7603 120.1247 120.1247 121.1455 121.1455 122.0552 122.0552
   123.2150 123.2150 124.1539 124.1539 124.9673 124.9673 125.4072 125.4072
   126.6912 126.6912 127.7605 127.7605 128.7727 128.7727 130.3549 130.3549
   132.0247 132.0247 132.5126 132.5126 133.3480 133.3480 134.9309 134.9309
   135.3219 135.3219 136.0178 136.0178 136.1465 136.1465 138.6276 138.6276
   142.0179 142.0179 142.3899 142.3899 143.5364 143.5364 145.1538 145.1538
   145.9475 145.9475 146.9478 146.9478 148.3899 148.3899 149.2085 149.2085
   149.8373 149.8373 150.3642 150.3642 151.0224 151.0224 151.5208 151.5208
   155.8880 155.8880 156.1195 156.1195 156.4612 156.4612 156.7445 156.7445
   156.7801 156.7801 157.4932 157.4932 159.3067 159.3067 159.7302 159.7302
   162.6063 162.6063 162.7484 162.7484 163.9911 163.9911 164.9826 164.9826
   168.3573 168.3573 170.2892 170.2892 172.5096 172.5096 174.0792 174.0792
   174.4734 174.4734 175.7205 175.7205 176.4462 176.4462 176.8437 176.8437
   177.4613 177.4613 178.5695 178.5695 180.9439 180.9439 182.0342 182.0342
   183.5058 183.5058 184.4945 184.4945 185.0609 185.0609 185.4664 185.4664
   186.1161 186.1161 186.5876 186.5876 186.9386 186.9386 187.6389 187.6389
   189.9597 189.9597 190.0924 190.0924 193.4993 193.4993 194.6148 194.6148
   195.2503 195.2503 196.4769 196.4769 197.5128 197.5128 197.5149 197.5149
   198.0493 198.0493 199.2706 199.2706 201.4587 201.4587 202.8950 202.8950
   203.9048 203.9048 204.7846 204.7846 206.1473 206.1473 207.0117 207.0117
   209.5989 209.5989 211.4278 211.4278 212.5129 212.5129 213.6290 213.6290
   214.9825 214.9825 215.6776 215.6776 216.5075 216.5075 216.8128 216.8128
   216.8327 216.8327 217.0648 217.0648 217.3522 217.3522 217.7893 217.7893
   218.1048 218.1048 218.2016 218.2016 221.2751 221.2751 221.2881 221.2881
   222.9884 222.9884 225.4967 225.4967 227.3060 227.3060 227.7700 227.7700
   227.7709 227.7709 227.8953 227.8953 228.2864 228.2864 228.9673 228.9673
   229.6900 229.6900 231.9885 231.9885 232.4935 232.4935 232.5380 232.5380
   233.9280 233.9280 234.6481 234.6481 235.5556 235.5556 236.9908 236.9908
   238.2115 238.2115 238.3170 238.3170 238.8252 238.8252 238.8554 238.8554
   239.4144 239.4144 240.6724 240.6724 240.7426 240.7426 240.9893 240.9893
   243.7420 243.7420 244.6320 244.6320 245.6784 245.6784 245.6946 245.6946
   247.0619 247.0619 247.7395 247.7395 249.7261 249.7261 250.9119 250.9119
   252.1289 252.1289 252.1402 252.1402 253.2700 253.2700 254.2101 254.2101
   254.2300 254.2300 256.1092 256.1092 258.2542 258.2542 258.2880 258.2880
   258.9335 258.9335 259.0901 259.0901 264.4605 264.4605 265.2100 265.2100

     occupation numbers 
     1.0000   1.0000   1.0000   1.0000   0.0000   0.0000   0.0000   0.0000
     0.0000   0.0000   0.0000   0.0000   0.0000   0.0000   0.0000   0.0000
     0.0000   0.0000   0.0000   0.0000   0.0000   0.0000   0.0000   0.0000
     0.0000   0.0000   0.0000   0.0000   0.0000   0.0000   0.0000   0.0000
     0.0000   0.0000   0.0000   0.0000   0.0000   0.0000   0.0000   0.0000
     0.0000   0.0000   0.0000   0.0000   0.0000   0.0000   0.0000   0.0000
     0.0000   0.0000   0.0000   0.0000   0.0000   0.0000   0.0000   0.0000
     0.0000   0.0000   0.0000   0.0000   0.0000   0.0000   0.0000   0.0000
     0.0000   0.0000   0.0000   0.0000   0.0000   0.0000   0.0000   0.0000
     0.0000   0.0000   0.0000   0.0000   0.0000   0.0000   0.0000   0.0000
     0.0000   0.0000   0.0000   0.0000   0.0000   0.0000   0.0000   0.0000
     0.0000   0.0000   0.0000   0.0000   0.0000   0.0000   0.0000   0.0000
     0.0000   0.0000   0.0000   0.0000   0.0000   0.0000   0.0000   0.0000
     0.0000   0.0000   0.0000   0.0000   0.0000   0.0000   0.0000   0.0000
     0.0000   0.0000   0.0000   0.0000   0.0000   0.0000   0.0000   0.0000
     0.0000   0.0000   0.0000   0.0000   0.0000   0.0000   0.0000   0.0000
     0.0000   0.0000   0.0000   0.0000   0.0000   0.0000   0.0000   0.0000
     0.0000   0.0000   0.0000   0.0000   0.0000   0.0000   0.0000   0.0000
     0.0000   0.0000   0.0000   0.0000   0.0000   0.0000   0.0000   0.0000
     0.0000   0.0000   0.0000   0.0000   0.0000   0.0000   0.0000   0.0000
     0.0000   0.0000   0.0000   0.0000   0.0000   0.0000   0.0000   0.0000
     0.0000   0.0000   0.0000   0.0000   0.0000   0.0000   0.0000   0.0000
     0.0000   0.0000   0.0000   0.0000   0.0000   0.0000   0.0000   0.0000
     0.0000   0.0000   0.0000   0.0000   0.0000   0.0000   0.0000   0.0000
     0.0000   0.0000   0.0000   0.0000   0.0000   0.0000   0.0000   0.0000
     0.0000   0.0000   0.0000   0.0000   0.0000   0.0000   0.0000   0.0000
     0.0000   0.0000   0.0000   0.0000   0.0000   0.0000   0.0000   0.0000
     0.0000   0.0000   0.0000   0.0000   0.0000   0.0000   0.0000   0.0000
     0.0000   0.0000   0.0000   0.0000   0.0000   0.0000   0.0000   0.0000
     0.0000   0.0000   0.0000   0.0000   0.0000   0.0000   0.0000   0.0000
     0.0000   0.0000   0.0000   0.0000   0.0000   0.0000   0.0000   0.0000
     0.0000   0.0000   0.0000   0.0000   0.0000   0.0000   0.0000   0.0000
     0.0000   0.0000   0.0000   0.0000   0.0000   0.0000   0.0000   0.0000
     0.0000   0.0000   0.0000   0.0000   0.0000   0.0000   0.0000   0.0000
     0.0000   0.0000   0.0000   0.0000   0.0000   0.0000   0.0000   0.0000
     0.0000   0.0000   0.0000   0.0000   0.0000   0.0000   0.0000   0.0000
     0.0000   0.0000   0.0000   0.0000   0.0000   0.0000   0.0000   0.0000
     0.0000   0.0000   0.0000   0.0000   0.0000   0.0000   0.0000   0.0000
     0.0000   0.0000   0.0000   0.0000   0.0000   0.0000   0.0000   0.0000
     0.0000   0.0000   0.0000   0.0000   0.0000   0.0000   0.0000   0.0000
     0.0000   0.0000   0.0000   0.0000   0.0000   0.0000   0.0000   0.0000
     0.0000   0.0000   0.0000   0.0000   0.0000   0.0000   0.0000   0.0000
     0.0000   0.0000   0.0000   0.0000   0.0000   0.0000   0.0000   0.0000
     0.0000   0.0000   0.0000   0.0000   0.0000   0.0000   0.0000   0.0000
     0.0000   0.0000   0.0000   0.0000   0.0000   0.0000   0.0000   0.0000
     0.0000   0.0000   0.0000   0.0000   0.0000   0.0000   0.0000   0.0000
     0.0000   0.0000   0.0000   0.0000   0.0000   0.0000   0.0000   0.0000
     0.0000   0.0000   0.0000   0.0000   0.0000   0.0000   0.0000   0.0000
     0.0000   0.0000   0.0000   0.0000   0.0000   0.0000   0.0000   0.0000
     0.0000   0.0000   0.0000   0.0000   0.0000   0.0000   0.0000   0.0000

     highest occupied, lowest unoccupied level (ev):     6.4781    7.0519

     Writing output data file ./out/aiida.save/
 
     init_run     :      0.05s CPU      0.17s WALL (       1 calls)
     electrons    :     52.27s CPU     56.57s WALL (       1 calls)

     Called by init_run:
     wfcinit      :      0.00s CPU      0.06s WALL (       1 calls)
                                        0.06s GPU  (       1 calls)
     wfcinit:atom :      0.01s CPU      0.02s WALL (      29 calls)
                                        0.02s GPU  (      29 calls)
     wfcinit:wfcr :      3.98s CPU      6.02s WALL (      29 calls)
                                        6.01s GPU  (      29 calls)
     potinit      :      0.01s CPU      0.03s WALL (       1 calls)
     hinit0       :      0.02s CPU      0.02s WALL (       1 calls)

     Called by electrons:
     c_bands      :     52.27s CPU     56.57s WALL (       1 calls)
     v_of_rho     :      0.00s CPU      0.00s WALL (       1 calls)
     v_h          :      0.00s CPU      0.00s WALL (       1 calls)
     v_xc         :      0.00s CPU      0.00s WALL (       1 calls)

     Called by c_bands:
     init_us_2_gp :      0.01s CPU      0.01s WALL (      29 calls)
     cegterg      :     47.65s CPU     49.82s WALL (      29 calls)

     Called by sum_band:

     Called by *egterg:
     cdiaghg      :     11.97s CPU     14.35s WALL (     299 calls)
                                       14.24s GPU  (     299 calls)
     cegterg:over :      1.46s CPU      1.48s WALL (     270 calls)
     cegterg:upda :      0.23s CPU      0.23s WALL (     270 calls)
     cegterg:last :      0.07s CPU      0.07s WALL (     146 calls)
     h_psi        :     19.01s CPU     20.10s WALL (     328 calls)
                                       19.99s GPU  (     328 calls)
     g_psi        :      0.00s CPU      0.09s WALL (     270 calls)
                                        0.00s GPU  (     270 calls)

     Called by h_psi:
     h_psi:calbec :      0.67s CPU      1.37s WALL (     328 calls)
                                        1.26s GPU  (     328 calls)
     vloc_psi     :     17.97s CPU     18.41s WALL (     328 calls)
                                       18.30s GPU  (     328 calls)
     add_vuspsi   :      0.01s CPU      0.10s WALL (     328 calls)
                                        0.06s GPU  (     328 calls)

     General routines
     calbec       :      0.66s CPU      1.33s WALL (     328 calls)
     fft          :      0.00s CPU      0.00s WALL (      11 calls)
     fftw         :     13.62s CPU     18.19s WALL (   10052 calls)
                                       13.06s GPU  (   10052 calls)
     davcio       :      0.01s CPU      0.01s WALL (      58 calls)
 
     Parallel routines
 
     PWSCF        :     55.80s CPU   1m 1.49s WALL

 
   This run was terminated on:  13:52: 3  21Mar2022            

=------------------------------------------------------------------------------=
   JOB DONE.
=------------------------------------------------------------------------------=
