
     Program PWSCF v.7.1 starts on 14Nov2023 at 22:58:33 

     This program is part of the open-source Quantum ESPRESSO suite
     for quantum simulation of materials; please cite
         "P. Giannozzi et al., J. Phys.:Condens. Matter 21 395502 (2009);
         "P. Giannozzi et al., J. Phys.:Condens. Matter 29 465901 (2017);
         "P. Giannozzi et al., J. Chem. Phys. 152 154105 (2020);
          URL http://www.quantum-espresso.org", 
     in publications or presentations arising from this work. More details at
     http://www.quantum-espresso.org/quote

     Parallel version (MPI), running on    24 processors

     MPI processes distributed on     1 nodes
     123358 MiB available memory on the printing compute node when the environment starts
 
     Reading input from pw_mp-2172_nscf_k250_E60.in
Warning: card &IONS ignored
Warning: card / ignored
Warning: card &CELL ignored
Warning: card / ignored

     Current dimensions of program PWSCF are:
     Max number of different atomic species (ntypx) = 10
     Max number of k-points (npk) =  40000
     Max angular momentum in pseudopotentials (lmaxx) =  4

     Atomic positions and unit cell read from directory:
     out/mp-2172.save/
     Atomic positions from file used, from input discarded
 
 
     K-points division:     npool     =       2
     R & G space division:  proc/nbgrp/npool/nimage =      12
     Subspace diagonalization in iterative solution of the eigenvalue problem:
     one sub-group per band group will be used
     scalapack distributed-memory algorithm (size of sub-group:  3*  3 procs)

 
     Parallelization info
     --------------------
     sticks:   dense  smooth     PW     G-vecs:    dense   smooth      PW
     Min          79      79     23                 1629     1629     260
     Max          80      80     24                 1633     1633     263
     Sum         955     955    283                19579    19579    3143
 
     Using Slab Decomposition
 


     bravais-lattice index     =            2
     lattice parameter (alat)  =      10.7257  a.u.
     unit-cell volume          =     308.4737 (a.u.)^3
     number of atoms/cell      =            2
     number of atomic types    =            2
     number of electrons       =        16.00
     number of Kohn-Sham states=         1200
     kinetic-energy cutoff     =      60.0000  Ry
     charge density cutoff     =     240.0000  Ry
     Exchange-correlation= PBE
                           (   1   4   3   4   0   0   0)

     celldm(1)=  10.725710  celldm(2)=   0.000000  celldm(3)=   0.000000
     celldm(4)=   0.000000  celldm(5)=   0.000000  celldm(6)=   0.000000

     crystal axes: (cart. coord. in units of alat)
               a(1) = (  -0.500000   0.000000   0.500000 )  
               a(2) = (   0.000000   0.500000   0.500000 )  
               a(3) = (  -0.500000   0.500000   0.000000 )  

     reciprocal axes: (cart. coord. in units 2 pi/alat)
               b(1) = ( -1.000000 -1.000000  1.000000 )  
               b(2) = (  1.000000  1.000000  1.000000 )  
               b(3) = ( -1.000000  1.000000 -1.000000 )  


     PseudoPot. # 1 for Al read from file:
     /usr/scratch4/magr4985/MG/HTDF/pseudo/SG15/Al.upf
     MD5 check sum: 2d9e7bc02555220d62fad08c3c4858e7
     Pseudo is Norm-conserving, Zval = 11.0
     Generated using ONCVPSP code by D. R. Hamann
     Using radial grid of  602 points,  4 beta functions with: 
                l(1) =   0
                l(2) =   0
                l(3) =   1
                l(4) =   1

     PseudoPot. # 2 for As read from file:
     /usr/scratch4/magr4985/MG/HTDF/pseudo/SG15/As.upf
     MD5 check sum: a2ff92a4799c87c945fff9e6739df4dd
     Pseudo is Norm-conserving, Zval =  5.0
     Generated using ONCVPSP code by D. R. Hamann
     Using radial grid of  602 points,  6 beta functions with: 
                l(1) =   0
                l(2) =   0
                l(3) =   1
                l(4) =   1
                l(5) =   2
                l(6) =   2

     atomic species   valence    mass     pseudopotential
        Al            11.00    26.98150     Al( 1.00)
        As             5.00    74.92160     As( 1.00)

     24 Sym. Ops. (no inversion) found



   Cartesian axes

     site n.     atom                  positions (alat units)
         1           Al  tau(   1) = (   0.0000000   0.0000000   0.0000000  )
         2           As  tau(   2) = (  -0.7500000   0.7500000   0.7500000  )

     number of k points=    16  Gaussian smearing, width (Ry)=  0.0005
                       cart. coord. in units 2pi/alat
        k(    1) = (   0.0000000   0.0000000   0.0000000), wk =   0.0092593
        k(    2) = (  -0.1666667   0.1666667  -0.1666667), wk =   0.0740741
        k(    3) = (  -0.3333333   0.3333333  -0.3333333), wk =   0.0740741
        k(    4) = (   0.5000000  -0.5000000   0.5000000), wk =   0.0370370
        k(    5) = (   0.0000000   0.3333333   0.0000000), wk =   0.0555556
        k(    6) = (  -0.1666667   0.5000000  -0.1666667), wk =   0.2222222
        k(    7) = (   0.6666667  -0.3333333   0.6666667), wk =   0.2222222
        k(    8) = (   0.5000000  -0.1666667   0.5000000), wk =   0.2222222
        k(    9) = (   0.3333333   0.0000000   0.3333333), wk =   0.1111111
        k(   10) = (   0.0000000   0.6666667   0.0000000), wk =   0.0555556
        k(   11) = (   0.8333333  -0.1666667   0.8333333), wk =   0.2222222
        k(   12) = (   0.6666667  -0.0000000   0.6666667), wk =   0.1111111
        k(   13) = (   0.0000000  -1.0000000   0.0000000), wk =   0.0277778
        k(   14) = (   0.6666667  -0.3333333   1.0000000), wk =   0.2222222
        k(   15) = (   0.5000000  -0.1666667   0.8333333), wk =   0.2222222
        k(   16) = (  -0.3333333  -1.0000000   0.0000000), wk =   0.1111111

     Dense  grid:    19579 G-vectors     FFT dimensions: (  40,  40,  40)

     Estimated max dynamical RAM per process >      76.72 MB

     Estimated total dynamical RAM >       1.80 GB

     The potential is recalculated from file :
     out/mp-2172.save/charge-density

     Starting wfcs are random

     Band Structure Calculation
     ParO style diagonalization

     ethr =  5.00E-06,  avg # of iterations =  6.0

     total cpu time spent up to now is      407.6 secs

     End of band structure calculation

          k = 0.0000 0.0000 0.0000 (  2421 PWs)   bands (ev):

   -97.0256 -58.5141 -58.5141 -58.5141  -5.9335   5.8836   5.8836   5.8836
     7.8556  10.1500  10.1500  10.1500  14.7231  14.9484  14.9484  17.3152
    17.3152  17.3152  20.7328  29.7449  29.7449  29.7449  31.6148  31.6148
    31.8144  31.8144  31.8144  33.2925  33.2925  33.2925  41.3915  42.3358
    42.3358  42.3358  44.4109  44.4109  46.2044  46.2044  46.2044  46.3779
    46.3779  46.7576  46.7576  46.7576  46.9675  47.8048  47.8048  47.8048
    48.6038  48.6038  48.6038  49.1387  49.1387  49.1387  52.5603  54.0949
    54.0949  54.0949  54.9867  54.9867  54.9867  57.2431  61.1888  69.0453
    69.0453  70.6342  70.6342  70.6342  73.0542  74.0840  74.0840  74.0840
    76.7015  76.7015  76.7015  77.2147  77.2147  80.8271  80.8271  80.8271
    82.8930  82.8930  82.8930  83.2552  83.2552  84.6387  84.6387  84.6387
    84.8895  86.4024  86.4024  86.4024  86.9152  86.9152  87.5678  87.5678
    87.5678  89.1400  89.1400  89.1400  90.0628  90.3348  90.3348  90.3348
    91.6132  91.6132  91.6132  91.7034  92.7113  92.7113  92.7113  92.8153
    92.8153  93.7243  93.7243  93.7243  97.8937 101.1664 101.3532 101.3532
   101.3532 104.0190 104.0190 104.0190 104.1026 104.1026 106.0614 106.0614
   106.0614 106.7929 106.7929 106.7929 107.5431 107.5431 107.5431 108.2353
   108.2353 112.4275 112.4275 112.4275 112.9045 116.5100 117.7037 117.7037
   118.7919 118.7919 118.7919 119.4855 119.4855 119.4855 119.8306 119.8306
   120.4092 121.6977 121.6977 121.6977 121.7550 122.3866 122.3866 122.3866
   122.4632 122.4632 122.4632 123.2851 123.2851 123.2851 124.3952 124.3952
   124.3952 126.7052 126.7052 126.7052 134.9106 136.9620 136.9620 136.9620
   136.9627 136.9627 136.9627 137.3882 137.9491 137.9491 144.2573 144.2573
   144.2573 146.9879 146.9879 146.9879 147.5070 147.5070 148.3559 148.3559
   148.3559 149.3323 152.9560 152.9560 152.9560 153.9235 153.9235 153.9394
   153.9394 153.9394 154.8549 154.8549 154.8549 157.1001 157.1001 157.3018
   157.3018 157.3018 157.3934 157.4916 157.4916 157.4916 158.3912 158.3912
   158.3912 158.9841 158.9841 159.1933 159.1933 159.1933 159.7546 159.7546
   159.7546 159.8646 160.2735 160.2735 160.2735 160.4739 160.6707 160.6707
   160.6707 161.0286 161.3574 161.3574 161.3574 162.5723 162.6962 162.6962
   163.8158 163.8158 163.8158 165.1317 165.1317 165.3490 165.3490 165.3490
   165.8341 165.8341 165.8341 166.1807 166.1807 166.1807 166.3934 166.3934
   166.3934 166.4388 166.4388 171.8881 171.8881 171.8881 174.4201 174.4201
   174.7892 178.8407 178.8407 178.8407 180.6105 180.6105 180.6105 181.1915
   181.1915 181.1915 181.3581 181.3581 181.3581 182.9814 182.9814 182.9814
   183.4113 184.2883 184.2883 184.3326 184.3326 184.3326 184.4103 186.2421
   186.2421 186.2421 186.2980 189.7168 189.7168 190.6792 190.6792 190.6792
   192.3138 192.3138 192.3138 192.8362 192.8362 192.8362 193.3735 193.3735
   193.3735 193.9516 193.9516 196.0027 196.0027 196.0027 196.3749 199.3841
   199.3841 199.3841 199.7877 199.7877 200.5671 200.5671 200.5671 200.8682
   201.3020 201.3020 201.3020 201.4003 201.4003 201.4003 202.1508 202.1508
   202.1508 202.3780 202.3780 209.0157 209.0157 209.0157 215.5032 215.5032
   215.5032 215.5580 216.3445 218.5190 218.5190 218.5190 220.5930 220.5930
   220.6010 220.6010 220.6010 220.7547 220.7547 220.7547 221.3431 223.1185
   223.1185 223.1185 223.9323 223.9323 225.1329 225.9979 225.9979 225.9979
   226.6567 226.6567 226.6567 226.8694 226.8694 227.1467 227.1467 227.1467
   228.2862 229.6081 229.6081 229.6081 229.6626 229.6626 230.7744 233.2026
   233.2026 233.2026 233.4267 233.4267 233.4267 233.5119 233.5119 233.5119
   233.6764 233.6764 233.6764 237.6825 237.6825 237.6825 237.7280 237.7280
   237.7280 237.7453 237.7453 237.7453 237.7820 237.7820 237.8378 238.8906
   238.8906 238.8906 239.2080 239.7878 239.7878 239.7878 240.3615 240.3615
   240.3658 240.3658 240.3658 242.7047 242.7047 242.7047 244.8158 244.8271
   244.8271 244.8271 246.1186 248.0529 248.0529 248.9147 248.9147 248.9147
   249.1329 249.1329 249.1329 250.4109 250.4109 250.4109 250.5611 250.5611
   250.5611 251.8804 251.8804 254.8714 254.8714 255.5509 255.5509 255.5509
   255.7847 255.7847 255.7847 256.1079 256.1079 256.1079 256.7176 256.7176
   256.7176 257.0826 257.0826 257.3855 258.1511 258.1511 258.1511 258.5050
   258.5050 258.5050 258.5479 258.5479 258.5479 258.8303 261.2061 261.2061
   261.2061 261.2301 262.6075 264.9734 264.9734 265.6035 265.6035 265.6035
   266.8532 266.8532 266.8532 266.9487 266.9487 266.9487 267.1066 267.1066
   267.2500 267.2500 267.2500 268.3845 268.9505 268.9505 268.9505 269.1322
   269.1322 269.1322 269.1986 270.7257 270.7257 270.8335 270.8335 270.8335
   270.8894 270.8894 270.8894 271.2186 271.2186 271.2186 271.2381 271.2381
   271.2381 271.4743 271.5093 271.5093 271.7674 271.7674 271.7674 272.1477
   272.1477 272.1477 272.5429 272.5849 272.5849 272.5951 272.5951 272.5951
   272.6148 272.6148 272.6148 272.7761 272.7761 272.7761 273.0124 273.0124
   273.0124 273.0259 273.0259 289.5594 289.5594 289.5594 290.9227 290.9227
   291.2259 293.3313 293.3313 293.3313 297.0474 297.0474 297.0474 297.7891
   298.2311 298.6839 298.6839 300.0192 300.0192 300.0192 301.8119 301.8119
   301.8119 302.1209 302.1209 302.1209 302.4362 302.4362 302.4362 302.8279
   302.8279 304.3471 305.7984 305.7984 305.7984 306.7368 306.7368 306.8954
   306.8954 306.8954 308.2971 308.3384 308.3384 308.3384 309.3005 311.8293
   311.8293 311.8293 311.8534 311.8534 311.8534 311.9347 311.9347 311.9347
   311.9568 311.9568 311.9568 313.9707 313.9707 314.0874 314.0874 314.0874
   314.1770 314.1770 314.1770 314.3039 314.3039 314.3039 314.3700 314.3700
   314.3700 314.3778 314.3778 314.7219 314.7219 314.7242 314.7242 314.7242
   314.7733 319.8400 319.8400 319.8400 321.2018 321.2018 321.2018 321.2444
   321.2444 321.4179 321.4179 321.4179 322.1830 325.9928 325.9928 326.1776
   326.1776 326.1776 327.7987 329.1341 329.1341 329.1341 329.2282 329.2282
   329.2282 329.4510 329.4510 329.4510 329.6301 329.6301 329.6301 331.2338
   331.3209 331.3209 331.3209 331.3931 331.3931 331.4018 331.4018 331.4018
   331.8748 331.8748 331.8748 332.0479 332.0479 332.0479 332.0566 332.0566
   333.4733 340.1483 340.4750 340.4750 340.4750 340.8700 340.8700 340.8700
   341.3837 342.0915 342.0915 342.0915 342.0930 342.0930 342.2471 342.2471
   342.2471 342.3606 342.3606 342.3606 342.8676 343.7934 343.7934 343.7934
   343.8037 343.8037 343.8037 343.8089 343.8501 343.8501 343.8555 343.8555
   343.8555 345.0989 345.0989 345.0989 345.1103 345.1103 345.3880 345.3880
   345.3880 345.6249 345.6249 345.6249 345.8735 349.8136 349.8136 349.8198
   349.8198 349.8198 349.8296 349.8296 349.8296 349.9011 349.9011 349.9011
   350.2652 351.7663 351.7663 351.7663 351.7803 351.7803 351.7803 351.7835
   351.7944 351.7944 351.8009 351.8009 351.8009 363.7332 363.7332 363.7332
   365.0225 365.0225 365.7919 366.1929 366.1929 366.1929 366.3815 366.3815
   366.3815 366.6990 366.6990 366.6990 366.8916 366.8916 366.8916 367.5966
   367.5966 367.6876 367.6876 367.6876 367.8079 368.6823 368.7650 368.7650
   368.7650 369.6603 369.6603 370.1602 370.1602 370.1602 371.2356 371.7921
   371.7921 371.7921 373.2174 373.2174 373.2174 373.8868 373.8868 373.8868
   374.4780 374.4780 374.4780 375.0654 375.0654 375.4412 376.7576 376.7576
   376.7576 376.9000 376.9000 378.1106 378.1106 378.1106 378.2592 378.3187
   378.3187 380.0761 380.0761 380.0761 380.2608 380.2608 380.2608 380.6201
   380.6201 380.6201 380.9305 380.9305 381.1428 381.1428 381.1428 381.2683
   381.2683 381.8469 381.8469 381.8469 382.5954 382.5954 382.5954 382.6446
   382.8158 382.8158 382.8158 383.0979 383.0979 383.0979 383.2730 383.2730
   383.2730 383.3903 383.4669 383.4669 383.4669 383.8799 384.0641 384.0641
   384.0641 384.5943 384.5943 384.5943 384.6056 385.7990 385.7990 385.8941
   385.8941 385.8941 386.1862 386.1862 386.1862 386.3963 386.3963 386.3963
   386.5492 386.5492 386.5492 386.8500 386.8500 388.5637 388.5637 388.7404
   388.7404 388.7404 389.1569 389.1805 389.1805 389.1805 389.3343 389.3343
   389.3343 389.4022 389.4022 389.4022 389.6734 389.6734 389.6734 389.7391
   389.7391 389.9667 389.9667 389.9667 390.1055 398.2899 398.2899 398.2899
   398.4992 398.7469 398.7469 398.7469 399.1209 406.6873 406.6873 406.7102
   406.7102 406.7102 406.7538 406.7538 406.7538 406.7785 406.7785 406.7785
   406.8436 406.8436 406.8457 406.8457 406.8457 413.2830 413.2830 413.2830
   413.7340 413.7340 414.5738 414.9272 414.9272 415.2177 415.2177 415.2177
   415.3223 415.3223 415.3223 415.3658 415.3658 415.3658 415.4315 415.4315
   415.4315 415.5780 415.7382 415.7382 415.7382 420.1655 420.1655 420.1773
   420.1773 420.1773 420.2038 420.3609 420.3609 420.3609 420.3798 420.3798
   420.3798 420.4313 420.4313 420.4313 420.5100 420.5100 420.5100 421.2354
   421.2354 421.2829 421.2829 421.2829 421.3695 434.4359 434.4359 434.4359
   435.4864 435.4864 435.4864 435.9241 436.6669 437.7150 437.7150 437.9842
   437.9842 437.9842 438.0539 438.0539 438.0539 438.3369 438.3369 438.3369
   438.4038 438.4038 438.4038 438.5058 438.5058 442.8392 442.8392 442.8392
   443.6320 443.6320 443.6320 443.6371 443.6371 443.6671 443.8318 443.8318
   443.8318 448.0252 448.1491 448.1491 448.1491 448.6050 448.6050 448.6050
   449.8488 449.8488 449.8688 449.8688 449.8688 450.0524 450.7444 450.7444
   450.7444 451.5847 451.5847 451.5847 451.9812 453.7339 453.7339 453.9525
   453.9525 453.9525 454.6315 454.6315 454.6315 454.7668 454.7668 454.9325
   454.9325 454.9325 455.0935 455.0935 455.0935 455.6023 456.1792 456.1792
   456.1792 456.3513 456.5236 456.5236 456.5236 458.4714 458.4714 458.5866
   458.5866 458.5866 458.6428 458.6428 458.6537 458.6537 458.6537 458.6571
   458.6571 458.6571 458.7301 458.7301 458.7301 459.7454 459.7454 459.7458
   459.7777 459.7777 459.7777 461.2378 461.3378 461.3378 461.3378 461.4220
   461.4220 461.4220 461.4976 461.4976 461.4976 461.5012 461.5012 464.0264
   464.0264 464.0264 464.0483 464.0483 464.0483 464.0566 464.0566 464.0663
   464.0663 464.0663 464.1518 470.6075 470.6075 470.7490 470.7490 470.7490
   471.5106 472.4959 472.4959 472.4959 472.5871 472.5871 472.5871 473.0285
   473.0285 473.0935 473.0935 473.0935 473.9490 475.3965 475.5234 475.5234
   475.5234 475.5973 475.5973 475.5973 475.6706 475.6706 475.6706 475.6941
   475.6941 477.3051 477.3051 477.3051 477.6846 477.6846 477.6846 477.8598
   477.8598 477.8598 478.2187 478.4385 478.4385 479.6290 479.6290 479.6290
   480.0617 480.0617 480.0617 480.0915 480.0915 480.0915 480.3673 480.3673
   480.3673 480.7339 480.7339 480.7355 480.7355 480.7355 480.8458 480.8458
   480.8458 480.9308 480.9308 480.9308 480.9987 482.7672 482.7672 482.7989
   482.7989 482.7989 482.8568 488.7428 488.7428 488.7428 489.0621 489.0621
   489.0621 489.3519 489.3738 489.3738 489.7258 490.4791 490.4791 490.4791
   490.6431 490.6431 490.6431 491.4266 491.4266 491.4266 491.7863 491.7863
   491.7863 492.0289 492.0289 492.3437 492.3437 492.3437 492.3567 492.3567
   492.6871 492.6871 492.6871 492.7233 492.8814 492.8814 492.8814 493.3274
   493.6747 493.6747 493.6747 494.1328 494.1328 494.1765 494.1765 494.1765
   494.3550 494.3550 494.3550 494.3581 494.3581 494.3581 494.5459 494.5459
   494.5459 494.7400 494.7474 495.2032 495.2032 495.2297 495.2297 495.2297

          k =-0.1667 0.1667-0.1667 (  2433 PWs)   bands (ev):

   -97.0259 -58.5142 -58.5142 -58.5142  -5.6681   3.7886   5.6212   5.6212
     8.6510  10.5861  10.5861  11.0355  14.1536  14.1536  15.6018  16.8993
    19.3385  19.3385  22.7847  26.3240  26.3240  26.6753  30.9214  30.9214
    32.2609  32.2609  33.5846  33.7743  37.6103  37.6103  37.9987  40.1045
    40.1045  41.1508  41.1508  42.6594  42.6594  42.7598  44.3512  44.3749
    45.8003  45.8003  46.2416  47.4504  47.6204  47.6204  49.0059  50.1219
    50.1219  51.4425  51.4425  51.6640  52.5868  52.5868  53.4496  53.9822
    55.4985  55.4985  57.8243  58.0418  58.0418  61.6198  64.1762  64.6838
    64.6838  66.3804  68.9491  68.9491  71.5918  72.8227  72.8227  74.6911
    74.6911  76.2378  76.9368  77.5950  77.5950  78.2898  79.0535  79.0535
    80.5073  81.0104  81.0104  81.7752  82.8287  82.8287  83.4837  83.5310
    83.5310  85.1065  85.2350  85.2350  86.9882  87.1792  87.1792  88.2644
    88.2644  88.4253  89.4752  89.4871  89.5893  89.5893  92.5297  92.5297
    93.4411  93.4411  93.4653  94.4337  94.5197  94.5197  95.3017  95.3017
    95.3034  97.5797  97.5797  97.6779  99.1495  99.1495 100.2996 100.7434
   100.7831 101.4864 101.4864 102.4137 102.4137 102.5835 104.8485 104.8485
   105.8129 107.9017 108.6040 108.6040 109.6961 109.6961 110.2098 110.5228
   110.8658 110.8658 112.6646 112.6646 112.8699 112.9388 114.7205 114.7205
   115.2031 115.2551 116.5245 116.5245 116.8768 117.2160 117.2160 118.4201
   118.6574 118.6574 120.5208 120.5208 123.2038 123.9772 124.9287 124.9287
   125.9295 125.9295 126.8295 127.6521 127.6521 129.2770 129.2770 129.5051
   130.3839 130.9894 130.9894 132.3213 132.3213 132.9704 135.5477 136.5284
   137.0296 137.0296 137.0615 138.1079 138.1079 139.1819 140.9188 142.0365
   142.0365 143.4484 143.4484 145.0846 145.0846 145.3636 145.8236 146.4084
   146.4084 146.6818 146.8396 148.1250 148.1250 149.9872 150.2706 150.4157
   150.4157 151.5021 151.5021 152.5617 152.5617 152.6128 153.1023 153.1023
   154.0018 154.2806 154.2806 155.1782 155.1782 155.6295 155.7291 155.7291
   156.2985 156.8156 157.5280 157.5280 159.3019 159.5538 159.5538 159.7948
   160.2356 160.2356 160.6854 160.8820 161.7855 161.7855 162.3498 162.3498
   164.0391 164.0391 164.0557 164.1509 165.0445 165.0973 165.0973 165.7344
   165.7344 166.9948 167.7918 167.7918 168.5741 168.5741 168.8225 169.1506
   169.6178 169.6178 170.0854 170.2632 170.2632 170.6108 171.1276 171.6001
   171.6001 172.7261 172.7261 172.8947 173.5508 173.5508 174.1863 174.3373
   174.3373 174.7520 175.5463 175.5463 176.2726 177.2178 177.2178 177.4003
   177.9023 177.9023 178.1582 181.0352 181.1446 181.1446 182.3448 182.3448
   183.4738 183.4738 183.8546 184.6992 185.9084 185.9084 187.1509 187.1509
   187.9714 188.5576 188.8918 188.8918 188.9020 189.7116 189.7116 191.5775
   191.5775 191.7982 192.3659 192.5969 192.5969 192.9818 192.9818 193.0851
   194.8136 194.9185 194.9185 195.9846 196.3059 196.3059 196.7155 198.6488
   198.6488 199.5620 200.7464 200.7464 201.1403 201.3327 202.4698 202.6438
   202.6438 204.2161 204.5837 204.5837 206.6483 206.6483 207.8421 208.1943
   208.1943 208.9998 209.3893 209.3893 210.4706 210.8914 210.8914 211.4354
   212.2059 212.2059 214.3106 214.3106 214.6519 215.2912 215.2912 216.2534
   217.5420 217.7224 217.7224 218.9073 218.9073 220.3493 220.4911 220.5043
   220.5043 221.5558 221.5558 221.8674 221.9484 222.3078 222.3078 223.1384
   223.1384 223.5619 224.1066 224.6881 224.8418 224.8418 225.3732 225.3732
   225.6906 225.6906 226.6832 227.4648 227.5090 227.7857 227.7857 230.4727
   231.5693 231.5693 234.4832 234.4832 235.1127 235.5585 235.5585 235.7431
   235.9851 235.9851 236.4884 236.6676 236.6676 236.8633 236.8633 236.9036
   237.1730 237.6752 237.6752 238.1790 238.1790 238.7461 239.3700 240.6052
   240.6052 241.2470 241.4343 241.4343 241.9870 242.2285 242.2787 242.2787
   242.3741 242.8010 242.8010 243.1411 245.0548 245.0548 245.0612 245.5735
   245.5735 245.7553 246.1629 246.1629 246.8507 246.9656 246.9656 248.2292
   248.3225 249.0459 249.0459 249.3668 249.3668 250.4048 250.6760 250.6760
   251.3734 252.4540 252.4540 252.7392 252.7392 253.2242 253.4447 253.4447
   253.4632 254.5839 254.5839 254.6600 254.9565 254.9738 254.9738 255.1662
   255.1662 255.2420 255.5111 255.5111 255.8498 256.5733 256.5733 256.8569
   257.0100 257.5387 257.5387 258.1680 258.3110 258.3110 259.7275 259.7275
   259.8664 261.4604 261.4604 261.8080 262.5407 262.7645 262.7645 262.9163
   263.0595 263.0595 263.3587 264.7164 264.7164 264.8154 264.9314 264.9314
   265.8319 267.5417 267.5417 267.5541 267.7744 267.7744 267.9459 267.9459
   268.0477 269.0075 269.2410 269.2410 269.5334 270.0327 270.0327 271.8215
   271.8215 272.0262 274.6978 274.9173 274.9173 275.1812 275.1812 275.4434
   276.4615 276.4615 276.7806 276.8751 277.1272 277.2451 277.2451 278.0943
   278.0943 278.3600 278.5768 278.5768 279.0950 279.7484 281.3715 281.3715
   281.5166 281.7590 281.7590 283.7288 283.7288 284.6956 284.7801 284.8595
   284.8595 285.1130 285.1130 286.4204 286.4204 286.4436 287.7508 288.2177
   289.0313 289.0313 289.4596 289.5250 289.5250 291.6581 292.2137 292.7248
   292.7248 293.1167 293.1167 293.8721 293.8721 296.3994 296.3994 297.6363
   297.9176 297.9176 298.1243 298.3285 298.3285 298.6945 301.8220 301.8220
   301.9186 302.6675 302.6675 302.8021 303.3341 303.6344 303.6344 304.2269
   304.2269 304.3221 304.6438 304.6897 304.6897 305.0430 305.0430 305.1257
   307.2118 307.2118 308.1250 309.9467 309.9467 310.4189 310.9296 310.9296
   311.5623 311.9204 311.9204 312.6330 312.7496 313.3482 313.3482 313.8231
   314.0197 314.0197 316.3943 316.4344 316.4344 316.8285 316.8617 316.8617
   316.9514 317.1970 317.1970 318.1933 319.0538 320.7556 320.7556 321.4270
   321.8615 321.8615 321.8741 321.9381 321.9381 322.1842 322.1842 322.2895
   322.7611 322.7975 322.7975 324.0639 324.0656 324.0656 324.4204 324.4204
   324.4549 324.6062 324.6062 324.6356 324.7368 324.7368 324.8498 325.9071
   326.7277 326.7277 327.9781 327.9781 328.1753 328.7833 329.2589 329.2589
   329.4393 329.4393 329.5431 329.7371 330.1517 330.1517 331.2829 331.2829
   331.5388 331.5431 333.4992 333.5700 333.5700 334.8808 334.9112 334.9112
   336.0534 336.0534 336.5696 336.5987 336.5987 339.0888 339.1175 339.1175
   340.8674 340.8674 340.9802 341.0401 341.0632 341.0632 341.5077 341.5077
   341.8467 342.8970 342.8970 342.9485 343.6926 343.7781 343.7781 344.0791
   344.0791 344.1893 344.9709 346.4825 346.4825 346.9127 347.3280 347.3280
   347.4005 347.4242 347.4242 348.3214 348.3215 348.3683 348.5174 348.5174
   348.8228 348.8228 348.9280 348.9697 349.1810 349.1810 349.2303 349.3488
   349.4893 349.4893 349.5820 350.9650 350.9650 351.2333 351.2433 351.2433
   354.3666 354.3666 354.4027 354.8376 354.8376 354.8968 357.3252 357.3252
   357.3529 357.7963 357.7963 359.6232 359.7332 359.7332 360.1829 360.1829
   360.2114 360.7220 360.9058 361.2191 361.3412 361.3412 361.8534 361.9098
   361.9098 361.9405 361.9405 362.8547 363.3010 363.5297 363.5297 364.2826
   364.2826 364.3691 364.6694 365.1393 365.1393 365.4614 365.4614 365.5611
   366.8902 366.8902 367.1775 367.2004 367.2004 367.8668 368.2570 368.2570
   368.8225 369.2352 369.2352 369.7566 369.8699 369.8699 369.9423 371.2184
   371.2820 371.2820 371.5524 371.6895 371.6895 372.5457 372.5457 372.6679
   372.6679 372.6983 372.9490 373.1081 373.1862 373.1862 373.3472 373.3472
   373.7187 374.0114 374.2484 374.2484 374.4635 374.8394 374.8394 374.9769
   378.6633 378.6633 378.7007 378.9224 378.9224 379.2257 380.6310 380.6310
   380.6729 380.8797 380.8797 381.0303 381.6735 381.6735 381.7251 382.3579
   382.3579 383.3025 383.3025 384.3345 384.3373 384.7810 384.7810 385.1067
   385.1605 385.1605 386.2421 386.2421 386.5482 386.6078 386.7469 386.7469
   388.2528 388.2528 388.3337 389.2920 389.5782 389.5782 390.7734 390.7850
   390.7850 391.3774 391.5604 391.5604 391.7313 391.7313 391.9385 392.3765
   392.4889 392.4889 393.6384 394.5718 394.6379 394.6379 394.9962 394.9962
   395.1539 395.6696 395.6696 396.1365 396.3995 396.3995 396.8518 397.1251
   397.1251 398.1092 398.1092 398.1840 398.2012 398.2039 398.2039 398.9080
   399.3925 399.3925 399.8243 399.8243 399.8592 399.9925 400.0594 400.0594
   400.8528 400.9016 400.9016 401.2139 401.2139 401.4191 402.5289 402.5289
   402.7004 403.6276 403.6276 403.7596 404.5410 404.5410 406.0043 406.3301
   406.3301 406.3781 406.6161 407.7395 407.7721 407.7721 408.4752 408.4752
   408.5186 408.5508 408.5508 408.5635 408.8701 408.8701 411.1166 411.7094
   411.7094 412.3054 413.1321 413.1321 413.1485 413.5207 413.5207 413.5330
   413.8739 413.8739 418.3233 418.3327 418.3327 420.3372 421.6476 421.6476
   422.7336 422.7336 422.9693 423.6299 423.8816 423.8816 424.5150 424.9372
   426.1346 426.1346 426.2153 427.3105 427.3105 427.7556 427.9516 427.9596
   427.9596 428.9547 428.9547 428.9998 429.2355 429.2355 429.6246 430.9609
   430.9609 431.9566 431.9566 433.2585 433.5235 433.5235 435.3599 435.3774
   435.3774 435.8566 435.8566 436.1713 436.2513 436.2513 436.4735 436.4735
   436.5052 436.8529 437.2053 437.2053 437.6740 439.2647 439.2647 439.3410
   439.6024 439.6969 439.6969 441.0809 441.0809 441.1986 441.1986 441.2616
   441.4266 442.5467 442.7441 442.7638 442.7638 443.1146 443.1146 443.8677
   443.8677 444.1427 444.1635 444.2626 444.2626 444.5498 444.5498 444.5729
   447.6836 447.6836 447.7200 448.3298 448.3298 448.7243 449.1510 449.1611
   449.1611 449.5061 449.5073 449.5073 450.3612 450.3612 450.4055 452.2664
   452.2664 452.3006 452.3543 452.4539 452.4539 452.8377 452.8377 452.9306
   453.8679 453.8679 454.9956 455.1030 455.8582 455.8582 456.4953 456.4953
   456.6414 457.7988 457.7988 457.9516 459.7664 459.7664 459.7978 460.5070
   460.6078 460.6078 460.6207 460.9575 461.1452 461.1452 461.1696 461.3367
   461.3367 462.5855 462.5855 462.8709 463.1051 463.1051 463.6710 464.7407
   464.7407 465.0054 465.1904 465.1904 465.4245 465.4580 465.4580 465.4902
   465.7210 465.7210 465.7495 466.7924 466.7924 466.9647 466.9974 466.9974
   468.1901 468.1901 468.3556 468.9055 468.9055 468.9101 469.4102 469.5467
   469.5467 469.9563 470.0668 470.0668 470.3019 470.3019 470.4780 470.4780
   470.4942 470.5090 470.7255 470.7255 470.7965 470.8867 471.1158 471.2409
   471.2409 472.3436 472.5843 472.5843 472.7422 472.7422 472.7651 473.6428
   473.6428 474.0393 474.9715 474.9715 475.1774 475.8737 476.0586 476.1906
   476.1906 476.4170 476.4170 476.4944 476.6977 476.6977 476.7035 477.3671
   477.3671 477.5029 477.6045 477.6045 477.6647 477.9223 477.9237 477.9237
   478.8265 478.8265 480.5172 480.8174 480.8174 480.9261 481.5962 481.5962
   481.6246 483.4108 483.5483 483.5483 484.0352 484.0352 484.1520 484.2705
   484.2705 484.3415 485.0507 485.0507 485.1006 485.1393 485.1393 486.2182
   486.2182 486.2408 486.3539 486.3539 486.4557 486.5031 486.5967 486.5967
   486.8264 487.0286 487.0286 487.7395 487.7395 487.9588 489.8166 489.9242
   489.9242 490.1276 490.1276 490.2349 490.8093 490.8510 490.8510 490.9530
   490.9530 490.9966 492.6992 492.6992 492.7125 493.3953 493.5525 493.5525
   493.8068 495.9066 495.9066 495.9596 495.9596 496.4529 497.0979 497.0979
   497.1105 497.6344 497.6344 497.9052 498.0711 498.2834 498.5005 498.5005
   498.7608 498.7608 498.9187 498.9187 499.0364 499.6068 499.6068 499.7828

          k =-0.3333 0.3333-0.3333 (  2442 PWs)   bands (ev):

   -97.0264 -58.5143 -58.5142 -58.5142  -4.9972   1.4122   5.2220   5.2220
     8.2094  10.7355  10.7355  13.3375  14.9555  14.9555  15.2213  19.7776
    21.2795  21.2795  23.0428  23.5902  23.5902  26.9111  31.1399  31.1399
    31.2009  32.7315  32.7315  34.1482  34.1482  34.3337  36.2900  38.8509
    38.8509  39.3272  39.4028  39.4028  41.3447  42.2977  45.0472  45.0472
    45.4789  45.4789  45.8726  47.4818  47.5376  47.5376  49.9070  52.9329
    52.9329  54.3049  54.3049  54.9238  56.6533  56.6533  57.4226  59.1459
    60.1316  60.1316  61.0014  61.2686  61.2686  62.2883  62.8973  62.8973
    64.0082  64.0082  64.8097  67.0537  67.0537  67.5842  70.3119  70.3119
    72.0487  72.5027  73.0399  74.8768  74.8768  75.4410  76.4535  76.4535
    77.1853  80.3350  81.1977  81.1977  82.9403  82.9403  83.2018  83.2018
    84.3039  84.4329  84.6560  84.6560  85.6089  85.6089  85.6569  88.1480
    88.1480  88.5028  89.4467  89.4985  89.4985  90.1452  93.8175  93.8175
    94.5069  94.8032  94.8032  95.8491  96.3625  96.8620  96.8620  97.7160
    97.7160  98.4006  98.4464  99.1934  99.1934 100.4570 101.2185 101.2185
   103.0761 103.0761 103.2447 103.7434 105.3572 105.3572 105.7081 106.7452
   106.7452 107.9178 107.9178 108.3077 108.7603 108.9069 108.9069 109.8253
   110.6595 110.8562 110.8562 112.7667 112.7667 113.0748 113.4519 113.4519
   113.9026 115.1016 115.7748 115.7748 116.7749 116.7749 118.9313 118.9313
   120.1983 121.2649 122.2044 122.2044 123.6738 125.7472 125.7473 128.4785
   129.5588 130.1086 130.1086 130.2622 130.8419 130.8419 132.0960 132.0960
   132.9299 132.9299 133.1790 133.6710 134.7535 134.7535 135.1456 135.1456
   135.4193 135.5153 137.3507 137.3507 137.9222 138.1890 138.1890 138.7482
   138.8403 138.8403 140.1009 140.2234 140.2234 140.3513 141.3783 143.2372
   143.2372 144.0105 144.0105 144.3042 145.7409 145.9034 145.9034 146.9517
   146.9517 147.3279 148.2519 148.2519 148.9493 150.4520 151.5614 151.5614
   151.7782 153.4558 153.4558 153.7954 155.0006 155.0006 155.8666 156.4230
   156.8922 156.8922 157.2654 157.3431 157.3431 158.9896 158.9896 159.1941
   159.5691 159.5691 159.7740 160.7346 160.7346 161.3470 162.0148 162.0148
   162.2946 163.4370 163.4370 164.7124 165.4376 165.4376 165.5552 165.5552
   165.7529 166.9861 167.4692 167.4692 168.7156 169.4780 170.0366 170.0366
   170.7552 170.7552 171.4086 171.7053 171.7053 172.1645 172.7912 172.7912
   173.2033 173.2033 173.2611 173.9658 174.0016 174.0016 176.8559 176.8559
   177.5354 178.6625 179.2231 179.2231 179.7609 180.8518 180.8518 181.7518
   181.7980 181.7980 181.8123 182.0854 184.0546 184.0546 184.3319 184.7192
   184.7192 185.4869 185.4869 185.7346 187.3859 187.3859 187.7728 188.2097
   188.2097 189.4608 189.8047 190.1266 190.1266 190.2431 191.1659 191.1659
   191.4504 192.3540 192.3540 192.9137 194.9443 195.0163 195.0163 196.2182
   196.2182 196.4036 197.7514 197.7514 198.1146 198.1146 198.2887 201.9780
   201.9780 203.2672 203.2672 203.5469 203.8306 204.6909 204.9149 204.9149
   205.3785 205.3785 206.2567 206.4187 206.4187 207.2764 207.2764 207.5616
   207.8691 208.1547 208.8038 209.0971 209.0971 209.5081 209.6284 209.6284
   210.5971 210.5971 210.7495 211.2381 211.2381 212.0187 213.4375 213.4375
   213.4699 214.0976 214.0976 215.1796 215.1796 215.6965 216.8369 217.8468
   217.8468 219.0412 219.0412 219.3246 219.6863 220.2698 220.2698 220.8689
   220.8689 221.5945 221.7537 221.7537 222.0247 222.3714 222.9262 222.9262
   223.2348 224.9978 225.5735 225.5735 226.6733 226.6733 227.2450 227.4123
   228.1540 228.1540 230.4338 230.4338 230.6484 231.5289 231.6690 231.8703
   231.8703 232.4137 232.4137 234.7891 234.9785 234.9785 235.1430 235.1430
   236.4678 236.4678 236.6159 236.9256 236.9256 236.9536 238.7528 238.7528
   239.1481 239.2690 239.2690 239.3075 241.1521 241.4841 241.4841 242.2046
   242.2046 242.4846 243.3283 243.3283 243.6082 243.8512 243.9400 243.9400
   245.1007 245.1007 245.3186 245.5616 245.5616 245.8462 247.7575 248.3179
   248.3179 248.8565 249.2451 249.2451 249.7465 250.0863 250.0863 251.1456
   251.9379 251.9380 252.4925 252.4925 252.5730 254.3977 254.5957 254.5957
   255.3172 255.3172 255.5915 255.7931 255.8010 255.8010 255.9650 256.0256
   257.1186 257.1186 257.3437 257.7939 257.7939 258.0358 258.5449 258.5449
   258.6210 259.7089 259.7089 260.1197 260.5621 260.5621 260.9807 261.0773
   261.0773 261.7966 262.5984 262.5984 264.1955 264.3879 264.3879 264.8225
   264.8225 264.9663 265.8472 265.8472 265.9108 266.6840 266.7760 266.7760
   266.8025 268.0800 268.0800 268.9023 270.0234 270.0234 270.1823 272.3932
   272.8117 272.8117 273.0260 273.0260 274.3120 274.3120 274.6429 275.7013
   275.7013 275.8848 277.0482 277.0482 277.5377 278.1939 278.2670 278.2670
   279.0563 279.0563 281.2005 281.3501 281.5523 281.5523 281.9355 282.2347
   282.2347 282.2481 282.4823 282.4823 282.6631 282.6785 282.8733 282.8733
   284.1965 284.1965 284.7550 284.7626 284.9911 284.9911 285.7398 285.7398
   285.7865 286.5271 286.5271 286.7766 288.2951 288.2951 290.2392 290.2392
   290.4397 290.9689 290.9689 291.2986 292.3056 292.9169 292.9169 293.1757
   293.1757 293.3852 294.5669 294.5921 294.5921 295.5323 295.5323 296.3171
   296.3617 296.3617 296.6702 296.7503 296.7503 296.7944 297.8846 298.6571
   298.8319 298.8319 299.6921 299.7123 299.7123 299.7235 300.6803 300.6803
   301.5080 302.0408 302.0408 302.5929 302.9056 302.9056 304.7397 304.7397
   304.9176 305.4964 305.5175 305.5175 306.3995 306.3995 306.8282 307.3721
   307.3721 307.5973 307.7403 307.7611 307.7611 307.7631 309.7838 310.1924
   310.1924 311.0202 311.0202 311.7807 312.0848 312.0848 312.2489 313.3654
   313.3654 313.8931 313.8931 314.6205 317.3297 317.3297 317.5125 318.6348
   318.6348 318.8699 319.4808 319.4808 319.7726 321.2442 321.2442 321.7393
   322.1715 322.1715 322.2570 323.3822 323.3971 323.3971 323.8111 323.8111
   324.1999 324.4274 326.9885 326.9885 327.1330 327.7600 328.1035 328.1035
   328.4031 328.4031 329.9355 329.9355 330.6597 331.1914 331.2398 331.2398
   331.4909 331.4909 331.7105 331.7727 331.9375 331.9375 332.2629 332.2629
   332.3943 333.4803 333.6104 333.6104 335.2236 335.2236 335.2827 336.2821
   336.2821 337.5742 338.5825 339.2044 339.7684 339.7684 339.9364 339.9364
   340.2538 340.3071 340.3071 340.4039 341.4057 341.4057 342.3379 342.3913
   342.3913 342.8472 342.9298 342.9298 343.2357 343.2357 343.3964 343.4773
   345.4419 345.4419 345.5963 345.7784 345.7784 346.0446 346.0446 346.0718
   346.5702 346.5702 346.6509 347.1829 347.2303 347.2303 348.0604 348.0604
   348.9878 350.0983 350.1925 350.1925 350.3259 350.3259 350.3982 350.7642
   350.8436 350.8436 350.8631 351.3206 351.3789 351.3789 351.3984 351.6729
   352.1935 352.1936 353.8049 353.8049 354.3652 354.9918 354.9918 355.5100
   355.7375 355.7473 355.7473 355.9571 355.9571 356.2052 356.6091 356.6091
   357.2032 357.5835 357.6747 357.6747 358.0095 358.2039 358.2039 358.7497
   358.7497 358.8390 358.8390 359.5218 359.5251 359.5251 359.7930 359.7930
   359.8796 360.4278 360.4278 360.5028 360.7544 360.7544 360.7573 361.4092
   361.4092 361.4662 363.0509 363.0509 363.3422 363.8452 363.9577 363.9577
   367.9114 367.9114 367.9623 369.0040 369.0040 369.3289 369.4030 369.4030
   370.1101 370.9592 370.9592 371.1365 373.6231 373.6231 373.6232 374.0625
   374.0625 374.1729 375.9849 375.9916 375.9916 379.0169 379.0169 379.2653
   379.9054 379.9283 379.9283 380.1727 380.1727 380.2255 380.6917 380.6917
   380.8336 381.1999 381.3295 381.3295 381.4501 381.6188 381.6188 381.6773
   381.8233 381.8233 381.9300 381.9300 382.0067 383.3864 383.3864 383.4678
   384.1034 384.1034 384.1888 384.7351 384.7984 384.7984 385.0557 385.0557
   385.1448 386.3006 386.3006 386.7114 387.4693 388.2702 388.2702 388.4646
   388.5530 388.9043 388.9043 389.0681 390.4420 390.4420 392.9396 392.9396
   392.9474 393.5082 393.5082 394.1030 394.2730 394.6937 394.6937 395.0703
   395.0703 395.3647 395.3647 395.4791 395.7776 396.7610 396.7610 396.8222
   397.1956 397.9486 397.9486 398.0732 398.4795 398.4795 398.5383 400.7773
   400.7773 401.3268 401.3901 401.3901 401.9661 402.0586 402.0586 402.7418
   403.4688 403.4688 403.6650 404.8677 404.8677 405.4287 405.4287 405.5817
   405.7236 406.1387 406.1387 406.1901 406.2318 406.2318 406.6387 406.6387
   406.6662 406.8791 407.3688 407.3688 407.5232 407.5232 407.8912 408.4330
   408.4788 408.4788 410.5252 410.5252 411.0369 411.0793 411.0793 411.0949
   412.9472 412.9472 413.0674 413.9491 413.9491 414.0127 414.3820 414.3820
   414.5362 414.8353 414.8353 414.8920 415.4204 415.6840 415.6840 418.2360
   419.1371 419.1799 419.1799 419.3643 419.3643 419.7287 419.8575 419.9976
   419.9976 420.9683 420.9683 420.9942 421.7223 421.7223 422.4130 422.4274
   422.4274 425.8451 425.8451 425.9176 426.8050 426.8050 426.8934 427.8289
   427.8289 427.9594 427.9594 428.8634 429.2121 429.4483 429.9803 429.9803
   430.0538 430.8532 430.8532 431.1979 431.2858 431.2858 431.5215 431.5215
   431.5776 431.6369 432.1167 432.1167 432.2179 432.3787 432.3787 435.1669
   435.1669 435.9271 436.7399 436.7399 437.0316 437.4602 437.5289 437.5289
   437.7334 437.9884 438.0004 438.0004 438.0798 438.0798 438.7144 438.8841
   438.8841 439.1753 439.1753 439.1927 439.6789 440.4932 440.5066 440.5066
   440.7431 440.7431 440.7935 442.3616 442.3616 443.0619 443.5722 443.5722
   443.6944 443.7697 443.7697 443.8513 444.1204 444.1204 444.5840 445.2335
   445.2335 445.4693 447.6267 447.6267 448.0117 448.3775 448.3775 448.5608
   448.8699 448.9539 448.9539 449.2867 449.3881 449.3881 449.6484 450.4121
   450.7898 450.7898 451.3968 451.3968 452.0218 453.2656 453.4370 453.4370
   453.7640 453.7640 453.9049 454.1034 454.1034 454.1135 454.2530 454.2530
   454.3122 454.4950 454.4950 455.1686 455.8550 456.2477 456.2477 456.7325
   456.7325 457.2335 457.9254 457.9254 457.9324 458.1866 458.1866 460.0469
   460.0469 460.1684 460.4235 460.4235 460.4569 461.0684 461.0855 461.0855
   461.5180 461.5180 461.8011 462.5387 462.6435 462.6435 464.7802 464.7802
   464.9712 465.5390 465.5581 465.5581 465.7512 465.7512 465.9999 466.0138
   466.1358 466.1358 466.4282 466.4976 466.4976 466.8490 466.9633 466.9633
   467.5314 467.5449 467.5449 467.7434 469.5167 469.5801 469.5801 469.7567
   469.7567 469.8182 470.4097 470.4097 476.1280 476.1280 476.3772 476.6232
   476.6232 476.8718 477.1701 477.1981 477.1981 477.5073 477.5816 477.5816
   477.6338 477.6338 477.8247 477.8247 477.8798 478.3931 478.6343 478.6652
   478.6652 479.0281 479.1260 479.1260 479.2872 480.5392 480.5919 480.5919
   481.2428 481.2428 481.2546 481.2546 481.2808 481.2939 481.9450 481.9450
   484.2049 484.2850 484.2850 484.7082 484.7082 484.9349 485.0699 485.0699
   486.1448 486.5583 486.5724 486.5728 486.5728 486.7315 486.7315 486.8874
   487.2180 487.2357 487.2357 487.3232 487.3232 487.3240 488.6356 488.6356
   489.0139 489.0139 489.0541 491.0090 491.0090 491.0360 491.4365 491.4365
   491.5964 491.6301 491.6301 491.7241 491.7695 491.7695 491.9333 491.9928
   491.9928 492.0121 494.0037 494.2186 494.2186 494.8109 494.8109 494.9789
   495.5787 495.5787 495.8064 499.7513 499.7513 500.0142 501.6007 501.8917
   501.8917 502.1305 503.0612 503.0612 503.2762 503.2762 503.3434 503.3540
   503.3540 503.5088 503.9504 503.9581 503.9581 504.0598 504.0598 504.1206

          k = 0.5000-0.5000 0.5000 (  2452 PWs)   bands (ev):

   -97.0267 -58.5144 -58.5142 -58.5142  -4.5313   0.3448   5.0609   5.0609
     7.9851  10.5598  10.5598  13.6192  16.9984  17.4753  17.4753  18.0087
    18.0087  18.8796  25.5586  26.0357  27.5457  27.5457  28.1027  28.1027
    31.3843  32.2610  32.2610  32.7328  33.4146  33.4146  34.8682  38.0596
    38.0596  38.3012  38.3012  38.8931  40.0527  40.9171  45.4757  45.4757
    45.6562  46.5500  46.5500  47.6011  50.9522  50.9522  53.7468  53.7468
    53.7878  55.1976  55.6226  55.6226  56.8987  56.8987  56.9036  58.5956
    58.5956  61.1466  61.5934  61.5934  62.9715  62.9715  63.2743  64.7996
    64.7996  65.2871  65.9217  66.1801  68.1589  68.1589  68.5314  68.9641
    68.9641  70.2494  71.6932  72.5731  72.5731  73.9225  73.9225  74.8618
    76.2621  76.2621  76.6979  81.4809  81.4809  82.5505  83.3846  83.8724
    83.8724  84.5544  85.0282  85.0282  85.8950  88.1710  88.1710  89.1931
    89.9195  89.9195  90.2568  90.2568  90.2681  90.8713  92.1153  92.9117
    92.9511  92.9511  92.9689  92.9689  94.2109  96.0107  96.0107  97.7607
    99.7145  99.7145 100.8822 101.6854 101.6854 102.0422 102.0422 102.4268
   102.9052 103.3748 104.0809 104.0809 104.1711 104.4776 104.4776 105.8961
   105.9292 105.9292 106.9274 106.9274 107.5734 111.9945 111.9945 112.0283
   112.3747 112.3747 112.5452 113.5615 113.5615 114.3845 114.3845 114.4230
   117.1892 117.1892 118.2444 119.0529 119.0529 119.8037 119.8037 121.0272
   121.8272 121.8361 121.8422 124.1969 124.1969 124.6846 124.6846 125.1130
   125.1130 126.0094 127.0008 127.0008 127.5768 127.5768 127.6727 128.5401
   129.3708 130.3992 130.3992 133.2391 135.0881 135.8830 135.8830 136.8895
   136.9824 136.9824 137.7067 137.7067 137.9104 138.3274 138.4766 139.4940
   139.4940 141.2152 141.8717 141.8717 142.5456 142.5456 143.3395 143.5646
   143.5646 144.8006 146.2481 146.2481 146.4302 146.7338 146.7693 146.7693
   147.1456 147.1456 148.1375 148.1375 148.8695 149.0978 149.0978 149.2374
   150.2485 150.2485 151.8407 152.3888 152.3888 152.9940 153.0787 153.0787
   154.0956 154.8069 155.4567 155.4567 156.1519 156.8242 156.8242 157.1508
   157.1508 158.4081 158.4081 158.8894 159.8757 159.8757 159.9786 163.0618
   163.5867 163.8856 163.8856 165.1713 166.5644 166.7105 166.7105 167.4536
   167.4899 167.4899 167.6480 167.8193 167.8193 168.6403 168.7318 168.7318
   170.2985 170.2985 170.6548 170.6548 170.7328 171.4518 171.4891 174.2840
   174.2840 175.0575 175.8298 175.8298 177.2249 177.5315 177.9253 177.9253
   178.2878 178.2878 178.9023 178.9023 179.1091 179.1091 179.2365 179.4203
   179.9419 182.3455 182.3455 184.5843 184.5843 184.9851 187.3207 187.3207
   189.1872 189.7663 189.7663 189.9699 191.2231 191.2231 191.7714 191.7714
   191.9047 192.5497 193.4547 193.4547 193.4781 193.7785 193.7785 194.0864
   194.4211 194.4347 195.8198 195.8478 195.8478 196.7573 196.8205 196.8205
   198.0475 198.0475 198.3070 198.3070 199.8420 199.8420 200.1462 200.1805
   200.1805 200.4057 200.8260 200.8260 201.5397 201.7869 201.7869 201.9718
   203.7563 203.7563 203.7978 203.7978 204.2292 204.4829 204.8634 204.8634
   204.9255 204.9255 205.6938 205.8729 205.8769 207.5961 208.5321 208.5321
   210.9671 211.1552 211.1552 211.3214 213.8203 213.8203 214.4827 214.4827
   214.6165 215.0344 215.0344 215.3652 215.3652 215.8418 217.9815 217.9815
   217.9967 218.6857 218.6857 219.2218 219.2788 219.2788 219.3685 219.6965
   219.6965 219.9678 220.9140 220.9140 221.2074 221.7279 221.7279 221.9513
   223.9685 223.9685 224.0636 224.0636 224.1123 224.2831 225.0154 225.0154
   226.0821 227.8627 228.1022 228.1022 229.0966 229.5047 229.5047 230.0230
   230.1736 230.1736 230.8913 230.8913 231.3544 231.3544 231.4646 231.8488
   235.3334 235.7212 235.7212 236.3108 236.5998 236.5998 236.9522 237.9995
   238.0554 238.4891 238.4891 239.3827 239.3827 240.0219 240.4754 240.9987
   240.9987 241.2987 241.2987 241.6132 243.9763 243.9763 244.2986 244.2986
   246.1068 246.6088 246.6088 247.7625 248.0065 248.0065 249.1763 249.5775
   249.5775 249.8122 250.0199 250.1893 250.1893 250.7560 250.8391 250.8391
   250.9135 251.3220 251.3220 251.3807 253.5197 253.5197 253.5497 253.5497
   255.8693 256.1813 256.1813 257.1373 257.1373 257.1641 257.4338 257.4338
   257.5642 257.7807 257.7807 258.1166 258.9566 258.9566 259.7029 259.7040
   259.7040 259.8624 260.3807 262.8912 262.8912 263.0256 263.2385 263.2385
   263.3049 263.3049 263.7324 263.7709 263.7709 263.8704 266.4779 267.2146
   267.2146 267.9442 267.9442 268.2248 268.2645 268.2645 268.5570 268.5570
   269.3318 269.4279 271.6880 272.0852 272.0852 272.7173 272.7173 272.9195
   273.8242 273.8519 274.1049 274.1049 274.2757 274.2757 274.4494 274.7500
   276.5163 276.5163 276.5754 276.5754 277.3040 277.3604 278.1013 278.1013
   278.1626 278.1626 278.6950 278.9743 281.1458 281.1458 282.3721 282.3768
   282.3768 282.9938 284.1526 284.2668 284.2668 284.3827 284.3827 284.4370
   287.2892 287.2892 287.2928 287.2928 287.3690 287.4198 288.7340 288.7891
   288.7891 288.9507 288.9507 289.0035 289.2589 289.2589 289.3359 289.3370
   289.3370 289.4711 290.4560 290.8642 291.1607 291.1607 291.2067 291.2067
   291.5420 291.7715 291.7715 291.9341 291.9341 292.2402 293.8983 293.8983
   294.3638 294.3638 295.0518 295.1025 295.1419 295.4812 295.7575 295.7575
   295.9667 295.9667 297.3715 297.3715 297.4506 297.4506 297.6451 297.7302
   301.4530 301.4530 301.8223 301.9494 301.9494 301.9883 302.0603 303.5742
   305.7076 305.7076 305.9724 305.9724 306.2277 306.3334 308.2037 308.2037
   308.2526 308.2526 312.3337 312.3337 313.8201 313.8201 313.8637 314.0769
   314.1590 314.1590 314.2008 314.2008 314.5722 314.8768 314.8768 314.8997
   314.8997 314.9779 314.9859 315.0167 316.0247 316.0247 316.0353 316.0353
   317.5683 317.5754 318.0769 319.4226 319.6026 319.6026 321.2804 321.2804
   321.7220 321.7689 321.8784 321.8784 322.0302 322.0302 322.1623 322.6563
   322.6563 323.2874 323.2874 323.6400 326.4775 326.4775 326.5099 326.5099
   326.8001 326.8849 328.2773 328.2773 328.5185 328.6963 328.6963 328.7218
   328.8075 330.3770 331.5532 331.8197 331.8197 332.0657 332.0657 332.1868
   333.5964 334.0380 334.0380 334.7200 334.7200 335.2810 335.8291 335.8291
   335.9202 335.9202 335.9992 335.9992 336.5753 336.5753 336.7224 337.8001
   338.1226 338.5181 339.2530 339.2530 339.5301 339.5301 340.2426 340.2426
   340.3033 340.3816 340.4602 340.4602 342.6496 342.7308 342.7308 342.7614
   342.7614 342.9419 343.6946 343.6946 343.8258 343.8258 344.1706 344.6089
   344.7673 344.8389 345.0393 345.0393 345.0860 345.0860 346.9196 346.9196
   346.9811 346.9811 346.9955 347.1095 349.1515 349.1515 349.4231 349.5744
   349.5744 349.7188 352.1270 352.2690 352.2690 352.6470 352.6470 352.9542
   353.5401 353.8395 353.8395 354.2225 354.2225 354.3702 356.3101 356.5766
   356.5766 356.6808 356.9069 356.9069 357.0769 357.6040 357.6040 357.7207
   357.7207 357.7495 357.7613 357.8330 357.8330 357.8981 357.8981 358.2283
   362.2684 362.2684 362.6172 362.6618 362.6618 362.6975 363.3893 363.3893
   363.4081 363.4081 363.4853 363.4901 363.8825 364.2087 364.2650 364.2650
   364.4686 364.4686 364.5997 364.6216 367.0692 367.0692 367.1268 367.1268
   368.5981 368.9955 368.9955 369.0511 369.0511 369.3775 369.5256 369.8115
   369.8115 369.8552 369.9326 369.9326 370.2443 370.2443 370.2633 370.2633
   370.3160 370.3232 373.5846 373.5948 373.5948 373.6747 373.7957 373.8547
   373.8547 374.7774 380.1507 380.1507 380.3757 380.3757 380.5496 380.6592
   380.6592 380.6866 380.7840 380.7840 380.8766 381.7917 382.5250 382.5250
   382.5379 382.5379 385.6671 385.6671 386.4353 386.4739 386.4739 386.6751
   387.1890 387.7772 387.7772 387.8513 387.8513 388.7392 388.7983 388.7983
   388.9703 388.9703 389.0279 389.1815 389.1815 389.1976 389.2809 389.2809
   389.3325 389.4403 389.5519 389.5519 389.6547 389.6547 389.8767 390.3282
   391.6996 391.7253 391.7253 391.8203 391.8203 391.8991 395.7226 395.7226
   395.8229 395.9785 395.9785 396.2298 399.2465 399.2656 399.2966 399.2966
   399.3133 399.3133 400.7105 400.7105 400.7238 400.7676 400.7676 400.9455
   401.6241 401.9221 401.9221 401.9990 401.9990 402.0930 403.0045 403.4789
   403.4789 403.5788 403.5788 403.8371 404.2096 404.2096 404.2906 404.2906
   404.3509 404.4292 404.6669 404.7020 404.7020 404.8013 404.8013 404.8514
   408.4583 408.4583 408.4787 408.4787 408.8638 408.8682 412.3043 413.1365
   414.2600 414.2600 414.5282 414.8068 414.8068 415.1268 415.9343 415.9343
   416.1114 416.1114 416.7712 416.8802 416.9911 417.1168 417.2326 417.2326
   417.2958 417.2958 418.1291 418.1291 418.1721 418.1721 419.2895 419.5795
   420.0329 420.0329 420.3024 420.3919 420.3919 420.4419 421.8908 421.8908
   422.0064 422.0064 422.4058 422.6967 423.6420 423.6420 423.8132 423.9268
   423.9268 424.0782 425.3967 425.4197 426.0662 426.0662 426.0868 426.0868
   426.8007 426.8949 426.8949 426.9615 426.9615 427.2883 427.5565 427.5565
   427.5658 427.5658 427.9066 427.9205 428.9717 429.0146 429.0146 429.0206
   429.0207 429.0207 429.1337 429.1337 429.1676 429.1676 429.2198 429.2706
   434.3464 434.3885 434.3885 434.5231 434.5231 434.7054 436.2906 436.2906
   436.3408 436.3408 436.9040 436.9830 437.0535 437.0535 437.1582 437.1749
   437.4220 437.4220 437.4852 437.6097 437.6097 437.6457 437.6457 437.7268
   441.7912 442.1685 442.7587 442.7587 442.9449 442.9449 442.9936 443.1157
   443.3362 443.3959 443.3959 443.7323 443.8205 443.8205 445.4409 445.4409
   445.4894 445.4894 445.7306 445.8126 445.8126 445.9600 445.9600 446.0095
   446.9351 447.0558 447.0558 447.2862 447.2862 447.3892 448.0406 448.1982
   448.1982 448.4425 448.4425 448.7340 450.7737 450.9998 450.9998 451.3701
   451.3701 451.9705 452.4147 452.4147 452.4311 452.4311 452.7796 453.2972
   453.2972 453.4063 453.5059 453.5442 453.5442 453.7908 454.0832 454.0979
   454.0979 454.1703 454.1703 454.2443 454.4414 454.4992 456.7331 456.7331
   456.7709 456.7709 459.6273 459.6273 459.6283 459.6283 460.5550 460.5555
   461.2732 461.2732 461.3426 461.3460 461.3460 461.4211 463.8124 463.8124
   463.8207 463.8208 463.8208 463.8387 469.0042 469.0042 469.1947 469.5373
   469.5373 469.9298 471.6115 471.7602 471.7602 472.0288 472.0288 472.1619
   472.4535 472.5213 472.5213 472.6228 472.6228 472.7370 472.9992 472.9992
   473.0124 473.0219 473.0690 473.0690 473.2026 473.2122 473.2122 473.5363
   473.5363 473.6629 474.5724 474.7400 474.7400 475.0378 475.0378 475.1632
   475.9792 476.1020 477.6237 477.6424 477.6424 477.9019 477.9019 478.0569
   478.1426 478.1426 478.3004 478.5223 478.5223 478.6057 478.6057 478.6126
   478.8516 478.8619 478.8805 478.8805 478.9458 478.9458 479.2113 479.3121
   479.3121 479.7322 479.8309 479.9507 479.9507 480.0903 480.0903 480.0942
   484.5998 484.5998 484.6187 484.6187 484.8623 484.8715 485.0162 485.0162
   485.0232 485.0232 485.7023 485.7023 485.7436 485.7436 485.7616 485.7650
   486.0813 486.1311 486.1311 486.1877 486.1877 486.2054 489.4878 489.5457
   489.5457 489.7583 489.7583 490.0357 494.2848 494.2848 494.3119 494.3149
   494.3149 494.3285 498.1661 498.1661 498.2798 498.2900 498.2900 498.3646
   498.5203 498.5203 498.5537 498.5537 498.6107 498.6413 500.7670 501.0304
   501.0304 501.2095 501.2095 501.2867 501.2867 501.3605 501.3605 501.4242
   501.4276 501.4764 507.9979 508.0996 508.0996 508.2686 508.2686 508.6012

          k = 0.0000 0.3333 0.0000 (  2445 PWs)   bands (ev):

   -97.0263 -58.5142 -58.5142 -58.5142  -5.5783   3.8741   5.1044   5.1044
     9.1541   9.7525  11.4762  11.4762  12.8293  15.4385  16.5129  18.1707
    18.1707  18.8037  23.9275  25.8480  25.8480  27.1520  27.7757  30.7679
    32.4887  32.4887  33.6371  36.8064  36.8064  38.0811  38.2678  38.8580
    38.8580  39.3853  40.7703  43.3238  43.3238  43.5259  43.9916  44.7739
    44.9499  44.9499  45.7040  48.2968  48.2968  48.5132  49.1875  50.2835
    50.8131  50.8131  51.4431  51.4431  51.6032  52.3107  53.4424  54.7719
    55.8743  55.8743  58.6872  59.7691  61.1903  61.1903  61.8079  64.0584
    68.1972  68.5345  68.5345  70.6975  71.5387  71.6013  71.6013  72.9074
    73.9160  73.9160  74.1843  74.5479  77.0913  78.5217  78.5217  79.0534
    79.5206  79.5206  80.2522  80.9149  83.0468  83.1082  83.7846  83.7846
    83.9222  85.2449  85.7482  85.7482  86.6899  88.2743  88.2743  88.5703
    89.2604  89.2604  89.3744  90.2560  90.2724  92.2622  92.2622  92.2953
    93.0514  93.1921  93.5659  93.7683  93.7683  94.6943  94.6943  96.1521
    97.4271  97.7486  97.7486  97.8235  98.4718  99.1495 100.0531 100.3531
   100.3531 100.8327 101.8684 101.9630 101.9630 103.6044 103.6044 104.2155
   104.8338 106.5456 107.7312 107.7312 108.0830 109.5180 110.8510 111.4512
   111.4512 111.6994 113.0518 113.0518 113.3292 114.1374 115.2235 115.2235
   116.2369 116.8945 117.2229 117.4904 117.4904 118.2776 118.9584 118.9584
   119.0788 119.4919 121.7436 121.7436 123.6322 124.1005 124.3026 124.9744
   124.9744 125.1070 125.4419 125.4419 126.6648 128.3549 129.0045 129.0045
   129.4499 130.5692 131.5397 131.5397 132.9796 136.3626 136.5758 137.0997
   137.5553 137.5553 137.6244 138.3385 138.3385 139.5890 140.4220 142.0858
   142.0858 142.1403 143.1148 143.1148 143.1983 144.5352 144.8085 145.3277
   145.3277 146.5531 146.7683 147.1808 147.1808 148.5732 148.9287 149.6164
   150.1024 150.1024 150.1632 151.7389 151.7389 151.7842 153.2955 153.9749
   153.9749 154.3520 154.4694 155.0230 155.0230 155.8154 155.9209 155.9755
   155.9755 156.1574 156.3880 157.4572 158.7139 158.7139 159.5091 159.9469
   160.5432 160.6430 160.6430 160.7609 161.2277 161.2277 162.1616 162.7812
   162.7812 163.4319 163.5773 163.5773 164.0127 164.6395 166.2911 166.6413
   166.9287 166.9287 167.5186 167.8021 167.8021 167.8701 168.9390 169.4223
   169.8837 169.8837 170.1855 171.1336 171.1336 172.1208 173.2234 173.6934
   173.7307 173.7307 174.4396 174.4396 174.7659 174.8406 175.5051 175.9670
   175.9670 176.9797 177.4786 178.4247 178.4531 178.4531 179.2565 179.2565
   179.7673 180.4619 180.7957 180.7957 180.8241 180.9682 181.3414 181.6097
   181.9921 181.9921 182.0624 183.6756 183.8784 184.1808 184.1808 185.0287
   185.0287 185.1472 185.3597 188.0436 188.0436 188.1631 188.6832 189.3079
   189.7930 189.7930 191.7001 193.1428 193.6241 194.4304 194.4304 194.6740
   194.9571 194.9571 195.3636 196.3213 198.8610 199.4382 199.8071 199.8071
   200.7231 200.7231 201.7870 201.7870 202.0595 203.4493 203.7271 204.4897
   204.9101 205.2208 205.2208 205.6252 205.7239 205.7239 206.0337 206.1362
   207.9614 208.6735 208.6735 208.8930 208.9951 209.6140 209.6140 209.7791
   210.1259 210.5460 210.5460 211.9046 212.5000 212.9636 212.9636 215.8360
   216.4154 216.4154 218.9493 218.9493 220.1326 220.2631 220.4814 221.2366
   221.2366 221.3445 221.3821 221.8074 221.8074 223.3371 223.8403 224.8131
   224.8131 224.8734 225.0703 225.3641 226.3789 227.1589 227.1589 228.1429
   228.2584 228.5616 228.5616 229.1230 229.2624 229.2624 229.7194 230.2882
   230.2882 230.5516 231.8055 233.8871 233.8871 234.1063 234.1893 234.5515
   234.8748 234.8748 235.2100 235.4999 236.3253 236.7631 236.7631 237.0558
   237.0707 237.0707 237.5612 237.8861 237.8861 237.9776 238.1536 238.3865
   238.3865 238.5806 238.9386 240.3542 240.3902 241.0064 241.0064 241.3380
   241.4453 241.6490 241.6490 241.8217 241.8217 242.3923 242.9316 243.7111
   245.2623 245.2623 245.7582 246.5032 246.6023 246.6023 246.9793 248.2804
   249.4257 249.8116 249.8116 250.2013 250.4347 250.4732 250.5235 250.5235
   250.5541 250.8437 250.8437 250.9088 251.1917 252.1895 252.1895 252.3420
   252.5610 253.1564 253.1564 254.2224 254.5336 255.3368 255.3368 256.0832
   256.3045 256.3045 256.6889 257.4778 257.9517 257.9517 258.2268 258.9259
   259.0323 259.0323 259.3415 259.6054 259.6054 259.7583 259.8787 260.2853
   260.2853 260.4525 260.5583 261.9389 262.0723 262.0723 262.2489 262.9693
   263.8325 263.8325 265.5441 266.0900 266.6389 266.9076 266.9076 267.3307
   267.3307 267.4981 267.5773 267.6245 267.6560 267.6560 267.6806 267.9610
   268.1857 268.9123 268.9123 269.8017 270.7499 270.7499 271.1474 272.1991
   272.2965 272.5701 272.5701 272.6909 274.4582 274.9252 275.8542 275.8542
   276.5556 277.1605 277.1605 277.1718 277.6182 278.8844 278.8844 279.5744
   279.6903 279.6903 279.8604 280.3767 280.5749 280.6012 280.6012 280.7994
   283.0299 283.8669 284.4468 284.4468 284.6294 285.8056 285.8056 286.9711
   287.5742 287.8409 287.8409 287.8755 287.9711 287.9711 288.0857 288.7186
   289.5460 289.9990 289.9990 290.2785 290.5596 290.5596 290.6708 291.7504
   292.0642 292.7291 292.7291 293.6147 293.7115 293.7528 293.8534 293.8534
   293.9584 293.9584 294.0820 294.5854 299.4195 299.4195 299.8033 300.1092
   300.4774 301.3643 301.3643 301.6811 302.5594 302.6162 302.6162 302.7287
   303.2988 303.3571 303.3571 304.1811 305.4842 306.2891 306.2891 307.1272
   307.3844 307.3844 307.8332 308.7096 309.2417 310.1048 310.1048 310.8551
   312.0775 312.4410 312.4410 312.7792 313.0091 313.0091 313.2206 313.6487
   313.9134 313.9522 313.9522 314.0767 315.8199 317.2595 317.2595 318.0246
   318.6245 318.9658 319.0285 319.0285 319.1459 320.3445 320.6125 320.6125
   321.2046 321.2324 322.1322 322.2235 322.2235 322.5405 322.5405 322.5666
   322.9772 323.4729 324.0299 324.0299 324.3892 324.6476 324.9070 324.9070
   325.1360 325.2974 325.2974 325.3186 325.8618 326.5126 326.7332 326.7574
   326.7574 326.9091 326.9832 326.9832 327.3698 327.8562 328.0413 328.0413
   328.1725 330.0876 330.8197 330.8197 331.1304 331.5785 332.3230 332.4911
   332.4911 332.5572 332.7929 332.8287 332.8287 333.5275 334.0860 334.2187
   334.2212 334.2212 334.2560 334.3308 334.3308 334.7355 337.0834 337.0834
   337.0884 337.2441 337.2441 337.3737 339.9900 340.4171 341.0000 341.0000
   341.0606 341.3807 342.0319 342.0405 342.0405 342.0609 342.7408 342.7408
   343.5752 343.5752 343.5987 343.6047 343.6991 344.8483 346.0008 346.0008
   346.1189 346.2414 348.1347 348.1459 348.1459 348.2356 349.2422 349.3152
   349.3152 349.7508 349.7508 350.2773 350.4476 351.4649 352.1809 352.4661
   354.1695 354.1695 354.3267 354.5378 354.5378 354.7858 354.8551 355.1124
   355.1124 355.3349 355.8314 355.8314 356.6766 357.3773 357.9021 357.9021
   357.9654 358.6499 358.6529 358.6529 358.8858 358.8858 358.9213 359.0205
   359.4711 359.6228 359.6661 359.6661 359.9415 361.0342 361.8889 361.8889
   362.6080 362.8487 362.9585 362.9585 363.3809 363.8063 363.8063 363.8088
   363.8168 364.6448 364.8555 364.8555 365.0791 365.4852 365.9245 365.9245
   366.2932 366.9383 366.9383 367.1408 367.1822 367.2504 367.4762 367.4762
   367.6002 369.2256 369.2256 369.2989 369.3364 369.6046 369.6312 369.6312
   369.7082 370.6249 370.6249 370.6457 370.9042 371.2769 371.3581 371.3581
   371.4408 372.3417 372.6158 372.6158 373.5588 373.6722 374.8178 374.8178
   375.3814 375.8917 376.0574 376.1950 376.1950 376.6225 376.6225 376.9747
   377.1324 379.4024 379.6630 379.6630 379.9150 380.3940 380.4247 380.4247
   380.5135 381.2260 381.5856 381.5977 381.5977 381.7941 381.7941 381.9778
   382.1305 382.7893 382.7893 382.8666 383.0941 383.1365 384.0953 384.0953
   384.8476 385.2293 385.5533 385.5533 385.6845 386.4892 386.8261 387.0777
   387.0777 387.2821 387.7899 388.0903 388.0903 388.6717 388.7501 388.7501
   388.7966 389.6221 390.6746 390.6746 391.6811 392.7227 392.7522 392.7581
   392.8053 392.8053 393.0079 393.0079 393.1847 393.3012 393.3012 393.6943
   393.7345 393.7690 393.7690 393.8414 393.8838 393.9756 394.6548 394.6548
   394.8917 395.5871 395.7111 395.7111 395.7949 395.9205 397.2731 397.2731
   398.2855 400.7719 400.8276 401.0781 401.0781 401.7827 401.9612 401.9612
   402.3337 403.8674 404.4589 404.7490 404.7490 405.0382 405.9909 407.1408
   407.1408 407.3114 407.5904 407.9412 407.9963 407.9963 408.2324 408.4194
   408.4194 410.1301 410.6560 412.2236 412.2236 412.5697 412.8610 412.8610
   413.4315 413.4647 414.1814 414.1814 414.4610 414.5792 414.5792 414.7488
   414.8351 416.0450 416.1525 416.1657 416.1657 416.2453 416.2555 416.2555
   416.2682 419.6588 419.6588 419.9580 420.2504 420.4884 420.6203 420.6203
   420.6363 421.5215 421.5215 421.5390 422.1650 423.0452 423.0452 423.0775
   423.2757 423.8931 424.1999 424.1999 424.3330 425.0411 425.8263 425.8263
   425.8718 425.9681 425.9681 426.0051 426.3170 426.6908 427.3370 427.7980
   427.7980 428.3443 428.3527 428.4150 428.4150 429.1304 429.1304 429.1823
   429.2252 429.8881 429.9088 430.1528 430.1528 430.4184 431.8740 432.2676
   432.2676 432.6186 438.5754 438.7299 438.7299 438.8881 439.5864 439.7529
   439.7529 439.9984 440.7541 442.1210 442.2262 442.4283 442.4283 442.7524
   443.3286 443.3838 443.3838 443.5979 443.6987 443.6987 443.7883 443.9744
   444.1896 444.1896 444.4052 446.4691 446.5759 446.5759 446.8672 446.8682
   446.9899 446.9899 447.0003 448.1033 448.1033 448.1387 448.3085 448.3085
   448.6364 448.6451 448.8959 448.8959 449.7281 450.1026 450.6283 450.7104
   450.9341 450.9341 451.0270 451.0270 451.2046 452.1574 452.3054 452.3054
   452.4208 452.4437 452.9214 453.1355 453.1355 453.3195 457.9971 457.9971
   458.1003 458.1137 459.0406 459.2935 459.3290 459.3290 460.0607 460.6452
   460.6452 460.7233 461.1231 461.2600 461.2600 461.4851 461.5764 461.5765
   461.6648 461.7994 461.9146 463.4336 463.4336 463.6824 463.6824 463.7754
   464.1276 464.3700 464.7773 464.7773 464.9831 465.1023 465.2179 465.2750
   465.2750 465.7719 466.1309 466.7769 466.7769 467.0328 467.0328 467.0358
   467.1016 467.1424 467.6269 467.8781 467.9921 467.9921 468.2798 468.4057
   468.4057 468.7560 468.7560 468.7907 468.8365 468.9523 469.5533 469.8122
   469.8122 470.0533 471.0824 471.2656 471.2656 471.3288 472.0385 472.4097
   472.5151 472.5151 472.6601 472.6601 472.7151 473.3319 473.7253 473.8468
   473.8468 473.9688 474.4026 474.4704 474.4704 474.5104 477.5375 477.5375
   477.6386 477.6487 478.0726 478.0797 478.0797 478.1992 478.4775 478.6079
   478.6522 478.6522 478.6979 478.8073 478.8073 478.8450 479.5360 479.5437
   479.5437 479.5845 479.6474 479.8229 479.8229 479.9909 481.2550 481.3387
   481.3387 481.4619 482.0021 482.3091 482.3091 482.5111 483.6325 484.3003
   484.3003 484.4447 484.9334 484.9884 484.9884 484.9965 486.0799 486.1190
   486.1190 486.1555 486.6014 486.6014 486.6168 486.6685 487.5413 487.6502
   487.6502 487.7702 488.6426 488.9450 488.9450 489.2767 489.9459 490.1949
   490.1949 490.3398 490.9853 492.1544 492.1598 492.1598 492.1623 493.1910
   493.2243 493.2243 493.2582 493.6714 493.8246 493.8246 493.8255 494.6922
   494.8235 494.8235 495.7064 496.3209 496.3405 496.3405 496.5625 496.5639
   496.7240 496.7240 496.7304 497.4413 497.5560 497.5560 497.6378 500.6175
   501.4714 501.4714 501.7487 502.0802 502.1215 502.1215 502.1427 502.3201

          k =-0.1667 0.5000-0.1667 (  2417 PWs)   bands (ev):

   -97.0256 -58.5143 -58.5142 -58.5142  -5.0309   2.0511   4.4611   4.6613
     8.9541  10.3502  11.4370  12.0808  14.6360  16.0710  16.9240  19.1682
    20.2706  21.9215  22.0982  22.6542  26.1994  27.1235  27.7169  28.7725
    31.5369  32.7989  33.0821  34.7210  35.0953  36.3935  37.5252  37.5661
    38.9192  38.9753  40.5874  40.8924  41.6882  42.9358  43.0590  44.2296
    45.5413  46.2283  47.5621  47.6538  48.3739  48.6224  49.5438  50.5287
    51.0970  51.6797  53.6444  54.4948  54.8358  55.5534  56.7141  58.5909
    59.1243  60.3769  61.0052  61.7822  61.9069  63.5230  64.5406  65.2207
    65.6667  65.7912  66.7347  66.8191  68.7448  68.8116  69.3373  69.9933
    71.4534  71.7945  72.8379  74.4534  75.3050  75.8247  76.3870  77.1034
    77.8094  77.9604  78.8963  79.3579  80.2900  81.2940  81.3147  83.6946
    84.2962  84.9146  85.6712  85.8597  86.2998  87.3165  87.7767  88.6139
    88.7627  89.3803  89.6879  90.6975  91.1298  91.5395  92.2656  92.2826
    93.3061  94.3719  94.8994  95.3620  95.6988  96.0668  96.4131  97.3503
    97.6670  98.0264  98.1079  99.2358  99.3807  99.9592 100.9632 101.1240
   101.6750 102.1519 103.1307 103.2763 103.9171 104.4508 105.2738 106.4637
   106.8828 107.2067 108.0401 108.2213 108.7010 108.7737 108.9028 109.7736
   110.8501 111.6562 111.9108 112.0948 112.6596 113.5843 114.3687 115.0881
   116.4946 116.5352 118.2010 118.6468 118.8774 119.5815 120.1300 120.9785
   122.3198 122.3624 123.3471 123.7441 124.0053 124.2984 125.3697 125.6102
   126.7887 126.9098 127.6278 127.9000 128.9738 129.3151 130.0369 131.0387
   131.3939 132.0272 132.8333 133.4458 133.6208 133.9663 134.1540 135.1760
   135.5983 135.9378 136.2966 136.7126 136.7744 137.5120 138.8262 139.3917
   139.4475 139.7328 140.2591 140.6814 141.4900 142.0898 142.8092 143.0215
   143.1737 143.9529 144.6700 145.3639 145.5924 146.4971 146.5694 147.0273
   147.2244 147.9887 148.6906 149.1003 149.7546 150.4289 150.9996 151.2345
   152.1658 152.4928 152.7543 153.2787 153.5895 153.8693 154.3768 154.6153
   155.2744 155.8286 156.3468 157.3896 157.6217 158.3727 158.6240 159.2233
   159.5896 160.0859 160.3825 160.9218 161.0059 161.2613 161.8369 162.3252
   163.0412 164.3632 164.9813 165.5705 165.6442 165.8796 166.0689 167.0306
   167.6320 168.2441 168.5891 168.7731 169.2541 169.4833 170.1587 170.3116
   170.9799 171.0941 171.7848 172.5211 172.5789 173.4912 173.5547 174.1518
   174.5251 175.3780 175.3871 175.7683 175.9027 176.1071 176.4937 176.7141
   177.2740 178.0123 179.0771 179.2633 179.3503 179.6864 179.7037 181.0434
   181.4049 181.4838 181.8569 182.2695 182.9735 183.2928 183.5486 183.5960
   183.9952 184.1317 184.5824 185.2617 185.3760 186.2321 186.6003 187.8081
   187.8339 188.9104 188.9784 189.5190 189.5282 190.1439 190.6544 190.9310
   191.6129 192.4911 192.6865 193.1366 193.5794 194.1404 194.6727 195.3093
   195.5945 196.1118 196.5855 196.9714 198.0608 198.0656 198.6007 199.8324
   200.4561 200.7223 201.5298 201.5365 201.9048 201.9794 202.2935 203.2877
   203.5885 204.3273 204.4690 205.0728 206.3231 206.5671 206.8208 206.9081
   207.3799 207.6807 208.3970 208.7649 209.1208 209.9403 210.8492 210.9706
   211.3731 211.7465 212.5375 212.9443 212.9773 213.8066 214.5546 215.0895
   215.5333 215.5527 216.3792 217.0748 217.3772 217.6481 218.4671 218.8235
   219.7207 219.8912 220.0590 220.4272 220.7860 220.8739 221.0082 221.2440
   221.9343 222.7377 223.1723 223.7912 224.4526 225.2021 225.7557 225.7869
   226.4187 226.7134 226.9093 227.4785 227.7857 227.9206 228.2119 228.4309
   228.6916 228.7260 229.1455 229.2793 229.8514 230.3670 230.9638 231.9975
   232.5599 232.9408 232.9727 233.4496 233.5323 234.3472 235.0121 235.0348
   235.4572 235.5622 236.0667 236.3211 236.4488 237.0026 237.1587 237.6021
   238.3946 238.6611 238.7538 239.0889 239.5429 240.2242 240.9616 241.7675
   241.9076 242.3367 242.5192 242.5943 242.8023 243.1870 243.2645 243.5452
   243.6334 243.7685 243.9133 244.2786 244.8263 245.9625 246.5910 247.1156
   247.3458 247.5202 247.7473 247.9678 248.3387 248.9989 249.0810 249.8387
   250.0292 250.2384 251.1541 251.3466 251.3636 251.5801 251.6263 251.9141
   252.3735 252.7700 254.4409 254.5229 255.1852 255.2364 255.9116 256.4375
   257.0807 257.8064 258.0189 258.2764 258.2835 258.4577 259.3742 259.5522
   259.6777 259.8615 260.4073 260.8481 260.8679 261.1370 262.0115 262.2137
   263.4007 263.4448 264.4324 264.6655 265.1251 265.3983 265.4770 266.6634
   266.9720 266.9938 267.6506 267.7634 268.0918 268.1420 268.3889 268.9139
   269.0953 269.1146 269.2597 269.6146 270.3258 271.8172 272.2755 272.3531
   272.9205 272.9800 273.0022 273.2411 273.4630 273.7122 273.8010 274.5931
   274.5967 274.9860 275.5529 275.9060 276.2938 277.0690 277.3226 278.0613
   278.3552 278.6418 279.2218 279.6266 279.6513 280.0945 280.3261 280.5916
   280.7848 280.8747 281.1860 281.4675 282.0461 282.1909 282.7010 282.7152
   283.3137 283.6630 284.0627 284.2064 284.5551 285.2763 286.3763 286.6342
   286.7155 287.0918 287.4886 288.1338 288.4301 288.5380 290.2878 290.3344
   290.8694 291.0178 291.2040 291.3672 291.9049 293.2806 293.3767 293.6628
   293.8148 294.2023 294.2433 294.3071 295.0686 295.2964 295.6630 295.8049
   296.4353 297.0628 297.9228 297.9719 298.4057 298.9216 299.1645 299.2401
   299.5392 300.1611 300.2017 300.4067 301.2335 301.6517 301.9767 302.2292
   302.6037 302.7119 303.1669 304.1147 304.4900 304.5791 304.6799 304.6815
   304.8594 305.1590 305.3840 305.6167 305.9359 306.9799 307.3672 307.7387
   308.1052 308.3873 308.8830 309.2816 309.5778 310.1711 310.4475 310.6208
   311.0366 311.0483 311.6290 311.9972 312.0765 312.0900 312.4285 312.5037
   312.9538 313.1861 313.3078 313.4257 313.5471 314.2972 316.8128 316.9628
   318.0323 318.7794 319.7147 320.4654 320.5312 321.0061 321.3235 321.7019
   321.9277 322.3089 322.5214 323.0041 323.2052 323.9328 324.1333 324.4953
   325.5358 325.7655 326.1080 326.2680 326.3220 326.5653 326.7389 326.8495
   327.4408 327.6333 328.7870 328.9215 329.4053 329.7981 330.2689 330.4630
   330.7087 331.3126 331.3223 331.5990 332.0409 332.2374 332.7351 333.4154
   333.4437 333.4992 333.7754 333.8262 334.1892 334.9981 335.2949 335.3498
   335.6516 335.7460 335.9558 336.2412 336.4790 336.9574 337.0280 337.7564
   337.9883 338.3482 338.4926 339.2128 339.2886 339.9335 340.1350 340.3114
   340.5302 340.6317 340.6430 340.8131 341.0009 341.4263 341.8785 342.6103
   343.0202 343.7670 343.8082 344.0377 344.2778 344.4654 344.4940 345.4559
   345.5979 345.7446 346.5893 347.1899 347.2372 347.8630 348.1878 348.2996
   348.8619 349.0640 349.1301 349.2205 349.3892 349.4519 349.7407 350.1965
   350.2770 350.4761 350.9441 351.3320 351.6886 351.7434 351.7888 351.8678
   352.0818 353.0419 354.9895 355.3109 355.4315 355.5017 355.7257 355.8993
   357.8874 357.9910 358.1313 358.5278 358.7617 359.0325 359.1437 359.2201
   359.6774 359.7967 359.9860 359.9876 360.1800 360.3874 360.4870 360.6512
   360.7666 361.0646 361.1359 361.9479 362.0269 362.6899 362.8254 363.2890
   363.4216 363.5211 364.0473 364.0619 364.3912 364.4144 364.5393 364.8669
   365.6027 365.6364 365.8221 367.0212 367.1590 367.9347 368.2275 368.5427
   368.8391 368.9704 369.6413 369.7137 369.8868 369.9125 370.2772 370.3465
   370.5918 371.0206 371.1468 371.2512 371.6248 371.6465 372.0732 372.6467
   372.6639 373.1362 373.2737 373.7699 374.0996 374.2501 374.3814 374.4603
   374.8277 374.8646 375.3827 375.4028 376.5677 376.6251 376.6507 376.6709
   377.4864 379.1767 379.3068 379.3128 380.6520 381.3227 381.4469 381.7108
   381.9205 381.9448 382.0689 382.1933 382.2075 382.5482 383.2070 383.4321
   383.8159 383.9966 384.4740 384.4751 385.5041 385.6508 385.6661 386.1229
   386.2340 386.3558 387.0654 387.1241 387.2173 388.1722 388.1977 388.3047
   388.4018 388.5141 389.1246 389.2701 389.2923 389.8431 391.0562 391.0616
   391.4328 391.8171 392.0626 392.4047 392.4563 392.5913 392.6801 393.1556
   394.2223 394.4181 395.8561 395.8937 395.9856 396.3571 396.6925 396.8991
   397.0828 397.7559 398.6606 399.0298 399.1006 399.1928 399.5612 400.2116
   400.2433 400.5683 400.8554 401.2033 401.3211 401.4363 401.7508 402.4991
   402.5915 402.6902 403.4103 404.0043 404.3694 404.3725 404.7796 404.9157
   405.3602 405.7240 405.7535 406.1163 406.4361 406.5970 406.7431 407.5182
   408.0322 408.5737 408.9939 409.2665 409.7072 410.6520 411.6108 412.0751
   412.1936 412.7521 413.2831 413.7609 413.9773 414.3691 414.6011 415.2328
   415.3615 415.7207 415.7570 415.8259 416.2287 416.2591 416.6638 417.0990
   417.2381 417.5234 417.7417 417.8917 418.1752 418.1986 418.2474 418.3633
   418.3924 419.1407 419.2442 419.4958 419.5640 419.9405 420.2056 420.7695
   420.8496 421.0505 421.1268 421.5466 421.8100 421.9684 422.1704 422.2962
   422.5762 422.8906 423.0266 423.0876 423.4663 424.2207 424.4666 424.6323
   424.6997 424.7968 424.8090 425.1638 425.6605 426.6899 426.9042 427.2104
   427.7043 427.7937 428.0055 428.4118 429.2286 429.2778 429.2859 429.2957
   429.8047 430.6290 430.6942 431.2558 431.2811 432.2168 432.5751 432.6365
   432.9166 433.3268 433.5501 433.6036 433.6765 434.3374 434.5523 435.2607
   435.4924 435.5127 435.7508 437.0705 437.8696 437.8807 438.0543 438.1760
   438.4475 438.5716 438.6373 439.1430 439.2935 439.7089 440.0888 440.5648
   440.8055 441.1293 441.7476 441.8363 442.0357 442.1215 443.4775 443.5427
   443.6365 444.1504 444.6555 444.7191 445.0574 445.4781 446.0101 446.0913
   446.2314 446.2699 446.5068 446.8651 447.5360 447.6731 447.8559 447.9484
   448.7247 449.0087 449.3058 449.7759 449.8561 449.8913 450.5430 450.8029
   451.1256 451.4311 451.5050 451.6553 451.7577 451.8974 451.9248 452.0199
   452.7079 452.7453 452.8370 453.1187 453.2394 453.2712 455.1441 455.2312
   455.2576 456.1843 456.3188 456.3370 456.8588 456.9218 457.4788 457.8642
   458.3546 458.6180 459.4608 459.6564 459.7922 460.4376 460.6167 460.9370
   461.0602 461.1127 461.3266 461.6732 461.7315 462.3192 462.3230 463.1814
   463.2470 463.3273 463.8695 463.8710 464.1144 464.2111 464.6369 465.2182
   465.2210 465.3929 465.4301 465.8026 466.1237 466.3410 466.6249 466.7948
   467.0982 467.2362 467.4222 467.5167 467.5666 467.7855 467.9830 468.2133
   468.4607 469.2589 470.1123 470.7918 470.8129 470.8772 471.0397 471.6266
   471.8253 472.4427 472.6909 472.7615 473.6547 473.7362 475.0678 475.0938
   475.3307 475.6337 475.7318 476.3045 476.3064 476.5711 476.7587 476.9795
   477.3978 477.5091 477.6333 477.7135 478.1628 478.5101 479.1824 479.6257
   479.7047 480.6568 480.6868 481.3356 481.4275 481.9406 481.9873 482.0781
   482.4490 482.5472 483.0784 483.1573 483.7186 484.0688 484.0874 484.1760
   484.2748 484.5072 484.5483 484.6045 485.2341 485.2531 486.7832 486.9113
   487.1386 487.3128 487.5080 487.7247 488.1629 488.2453 488.5392 488.6274
   488.6706 488.7562 488.9779 489.4622 489.8289 490.0523 490.0648 490.5237
   490.5640 490.7994 490.9912 491.0388 491.2133 491.2946 491.7783 491.9355
   492.0947 492.1917 492.5931 492.8948 492.9509 492.9664 493.5098 493.7615
   493.8336 493.8741 493.8871 494.4951 495.0921 495.4760 495.6830 496.0776
   496.1510 496.1764 496.2382 496.2909 496.3462 496.4428 496.7677 496.7850
   497.3752 498.4707 498.5491 498.6163 498.6618 498.8624 500.9327 501.0943
   501.1558 501.2479 501.5411 501.6047 502.0202 502.3094 502.3101 502.4680

          k = 0.6667-0.3333 0.6667 (  2422 PWs)   bands (ev):

   -97.0259 -58.5144 -58.5142 -58.5142  -4.4254   0.6474   3.7824   4.6264
     8.8312  10.6414  11.6541  12.9888  15.5554  17.3170  17.7546  18.6365
    18.8029  22.4355  24.1730  25.0074  26.0480  26.9657  27.6419  28.7970
    29.6782  31.9486  32.0552  32.6719  32.9721  34.4161  35.0928  35.9335
    37.7046  38.9816  39.4641  40.3541  41.5691  42.4905  43.1732  45.0981
    45.7282  47.2956  49.0666  49.5671  50.1793  51.1747  51.3146  51.9269
    52.3275  54.3790  54.4687  55.8267  56.1447  56.8422  58.5960  58.7866
    60.3232  60.9950  61.4952  62.1956  62.2118  62.8088  63.9607  64.0764
    65.1686  65.8762  66.0641  67.1693  67.4300  68.8102  69.0252  69.9591
    70.6402  71.7428  72.0059  72.6590  72.9430  74.2032  74.5672  75.5078
    76.4356  77.0675  78.1800  78.4232  80.0977  80.2787  80.6997  80.7545
    82.9536  83.0129  85.1438  85.2085  86.0348  86.3641  87.0497  87.5460
    88.0002  88.6682  90.1783  90.7394  91.6265  92.0300  92.2927  92.5086
    92.8417  94.4403  94.6940  95.1872  95.6051  95.8990  97.6753  97.8078
    98.0928  98.8259  98.8894  99.5154  99.8438 100.2893 101.0909 101.6766
   102.2479 103.3949 104.0713 104.3833 105.4822 106.4359 106.4373 107.2469
   107.6413 108.0394 108.6693 109.2799 109.8607 111.0514 112.0238 112.2180
   112.4543 113.0415 113.5208 113.7845 114.4259 114.6471 115.8243 116.5483
   117.5198 117.8071 118.2705 119.0054 119.7476 119.8861 120.1038 120.3470
   121.3973 122.1234 122.7261 122.7504 124.0852 124.8914 125.1060 125.7629
   126.1743 126.3225 126.7783 126.8109 127.7589 128.1251 129.4816 129.9018
   129.9858 130.5406 130.8047 131.0860 132.4567 132.7251 133.5961 134.4971
   135.1023 135.2428 135.3995 136.3322 136.4921 137.0860 138.2217 139.2306
   139.7653 140.4624 140.6027 141.3389 141.6149 141.9634 142.6042 142.9894
   143.4070 143.7445 143.9901 144.5846 145.2383 145.2570 145.5065 147.1003
   147.5998 147.7106 148.6042 148.7988 149.0166 149.8014 150.2818 151.1464
   151.2610 152.4964 152.6362 152.7924 153.4945 153.7845 153.9439 154.6016
   154.6814 155.1406 155.1556 156.0264 156.1048 156.5538 157.1032 157.2634
   158.6564 159.1369 159.1847 159.5671 159.8922 159.9462 160.5746 161.8178
   162.1696 162.3853 163.3533 163.4513 164.3604 164.7845 165.3744 165.6485
   165.9992 166.4847 166.7264 167.6931 167.6992 169.0790 169.7861 169.9757
   171.1123 171.4028 172.1363 172.1733 172.7788 173.8478 174.8066 175.2593
   176.0622 176.2998 176.5334 177.6685 178.3397 178.6516 178.8960 178.9637
   179.3474 179.3942 179.5976 180.3123 181.0276 181.3518 181.7718 182.1096
   182.4453 182.8643 183.2959 183.3488 184.3903 184.7287 185.5567 185.7567
   186.2800 186.3146 187.1507 187.5229 187.6675 188.2319 188.6133 189.1615
   191.1219 191.5083 192.2214 192.7484 192.9640 193.1458 193.5007 194.0688
   194.5499 194.5963 195.0552 195.1821 195.9164 196.5816 196.5838 197.3624
   197.4079 197.7209 198.1532 198.1573 198.3175 198.5703 198.8505 199.6398
   199.9436 200.5512 200.5925 201.0543 201.7002 202.8631 202.9072 203.1982
   203.3486 204.2025 204.8400 204.9569 205.2497 205.8921 206.1801 207.1259
   207.1305 208.0872 208.1892 208.6110 208.6175 208.9466 209.1390 209.2811
   209.8561 210.8157 211.4943 211.9220 211.9954 212.5073 212.9051 213.5826
   214.1332 214.7612 215.2906 215.4954 215.5269 215.9598 215.9682 216.4398
   216.5326 216.9395 217.1357 217.9178 218.0544 218.5490 218.5507 219.3187
   219.6889 219.9148 220.0272 221.6754 221.8958 222.1587 222.4302 222.7903
   223.2282 223.5998 224.1746 224.8153 225.2247 225.2775 225.7445 226.7759
   226.8127 227.4099 228.1201 228.1563 228.6049 228.7298 229.8626 229.9393
   230.3132 231.8457 232.0626 232.4302 233.6773 234.2202 234.3422 234.9139
   234.9657 235.2451 235.2810 235.6952 235.9919 236.3054 236.6004 237.4946
   237.8011 238.1367 238.1629 238.5949 239.1986 239.3450 239.8924 240.1910
   240.2008 240.6277 240.6485 240.9956 242.1619 242.3954 244.1679 244.6527
   244.9258 245.0919 245.1929 245.3851 245.8470 246.2275 246.2602 246.9221
   247.1436 247.9830 248.1703 248.9497 249.0779 249.4453 249.8671 249.8741
   251.1386 251.3748 252.1101 252.7356 252.7607 253.3268 253.3981 253.8854
   254.2463 254.3053 254.5401 255.0569 255.6432 256.2910 256.4167 257.0714
   257.7232 257.8249 258.8685 259.1147 259.5945 259.6310 260.1185 261.1012
   261.3378 262.2276 262.8932 263.0896 263.6290 263.6718 264.0774 264.6770
   265.4419 265.6165 266.0988 266.6036 266.6927 267.5609 267.8933 268.1046
   268.4452 268.5826 268.7275 268.8632 269.1209 269.3060 269.8747 269.9117
   270.3449 270.7736 271.0716 271.1920 271.2998 271.6386 271.9635 272.5374
   272.6581 273.1319 273.3254 273.9756 274.2397 274.2638 274.9788 275.1341
   275.9216 276.1495 276.5740 276.6770 276.7858 277.0740 277.2629 277.4202
   277.9787 278.5978 278.7074 278.9988 279.4001 279.4467 280.2569 280.3902
   281.7691 282.3503 282.8542 282.8749 282.9880 283.1169 283.3793 284.0293
   284.4101 284.6219 284.7424 285.0519 285.9244 286.2398 286.3024 287.3522
   287.8176 287.8549 288.4012 288.4623 289.0565 289.8841 289.9204 290.3693
   290.4715 290.7273 291.2328 291.5098 292.2982 292.3034 293.1991 293.6285
   293.7980 294.0120 294.1293 294.1929 294.3551 294.6492 294.6833 295.3043
   295.7332 295.7345 296.8051 297.5355 297.8163 297.8277 299.0685 299.4699
   300.0584 300.1235 300.5167 300.7078 300.8327 301.9057 302.1131 302.5414
   302.6231 303.2085 303.4027 303.5074 303.8825 304.0834 304.9012 305.1219
   305.5910 305.6057 306.4640 306.9496 307.2717 307.8882 308.1386 308.6813
   308.7767 309.1078 309.2500 309.7800 309.8706 310.0495 310.3533 310.3744
   311.2492 311.5531 311.7311 311.8919 312.2320 313.2091 313.5564 313.8799
   314.2394 314.4301 314.6500 314.8215 315.3370 316.4525 316.5804 316.9111
[...]
   265.7175 265.8456 267.5915 268.5241 268.9637 269.1524 269.4693 269.9294
   270.2246 270.7829 270.8815 271.6750 271.9582 272.1707 272.4742 273.1353
   273.2617 273.7252 274.4520 274.4838 275.0073 275.3248 276.0089 276.2911
   276.6630 276.9247 277.3855 277.5501 278.1949 278.2598 279.3271 279.5798
   279.9246 280.1691 280.5933 281.1100 281.1586 281.5164 281.8230 282.3008
   282.4059 282.7567 283.4648 284.3042 284.4314 284.4554 284.6714 284.8030
   285.4681 286.2721 286.5647 286.6354 286.8383 287.0350 287.1804 287.3820
   287.5164 287.9656 288.4069 289.7509 289.8887 290.0009 290.0869 290.8479
   291.0676 291.4665 292.0542 292.6550 293.0432 293.4786 293.8453 293.9869
   294.0849 294.5171 294.5605 294.6611 294.9423 295.1427 295.6339 295.7455
   296.0841 296.2993 297.4269 297.5886 300.3694 300.5680 301.0180 301.7211
   302.2133 302.4796 302.7670 302.9401 303.0168 303.2137 303.5312 303.8244
   304.0688 304.1809 304.2695 304.5868 304.8918 305.2132 305.9110 306.3082
   306.7781 306.9816 307.5222 307.6339 307.8790 307.9159 308.0894 308.2044
   308.4421 308.4805 308.9566 308.9830 309.2578 309.8356 310.4391 310.7406
   310.8952 311.3423 311.4543 311.5751 313.1633 313.5963 313.7983 313.9185
   314.2201 314.2446 314.7090 314.9000 315.1615 315.4336 315.6565 316.3918
   316.5322 316.7392 317.0590 317.2638 318.1983 318.2808 318.5164 318.5506
   318.7649 319.2322 319.4797 319.7075 320.1275 320.1393 320.2778 320.3405
   320.5449 320.8665 320.9131 320.9653 321.6776 322.1367 322.1707 322.3944
   325.0433 325.2674 325.7793 326.1191 326.9421 327.1550 327.3374 327.4052
   327.5824 327.6681 327.7448 327.9579 328.0180 328.1712 328.3813 328.4541
   328.6766 328.7252 329.7434 329.8676 331.1288 331.4024 332.4222 332.4713
   333.2815 333.4257 333.5067 333.7075 333.7844 333.8081 334.0585 334.3069
   335.6218 335.7290 335.8346 335.9690 336.9438 337.2780 337.5727 337.6343
   337.9620 338.1501 339.1399 339.6186 339.9515 340.3317 340.5090 340.7993
   340.8421 340.9107 340.9479 341.1781 341.5111 341.5676 342.3317 342.3753
   344.1536 344.2089 344.4520 344.7436 344.7874 344.8608 345.0652 345.1751
   346.2984 346.5719 347.4115 347.6333 349.0115 349.0479 349.8414 349.8567
   350.4364 350.5272 351.7284 351.9969 352.1745 352.3988 352.4828 352.5856
   353.0803 353.2133 353.3020 353.4129 354.3651 354.9912 355.3570 355.5193
   355.7695 355.8967 357.5843 357.6672 357.7386 357.9886 358.1713 358.2120
   358.7101 358.7764 359.7750 359.8713 360.5258 360.9185 361.4140 361.5993
   361.7624 363.8404 363.9585 364.5617 364.9970 365.3441 365.5762 365.6410
   365.8644 366.0030 366.4926 366.6270 366.7554 367.2397 367.5450 368.1295
   368.2855 368.5708 368.8929 368.9352 369.2800 369.3528 369.4208 369.4658
   370.0848 370.7637 370.9053 371.3456 371.5275 371.5845 372.7731 372.9234
   373.0242 373.0840 374.7496 374.8008 376.7047 376.8930 376.9749 377.1102
   377.3330 377.3948 377.5425 377.6783 377.7344 378.0441 378.9607 379.0167
   379.1752 379.8321 379.9417 380.0667 380.4656 380.8295 380.9894 381.0319
   381.0980 381.2681 381.8322 381.8906 382.0617 382.1522 382.9070 382.9900
   383.2233 383.2498 383.2787 383.3986 383.6982 383.8203 385.4988 385.5943
   385.8423 385.8920 386.7144 386.9150 387.1340 387.5230 387.6533 387.8474
   388.0345 388.1998 388.2533 388.4290 389.2197 389.3311 389.8043 389.9033
   389.9828 390.0447 390.2997 391.7729 391.8042 391.8575 392.4401 392.7289
   393.2384 393.2927 394.2824 394.4309 394.8355 395.2221 395.3357 395.7419
   396.2373 396.3110 397.1455 397.1991 398.2574 398.2889 398.4476 398.6265
   399.3208 399.4480 400.3929 400.5825 400.6232 400.6866 400.8670 401.3485
   401.4370 401.5899 401.6395 402.0858 402.1223 402.2365 402.5246 402.6936
   402.7426 402.7969 402.8937 403.2972 403.4106 403.7839 404.1835 406.0764
   406.1978 406.3046 406.4149 406.7418 406.8284 406.9237 407.0382 407.2218
   407.4012 408.2052 408.3495 408.4614 408.5008 409.4213 409.6197 410.1644
   410.6351 410.7315 411.7040 412.1462 412.1503 412.2606 413.9718 414.1309
   414.5574 414.9627 415.1703 415.2948 415.4049 415.6168 415.7608 415.8183
   415.9577 416.0331 416.6409 416.7390 416.7930 416.8347 416.9490 417.2381
   417.3882 417.7151 418.2526 418.4338 418.8479 418.8983 419.1406 419.6051
   419.6744 419.7362 419.7951 420.0442 420.3110 420.7097 420.7405 420.9785
   420.9903 421.4340 421.9521 421.9977 422.4766 422.5033 425.7708 425.8174
   426.0205 426.0692 426.8329 426.9975 427.0560 427.3937 428.0927 428.2219
   428.9078 429.2597 429.3344 429.4272 429.7789 429.9436 430.2529 430.3845
   430.4526 431.2214 431.3720 431.8430 432.0572 432.1166 432.5773 432.6393
   432.7750 432.8609 433.3262 433.3978 433.5270 434.2484 435.0966 435.3164
   435.4335 435.6191 437.0323 437.1320 437.1576 437.4165 437.4615 437.5699
   438.0068 438.1354 438.4684 438.5771 439.2428 439.2579 439.7352 439.9275
   440.6692 440.7832 440.9177 440.9860 441.0271 441.0967 441.3648 441.4572
   441.4653 441.5942 441.7357 441.8971 442.2138 442.3407 443.2453 443.7286
   444.3145 444.3414 444.3607 444.5480 444.6566 444.8458 446.1022 446.2878
   447.3519 447.4289 448.4326 448.5109 448.5478 448.6196 448.8069 448.9047
   449.1778 449.3169 450.0894 450.2330 451.0003 451.0111 451.2915 451.4021
   451.9698 452.1557 452.2714 452.3022 452.4840 452.5523 452.7614 452.8393
   453.9748 454.0052 455.0734 455.0984 455.1405 455.3206 455.3674 455.4173
   455.8466 455.9087 456.0264 456.0556 456.7454 456.9971 457.0454 457.1025
   457.4741 457.5602 457.6524 457.6575 458.2253 458.2608 458.9330 458.9556
   459.5350 459.5371 461.6838 461.7190 461.9666 462.0360 463.7210 463.8152
   464.0016 464.1895 464.2231 464.3795 464.5180 464.6091 464.9429 465.1087
   465.3390 465.4765 465.7092 465.8520 467.0741 467.1929 467.3131 467.3349
   467.4601 467.4967 467.5924 467.6323 468.5932 468.6431 468.6910 468.7812
   469.1867 469.2212 470.7297 471.1661 472.3131 472.5870 473.3876 473.4447
   474.0001 474.0504 474.3645 474.4781 475.3477 475.4464 475.6388 475.6932
   475.9197 476.0630 476.3733 476.4472 476.8370 477.0016 477.8834 477.9291
   478.2893 478.3851 478.4721 478.5562 479.1464 479.2177 479.2716 479.4160
   480.0853 480.1054 481.4418 481.5580 482.4399 482.4898 482.6172 482.7152
   482.8395 482.8746 483.4434 483.4711 483.8624 483.8817 483.9941 484.0225
   484.1478 484.1774 485.8268 486.3633 486.4794 486.5441 486.8779 486.9729
   487.7120 487.7859 487.8712 488.1092 488.7104 489.6461 489.7998 490.0598
   490.0774 490.5191 490.6086 490.6568 490.7314 490.7527 490.8542 491.4316
   491.5992 491.6407 491.9240 492.1188 492.1691 492.8801 492.8942 493.6780
   493.6957 494.7542 494.8407 495.9780 496.1786 496.2403 496.3391 496.5299
   496.5552 497.0012 498.6027 498.7480 498.9705 499.0723 500.0058 500.0491
   500.1218 500.3454 500.5437 500.5516 501.3075 501.3168 502.0171 502.1279
   502.4281 502.6417 503.4013 503.4086 503.5909 503.8450 505.0951 505.1505

          k =-0.3333-1.0000 0.0000 (  2424 PWs)   bands (ev):

   -97.0259 -58.5144 -58.5143 -58.5143  -3.9649   0.7099   2.9721   3.2141
     9.0536   9.9832  12.9780  13.6838  16.4369  18.2155  18.4388  19.7409
    22.3128  23.0555  23.1984  23.6107  23.9722  24.9248  27.6224  28.0012
    29.0506  29.7094  29.9397  30.3293  33.3304  35.1783  35.8571  35.9592
    38.2385  39.1259  41.1563  41.4713  41.7372  42.0161  44.8241  45.4617
    46.7017  47.0650  47.9762  48.1372  50.5531  51.7373  52.3332  52.9185
    53.5553  53.6453  54.5362  54.5912  56.2924  57.2279  58.3248  60.1026
    60.4058  60.5826  60.6756  61.7071  62.9382  63.4812  64.2883  64.7214
    65.3729  66.6060  67.5477  67.5572  67.8819  67.9652  69.3027  70.0421
    70.8398  71.4917  72.6577  73.2206  74.8655  75.7477  76.1348  76.8216
    76.8556  77.5999  78.3773  78.6370  79.4619  79.5472  79.9687  80.2556
    80.8798  81.3940  83.1665  83.9806  84.0714  84.2044  85.1349  85.3973
    85.8758  86.1240  86.5267  86.7797  88.0833  88.4096  89.6921  91.2659
    91.7507  91.8288  92.2834  93.8302  96.1556  97.0763  97.7493  98.6815
    99.8782 100.3296 101.0273 101.2139 102.2205 102.6158 103.5575 104.3014
   105.3186 105.6796 106.7242 107.2351 107.9045 108.0211 108.5649 108.6664
   108.7260 109.8891 110.5673 110.9607 112.2706 112.5396 112.8071 113.0455
   113.5244 114.0544 114.1169 114.5555 115.0182 115.4216 115.7182 117.5579
   117.6102 118.9682 119.4228 119.8167 119.8764 120.6365 120.8207 120.9715
   121.6927 121.9894 122.3120 123.2880 123.7141 124.0738 124.2438 124.8259
   125.1885 125.8319 127.4743 127.7601 128.3917 128.5098 129.0942 129.9606
   130.2327 130.3471 131.2239 131.7051 131.7467 132.0063 132.6656 132.9796
   133.0932 133.4278 133.7521 134.8861 136.0489 136.1384 136.8210 137.0194
   137.3611 137.8690 138.6306 138.8344 139.1766 140.3155 140.5765 140.6399
   141.6715 141.7474 141.7862 142.3452 142.7486 142.7532 143.2336 145.2947
   146.3516 146.5795 146.8920 147.1130 147.4897 147.5305 148.1673 150.2621
   151.2067 151.4628 152.0347 152.7901 152.9705 153.0225 153.2642 153.6043
   153.6936 153.9750 154.8003 155.4680 156.9501 158.1655 158.2613 160.4365
   160.8010 161.6488 161.6830 162.0815 162.6415 162.9983 163.9346 164.6874
   164.7969 165.4415 166.0000 166.2854 166.7388 167.1847 167.3162 167.5915
   167.6821 167.8049 168.2754 168.3603 169.2619 170.0143 170.3145 170.4214
   170.8966 171.8836 172.5368 172.9897 173.5465 173.9344 174.2744 175.2988
   175.3250 175.7681 176.1293 176.6298 177.0949 177.5699 177.9199 178.2026
   178.2446 179.3314 179.4726 179.8054 180.2608 180.4225 180.6191 181.7329
   182.1758 182.8599 184.0382 184.5323 184.6495 185.1071 185.8447 186.2761
   186.4204 187.1988 187.5772 187.8689 189.2548 189.5174 190.0908 190.1292
   190.2527 191.5071 191.7577 192.0273 192.2274 192.6754 192.6855 192.9028
   193.5818 195.0743 195.9748 196.2044 196.6125 196.9120 197.0914 197.4380
   197.4693 197.6500 197.7981 198.6811 199.9654 200.2501 200.4719 200.4994
   201.2059 201.8185 202.3996 203.0848 203.2594 204.0934 204.2059 204.5228
   204.6677 204.7054 205.0311 205.1435 205.8091 206.0932 206.1821 206.2919
   206.5916 206.6973 206.7397 206.7658 206.9651 207.1006 207.4528 207.7143
   208.2816 208.5864 209.6579 209.6960 211.5972 212.3709 212.8826 213.2456
   213.4080 213.6826 213.8044 214.0667 214.2854 214.3966 215.6802 215.6963
   216.5823 216.7827 218.7876 219.2742 219.4666 219.8588 220.2603 220.3090
   221.0206 221.0829 221.2249 221.2474 221.9760 222.7668 222.8197 222.9670
   223.3431 223.6674 223.9884 224.0463 224.3159 224.3672 225.0546 225.1158
   225.5286 225.7428 227.5533 227.6612 227.9730 228.1253 228.3227 228.8969
   229.8867 230.0128 230.8819 230.9589 232.1109 232.3560 232.8869 233.0994
   233.4383 233.5073 234.1839 234.2402 234.3909 234.4778 235.8114 235.8148
   237.2016 237.6620 239.1933 239.5934 240.1482 240.5632 241.1126 241.8278
   241.9421 242.1427 242.4960 242.7051 243.4517 243.4760 244.2062 244.2375
   244.5487 244.9717 244.9822 245.3345 245.4352 245.6690 245.7319 246.1224
   247.5259 247.5353 248.3426 248.5769 248.7168 249.1923 249.5073 249.8610
   250.0918 250.1356 251.1792 251.6026 252.7724 253.0075 253.3618 253.5952
   254.0038 254.1366 254.3301 254.3345 254.9188 255.1377 255.2059 255.5755
   256.1375 256.3691 258.1020 258.3261 259.0394 259.1309 260.1467 260.2433
   260.6743 261.2168 261.4934 262.1375 262.2324 262.9292 263.0697 264.0979
   264.2474 264.3026 265.0595 265.3402 265.4184 265.4782 266.1457 266.4896
   266.9453 267.0450 268.1812 268.4093 268.9414 268.9829 269.0317 269.1218
   269.2548 269.4566 270.6549 270.7780 270.8076 271.0492 271.0657 271.6378
   272.9955 273.3707 274.5611 274.6379 274.8295 275.3418 275.7425 275.8392
   275.9003 276.2125 276.4305 276.6715 277.0273 277.1567 279.8061 280.6990
   282.5510 282.8339 283.0803 283.5756 284.4083 284.7779 285.2941 285.3783
   285.4708 285.5200 285.6572 285.6858 286.0501 286.0751 286.1161 286.1625
   286.4198 286.4588 287.1901 287.2903 289.0410 289.3004 289.6979 289.8786
   290.1218 290.2723 290.2948 290.5983 291.3020 291.8841 292.2285 292.2748
   292.8018 292.9470 293.4562 294.4652 294.8943 294.8963 295.0916 295.4942
   295.6599 295.7848 296.5261 296.7164 296.9543 297.0210 297.6604 297.8682
   298.0485 298.1976 298.8566 298.8768 299.4467 299.6493 300.2944 300.3361
   300.8433 300.8655 301.1382 301.2305 301.4712 301.5095 301.7658 301.9632
   303.3962 303.5780 304.3670 304.3852 304.6500 304.9932 305.2349 305.2737
   305.8684 306.0901 306.1888 306.4018 306.5979 306.6961 307.0184 307.3816
   307.4950 307.5445 307.7706 307.8302 307.9209 307.9531 308.2532 308.3754
   309.5759 309.8015 309.8729 309.9503 310.5486 310.7049 310.8473 310.9857
   311.8901 311.9853 313.7952 313.9864 314.0163 314.1388 314.2800 314.3348
   314.4321 314.7238 315.7811 315.8347 316.0562 316.1650 317.0015 317.0540
   318.4547 318.7104 319.1721 319.1725 320.1934 320.3974 320.5575 320.8971
   321.1663 321.3424 321.6981 321.9870 323.8674 324.3108 324.5870 324.7901
   325.0252 325.5739 325.7074 326.0395 326.3530 326.6092 326.8191 326.9841
   327.2832 327.3245 328.2019 328.4795 328.7133 328.7772 329.0071 329.1016
   329.2152 329.3747 329.8499 329.9711 330.1336 330.3678 331.4805 331.5050
   332.6123 332.7197 334.3934 334.4340 334.9577 335.1595 335.2409 335.3067
   336.0224 336.0229 337.0071 337.0860 337.1059 337.1422 337.3835 337.5144
   337.5302 337.6821 338.3320 339.2483 339.6337 340.1551 340.2156 340.3082
   340.9545 341.2018 341.2311 341.4762 341.5331 341.6727 342.0592 342.1990
   342.2331 342.5864 342.6728 342.6985 343.5602 343.9524 345.1981 345.2137
   345.7589 345.9966 346.8725 346.9971 347.3493 347.5188 347.6838 347.7757
   348.9666 348.9991 349.2665 349.2900 349.3978 350.0003 350.1038 350.1644
   354.0473 354.2782 354.3185 354.4978 354.8173 355.1836 355.4370 355.9136
   355.9679 356.2628 356.4017 356.6812 357.8933 358.0000 358.8211 359.1350
   359.4343 359.5983 359.9217 360.0238 360.2094 360.6184 360.7361 360.7784
   360.9209 361.0123 362.7285 362.7664 363.4177 363.6395 364.0263 364.1911
   364.6748 365.1374 366.2494 366.6340 367.1910 367.3517 367.3786 367.7563
   368.9768 369.5603 369.7146 369.8684 371.0453 371.1928 371.8948 372.0178
   372.2075 372.4444 372.4613 372.6200 372.6846 372.7596 375.4202 375.4676
   375.5063 376.1486 376.2441 376.6275 376.8450 377.1653 377.3163 377.4624
   377.4850 377.7809 377.9984 378.4127 378.8562 379.0625 379.5729 379.8856
   380.2541 380.3460 380.3917 380.6511 380.8018 380.9964 381.1347 381.2317
   381.3485 381.4102 381.8272 381.8303 384.0756 384.3836 385.2855 385.3157
   386.0348 386.0892 386.1905 386.6807 386.7872 386.9060 386.9288 387.4608
   387.5664 387.9577 388.1421 388.1915 388.2864 388.4434 389.8385 389.9814
   390.2324 390.2979 390.4759 390.6531 390.7809 390.8413 391.3768 391.3831
   391.5361 391.5473 391.6998 391.7157 391.8051 391.8327 392.6959 392.7563
   394.2534 394.3321 394.3326 394.3562 396.3323 396.5607 396.8083 396.9359
   396.9438 397.2968 397.4847 397.7438 397.7747 397.8262 398.0044 398.0120
   398.1115 398.1677 398.9379 398.9593 398.9892 399.1590 400.4467 400.5966
   400.9169 400.9681 401.0381 401.1258 401.2774 401.3184 401.9499 402.0663
   402.1412 402.1601 402.1914 402.2571 402.5452 402.6317 403.1904 403.5798
   403.6118 403.6763 403.8065 404.2352 405.4057 405.4753 405.8393 405.8677
   406.8105 407.5244 407.6858 407.8242 409.2784 409.3435 410.1376 410.1448
   410.4813 410.5111 411.6187 411.7026 411.7332 411.8986 412.1323 412.1779
   412.2824 412.3301 412.6099 412.8643 412.8736 413.0463 414.1661 414.2408
   416.2682 416.2864 416.4583 416.9823 417.3308 417.4901 417.9818 418.0160
   418.0728 418.2251 418.3720 418.4356 419.4441 419.9235 420.3862 420.3895
   420.4758 420.5525 420.8252 421.2349 422.6487 422.6996 422.7699 422.8927
   423.0360 423.2380 423.3652 423.4156 423.6831 424.0491 424.0858 424.1493
   424.4301 424.6492 424.6847 424.8090 425.2653 425.2968 425.9605 426.0084
   427.4276 427.5205 427.5252 427.6029 427.6924 427.7173 427.8296 427.9333
   430.2250 430.3498 430.4609 430.5396 430.6900 430.7148 430.8195 431.2660
   431.5226 431.7448 431.7540 431.9055 432.4828 432.5787 432.6719 432.7487
   432.8477 433.5156 433.5390 433.6827 435.3149 435.3298 435.5485 435.5657
   438.3635 438.4259 438.6521 438.6649 439.6165 440.1767 440.3456 440.3552
   440.8606 440.9207 440.9825 441.0480 441.8449 441.9662 442.4183 442.5991
   442.8978 443.0929 443.7008 443.7165 444.2802 444.3525 444.4486 445.0658
   445.3615 445.4504 445.5168 445.5357 446.5236 446.7614 446.8109 446.9144
   447.9661 447.9714 448.0148 448.3039 448.3408 448.4223 448.9017 449.3827
   449.8592 449.9408 450.2267 450.4205 450.7902 451.2018 451.8296 452.0186
   452.4744 452.7643 452.9331 452.9526 453.7546 453.8597 454.0858 454.1240
   454.4042 454.4333 454.4977 454.6411 454.7864 454.8002 454.9190 454.9695
   455.0002 455.0643 455.4530 455.7509 457.0428 457.1345 457.5652 457.5940
   458.9045 459.0338 459.2153 459.3329 459.9954 460.1309 460.3755 460.4052
   461.4381 461.4759 461.7005 461.7817 462.7037 462.7916 462.9257 463.0232
   463.1537 463.2186 463.3138 463.4268 463.4741 463.7915 463.8369 464.3255
   464.3626 464.5984 465.1802 465.4061 465.7810 465.8329 466.3919 466.4127
   466.7676 466.7746 466.7908 467.0936 467.0975 467.3982 470.4988 470.6736
   470.8744 470.9472 471.8575 472.0314 472.5530 472.5851 473.0642 473.0756
   473.9228 474.0260 474.0692 474.1944 474.3473 474.3779 474.4546 474.6769
   476.1111 476.4436 477.4347 477.5896 477.6934 477.7168 477.7602 477.8248
   478.7625 478.7657 479.0237 479.0288 479.2004 479.2916 479.5840 479.6107
   479.8853 479.9896 480.0890 480.1039 480.5843 480.6244 480.9218 480.9444
   483.3903 483.5472 483.7267 483.8132 483.8201 483.8703 483.9946 484.0156
   484.2968 484.3207 485.1142 485.1266 485.1579 485.1611 486.7584 487.1281
   487.2690 487.3712 487.4281 487.7525 488.7930 488.9149 489.3270 489.4344
   489.4988 489.6222 491.0315 491.1443 491.5212 491.5615 491.7037 491.8457
   492.1532 492.2730 492.2784 492.3798 492.9756 493.0496 493.8637 493.9146
   494.0270 494.2238 494.2369 494.5697 494.8542 495.5766 495.9243 495.9530
   496.1373 496.3561 497.7652 497.8277 499.9946 500.1469 500.2212 500.3125
   502.5639 502.7028 503.0514 503.1427 503.1564 503.3013 503.6060 503.7535
   504.2148 504.4013 504.4896 504.7564 504.7985 504.8826 504.9288 504.9702

     the Fermi energy is     7.0245 ev
     (compare with:     6.3818 eV, computed in scf)

     Writing all to output data dir out/mp-2172.save/
 
     init_run     :      0.02s CPU      0.03s WALL (       1 calls)
     electrons    :    383.01s CPU    407.44s WALL (       1 calls)

     Called by init_run:
     wfcinit      :      0.00s CPU      0.00s WALL (       1 calls)
     potinit      :      0.00s CPU      0.01s WALL (       1 calls)
     hinit0       :      0.01s CPU      0.01s WALL (       1 calls)

     Called by electrons:
     c_bands      :    383.01s CPU    407.42s WALL (       1 calls)
     v_of_rho     :      0.00s CPU      0.00s WALL (       1 calls)

     Called by c_bands:
     init_us_2    :      0.00s CPU      0.00s WALL (       8 calls)
     init_us_2:cp :      0.00s CPU      0.00s WALL (       8 calls)
     paro_k       :    370.73s CPU    394.23s WALL (       8 calls)

     Called by paro_*:
     h_psi        :      8.88s CPU      9.40s WALL (     879 calls)
     g_psi        :      0.18s CPU      0.21s WALL (   83302 calls)

     Called by h_psi:
     h_psi:calbec :      0.21s CPU      0.23s WALL (     879 calls)
     vloc_psi     :      8.48s CPU      8.96s WALL (     879 calls)
     add_vuspsi   :      0.11s CPU      0.12s WALL (     879 calls)

     General routines
     calbec       :      0.21s CPU      0.22s WALL (     879 calls)
     fft          :      0.00s CPU      0.00s WALL (      10 calls)
     fftw         :      7.58s CPU      8.01s WALL (  138078 calls)
 
     Parallel routines
 
     PWSCF        :   6m23.67s CPU   6m48.38s WALL

 
   This run was terminated on:  23: 5:21  14Nov2023            

=------------------------------------------------------------------------------=
   JOB DONE.
=------------------------------------------------------------------------------=
