
     Program PWSCF v.7.1 starts on 22Nov2023 at 22:12:42 

     This program is part of the open-source Quantum ESPRESSO suite
     for quantum simulation of materials; please cite
         "P. Giannozzi et al., J. Phys.:Condens. Matter 21 395502 (2009);
         "P. Giannozzi et al., J. Phys.:Condens. Matter 29 465901 (2017);
         "P. Giannozzi et al., J. Chem. Phys. 152 154105 (2020);
          URL http://www.quantum-espresso.org", 
     in publications or presentations arising from this work. More details at
     http://www.quantum-espresso.org/quote

     Parallel version (MPI), running on     8 processors

     MPI processes distributed on     1 nodes
     123782 MiB available memory on the printing compute node when the environment starts
 
     Reading input from pw_mp-22922_nscf_k10_E63.in
Warning: card &IONS ignored
Warning: card / ignored
Warning: card &CELL ignored
Warning: card / ignored

     Current dimensions of program PWSCF are:
     Max number of different atomic species (ntypx) = 10
     Max number of k-points (npk) =  40000
     Max angular momentum in pseudopotentials (lmaxx) =  4

     Atomic positions and unit cell read from directory:
     out/mp-22922.save/
     Atomic positions from file used, from input discarded
 
 
     R & G space division:  proc/nbgrp/npool/nimage =       8
     Subspace diagonalization in iterative solution of the eigenvalue problem:
     one sub-group per band group will be used
     scalapack distributed-memory algorithm (size of sub-group:  2*  2 procs)

 
     Parallelization info
     --------------------
     sticks:   dense  smooth     PW     G-vecs:    dense   smooth      PW
     Min         119     119     33                 2446     2446     371
     Max         120     120     35                 2450     2450     372
     Sum         955     955    271                19579    19579    2975
 
     Using Slab Decomposition
 


     bravais-lattice index     =            2
     lattice parameter (alat)  =      10.4791  a.u.
     unit-cell volume          =     287.6854 (a.u.)^3
     number of atoms/cell      =            2
     number of atomic types    =            2
     number of electrons       =        26.00
     number of Kohn-Sham states=         1200
     kinetic-energy cutoff     =      63.0000  Ry
     charge density cutoff     =     252.0000  Ry
     Exchange-correlation= PBE
                           (   1   4   3   4   0   0   0)

     celldm(1)=  10.479147  celldm(2)=   0.000000  celldm(3)=   0.000000
     celldm(4)=   0.000000  celldm(5)=   0.000000  celldm(6)=   0.000000

     crystal axes: (cart. coord. in units of alat)
               a(1) = (  -0.500000   0.000000   0.500000 )  
               a(2) = (   0.000000   0.500000   0.500000 )  
               a(3) = (  -0.500000   0.500000   0.000000 )  

     reciprocal axes: (cart. coord. in units 2 pi/alat)
               b(1) = ( -1.000000 -1.000000  1.000000 )  
               b(2) = (  1.000000  1.000000  1.000000 )  
               b(3) = ( -1.000000  1.000000 -1.000000 )  


     PseudoPot. # 1 for Ag read from file:
     /usr/scratch4/magr4985/MG/HTDF/pseudo/SG15/Ag.upf
     MD5 check sum: 2fe2fe769560ddf16f28d1c82859634b
     Pseudo is Norm-conserving, Zval = 19.0
     Generated using ONCVPSP code by D. R. Hamann
     Using radial grid of  602 points,  6 beta functions with: 
                l(1) =   0
                l(2) =   0
                l(3) =   1
                l(4) =   1
                l(5) =   2
                l(6) =   2

     PseudoPot. # 2 for Cl read from file:
     /usr/scratch4/magr4985/MG/HTDF/pseudo/SG15/Cl.upf
     MD5 check sum: 0f993535b366f580ecbcdacce103c843
     Pseudo is Norm-conserving, Zval =  7.0
     Generated using ONCVPSP code by D. R. Hamann
     Using radial grid of  602 points,  4 beta functions with: 
                l(1) =   0
                l(2) =   0
                l(3) =   1
                l(4) =   1

     atomic species   valence    mass     pseudopotential
        Ag            19.00   107.86820     Ag( 1.00)
        Cl             7.00    35.45300     Cl( 1.00)

     48 Sym. Ops., with inversion, found



   Cartesian axes

     site n.     atom                  positions (alat units)
         1           Ag  tau(   1) = (   0.0000000   0.0000000   0.0000000  )
         2           Cl  tau(   2) = (  -0.5000000   0.5000000   0.5000000  )

     number of k points=     3  Gaussian smearing, width (Ry)=  0.0005
                       cart. coord. in units 2pi/alat
        k(    1) = (   0.0000000   0.0000000   0.0000000), wk =   0.2500000
        k(    2) = (   0.5000000  -0.5000000   0.5000000), wk =   1.0000000
        k(    3) = (   0.0000000  -1.0000000   0.0000000), wk =   0.7500000

     Dense  grid:    19579 G-vectors     FFT dimensions: (  40,  40,  40)

     Estimated max dynamical RAM per process >      69.87 MB

     Estimated total dynamical RAM >     558.98 MB

     The potential is recalculated from file :
     out/mp-22922.save/charge-density

     Starting wfcs are random

     Band Structure Calculation
     ParO style diagonalization

     ethr =  5.00E-06,  avg # of iterations =  6.3

     total cpu time spent up to now is      228.7 secs

     End of band structure calculation

          k = 0.0000 0.0000 0.0000 (  2421 PWs)   bands (ev):

   -81.5876 -45.0784 -45.0784 -45.0784  -6.8243   5.8216   5.8216   5.8216
     5.8679   5.8679   5.9882   5.9882   5.9882   9.2376  19.2557  19.2557
    19.2557  20.7528  21.6676  21.6676  21.6676  22.2259  22.2259  28.0825
    33.4757  33.4757  33.4757  35.3034  35.3034  35.3034  37.3081  37.3081
    38.8958  38.8958  38.8958  44.1464  49.8964  49.8964  49.8964  50.2811
    50.2811  51.6394  51.6394  51.6394  51.9329  51.9329  51.9329  52.5475
    53.8577  53.8577  53.8577  55.0974  55.0974  55.0974  55.7768  58.4625
    58.4625  58.4625  59.2975  59.2975  60.3064  62.0035  62.0035  62.0035
    65.4275  65.4275  65.4275  72.9717  74.1674  74.1674  74.1674  75.2960
    75.2960  77.3395  77.3395  77.3395  81.5719  82.0010  82.0010  82.0010
    85.9766  86.5615  87.4879  87.4879  87.6916  87.6916  87.6916  88.0758
    88.0758  88.0758  92.3557  92.3557  92.3557  92.7437  92.7437  92.7437
    94.6712  94.6712  94.6712  94.8850  94.8850  94.8850  95.4890  95.4890
    96.4877  96.4877  96.5092  96.5092  96.5092  98.1731  98.1731  99.2563
    99.2563  99.2563 100.4112 102.8658 102.8658 102.8658 102.9861 103.4814
   104.3833 104.3833 104.3833 110.5682 110.5682 110.5682 113.7011 113.7011
   113.7011 114.7128 115.0959 115.0959 116.4526 116.4526 116.4526 116.6027
   116.6027 116.6027 116.6651 116.6651 116.9287 116.9287 116.9287 117.2635
   117.2635 117.2635 121.0351 121.0351 121.0351 124.4249 125.8657 126.5248
   126.5248 126.5248 128.1323 128.1323 128.1323 130.3432 130.3432 130.3432
   131.0667 131.0667 131.0667 133.9283 133.9283 134.1541 134.1541 134.1541
   136.2464 136.2464 136.2464 136.3402 136.3402 136.5218 136.5218 136.5218
   136.7024 137.9385 144.8351 144.8351 144.8351 147.1639 147.1639 147.1639
   149.2906 149.2906 152.1636 152.1636 152.9864 152.9864 152.9864 153.0347
   153.0347 153.0347 153.4581 158.8687 159.1020 159.1020 159.1020 160.4234
   160.4234 160.4234 162.6683 162.6724 162.6724 162.6724 163.0995 163.0995
   163.0995 164.1602 164.1602 164.8931 166.7696 166.7696 166.7696 166.7955
   166.7955 166.7955 167.4771 167.4771 167.4771 167.9995 168.5294 170.0768
   170.0768 171.9835 171.9835 171.9835 172.5015 172.5015 172.5015 173.6480
   173.6480 173.6480 174.0822 174.0822 174.0822 174.2512 174.2512 174.2512
   174.4944 174.4944 174.4944 174.5405 174.5405 174.8618 174.8618 174.8618
   175.0390 175.0390 175.1100 175.1100 175.1100 175.2657 175.2657 175.4063
   175.4063 175.4063 175.7692 180.7761 180.7761 180.7761 184.5075 184.5075
   185.3144 185.3144 185.3144 186.1166 186.1166 186.1166 186.1676 186.2980
   186.2980 186.2980 186.4821 186.4821 186.4821 192.2287 192.2287 192.2287
   195.0953 195.0953 195.0953 195.5578 195.5578 195.7787 195.7787 195.7787
   195.9025 195.9933 196.8195 199.1377 199.1377 203.1358 203.1358 203.1358
   207.2170 207.2170 207.2170 207.6530 207.6530 207.6530 207.8619 207.8619
   207.8619 208.3538 208.3538 208.3538 208.5204 208.5204 208.7426 208.9773
   209.9583 209.9583 209.9583 211.0834 211.0834 211.4058 211.4058 211.4058
   211.5598 211.5598 211.7139 211.7139 211.7139 211.9888 211.9888 211.9888
   212.1575 212.1575 212.1575 213.5498 213.5498 216.0908 217.7657 217.7657
   217.7657 223.4920 223.4920 223.4920 226.3526 226.3526 226.3526 226.8782
   227.0925 227.0925 227.0925 227.3548 230.3273 230.3273 230.3273 230.7721
   230.7721 231.7042 231.7042 231.7042 234.8276 236.6674 236.6674 236.6674
   236.8316 236.8316 237.4450 237.4450 237.4450 238.3212 243.4956 243.4956
   243.4956 244.6973 244.6973 244.6973 245.0409 245.0409 245.0409 245.6661
   245.6661 245.6661 246.4239 246.4239 246.4239 247.5747 248.5784 248.5784
   248.5784 248.7215 248.7215 249.0928 249.0928 249.0928 250.1537 250.1537
   250.1537 250.1654 250.1654 250.3220 250.3220 250.3220 250.4959 250.4959
   250.4959 251.0467 251.0467 251.0467 251.5128 253.6365 253.6365 253.6921
   253.6921 253.6921 253.7461 258.0377 258.0377 258.0377 258.9829 259.4431
   259.4431 259.4431 263.8974 265.0349 265.0349 265.0349 265.6491 265.6491
   265.9558 265.9558 266.1014 266.1684 266.1684 266.1684 266.1958 266.1958
   266.1958 267.2436 267.2436 267.2436 267.6497 267.6497 267.6497 268.5316
   268.5316 270.7817 271.6731 271.6731 271.6731 272.7622 272.7622 272.7622
   273.0013 273.0013 273.0013 273.0906 273.0906 273.0906 273.1013 273.1013
   273.2644 273.2644 273.2909 273.2909 273.2909 273.6309 273.6309 273.6309
   273.9949 273.9949 273.9949 274.4908 274.4908 274.4908 275.4040 275.5114
   275.5114 275.5114 275.5251 275.5452 275.5452 275.5452 277.2882 277.2882
   277.2882 278.8175 279.3573 279.3573 279.3573 280.0053 280.0053 280.4504
   280.4504 280.4504 281.1963 283.9118 283.9118 284.4110 284.4110 285.9137
   285.9137 285.9137 286.5638 286.5638 286.5638 286.7157 286.7157 286.7157
   286.8559 287.8690 287.8690 287.8690 287.9308 287.9308 288.1241 288.5862
   288.5862 288.5862 288.6668 288.6668 290.3844 290.3844 290.3844 290.4977
   290.4977 290.4977 290.7085 290.7085 290.7085 290.9223 290.9223 290.9223
   291.1694 291.1694 291.1694 292.2697 292.3739 292.3739 292.3739 292.3851
   292.3851 307.6835 307.6835 307.6835 310.3023 310.3023 310.3023 313.0305
   315.3027 318.5905 319.1476 319.1476 319.1476 319.5480 319.5480 319.5480
   319.5555 319.5555 320.4070 320.4070 320.4070 320.5768 320.5768 320.5768
   320.9974 320.9974 321.3797 321.4343 321.4343 321.4343 322.0506 322.0506
   322.0506 322.1562 322.1562 322.1562 322.6367 322.6367 322.9823 322.9823
   322.9823 322.9920 322.9920 322.9920 323.0135 323.0135 323.0135 323.1331
   325.0671 325.0671 325.0671 329.6080 329.6080 330.2455 330.2455 330.2455
   330.2864 330.2864 330.2864 330.3792 330.3792 330.6147 330.6147 330.6147
   330.9357 330.9357 330.9357 332.1072 332.1072 332.2608 332.2608 332.2608
   332.5543 336.0443 336.0443 336.0443 338.0081 338.0081 338.0081 338.1395
   338.1395 338.6612 338.6612 338.6612 339.2469 341.8553 342.2415 342.2415
   342.2415 343.2459 343.2459 343.8028 343.8028 343.8028 347.1090 347.1090
   347.1090 347.7547 347.8528 347.8528 347.8528 347.9491 347.9491 348.5640
   348.5640 348.5640 348.6279 348.6279 348.6279 348.9234 348.9234 348.9593
   348.9593 348.9593 349.1812 349.1812 349.1812 349.7617 349.7617 349.7617
   349.9470 355.4984 356.8008 356.8008 356.9342 356.9342 356.9342 357.5946
   357.5946 357.5946 358.5876 358.5876 358.5876 359.1538 359.1538 359.1538
   359.5438 359.5438 359.5438 359.9124 360.1502 364.5267 364.5267 364.5801
   364.5801 364.5801 364.8928 364.8928 364.8928 364.9121 364.9121 364.9121
   365.0982 365.6149 366.0217 366.0217 366.0217 366.2168 366.2168 366.2168
   366.8666 366.9326 366.9326 367.1546 367.1546 367.1546 367.4516 367.4516
   367.4516 367.5251 367.5251 367.5251 367.6418 367.6418 367.6418 367.6716
   367.6716 369.2557 369.2557 369.2588 369.2588 369.2588 369.4338 369.4338
   369.4338 369.5598 369.5598 369.5598 369.6115 369.6115 369.6564 370.2339
   370.5590 370.5590 370.5590 379.6509 379.6509 380.3167 380.3167 380.3167
   381.3540 381.4908 381.4908 381.4908 381.8732 381.8732 381.8732 382.2849
   382.2849 382.2849 382.3003 382.3003 382.3003 383.2163 383.6891 383.6891
   383.6891 383.7494 383.7494 390.2027 390.2027 390.2027 390.5680 390.5680
   390.5680 391.2841 391.5924 395.5702 395.5702 395.5702 396.0517 396.0517
   396.0517 396.2186 396.2186 396.2186 396.8351 396.8351 396.8717 396.8717
   396.8717 396.9829 396.9829 399.0330 399.7825 399.7825 399.7825 400.7474
   400.7474 400.7474 400.9886 400.9886 400.9886 401.1373 401.1373 401.1373
   401.1467 401.1467 401.1467 401.3171 401.3171 401.3171 401.8659 402.1760
   402.1760 402.4024 402.4024 402.4024 403.0342 403.0342 403.0342 403.2966
   403.2966 403.2966 403.7586 403.7586 403.8887 403.8887 403.8887 404.7795
   404.7795 404.8881 404.8881 404.9379 404.9379 404.9379 404.9454 404.9454
   404.9454 405.0257 405.0257 405.0257 405.0619 405.0619 405.0619 407.0909
   407.1500 407.1500 407.1500 407.1795 407.1795 407.1795 407.1847 410.0364
   410.0364 410.0778 410.0778 410.0778 410.1004 410.1004 410.1004 410.1242
   410.1638 410.1638 410.1638 410.1651 410.1651 410.1651 410.1755 410.1755
   410.1755 410.1761 410.1761 410.2566 410.2566 410.3560 410.5069 410.5069
   410.5069 410.6177 410.6177 410.6177 410.7015 416.0733 416.1061 416.1061
   416.1061 416.1309 416.1309 416.1309 416.2913 426.3781 426.3781 426.3781
   426.4626 426.4626 426.7922 428.4389 428.4389 428.4389 428.5149 428.5149
   428.5495 428.5495 428.5495 428.6130 428.6130 428.6130 428.7026 428.7026
   428.7026 428.7535 428.7535 429.8761 429.8761 429.8761 430.2566 430.2566
   430.2566 430.3601 430.3601 430.3601 430.6287 430.6287 430.6287 436.6258
   436.6258 436.7353 436.7353 436.7353 436.9912 442.6208 442.7262 442.7262
   442.7262 442.7602 442.7602 446.8285 446.8285 446.8285 446.8319 446.8319
   446.8319 446.8631 446.8631 446.8631 446.8733 446.8733 446.8733 448.7076
   448.7076 448.7208 448.7208 448.7208 448.7319 454.6360 454.6360 454.6360
   455.2906 456.3928 456.3928 459.8434 459.8434 459.8434 459.8862 459.8862
   459.8862 459.9272 461.0509 461.0509 461.0509 461.8301 461.8301 461.8301
   461.8897 461.8897 461.8897 462.4081 463.2815 463.2815 463.2815 463.3019
   463.3019 463.3019 463.4756 463.4756 463.6855 463.6855 464.5164 464.5164
   464.5164 464.9339 464.9953 465.2179 465.2179 465.2179 465.8840 465.8840
   467.6569 467.6569 467.6569 468.7942 468.7942 468.7942 470.0518 470.2973
   470.2973 470.2973 470.6200 470.6200 471.7495 471.7495 471.7495 473.2825
   473.2825 473.2825 474.4229 476.7097 476.7097 476.7097 476.8098 476.8098
   476.8098 477.1515 477.1515 477.2639 477.2639 477.8600 477.8600 477.8600
   477.8718 477.8718 477.8718 479.8400 479.8400 479.8400 479.8878 479.9351
   479.9351 479.9351 480.0257 482.9899 482.9899 482.9899 483.1325 483.1325
   483.2130 483.2130 483.2130 483.4741 483.4741 483.4741 483.5616 483.5616
   483.5616 483.5630 483.5630 484.4942 484.4942 484.4942 484.5987 484.5987
   484.5987 484.6909 484.7476 484.7476 484.7476 484.9400 484.9400 485.0386
   485.0386 485.0726 485.0726 485.0726 485.1428 485.1428 485.1428 485.1435
   485.1435 485.1435 485.1850 497.4430 497.4430 497.4430 497.4826 497.4826
   497.4826 497.9692 497.9692 497.9692 497.9797 497.9797 497.9797 498.1889
   498.1889 498.1920 498.1920 498.1920 498.2341 498.3557 499.2402 499.2402
   499.2402 499.8326 499.8326 499.8326 500.0462 500.0462 500.1804 500.1804
   500.1804 502.0626 502.4363 502.4363 502.4363 502.8684 502.8684 502.8684
   502.8899 502.8899 503.0164 503.0164 503.0164 507.0086 507.2093 507.2093
   507.2093 507.2388 507.2388 507.2539 507.2539 507.2539 507.2874 507.2874
   507.4468 507.4468 507.4468 507.4489 507.4489 507.4489 507.5310 507.5310
   507.5310 507.6363 507.6363 507.6363 507.7302 507.7650 507.7960 507.7960
   507.7960 507.8385 507.8385 507.8385 507.9894 507.9894 508.2229 508.2229
   508.2229 508.9004 508.9004 509.0424 509.0424 509.0424 509.1905 509.6710
   509.6710 509.6710 509.8378 509.8378 509.9582 509.9582 509.9582 510.2942
   510.2942 510.2942 510.5065 515.6608 516.1720 516.1720 516.1720 516.6932
   516.6932 516.6932 517.0929 517.0929 517.1394 517.1394 517.1394 519.1528
   519.3426 519.3426 519.3426 519.5443 519.5443 519.5443 519.8364 519.8364
   519.8364 519.8741 519.8741 520.0834 520.1024 520.1024 520.1024 520.1316
   520.1316 520.1316 520.2165 523.5610 523.5610 523.6105 523.6105 523.6105

          k = 0.5000-0.5000 0.5000 (  2452 PWs)   bands (ev):

   -81.5875 -45.0812 -45.0788 -45.0788  -6.3820   3.0701   4.1344   4.1344
     6.1805   6.1805   6.4986   8.2694   8.2694  12.5968  14.8581  16.0816
    16.0816  21.8974  22.2174  22.2174  23.5853  26.2076  26.2076  30.7736
    30.7736  30.8431  33.8869  35.8976  35.8976  36.7514  36.7514  38.3804
    39.0748  39.1938  39.1938  41.7179  43.3008  43.3008  43.3985  43.9199
    47.9855  47.9855  49.2516  50.5614  50.8740  50.8740  54.2241  54.2241
    54.3129  54.9595  54.9595  58.0280  58.6005  59.6840  61.5027  61.5027
    61.6487  61.6487  65.9426  65.9426  66.4861  66.4861  68.5935  70.0529
    70.0529  70.1419  70.1419  70.7290  70.7376  71.6191  72.4668  72.4668
    72.7055  72.7986  72.7986  75.4448  78.2336  79.1676  79.1676  79.7275
    79.7275  80.8231  82.6834  82.6834  82.6990  82.6990  82.7078  83.5950
    85.6142  85.6142  86.6556  86.6556  86.9816  87.6933  87.7581  90.5087
    91.0611  93.2063  93.2063  94.7917  94.7917  95.8416 100.0780 100.2742
   100.7628 100.7628 101.1444 101.1444 101.1704 101.1704 101.7068 101.7867
   102.1205 102.1205 103.9374 104.3745 104.3745 104.7340 104.7340 105.9831
   107.0547 107.5144 108.3575 108.3575 109.5026 110.2274 110.2274 113.8575
   113.8575 114.0221 114.4729 114.4729 116.3681 116.5129 116.5129 116.9098
   116.9098 118.8044 118.8982 119.7823 119.7823 120.2140 120.2140 121.3429
   121.3429 121.3758 122.4706 123.6438 123.9682 123.9747 123.9747 126.8985
   126.8985 128.0226 128.0226 129.9751 130.0386 130.1292 130.1292 130.9557
   130.9557 132.4934 132.4934 132.8260 132.9748 132.9748 134.4867 136.8279
   136.8279 137.6336 138.8462 139.9516 139.9516 139.9910 140.1045 140.1045
   140.1352 140.5620 141.2001 141.2001 141.9307 144.8268 144.8268 146.0967
   146.1525 147.2514 147.2560 147.2560 150.3945 150.3945 150.4672 151.5865
   152.0085 152.0085 152.6673 153.0450 153.0450 155.0895 155.0895 155.6531
   155.6531 155.7123 155.9489 155.9489 156.3072 156.5521 157.9172 157.9172
   158.9741 158.9741 161.2385 162.3428 162.3428 162.8190 162.8190 162.9736
   163.7094 164.5955 165.5836 165.5836 165.9770 165.9770 166.0819 166.8498
   167.9142 167.9142 168.2945 168.2945 169.2549 169.4464 169.4464 169.7116
   169.9976 169.9976 171.3505 171.4859 171.4859 172.4691 172.4691 174.0010
   174.4737 174.4737 174.9760 175.0240 175.6744 176.8101 176.8101 179.0135
   179.0135 180.2257 180.2257 180.3713 181.1219 181.7179 182.2477 182.2477
   185.1395 185.7051 185.7051 186.5443 186.7080 186.7080 187.1570 187.2011
   187.5882 187.5882 187.6501 187.6501 188.3291 188.4693 188.9941 189.2421
   189.2421 189.5236 189.5236 190.3207 190.3207 190.3771 191.4024 192.5380
   192.5380 195.2768 195.2768 200.0069 200.0069 200.1936 203.2873 203.2873
   203.9202 203.9202 204.0424 204.0543 204.2361 204.2361 205.2509 205.2806
   205.7059 205.7059 205.8154 205.8593 205.8593 205.9247 205.9263 206.6980
   206.6980 207.2802 207.9152 210.5998 210.5998 211.4336 212.2372 212.4088
   212.4088 212.5846 212.6122 212.6122 212.6648 212.9533 213.0689 213.1349
   213.1349 213.6357 213.6357 214.3699 214.3699 214.8470 214.8470 218.2768
   218.9304 218.9304 219.1667 219.1667 219.4213 219.4213 220.9607 220.9630
   222.8103 222.8103 223.7444 223.7444 223.8729 225.5204 225.5204 226.2148
   226.9041 227.1214 227.1214 227.2820 227.2820 227.4492 228.6011 228.6011
   229.0121 229.0121 229.5997 229.7443 229.7443 229.8257 230.5216 231.5778
   231.5778 232.6299 232.6299 232.8807 233.1186 233.4176 233.4176 233.4729
   233.6412 233.6908 234.6395 234.6395 237.0721 237.0721 237.8269 237.9220
   237.9220 238.6318 238.8715 242.2822 242.2822 242.8033 242.8033 243.2410
   243.2410 243.9033 244.1346 245.1069 245.1069 245.3378 245.3378 245.8236
   245.8831 245.8831 246.0310 249.5794 249.5794 250.4971 250.5539 250.5539
   250.8929 250.9847 250.9847 251.7315 252.6873 252.8125 252.8125 253.4451
   253.7468 254.8268 255.1734 255.1734 255.1918 255.5308 255.5308 255.7453
   256.1755 256.1755 258.1089 258.1089 258.1624 258.3689 259.3607 259.4606
   260.0389 260.0389 260.2871 260.2871 261.0087 261.2245 261.2245 262.4932
   262.4932 263.4525 263.4525 264.8868 265.5356 265.5356 265.5979 265.5979
   267.7800 268.5182 268.5182 268.6153 268.6153 269.2329 271.4319 271.4319
   272.0206 272.9296 272.9724 273.3455 273.3455 274.0360 274.0360 275.5354
   275.6722 275.6722 276.1480 276.1480 276.2207 276.2371 276.2371 277.6564
   277.9938 278.0227 278.0227 278.1591 278.1591 278.2089 279.1185 279.9181
   279.9181 280.1525 280.1525 280.9096 281.1393 282.0734 282.0734 283.9563
   284.0852 284.0852 285.1003 286.0350 286.0350 288.2373 288.2373 288.7653
   289.3964 289.3964 289.6951 290.2944 290.7994 291.0989 291.0989 291.8054
   291.8054 291.9281 292.0768 292.5368 292.5368 293.1926 293.1926 293.2859
   294.4450 294.4450 294.5293 294.5293 294.5424 295.1041 295.3954 295.3954
   295.8709 295.8709 295.9037 295.9556 296.2918 297.4469 297.9626 297.9626
   299.8243 300.3878 301.2260 301.2260 301.3335 301.3335 301.8780 301.8780
   302.2023 302.2023 302.4907 303.0096 303.0241 303.8127 304.1034 304.1034
   304.2258 304.2258 304.8379 304.8379 305.0245 305.0245 305.4787 305.5652
   310.8615 310.9815 310.9815 311.1532 311.5490 311.5490 312.5465 312.9239
   312.9239 313.3821 313.3821 313.5861 314.0097 314.0097 314.0383 314.0383
   314.2225 314.2619 314.9768 314.9768 316.5338 316.5338 316.6596 316.6686
   316.7390 316.9200 316.9200 319.5506 319.8056 319.8056 320.1072 320.5729
   320.5950 320.5950 321.0494 321.4569 321.4569 323.0018 323.7569 323.7569
   324.3904 324.3904 324.7355 325.0118 325.0118 326.0524 326.2600 326.2600
   326.6093 326.6480 326.6480 328.0766 328.0904 328.4529 328.8197 328.8197
   328.9289 328.9289 328.9870 329.0840 329.0840 329.1704 329.1704 331.4086
   332.1187 332.1187 335.1362 335.1362 335.4126 335.4126 335.6693 335.7194
   335.7194 336.1331 336.1331 336.4867 336.9621 337.2536 337.2560 337.6246
   337.6312 339.0700 339.0700 339.2739 339.2739 340.6402 340.6402 340.6676
   340.6676 341.2178 341.3453 342.6430 342.6430 343.5892 345.3430 345.4628
   345.8490 345.8490 346.1100 346.1100 346.1999 346.1999 346.5057 346.5110
   354.2573 354.4003 354.4003 354.4383 354.4383 354.4619 354.4619 354.4729
   354.4729 356.2098 356.8445 356.8445 357.0975 357.7062 357.7568 357.7568
   357.8236 357.8236 357.8886 357.9876 358.0709 358.0709 358.4672 358.7398
   358.7398 358.7853 359.1023 359.1023 359.6786 359.8726 360.2343 360.2343
   360.2703 360.2703 362.0988 362.1172 362.1172 362.1507 362.1507 362.5036
   362.9445 362.9464 362.9464 363.0717 363.0956 363.0956 363.4919 363.4919
   363.8863 363.9839 363.9839 364.2777 365.2569 365.7112 365.7112 365.9357
   365.9357 366.4535 366.5670 367.0543 367.0543 367.7924 367.7924 368.0749
   368.7609 371.1224 371.1224 371.3220 371.3220 371.6756 374.0978 374.2007
   374.2007 374.6480 374.6645 374.6645 378.3703 378.3703 378.6424 378.6424
   378.6457 379.0160 379.0689 379.0689 379.2395 379.5864 379.5864 379.8785
   380.1534 380.1534 380.1912 380.7705 380.7705 381.0532 381.2825 381.2825
   381.7976 381.8073 382.4967 382.4967 382.9910 383.2351 383.2351 383.2980
   383.2980 383.3759 383.6655 385.4374 385.8542 385.9067 385.9067 386.5271
   386.6777 386.6777 386.8377 388.4663 388.4663 388.5065 388.5825 388.5825
   390.9336 391.0302 391.0302 391.3985 391.3985 391.4025 392.1458 392.1458
   392.1775 392.1775 392.3206 392.3653 395.2264 395.2264 395.9791 395.9989
   396.1324 396.1324 397.7330 397.7330 397.7957 397.7957 398.6735 399.8413
   400.6020 400.6020 400.7140 401.3067 401.3067 401.6880 401.7624 401.7624
   402.4131 402.4131 403.2064 403.7289 403.7289 403.7338 403.7655 403.7655
   403.8003 404.2179 404.2179 405.1042 405.1042 405.5161 405.5853 405.5853
   405.9950 406.0213 406.0213 406.1844 406.9349 406.9858 406.9858 407.0353
   407.0539 407.0539 410.3129 410.3129 410.3350 410.3350 410.3752 410.5276
   411.3116 411.3116 412.0858 412.0858 412.2306 412.4287 412.6569 412.6569
   413.2941 413.2941 414.7628 415.3970 419.1277 419.1383 419.3212 419.4525
   419.4525 419.6130 419.6238 419.6238 420.1708 420.1708 420.2760 420.2760
   420.3379 420.3379 420.3852 420.4525 420.4525 420.5867 424.6751 424.6801
   424.6812 424.6812 424.6831 424.6831 425.4701 425.5494 426.5820 426.5820
   426.8209 426.8209 428.3011 428.4175 428.4669 428.5682 428.5682 428.6284
   428.6284 428.7642 429.3418 429.3418 429.4724 429.4724 433.4440 433.4440
   433.4460 433.6312 433.6312 433.6376 433.6376 434.0451 434.0454 434.6272
   434.6272 434.7763 435.8196 436.1973 436.4335 436.4335 436.6513 436.6613
   436.6613 436.8918 436.9140 436.9785 437.4992 437.4992 437.6037 437.6037
   442.2327 442.2327 442.2766 442.3983 442.3983 442.4420 443.8331 443.8331
   443.8358 443.8358 444.5094 444.5328 444.6319 444.9921 445.0284 445.0284
   445.1398 445.1398 445.6379 445.8467 445.8467 445.8493 445.8493 445.8656
   446.0393 446.0393 446.0595 446.0595 446.5452 446.6421 447.1053 447.2608
   447.8966 447.8966 447.9247 447.9247 451.8275 451.8275 451.8320 451.8623
   451.8623 451.8866 452.5670 452.5670 452.5708 452.5708 452.7375 452.7664
   456.8232 456.8232 457.4400 457.5874 457.7622 457.7622 460.0977 460.1243
   460.2172 460.2172 460.3206 460.3206 461.1427 461.1427 461.1694 461.1694
   461.3620 461.3891 461.5068 461.5068 461.7300 461.8930 462.0165 462.0165
   462.7481 462.7481 462.8530 462.8530 463.4979 464.1549 464.8024 464.9813
   466.0441 466.0441 466.1336 466.1336 467.0354 467.0354 467.1158 467.4089
   467.4089 467.7077 468.0050 468.1301 468.7720 468.7720 468.8176 468.8176
   468.8240 469.0074 469.1834 469.2154 469.2322 469.2322 469.2801 469.2801
   471.0188 471.5053 471.5053 472.1752 472.2573 472.2573 472.4725 472.6935
   472.8672 472.8672 472.8716 472.8716 474.8470 474.8470 474.8744 474.8744
   479.1135 479.1257 479.1257 479.1893 479.2187 479.2187 480.0470 480.0470
   480.0769 480.0769 480.1445 480.1810 481.1179 481.1179 481.1183 481.1183
   482.0291 482.0293 482.3115 482.3115 482.3116 482.3116 484.2793 484.2801
   487.1515 487.2388 487.2388 487.3189 487.3189 488.0699 488.1202 488.7761
   488.7761 489.4238 489.4238 489.6612 490.7262 491.0383 491.1641 491.1641
   491.1956 491.1956 491.2389 491.5666 491.5666 491.5692 491.5731 491.5731
   492.9342 492.9342 493.0643 493.1247 493.1247 493.6144 493.6144 493.6728
   493.8925 493.8925 493.9952 494.1610 494.3008 494.3319 494.4581 494.4581
   494.5305 494.5305 496.6736 496.8457 497.3870 497.3870 497.4558 497.4558
   497.4653 497.4704 504.2994 504.3173 504.3173 504.4638 504.4638 504.5340
   505.0122 505.0217 505.0217 505.4070 505.4070 505.7689 506.8147 506.9264
   506.9264 507.0217 507.1251 507.1251 507.2966 507.3951 507.4126 507.4126
   507.5186 507.5186 507.5810 507.5810 507.7250 507.9708 507.9708 508.2011
   509.3255 509.3255 509.3363 509.6500 509.6500 509.7980 510.2194 510.2930
   510.2930 510.3041 510.3041 510.3576 510.3576 510.5330 510.5330 510.6115
   511.5878 511.6090 511.7195 511.7195 511.8430 511.8430 512.3291 512.3291
   512.4319 512.4319 512.6507 512.6507 512.6823 512.6823 512.6922 512.6922
   512.7818 513.2944 518.4588 518.5342 518.5342 518.5726 518.5726 518.5823
   525.6864 525.8009 525.8009 525.8035 525.8035 525.9552 526.2896 526.2896
   526.3484 526.3515 526.3515 526.5250 527.6488 527.6488 527.6672 527.6672
   527.7508 527.7650 527.8185 527.9072 527.9330 527.9330 527.9611 527.9611

          k = 0.0000-1.0000 0.0000 (  2450 PWs)   bands (ev):

   -81.5875 -45.0810 -45.0795 -45.0795  -6.3676   3.9896   5.2536   5.2536
     5.5033   6.0529   6.2977   6.2977   6.3868  10.7472  16.3833  16.9592
    19.8510  19.8510  23.6364  23.6364  24.0591  26.1741  27.7595  29.9744
    30.6323  31.4243  31.4721  31.4721  33.3886  34.9243  34.9243  37.5185
    37.5185  38.6764  42.0013  43.5941  44.6956  45.5107  46.0639  46.0639
    47.6195  48.9145  48.9145  50.5793  50.5793  50.9074  51.9772  53.6676
    53.6676  56.6050  58.0855  58.8457  59.9300  59.9300  60.1519  61.1077
    61.3007  63.3280  65.1551  65.1551  65.2739  65.7757  66.3275  67.1513
    69.1548  69.1548  69.9546  69.9546  71.0016  72.1002  72.1395  72.6277
    72.6277  77.0290  77.0290  77.2717  77.3758  78.1762  80.9831  80.9831
    81.3432  81.3432  81.4022  82.0195  82.0385  83.8597  83.8597  84.3188
    84.3188  84.4754  84.6549  85.6403  88.3001  88.6412  88.6412  91.2936
    91.9495  92.0013  92.6699  92.6699  92.7756  94.8139  94.8139  96.5656
    97.3472  98.9623  99.9181 100.0100 100.0100 101.0149 101.0149 101.1934
   102.8336 103.3568 103.7984 104.4504 104.4504 104.8582 105.1634 105.5249
   105.9177 105.9177 107.7618 107.7618 109.7662 111.3430 111.4494 111.4494
   112.1861 112.5039 112.5039 112.9429 116.5805 117.0445 117.4403 117.5810
   117.5810 119.3569 119.3629 123.1811 123.1811 124.3143 124.9686 125.9109
   125.9705 126.9692 126.9692 128.4969 128.4969 128.9887 128.9887 129.2367
   129.2980 129.2980 129.7607 130.2950 130.6532 130.7132 131.0347 132.7543
   132.7543 132.7723 132.7723 133.7943 133.9885 134.7742 136.6210 136.6210
   136.9047 137.5417 137.5417 137.6863 137.7769 138.4245 140.0160 140.6737
   140.9529 141.1046 141.1046 142.0116 142.0116 142.4091 142.4260 142.5963
   142.5963 143.0599 145.7649 145.9663 146.3821 146.9591 146.9591 147.3151
   147.5593 148.0825 148.2768 148.2768 148.9856 151.4819 152.3105 152.3105
   152.8990 153.4627 153.4627 157.0380 157.1146 157.2194 157.3316 157.3316
   157.8470 157.8470 157.9979 157.9979 159.2635 160.5129 161.1547 161.4137
   161.8043 161.8313 161.8313 161.9725 161.9725 162.3058 162.4074 163.0184
   163.3578 163.4160 164.5535 164.5535 171.1282 171.2615 171.2615 171.7525
   171.7525 176.3032 176.7994 176.7994 176.8857 177.1627 177.3956 177.8918
   179.1332 179.1332 179.9278 179.9278 180.0385 180.4338 181.7653 182.0640
   183.0620 183.0620 183.5799 183.5799 183.6526 183.6526 184.1542 184.4636
   185.0629 186.0090 186.0090 186.5014 186.8996 186.8996 187.0583 187.4425
   188.1349 189.9068 189.9068 189.9753 189.9788 190.2422 190.6012 191.6443
   191.6443 191.9865 192.1331 192.9591 194.2354 194.3192 194.3192 194.9345
   196.0609 196.0609 196.6201 196.6201 197.2207 198.2615 200.5527 200.6230
   200.6230 201.4359 201.4950 202.2372 202.2372 202.4676 203.0376 203.6955
   204.0655 204.6736 204.6736 204.9642 205.3981 205.3981 206.0675 206.0675
   206.4392 206.5051 208.6879 209.0492 210.1226 210.1226 211.1249 211.1482
   211.1482 211.1582 211.1582 211.1672 211.2306 211.5314 212.1541 212.4179
   213.8491 213.8491 214.0280 214.0280 215.0539 217.1470 217.1470 217.1813
   217.5443 217.6695 217.7625 218.6983 218.7062 218.7299 219.6456 219.6456
   219.6870 219.6870 220.1618 220.4172 220.4507 221.7827 222.7480 223.8913
   223.8913 226.0960 226.0960 226.9506 226.9506 227.7206 228.5963 228.6288
   229.3473 229.3473 229.5016 230.0304 230.3739 231.8517 234.3150 234.3348
   234.3348 234.4091 234.4897 234.4897 234.7011 235.3747 235.6173 235.6173
   236.0228 236.1711 236.1711 236.5193 236.6124 237.8578 239.2501 239.2501
   240.8684 241.0376 241.1204 241.2879 241.2879 241.4653 241.9789 241.9789
   242.3320 243.0217 243.2713 243.2713 243.8636 244.2491 244.2491 244.2508
   245.3035 247.1125 247.1125 247.9154 248.0418 248.0418 250.1582 250.1582
   250.8580 250.9310 251.6143 252.0382 252.0382 252.6822 254.1361 254.5692
   254.9022 254.9022 255.1353 256.6006 256.6006 256.6145 256.8989 258.0807
   258.2537 258.2684 258.2684 258.3329 258.3329 259.0698 259.0861 259.2154
   259.2154 259.3207 259.4175 259.8135 260.0159 260.0159 260.3406 260.6568
   261.9214 261.9501 261.9501 261.9821 263.3123 264.1970 264.1970 264.7988
   265.0947 265.2709 265.2709 265.3803 266.1229 266.1229 266.3225 266.7785
   267.3472 267.8241 267.8241 268.3403 273.5204 273.5204 273.8263 275.4070
   275.4588 275.7918 275.8015 275.8792 275.9348 275.9473 276.1474 276.1474
   276.2034 276.2488 276.2488 276.3039 276.3039 278.1240 278.8272 278.8272
   279.5735 279.5790 279.5790 280.8351 281.0382 283.2011 284.2691 284.2691
   285.8944 287.2246 287.5064 288.3263 288.3263 289.5189 289.5883 289.7851
   289.9365 289.9365 290.1879 290.1879 290.4052 290.5921 291.1619 291.1619
   291.8464 293.5662 295.2764 295.4817 295.9254 295.9274 295.9274 296.1562
   296.2756 296.5368 296.5368 296.6287 296.6287 297.3241 297.4838 297.8573
   298.4182 298.4827 298.4827 298.6369 298.7837 299.0455 299.0455 299.5305
   300.4725 300.4725 302.6653 302.7029 303.3162 303.3162 303.3659 303.3659
   304.0727 304.1058 305.5670 307.0079 307.0079 307.3223 307.6855 307.6855
   309.2953 309.3408 310.6517 310.6517 310.9457 310.9457 310.9692 310.9909
   311.3723 311.5248 311.5294 311.9125 312.7389 312.7389 312.7692 312.7692
   313.2516 313.3124 313.3997 313.7591 313.7591 314.2223 314.3757 314.5580
   314.5580 314.6147 314.7470 314.7470 315.0787 315.3448 315.7749 315.8714
   316.3382 316.3382 316.9694 316.9694 317.1470 317.2329 317.4249 317.4249
   317.6356 317.6356 320.4907 322.1117 322.1117 323.0807 323.7043 323.7111
   323.9103 323.9103 323.9382 323.9382 324.0263 324.0899 326.3790 326.7001
   326.7149 326.8526 326.8526 327.7096 328.3276 328.8391 328.8696 329.5365
   329.5365 329.5764 329.5764 330.2581 331.9450 332.7357 332.7357 333.5773
   333.5773 333.6244 333.7136 334.6615 335.9952 335.9952 336.2934 336.2934
   336.4592 336.6453 336.7862 336.8076 336.9268 336.9268 337.0437 337.0437
   337.0708 337.0851 337.0900 337.7880 338.2446 338.2815 338.2815 338.3523
   339.9431 340.1090 340.3443 340.3443 340.3672 340.3672 340.6207 340.6741
   340.9615 341.1361 344.5942 344.5942 344.6944 344.7360 347.9576 348.0618
   348.0618 348.0698 348.0698 348.4355 348.6963 348.6963 348.8718 348.8718
   348.9647 348.9974 351.9017 353.8744 353.8744 353.9084 354.0223 354.0541
   354.4759 354.4759 354.7714 354.7894 356.0013 356.0013 356.3468 356.3550
   356.4468 356.4468 356.5271 356.7698 356.7698 356.7710 356.8150 356.9078
   359.3408 359.3721 359.3721 359.3939 359.8871 359.9223 361.1976 361.8236
   362.1417 362.1417 362.1914 362.1914 362.4808 362.9899 363.7796 363.7796
   363.7898 363.7898 365.5836 365.5933 366.6258 367.7324 367.9370 368.7320
   368.9408 368.9408 369.2582 369.5978 369.6887 369.6887 370.1284 370.3624
   370.3624 370.7434 371.8585 372.5878 372.7197 372.7197 372.8932 373.2322
   373.2322 373.4333 373.4333 373.4570 373.4686 373.6963 375.4261 375.8722
   375.8722 375.9637 375.9988 375.9988 376.0085 376.1276 376.1332 376.1332
   376.1428 376.1634 380.4428 380.4624 380.4806 380.4806 380.4994 380.7667
   380.7667 381.0608 382.3229 382.3455 382.5743 382.5743 384.0868 384.2196
   384.2196 384.3125 387.0440 388.5503 388.5503 388.5838 388.5838 389.4605
   390.0464 390.3493 390.4335 390.4335 390.4722 390.8546 391.6750 392.4373
   392.4373 392.8424 392.8424 392.9022 392.9312 393.0077 393.4489 393.4489
   395.1544 395.1971 397.2456 397.2725 397.2725 397.2994 397.8699 398.0376
   398.0921 398.1210 398.1210 398.1779 398.1957 398.1957 398.5048 398.5048
   398.5836 398.6656 398.8349 398.8885 398.8885 400.2529 400.3660 400.3660
   400.9865 402.3051 402.4411 402.4411 402.4869 402.9039 406.2335 406.5251
   406.5251 406.5876 407.2588 407.2588 408.1826 408.1878 408.1878 408.1961
   409.6021 409.9895 411.0846 411.0846 411.4871 411.4871 411.6599 411.6599
   411.6679 411.7712 412.8289 412.8303 415.8267 415.8315 418.8352 418.9842
   419.0010 419.0010 419.9774 420.5041 420.5041 420.8465 420.9444 421.2301
   421.2301 421.4928 421.8027 421.8477 421.8477 421.9034 422.5292 422.5292
   422.6021 422.6988 423.0162 423.0449 423.0449 423.3648 425.9043 426.2994
   426.4345 426.4759 426.8808 426.8808 427.3326 427.3326 427.3815 427.3815
   427.4892 427.4892 427.9032 427.9830 428.0177 428.1922 428.3022 428.3244
   428.3244 428.5343 429.3410 429.5565 429.6705 429.6705 429.7605 429.8825
   429.9352 429.9352 430.2763 430.5155 430.5371 430.5371 430.6859 430.7606
   430.7606 431.0414 431.0475 431.0818 431.2886 431.3201 431.3201 431.5307
   431.6092 431.7894 431.7894 431.8305 431.8305 431.8578 431.8578 432.0748
   432.1829 432.2684 432.9730 432.9926 433.3835 433.3835 433.3975 433.3975
   433.5391 433.6142 433.6142 433.6654 433.6835 433.6900 437.4510 437.4510
   437.4533 437.4589 438.0027 438.0255 438.0255 438.0493 440.2475 440.2646
   440.8200 440.8200 440.8289 440.8289 441.2952 441.3046 450.4547 450.4547
   450.4825 450.5036 450.5626 450.5626 450.7096 450.7578 450.8682 450.9657
   450.9657 451.2289 451.2928 451.2984 451.2984 451.4962 452.0203 452.0203
   452.0591 452.2437 452.3399 452.5865 452.6346 452.6346 453.4188 453.6004
   453.8211 453.8211 454.1059 454.1307 454.1307 454.5205 455.2740 455.4463
   455.4812 455.4812 455.6360 455.6360 455.6832 455.8441 456.0056 456.1269
   456.1269 456.1923 456.4051 456.5476 456.5476 456.6477 459.9599 460.0436
   460.2481 460.2481 460.7145 460.9893 461.7704 462.3270 462.7490 462.7632
   462.7632 463.2964 463.2964 464.0376 464.5110 464.5110 464.7867 465.2202
   465.3162 465.4929 465.4929 465.5292 465.5292 465.5442 465.9780 466.0084
   467.3003 467.3003 467.3534 467.4406 467.4406 467.4802 467.4898 467.5488
   470.1990 470.1990 470.2077 470.2077 470.3392 470.4813 471.0219 471.5180
   471.5353 471.5353 471.5554 472.1454 478.0896 478.1047 478.1678 478.1678
   478.1795 478.1795 478.3074 478.3253 480.3559 480.3652 480.3885 480.3885
   480.3904 480.4096 480.4096 480.4193 481.2583 481.3060 482.1937 482.1937
   482.2667 482.2667 482.8814 483.0916 485.4198 485.7998 485.7998 486.1537
   488.8712 488.9064 489.1346 489.1346 489.1922 489.1922 489.5412 489.6005
   490.5306 490.6496 490.6496 490.6728 490.8588 490.9559 490.9559 490.9605
   490.9760 490.9760 491.0111 491.0595 491.5830 491.6149 491.6149 491.6383
   493.1732 493.2151 493.2151 493.3263 493.3263 493.3393 493.3393 493.3900
   493.7906 493.8547 493.8547 493.9219 493.9640 493.9910 494.1118 494.1118
   494.1291 494.1291 494.2102 494.2235 496.4608 496.4690 496.4690 496.4772
   498.6976 498.8883 498.8883 499.1184 503.0336 503.0364 503.4764 503.4764
   503.5831 503.6013 506.1146 506.1926 506.3283 506.3283 506.4148 506.4148
   506.6673 506.8562 506.8582 507.3051 507.3051 507.3063 507.3063 507.3138
   507.4966 507.5072 507.8314 507.8314 507.8492 507.8665 508.1789 508.2409
   508.2409 508.3077 510.7371 510.9370 510.9370 511.4556 511.7842 512.2768
   512.2768 512.5114 512.9481 512.9910 512.9910 513.0149 513.2296 513.3047
   513.3047 513.5881 513.6911 514.0063 514.0063 514.1441 514.5612 514.5737
   514.5737 514.5988 518.6784 518.8241 522.0481 522.0481 522.1012 522.1012
   523.8914 523.9948 524.1789 524.1789 524.2201 524.2516 524.2678 524.4372
   524.4372 524.5706 524.5858 524.5858 524.6318 524.8461 524.8604 524.8604
   524.8629 524.8629 524.8776 524.9617 525.0228 525.2193 525.2193 525.2991
   528.9746 529.0027 531.4491 531.4756 531.4756 531.4960 531.5643 531.5871

     the Fermi energy is     8.7876 ev
     (compare with:     8.3408 eV, computed in scf)

     Writing all to output data dir out/mp-22922.save/
 
     init_run     :      0.04s CPU      0.05s WALL (       1 calls)
     electrons    :    212.85s CPU    228.38s WALL (       1 calls)

     Called by init_run:
     wfcinit      :      0.00s CPU      0.00s WALL (       1 calls)
     potinit      :      0.01s CPU      0.01s WALL (       1 calls)
     hinit0       :      0.02s CPU      0.02s WALL (       1 calls)

     Called by electrons:
     c_bands      :    212.84s CPU    228.38s WALL (       1 calls)
     v_of_rho     :      0.01s CPU      0.01s WALL (       1 calls)

     Called by c_bands:
     init_us_2    :      0.00s CPU      0.00s WALL (       3 calls)
     init_us_2:cp :      0.00s CPU      0.00s WALL (       3 calls)
     paro_k       :    205.91s CPU    220.95s WALL (       3 calls)

     Called by paro_*:
     h_psi        :      4.00s CPU      4.20s WALL (     329 calls)
     g_psi        :      0.09s CPU      0.10s WALL (   31470 calls)

     Called by h_psi:
     h_psi:calbec :      0.08s CPU      0.09s WALL (     329 calls)
     vloc_psi     :      3.83s CPU      4.02s WALL (     329 calls)
     add_vuspsi   :      0.06s CPU      0.06s WALL (     329 calls)

     General routines
     calbec       :      0.08s CPU      0.09s WALL (     329 calls)
     fft          :      0.00s CPU      0.01s WALL (      10 calls)
     fftw         :      3.42s CPU      3.59s WALL (   51598 calls)
 
     Parallel routines
 
     PWSCF        :   3m33.32s CPU   3m48.99s WALL

 
   This run was terminated on:  22:16:31  22Nov2023            

=------------------------------------------------------------------------------=
   JOB DONE.
=------------------------------------------------------------------------------=
