
     Program PWSCF v.7.1 starts on 14Nov2023 at 10:11:10 

     This program is part of the open-source Quantum ESPRESSO suite
     for quantum simulation of materials; please cite
         "P. Giannozzi et al., J. Phys.:Condens. Matter 21 395502 (2009);
         "P. Giannozzi et al., J. Phys.:Condens. Matter 29 465901 (2017);
         "P. Giannozzi et al., J. Chem. Phys. 152 154105 (2020);
          URL http://www.quantum-espresso.org", 
     in publications or presentations arising from this work. More details at
     http://www.quantum-espresso.org/quote

     Parallel version (MPI), running on    24 processors

     MPI processes distributed on     1 nodes
     123446 MiB available memory on the printing compute node when the environment starts
 
     Reading input from pw_mp-66_scf_k3000_E61.in
Warning: card &CELL ignored
Warning: card / ignored

     Current dimensions of program PWSCF are:
     Max number of different atomic species (ntypx) = 10
     Max number of k-points (npk) =  40000
     Max angular momentum in pseudopotentials (lmaxx) =  4
 
     K-points division:     npool     =       2
     R & G space division:  proc/nbgrp/npool/nimage =      12
     Subspace diagonalization in iterative solution of the eigenvalue problem:
     a serial algorithm will be used

 
     Parallelization info
     --------------------
     sticks:   dense  smooth     PW     G-vecs:    dense   smooth      PW
     Min          31      31     10                  408      408      78
     Max          32      32     11                  410      410      82
     Sum         379     379    121                 4909     4909     941
 
     Using Slab Decomposition
 


     bravais-lattice index     =            2
     lattice parameter (alat)  =       6.7288  a.u.
     unit-cell volume          =      76.1657 (a.u.)^3
     number of atoms/cell      =            2
     number of atomic types    =            1
     number of electrons       =         8.00
     number of Kohn-Sham states=            8
     kinetic-energy cutoff     =      61.0000  Ry
     charge density cutoff     =     244.0000  Ry
     scf convergence threshold =      1.0E-10
     mixing beta               =       0.7000
     number of iterations used =            8  plain     mixing
     Exchange-correlation= PBE
                           (   1   4   3   4   0   0   0)

     celldm(1)=   6.728833  celldm(2)=   0.000000  celldm(3)=   0.000000
     celldm(4)=   0.000000  celldm(5)=   0.000000  celldm(6)=   0.000000

     crystal axes: (cart. coord. in units of alat)
               a(1) = (  -0.500000   0.000000   0.500000 )  
               a(2) = (   0.000000   0.500000   0.500000 )  
               a(3) = (  -0.500000   0.500000   0.000000 )  

     reciprocal axes: (cart. coord. in units 2 pi/alat)
               b(1) = ( -1.000000 -1.000000  1.000000 )  
               b(2) = (  1.000000  1.000000  1.000000 )  
               b(3) = ( -1.000000  1.000000 -1.000000 )  


     PseudoPot. # 1 for C  read from file:
     /usr/scratch4/magr4985/MG/HTDF/pseudo/SG15/C.upf
     MD5 check sum: 1a5f83a7b1f58d24996abe00ed223ac6
     Pseudo is Norm-conserving, Zval =  4.0
     Generated using ONCVPSP code by D. R. Hamann
     Using radial grid of  602 points,  4 beta functions with: 
                l(1) =   0
                l(2) =   0
                l(3) =   1
                l(4) =   1

     atomic species   valence    mass     pseudopotential
        C              4.00    12.01070     C ( 1.00)

     48 Sym. Ops., with inversion, found (24 have fractional translation)



   Cartesian axes

     site n.     atom                  positions (alat units)
         1           C   tau(   1) = (  -0.5000000   0.5000000   0.0000000  )
         2           C   tau(   2) = (  -0.7500000   0.7500000   0.7500000  )

     number of k points=    72  Gaussian smearing, width (Ry)=  0.0005
                       cart. coord. in units 2pi/alat
        k(    1) = (   0.0000000   0.0000000   0.0000000), wk =   0.0011574
        k(    2) = (  -0.0833333   0.0833333  -0.0833333), wk =   0.0092593
        k(    3) = (  -0.1666667   0.1666667  -0.1666667), wk =   0.0092593
        k(    4) = (  -0.2500000   0.2500000  -0.2500000), wk =   0.0092593
        k(    5) = (  -0.3333333   0.3333333  -0.3333333), wk =   0.0092593
        k(    6) = (  -0.4166667   0.4166667  -0.4166667), wk =   0.0092593
        k(    7) = (   0.5000000  -0.5000000   0.5000000), wk =   0.0046296
        k(    8) = (   0.0000000   0.1666667   0.0000000), wk =   0.0069444
        k(    9) = (  -0.0833333   0.2500000  -0.0833333), wk =   0.0277778
        k(   10) = (  -0.1666667   0.3333333  -0.1666667), wk =   0.0277778
        k(   11) = (  -0.2500000   0.4166667  -0.2500000), wk =   0.0277778
        k(   12) = (  -0.3333333   0.5000000  -0.3333333), wk =   0.0277778
        k(   13) = (   0.5833333  -0.4166667   0.5833333), wk =   0.0277778
        k(   14) = (   0.5000000  -0.3333333   0.5000000), wk =   0.0277778
        k(   15) = (   0.4166667  -0.2500000   0.4166667), wk =   0.0277778
        k(   16) = (   0.3333333  -0.1666667   0.3333333), wk =   0.0277778
        k(   17) = (   0.2500000  -0.0833333   0.2500000), wk =   0.0277778
        k(   18) = (   0.1666667  -0.0000000   0.1666667), wk =   0.0138889
        k(   19) = (   0.0000000   0.3333333   0.0000000), wk =   0.0069444
        k(   20) = (  -0.0833333   0.4166667  -0.0833333), wk =   0.0277778
        k(   21) = (  -0.1666667   0.5000000  -0.1666667), wk =   0.0277778
        k(   22) = (  -0.2500000   0.5833333  -0.2500000), wk =   0.0277778
        k(   23) = (   0.6666667  -0.3333333   0.6666667), wk =   0.0277778
        k(   24) = (   0.5833333  -0.2500000   0.5833333), wk =   0.0277778
        k(   25) = (   0.5000000  -0.1666667   0.5000000), wk =   0.0277778
        k(   26) = (   0.4166667  -0.0833333   0.4166667), wk =   0.0277778
        k(   27) = (   0.3333333   0.0000000   0.3333333), wk =   0.0138889
        k(   28) = (   0.0000000   0.5000000   0.0000000), wk =   0.0069444
        k(   29) = (  -0.0833333   0.5833333  -0.0833333), wk =   0.0277778
        k(   30) = (  -0.1666667   0.6666667  -0.1666667), wk =   0.0277778
        k(   31) = (   0.7500000  -0.2500000   0.7500000), wk =   0.0277778
        k(   32) = (   0.6666667  -0.1666667   0.6666667), wk =   0.0277778
        k(   33) = (   0.5833333  -0.0833333   0.5833333), wk =   0.0277778
        k(   34) = (   0.5000000   0.0000000   0.5000000), wk =   0.0138889
        k(   35) = (   0.0000000   0.6666667   0.0000000), wk =   0.0069444
        k(   36) = (  -0.0833333   0.7500000  -0.0833333), wk =   0.0277778
        k(   37) = (   0.8333333  -0.1666667   0.8333333), wk =   0.0277778
        k(   38) = (   0.7500000  -0.0833333   0.7500000), wk =   0.0277778
        k(   39) = (   0.6666667  -0.0000000   0.6666667), wk =   0.0138889
        k(   40) = (   0.0000000   0.8333333   0.0000000), wk =   0.0069444
        k(   41) = (   0.9166667  -0.0833333   0.9166667), wk =   0.0277778
        k(   42) = (   0.8333333   0.0000000   0.8333333), wk =   0.0138889
        k(   43) = (   0.0000000  -1.0000000   0.0000000), wk =   0.0034722
        k(   44) = (  -0.1666667   0.3333333   0.0000000), wk =   0.0277778
        k(   45) = (  -0.2500000   0.4166667  -0.0833333), wk =   0.0555556
        k(   46) = (  -0.3333333   0.5000000  -0.1666667), wk =   0.0555556
        k(   47) = (   0.5833333  -0.4166667   0.7500000), wk =   0.0555556
        k(   48) = (   0.5000000  -0.3333333   0.6666667), wk =   0.0277778
        k(   49) = (  -0.1666667   0.5000000   0.0000000), wk =   0.0277778
        k(   50) = (  -0.2500000   0.5833333  -0.0833333), wk =   0.0555556
        k(   51) = (   0.6666667  -0.3333333   0.8333333), wk =   0.0555556
        k(   52) = (   0.5833333  -0.2500000   0.7500000), wk =   0.0555556
        k(   53) = (   0.5000000  -0.1666667   0.6666667), wk =   0.0555556
        k(   54) = (   0.4166667  -0.0833333   0.5833333), wk =   0.0555556
        k(   55) = (   0.3333333   0.0000000   0.5000000), wk =   0.0277778
        k(   56) = (  -0.1666667   0.6666667  -0.0000000), wk =   0.0277778
        k(   57) = (   0.7500000  -0.2500000   0.9166667), wk =   0.0555556
        k(   58) = (   0.6666667  -0.1666667   0.8333333), wk =   0.0555556
        k(   59) = (   0.5833333  -0.0833333   0.7500000), wk =   0.0555556
        k(   60) = (   0.5000000   0.0000000   0.6666667), wk =   0.0277778
        k(   61) = (   0.8333333  -0.1666667   1.0000000), wk =   0.0277778
        k(   62) = (   0.7500000  -0.0833333   0.9166667), wk =   0.0555556
        k(   63) = (   0.6666667   0.0000000   0.8333333), wk =   0.0277778
        k(   64) = (  -0.1666667  -1.0000000  -0.0000000), wk =   0.0138889
        k(   65) = (   0.6666667  -0.3333333   1.0000000), wk =   0.0277778
        k(   66) = (   0.5833333  -0.2500000   0.9166667), wk =   0.0555556
        k(   67) = (   0.5000000  -0.1666667   0.8333333), wk =   0.0277778
        k(   68) = (   0.6666667  -0.1666667   1.0000000), wk =   0.0277778
        k(   69) = (   0.5833333  -0.0833333   0.9166667), wk =   0.0555556
        k(   70) = (   0.5000000   0.0000000   0.8333333), wk =   0.0277778
        k(   71) = (  -0.3333333  -1.0000000   0.0000000), wk =   0.0138889
        k(   72) = (  -0.5000000  -1.0000000   0.0000000), wk =   0.0069444

     Dense  grid:     4909 G-vectors     FFT dimensions: (  24,  24,  24)

     Estimated max dynamical RAM per process >       0.89 MB

     Estimated total dynamical RAM >      20.14 MB

     Initial potential from superposition of free atoms

     starting charge       7.9861, renormalised to       8.0000
     Starting wfcs are random

     total cpu time spent up to now is        0.2 secs

     Self-consistent Calculation

     iteration #  1     ecut=    61.00 Ry     beta= 0.70
     Davidson diagonalization with overlap
     ethr =  1.00E-02,  avg # of iterations =  8.5

     total cpu time spent up to now is        0.4 secs

     total energy              =     -22.77553287 Ry
     estimated scf accuracy    <       0.11507598 Ry

     iteration #  2     ecut=    61.00 Ry     beta= 0.70
     Davidson diagonalization with overlap
     ethr =  1.44E-03,  avg # of iterations =  1.1

     total cpu time spent up to now is        0.4 secs

     total energy              =     -22.78354254 Ry
     estimated scf accuracy    <       0.00256471 Ry

     iteration #  3     ecut=    61.00 Ry     beta= 0.70
     Davidson diagonalization with overlap
     ethr =  3.21E-05,  avg # of iterations =  2.7

     total cpu time spent up to now is        0.5 secs

     total energy              =     -22.78405897 Ry
     estimated scf accuracy    <       0.00005081 Ry

     iteration #  4     ecut=    61.00 Ry     beta= 0.70
     Davidson diagonalization with overlap
     ethr =  6.35E-07,  avg # of iterations =  2.8

     total cpu time spent up to now is        0.6 secs

     total energy              =     -22.78406613 Ry
     estimated scf accuracy    <       0.00000151 Ry

     iteration #  5     ecut=    61.00 Ry     beta= 0.70
     Davidson diagonalization with overlap
     ethr =  1.89E-08,  avg # of iterations =  1.9

     total cpu time spent up to now is        0.6 secs

     total energy              =     -22.78406639 Ry
     estimated scf accuracy    <       0.00000003 Ry

     iteration #  6     ecut=    61.00 Ry     beta= 0.70
     Davidson diagonalization with overlap
     ethr =  3.46E-10,  avg # of iterations =  2.1

     total cpu time spent up to now is        0.7 secs

     End of self-consistent calculation

          k = 0.0000 0.0000 0.0000 (   609 PWs)   bands (ev):

    -8.0990  13.4083  13.4083  13.4083  19.0301  19.0301  19.0301  26.8657

          k =-0.0833 0.0833-0.0833 (   606 PWs)   bands (ev):

    -7.9063  12.1845  13.0850  13.0850  19.4543  19.4543  19.7504  27.0246

          k =-0.1667 0.1667-0.1667 (   597 PWs)   bands (ev):

    -7.3305   9.6533  12.3861  12.3861  20.3749  20.3749  20.8542  27.4854

          k =-0.2500 0.2500-0.2500 (   607 PWs)   bands (ev):

    -6.3800   6.8097  11.6598  11.6598  21.2349  21.2349  21.6249  28.1265

          k =-0.3333 0.3333-0.3333 (   613 PWs)   bands (ev):

    -5.0757   4.0247  11.0823  11.0823  21.7253  21.7253  22.0680  28.7207

          k =-0.4167 0.4167-0.4167 (   604 PWs)   bands (ev):

    -3.4916   1.5115  10.7221  10.7221  21.8888  21.8888  22.2928  29.0644

          k = 0.5000-0.5000 0.5000 (   610 PWs)   bands (ev):

    -2.2987   0.0010  10.6001  10.6001  21.9116  21.9116  22.3617  29.1610

          k = 0.0000 0.1667 0.0000 (   605 PWs)   bands (ev):

    -7.8421  12.4960  12.4960  12.8015  18.8342  20.1637  20.1637  26.9789

          k =-0.0833 0.2500-0.0833 (   599 PWs)   bands (ev):

    -7.3941  10.5158  11.6924  12.4672  19.1318  21.2399  21.2613  27.0404

          k =-0.1667 0.3333-0.1667 (   605 PWs)   bands (ev):

    -6.5685   7.8182  10.9702  11.8011  19.9883  22.1389  22.1884  27.2257

          k =-0.2500 0.4167-0.2500 (   606 PWs)   bands (ev):

    -5.3808   5.0409  10.4614  11.0513  20.7716  22.6570  22.6941  27.7047

          k =-0.3333 0.5000-0.3333 (   608 PWs)   bands (ev):

    -3.8772   2.4379  10.2183  10.4060  21.2331  22.7468  22.9198  28.4647

          k = 0.5833-0.4167 0.5833 (   610 PWs)   bands (ev):

    -2.3462   0.3921   9.9539  10.2495  21.5274  22.5482  23.0123  29.0528

          k = 0.5000-0.3333 0.5000 (   611 PWs)   bands (ev):

    -2.7989   0.9503   9.7420  10.5441  21.8116  22.2526  22.9696  29.0791

          k = 0.4167-0.2500 0.4167 (   608 PWs)   bands (ev):

    -4.4079   3.2779   9.7967  11.0702  21.8491  22.0521  22.7755  28.5617

          k = 0.3333-0.1667 0.3333 (   611 PWs)   bands (ev):

    -5.8156   5.9655  10.1265  11.7686  21.2054  22.0426  22.3228  27.8938

          k = 0.2500-0.0833 0.2500 (   606 PWs)   bands (ev):

    -6.8852   8.7482  10.7231  12.5221  20.3195  21.4608  21.6081  27.4463

          k = 0.1667-0.0000 0.1667 (   596 PWs)   bands (ev):

    -7.5859  11.1717  11.6631  13.0846  19.5504  20.3566  20.7051  27.1861

          k = 0.0000 0.3333 0.0000 (   597 PWs)   bands (ev):

    -7.0750  10.8303  10.8303  11.1809  18.3754  22.4745  22.4745  26.2067

          k =-0.0833 0.4167-0.0833 (   605 PWs)   bands (ev):

    -6.3775   8.7447  10.0763  10.7421  18.6390  23.5718  23.6165  25.4112

          k =-0.1667 0.5000-0.1667 (   608 PWs)   bands (ev):

    -5.3140   6.1789   9.5625   9.9822  19.4686  24.2562  24.3112  25.2647

          k =-0.2500 0.5833-0.2500 (   615 PWs)   bands (ev):

    -3.9167   3.6212   9.1347   9.3417  20.1361  24.4481  24.5961  26.1636

          k = 0.6667-0.3333 0.6667 (   606 PWs)   bands (ev):

    -2.3274   1.3733   8.4157   9.4293  20.5622  24.1791  24.7222  27.7578

          k = 0.5833-0.2500 0.5833 (   612 PWs)   bands (ev):

    -1.8935   0.8523   7.9266   9.8090  21.0012  23.6861  24.7012  28.9042

          k = 0.5000-0.1667 0.5000 (   614 PWs)   bands (ev):

    -3.3994   2.8555   7.7258  10.4389  21.5282  23.0171  24.5210  28.4082

          k = 0.4167-0.0833 0.4167 (   611 PWs)   bands (ev):

    -4.8867   5.3651   7.8577  11.2338  21.9931  22.1152  23.9733  27.4419

          k = 0.3333 0.0000 0.3333 (   616 PWs)   bands (ev):

    -6.0649   7.7108   8.5886  12.0285  21.0693  22.0904  22.8133  27.2041

          k = 0.0000 0.5000 0.0000 (   592 PWs)   bands (ev):

    -5.8095   8.9037   9.2761   9.2761  17.8964  23.7390  25.0456  25.0456

          k =-0.0833 0.5833-0.0833 (   609 PWs)   bands (ev):

    -4.8743   6.9798   8.6605   8.7102  18.2262  22.8348  26.0645  26.0655

          k =-0.1667 0.6667-0.1667 (   611 PWs)   bands (ev):

    -3.5968   4.7715   7.6517   8.4505  19.0159  23.1780  26.4594  26.5965

          k = 0.7500-0.2500 0.7500 (   616 PWs)   bands (ev):

    -2.0605   2.6080   6.6571   8.5150  19.5441  24.9094  26.2684  26.8064

          k = 0.6667-0.1667 0.6667 (   615 PWs)   bands (ev):

    -0.9571   1.3138   5.9044   8.8951  20.0200  25.6603  26.7418  27.3660

          k = 0.5833-0.0833 0.5833 (   616 PWs)   bands (ev):

    -2.0995   2.7441   5.4970   9.5486  20.6533  24.7151  26.6751  28.3445

          k = 0.5000 0.0000 0.5000 (   616 PWs)   bands (ev):

    -3.6203   4.7033   5.7823  10.3878  21.3966  23.4575  25.8287  27.4042

          k = 0.0000 0.6667 0.0000 (   624 PWs)   bands (ev):

    -4.0693   6.2351   8.0784   8.0784  17.6116  21.2226  27.4998  27.4998

          k =-0.0833 0.7500-0.0833 (   615 PWs)   bands (ev):

    -2.9185   4.7252   7.1739   7.7492  18.0677  20.7136  28.2787  28.3431

          k = 0.8333-0.1667 0.8333 (   617 PWs)   bands (ev):

    -1.4789   3.1869   5.7334   7.7508  18.7326  21.8292  28.2863  28.6805

          k = 0.7500-0.0833 0.7500 (   618 PWs)   bands (ev):

    -0.0890   1.9014   4.4674   8.0813  19.1916  24.2938  27.6147  28.7197

          k = 0.6667-0.0000 0.6667 (   606 PWs)   bands (ev):

    -0.6521   2.4649   4.0057   8.7075  19.8184  26.3772  27.0110  28.4771

          k = 0.0000 0.8333 0.0000 (   620 PWs)   bands (ev):

    -1.8966   3.4061   7.3371   7.3371  17.6813  19.3737  29.4604  29.4604

          k = 0.9167-0.0833 0.9167 (   618 PWs)   bands (ev):

    -0.5723   2.0523   6.5354   7.2566  18.2396  19.3739  29.7387  29.8793

          k = 0.8333 0.0000 0.8333 (   618 PWs)   bands (ev):

     0.7351   1.0953   5.1209   7.5127  18.6415  21.3705  29.0785  29.6811

          k = 0.0000-1.0000 0.0000 (   620 PWs)   bands (ev):

     0.6353   0.6353   7.0872   7.0872  18.2284  18.2284  30.2614  30.2614

          k =-0.1667 0.3333 0.0000 (   599 PWs)   bands (ev):

    -6.8213   9.4076  10.0786  12.0670  19.3708  22.2365  22.4220  26.6757

          k =-0.2500 0.4167-0.0833 (   606 PWs)   bands (ev):

    -5.8763   7.0210   9.2230  11.4026  20.2375  22.7387  23.5351  26.5067

          k =-0.3333 0.5000-0.1667 (   612 PWs)   bands (ev):

    -4.5819   4.3766   8.8293  10.6238  21.0629  22.7691  24.2102  27.1010

          k = 0.5833-0.4167 0.7500 (   607 PWs)   bands (ev):

    -3.0150   1.9369   8.6986   9.9896  21.5130  22.5852  24.5118  28.2573

          k = 0.5000-0.3333 0.6667 (   606 PWs)   bands (ev):

    -1.8463   0.4684   8.6989   9.7239  21.6501  22.4781  24.5965  28.9278

          k =-0.1667 0.5000 0.0000 (   609 PWs)   bands (ev):

    -5.5609   7.6602   8.5748  10.1705  18.9371  24.2559  24.4780  25.0315

          k =-0.2500 0.5833-0.0833 (   612 PWs)   bands (ev):

    -4.3894   5.5168   7.8149   9.4342  19.8558  24.0865  24.7293  26.1149

          k = 0.6667-0.3333 0.8333 (   615 PWs)   bands (ev):

    -2.9135   3.1646   7.4201   8.8155  20.5552  24.1196  25.6052  26.7444

          k = 0.5833-0.2500 0.7500 (   612 PWs)   bands (ev):

    -1.4332   1.2597   7.0169   8.7179  20.9929  23.8332  26.5069  27.7389

          k = 0.5000-0.1667 0.6667 (   613 PWs)   bands (ev):

    -1.8781   1.8114   6.6804   9.1271  21.4793  23.3302  26.3997  28.2847

          k = 0.4167-0.0833 0.5833 (   613 PWs)   bands (ev):

    -3.4417   3.9921   6.6045   9.8522  22.0401  22.5509  25.9940  26.9941

          k = 0.3333 0.0000 0.5000 (   616 PWs)   bands (ev):

    -4.8225   6.1321   7.1548  10.7034  21.2809  22.6649  25.0827  26.1561

          k =-0.1667 0.6667-0.0000 (   614 PWs)   bands (ev):

    -3.8312   5.7852   7.4252   8.2194  18.6660  22.0585  26.4989  27.5307

          k = 0.7500-0.2500 0.9167 (   614 PWs)   bands (ev):

    -2.4688   4.0977   6.4124   7.6907  19.6018  22.5455  26.4696  28.3327

          k = 0.6667-0.1667 0.8333 (   618 PWs)   bands (ev):

    -0.9416   2.3237   5.4390   7.7186  20.1498  24.5031  26.1640  28.3744

          k = 0.5833-0.0833 0.7500 (   616 PWs)   bands (ev):

    -0.5899   2.0008   4.7603   8.1803  20.6710  25.3418  27.0933  27.8007

          k = 0.5000 0.0000 0.6667 (   608 PWs)   bands (ev):

    -2.0189   3.5070   4.7957   8.9442  21.3670  24.1119  27.0140  27.8104

          k = 0.8333-0.1667 1.0000 (   615 PWs)   bands (ev):

    -1.6812   3.4107   6.7362   7.0048  18.7230  20.3123  28.5058  29.3817

          k = 0.7500-0.0833 0.9167 (   620 PWs)   bands (ev):

    -0.2127   2.1731   5.3652   6.9740  19.5271  21.5807  28.2738  29.3099

          k = 0.6667 0.0000 0.8333 (   616 PWs)   bands (ev):

     0.5423   1.7067   4.1755   7.4213  19.9982  24.2604  27.3611  28.4974

          k =-0.1667-1.0000-0.0000 (   620 PWs)   bands (ev):

     0.7954   0.7954   6.5696   6.5696  19.2331  19.2331  29.7448  29.7448

          k = 0.6667-0.3333 1.0000 (   624 PWs)   bands (ev):

    -3.1303   4.7147   6.0769   8.5904  21.1587  23.4570  24.9165  27.6216

          k = 0.5833-0.2500 0.9167 (   621 PWs)   bands (ev):

    -1.6226   2.9602   5.5976   7.7974  22.1292  23.3968  25.6885  28.2509

          k = 0.5000-0.1667 0.8333 (   620 PWs)   bands (ev):

    -0.5191   1.6738   5.5725   7.4631  22.2513  23.5137  27.2231  27.4679

          k = 0.6667-0.1667 1.0000 (   615 PWs)   bands (ev):

    -1.0662   3.2015   5.4997   6.5977  21.2480  22.5561  26.1821  28.9251

          k = 0.5833-0.0833 0.9167 (   619 PWs)   bands (ev):

     0.3106   2.0961   4.7151   6.3028  22.0724  24.2785  25.8850  27.6526

          k = 0.5000 0.0000 0.8333 (   625 PWs)   bands (ev):

    -0.1897   2.5218   4.4261   6.8401  22.5322  24.3315  26.1252  27.2921

          k =-0.3333-1.0000 0.0000 (   618 PWs)   bands (ev):

     1.1841   1.1841   5.5732   5.5732  21.6901  21.6901  27.9807  27.9807

          k =-0.5000-1.0000 0.0000 (   616 PWs)   bands (ev):

     1.4344   1.4344   5.0584   5.0584  24.0828  24.0829  25.8028  25.8028

     the Fermi energy is    15.8919 ev

!    total energy              =     -22.78406640 Ry
     estimated scf accuracy    <          1.3E-11 Ry
     smearing contrib. (-TS)   =      -0.00000000 Ry
     internal energy E=F+TS    =     -22.78406640 Ry

     The total energy is F=E-TS. E is the sum of the following terms:
     one-electron contribution =       8.02651524 Ry
     hartree contribution      =       1.93263949 Ry
     xc contribution           =      -7.12547309 Ry
     ewald contribution        =     -25.61774804 Ry

     convergence has been achieved in   6 iterations

     Writing all to output data dir out/mp-66.save/
 
     init_run     :      0.03s CPU      0.11s WALL (       1 calls)
     electrons    :      0.43s CPU      0.52s WALL (       1 calls)

     Called by init_run:
     wfcinit      :      0.02s CPU      0.05s WALL (       1 calls)
     potinit      :      0.01s CPU      0.01s WALL (       1 calls)
     hinit0       :      0.00s CPU      0.04s WALL (       1 calls)

     Called by electrons:
     c_bands      :      0.38s CPU      0.46s WALL (       6 calls)
     sum_band     :      0.04s CPU      0.05s WALL (       6 calls)
     v_of_rho     :      0.00s CPU      0.00s WALL (       7 calls)
     mix_rho      :      0.00s CPU      0.00s WALL (       6 calls)

     Called by c_bands:
     init_us_2    :      0.01s CPU      0.01s WALL (     468 calls)
     init_us_2:cp :      0.00s CPU      0.01s WALL (     468 calls)
     cegterg      :      0.34s CPU      0.41s WALL (     216 calls)

     Called by *egterg:
     cdiaghg      :      0.07s CPU      0.11s WALL (     884 calls)
     h_psi        :      0.25s CPU      0.29s WALL (     920 calls)
     g_psi        :      0.00s CPU      0.00s WALL (     668 calls)

     Called by h_psi:
     h_psi:calbec :      0.01s CPU      0.01s WALL (     920 calls)
     vloc_psi     :      0.22s CPU      0.27s WALL (     920 calls)
     add_vuspsi   :      0.01s CPU      0.01s WALL (     920 calls)

     General routines
     calbec       :      0.01s CPU      0.01s WALL (     920 calls)
     fft          :      0.00s CPU      0.04s WALL (      69 calls)
     ffts         :      0.00s CPU      0.00s WALL (       6 calls)
     fftw         :      0.24s CPU      0.28s WALL (   13222 calls)
 
     Parallel routines
 
     PWSCF        :      0.49s CPU      0.75s WALL

 
   This run was terminated on:  10:11:11  14Nov2023            

=------------------------------------------------------------------------------=
   JOB DONE.
=------------------------------------------------------------------------------=
