
     Program PWSCF v.7.1 starts on 14Dec2023 at 17:24: 0 

     This program is part of the open-source Quantum ESPRESSO suite
     for quantum simulation of materials; please cite
         "P. Giannozzi et al., J. Phys.:Condens. Matter 21 395502 (2009);
         "P. Giannozzi et al., J. Phys.:Condens. Matter 29 465901 (2017);
         "P. Giannozzi et al., J. Chem. Phys. 152 154105 (2020);
          URL http://www.quantum-espresso.org", 
     in publications or presentations arising from this work. More details at
     http://www.quantum-espresso.org/quote

     Parallel version (MPI), running on    24 processors

     MPI processes distributed on     1 nodes
     122698 MiB available memory on the printing compute node when the environment starts
 
     Reading input from pw_mp-1253_nscf_k260_E53.in
Warning: card &IONS ignored
Warning: card / ignored
Warning: card &CELL ignored
Warning: card / ignored

     Current dimensions of program PWSCF are:
     Max number of different atomic species (ntypx) = 10
     Max number of k-points (npk) =  40000
     Max angular momentum in pseudopotentials (lmaxx) =  4

     Atomic positions and unit cell read from directory:
     out/mp-1253.save/
     Atomic positions from file used, from input discarded
 
 
     K-points division:     npool     =       2
     R & G space division:  proc/nbgrp/npool/nimage =      12
     Subspace diagonalization in iterative solution of the eigenvalue problem:
     one sub-group per band group will be used
     scalapack distributed-memory algorithm (size of sub-group:  3*  3 procs)

 
     Parallelization info
     --------------------
     sticks:   dense  smooth     PW     G-vecs:    dense   smooth      PW
     Min          96      96     29                 2184     2184     356
     Max          97      97     30                 2187     2187     359
     Sum        1159    1159    349                26229    26229    4279
 
     Using Slab Decomposition
 


     bravais-lattice index     =            2
     lattice parameter (alat)  =      12.5993  a.u.
     unit-cell volume          =     500.0063 (a.u.)^3
     number of atoms/cell      =            2
     number of atomic types    =            2
     number of electrons       =        16.00
     number of Kohn-Sham states=         1200
     kinetic-energy cutoff     =      53.0000  Ry
     charge density cutoff     =     212.0000  Ry
     Exchange-correlation= PBE
                           (   1   4   3   4   0   0   0)

     celldm(1)=  12.599264  celldm(2)=   0.000000  celldm(3)=   0.000000
     celldm(4)=   0.000000  celldm(5)=   0.000000  celldm(6)=   0.000000

     crystal axes: (cart. coord. in units of alat)
               a(1) = (  -0.500000   0.000000   0.500000 )  
               a(2) = (   0.000000   0.500000   0.500000 )  
               a(3) = (  -0.500000   0.500000   0.000000 )  

     reciprocal axes: (cart. coord. in units 2 pi/alat)
               b(1) = ( -1.000000 -1.000000  1.000000 )  
               b(2) = (  1.000000  1.000000  1.000000 )  
               b(3) = ( -1.000000  1.000000 -1.000000 )  


     PseudoPot. # 1 for Ba read from file:
     /usr/scratch4/magr4985/MG/HTDF/pseudo/SG15/Ba.upf
     MD5 check sum: ac4691792522964bb0504809e83fae44
     Pseudo is Norm-conserving, Zval = 10.0
     Generated using ONCVPSP code by D. R. Hamann
     Using radial grid of  602 points,  8 beta functions with: 
                l(1) =   0
                l(2) =   0
                l(3) =   1
                l(4) =   1
                l(5) =   2
                l(6) =   2
                l(7) =   3
                l(8) =   3

     PseudoPot. # 2 for Se read from file:
     /usr/scratch4/magr4985/MG/HTDF/pseudo/SG15/Se.upf
     MD5 check sum: e78e48a4f5d8ce1f8dc76ec1271f249c
     Pseudo is Norm-conserving, Zval =  6.0
     Generated using ONCVPSP code by D. R. Hamann
     Using radial grid of  602 points,  6 beta functions with: 
                l(1) =   0
                l(2) =   0
                l(3) =   1
                l(4) =   1
                l(5) =   2
                l(6) =   2

     atomic species   valence    mass     pseudopotential
        Ba            10.00   137.32700     Ba( 1.00)
        Se             6.00    78.96000     Se( 1.00)

     48 Sym. Ops., with inversion, found



   Cartesian axes

     site n.     atom                  positions (alat units)
         1           Ba  tau(   1) = (   0.0000000   0.0000000   0.0000000  )
         2           Se  tau(   2) = (  -0.5000000   0.5000000   0.5000000  )

     number of k points=    16  Gaussian smearing, width (Ry)=  0.0005
                       cart. coord. in units 2pi/alat
        k(    1) = (   0.0000000   0.0000000   0.0000000), wk =   0.0092593
        k(    2) = (  -0.1666667   0.1666667  -0.1666667), wk =   0.0740741
        k(    3) = (  -0.3333333   0.3333333  -0.3333333), wk =   0.0740741
        k(    4) = (   0.5000000  -0.5000000   0.5000000), wk =   0.0370370
        k(    5) = (   0.0000000   0.3333333   0.0000000), wk =   0.0555556
        k(    6) = (  -0.1666667   0.5000000  -0.1666667), wk =   0.2222222
        k(    7) = (   0.6666667  -0.3333333   0.6666667), wk =   0.2222222
        k(    8) = (   0.5000000  -0.1666667   0.5000000), wk =   0.2222222
        k(    9) = (   0.3333333   0.0000000   0.3333333), wk =   0.1111111
        k(   10) = (   0.0000000   0.6666667   0.0000000), wk =   0.0555556
        k(   11) = (   0.8333333  -0.1666667   0.8333333), wk =   0.2222222
        k(   12) = (   0.6666667  -0.0000000   0.6666667), wk =   0.1111111
        k(   13) = (   0.0000000  -1.0000000   0.0000000), wk =   0.0277778
        k(   14) = (   0.6666667  -0.3333333   1.0000000), wk =   0.2222222
        k(   15) = (   0.5000000  -0.1666667   0.8333333), wk =   0.2222222
        k(   16) = (  -0.3333333  -1.0000000   0.0000000), wk =   0.1111111

     Dense  grid:    26229 G-vectors     FFT dimensions: (  45,  45,  45)

     Estimated max dynamical RAM per process >     101.44 MB

     Estimated total dynamical RAM >       2.38 GB

     The potential is recalculated from file :
     out/mp-1253.save/charge-density

     Starting wfcs are random

     Band Structure Calculation
     Davidson diagonalization with overlap

     ethr =  5.00E-06,  avg # of iterations = 11.4

     total cpu time spent up to now is      699.2 secs

     End of band structure calculation

          k = 0.0000 0.0000 0.0000 (  3287 PWs)   bands (ev):

   -21.1027  -6.2139  -6.2139  -6.2139  -5.4423   5.3178   5.3178   5.3178
     8.3008   8.9218   8.9218   8.9218   9.7263   9.7263  12.3110  14.6910
    14.6910  14.6910  14.8870  14.8870  14.8870  16.6549  19.2984  19.2984
    19.2984  20.9974  20.9974  20.9974  22.9828  22.9828  25.0112  25.4841
    25.4841  25.4841  26.9554  26.9554  27.5916  27.5916  27.5916  30.5719
    30.5719  30.5719  33.2889  35.6734  35.6734  35.6734  36.3136  36.3136
    36.3136  36.4148  36.4148  36.4148  37.3487  37.3487  37.3487  37.9947
    38.4497  39.1810  39.1810  39.1810  39.5341  39.5341  39.5341  40.0086
    40.0086  40.9901  45.2132  45.2132  48.5596  48.5596  48.5596  52.7662
    55.4238  55.4238  55.4238  56.5264  56.5264  57.8129  57.8129  57.8129
    58.5925  58.5925  58.5925  59.9147  59.9147  59.9147  61.0345  62.0078
    62.0078  62.0078  62.4282  62.4282  62.4282  62.6245  62.6245  62.6245
    62.7821  62.7821  62.7821  62.7910  62.7910  63.4014  64.5514  64.5514
    64.5514  64.6552  64.6552  64.6552  65.3468  65.3468  65.5794  65.5794
    65.5794  65.9937  65.9937  66.9694  66.9694  66.9694  68.0118  70.5744
    73.9243  74.5065  74.5065  74.5065  76.9051  76.9051  77.0094  77.0094
    77.0094  78.6150  78.6150  79.1863  79.1863  79.1863  79.3420  79.3420
    79.3420  80.0223  80.0223  80.0223  80.2419  80.2419  80.2419  80.5839
    80.5839  80.9475  80.9475  80.9475  83.8270  85.2361  86.5715  86.5715
    86.5715  86.9913  86.9913  86.9913  87.2513  87.3136  87.3136  87.3136
    88.2206  88.2206  88.2206  88.3261  88.3261  88.3261  89.0049  89.0049
    89.0049  93.1120  93.1120  93.2370  93.2370  93.2370  93.4667  94.7399
   100.2305 100.2305 102.0356 102.0356 102.0356 102.3000 102.3000 102.3000
   104.3283 104.3283 104.3283 105.9879 107.5760 107.5760 107.9891 107.9891
   107.9891 108.1774 108.1774 108.1774 110.0190 110.0190 110.0190 110.5483
   110.5483 110.5483 112.0074 112.0074 112.3618 112.9226 112.9226 113.0567
   113.0567 113.0567 113.2229 113.2229 113.2229 113.2719 113.4546 113.4546
   113.4546 114.0843 114.9758 114.9758 115.3710 115.3710 115.3710 115.5107
   115.5107 115.5107 116.4378 116.4378 116.4378 116.4402 116.7224 116.7224
   116.7224 118.7038 118.7038 118.7038 118.7434 118.7434 118.7434 118.9564
   118.9564 119.3720 119.3720 119.3720 119.8388 119.8388 119.8388 120.1966
   120.1966 120.1966 120.3002 120.3002 120.3002 120.3207 120.3207 120.3270
   120.3270 120.5191 120.5572 120.5572 120.5572 120.6121 120.6121 120.6121
   121.4176 123.3312 126.6191 126.6191 126.6191 127.8803 127.8803 127.8803
   128.5575 128.5575 128.5575 128.7919 128.7919 128.7919 129.6326 129.6326
   130.4223 131.8221 131.8221 131.8221 133.7788 133.7788 133.8418 133.8883
   133.8883 133.8883 136.4969 137.5064 137.5064 137.5064 137.8936 139.7783
   139.7783 139.7783 141.7817 141.7817 141.9925 141.9925 141.9925 142.3062
   142.3062 142.3062 143.2088 143.2088 143.2586 143.2586 143.2586 143.3801
   143.3801 143.3801 144.2820 144.5701 144.5701 144.5701 144.8803 144.8803
   145.5757 145.6264 145.6264 145.6264 145.7114 145.7114 145.7114 145.7537
   145.7537 145.7537 145.9206 145.9206 145.9206 146.5656 146.5656 147.6549
   147.6549 147.6549 148.2531 153.3016 153.3016 155.4071 155.4071 155.4071
   155.6040 156.7614 156.7614 156.7614 158.3758 159.1605 159.1605 159.1605
   159.8616 160.1212 160.1212 161.4895 161.4895 161.4895 161.8330 161.8330
   161.8330 162.1982 162.1982 162.1982 163.9796 164.9188 164.9188 164.9188
   165.0432 165.0432 165.7326 165.7326 165.7326 166.5724 166.5724 166.5724
   167.2709 167.2709 167.2709 168.3214 168.3214 168.3214 168.3751 168.3751
   168.3751 170.7649 170.7649 170.7649 171.0530 171.0530 171.0530 171.0766
   171.0766 171.0766 171.1544 171.1544 171.2012 171.2012 171.2012 171.2858
   171.2858 171.2858 171.4794 171.5033 171.5033 172.2812 172.7980 172.7980
   172.7980 173.3504 173.3504 173.3504 174.2191 174.2191 174.2526 174.2526
   174.2526 174.3319 180.0038 180.0038 180.0038 181.4248 181.8319 181.8451
   181.8451 181.8472 181.8472 181.8472 182.1879 182.1879 182.1879 183.5981
   183.5981 183.5981 183.6626 183.6626 183.6626 183.9016 184.4347 184.4347
   184.8876 184.8876 184.8876 186.7280 186.7280 186.7280 186.9341 186.9341
   187.0163 187.0163 187.0621 187.0621 187.0621 187.2002 187.2002 187.2002
   187.3427 187.3427 187.3427 187.5214 187.5214 187.5214 187.7767 187.7767
   187.7767 187.8458 187.8458 188.2576 188.2576 188.2576 188.8510 189.0035
   189.0035 189.0035 189.0128 189.2266 189.2266 189.2266 190.0508 190.0508
   190.0508 190.1209 190.1209 190.1209 190.9800 191.4734 191.4734 191.4734
   191.5789 191.5789 191.5789 191.7024 191.7024 192.2863 194.9526 194.9526
   194.9526 195.1891 195.1891 195.9431 195.9431 195.9431 196.1839 196.6241
   196.6241 196.6241 196.7240 196.7240 196.7240 197.3203 197.3203 197.6242
   197.7586 197.7586 197.7586 197.8746 197.9034 197.9034 197.9034 197.9470
   197.9470 199.5020 199.5020 199.5020 199.5556 199.5556 199.6151 199.6151
   199.6151 199.7865 199.7865 199.7865 199.9058 199.9058 199.9058 200.9661
   201.0347 201.0347 201.0347 201.0595 201.0595 205.7818 205.7818 205.7818
   217.0318 217.4291 217.4291 217.4291 218.3330 218.3330 218.3330 219.9611
   220.2049 220.2049 220.2049 220.5732 220.5732 220.5732 220.6212 220.6212
   220.6212 220.6442 220.6442 220.6442 220.7034 221.1310 221.1310 221.1310
   221.2213 221.2213 221.2213 221.2734 221.2734 221.3568 221.3568 221.3568
   221.3629 221.3629 221.4057 221.4057 221.4057 221.7286 221.7286 221.8835
   221.8835 221.8835 222.3784 223.7987 223.7987 223.7987 226.8302 226.8302
   226.9870 226.9870 226.9870 227.1044 227.1044 227.1660 227.1660 227.1660
   227.3045 227.3045 227.3045 227.3633 227.3633 227.3633 228.0694 228.0694
   228.0694 228.1069 228.1069 228.3115 228.3976 228.3976 228.3976 229.7369
   232.5968 232.5968 232.6857 232.6857 232.6857 232.9899 233.6508 233.6508
   233.6508 236.1196 236.1196 236.1196 237.0719 237.0719 237.0719 237.1220
   237.1220 237.1220 237.1270 237.3130 237.3130 238.5121 238.5121 238.5121
   238.5938 238.6014 238.6014 239.4869 239.4869 239.4869 239.8525 239.8525
   239.8525 240.3617 240.3617 240.3617 240.4895 240.4895 240.4895 240.5872
   240.5872 240.9975 240.9975 240.9975 241.1526 245.7549 245.7549 245.7549
   245.9827 245.9827 246.0530 246.0530 246.0530 246.2155 246.2155 246.2155
   246.4140 246.5731 246.5731 246.5731 247.4855 248.5204 248.8245 248.8245
   248.8245 249.1865 249.1865 249.1865 249.2639 249.2639 249.2663 249.2663
   249.2663 249.9446 249.9446 249.9446 250.4183 250.4183 250.4183 252.5839
   252.6307 252.6957 252.6957 252.6957 252.8367 252.8367 253.1881 253.1881
   253.1881 253.1922 253.1922 253.1922 253.3348 253.3348 253.3419 253.3419
   253.3419 253.3570 253.3570 253.3570 254.0221 254.0221 254.0221 254.0695
   254.0695 254.0726 254.0726 254.0726 254.1785 254.1785 254.1785 254.2075
   255.0271 255.0271 255.7089 257.3482 257.3482 257.3482 258.3520 258.4772
   258.4772 258.4772 262.2125 262.2125 262.2754 262.2754 262.2754 262.9045
   262.9045 262.9045 262.9246 263.0541 263.0541 263.0541 263.0562 263.0562
   263.0562 263.1177 263.3525 263.3525 266.4009 266.4009 266.4009 267.4443
   267.4443 267.4443 270.0437 270.0437 270.0437 270.7012 272.1911 272.1911
   272.1911 272.5458 272.5458 272.5458 272.6740 272.6740 272.6740 272.7667
   272.8840 272.8840 273.0384 273.0384 274.8984 274.8984 274.8984 275.0605
   275.0605 275.0605 275.1431 275.1431 275.1431 275.1496 275.1496 275.1496
   275.2234 275.2234 275.2234 275.6990 275.6990 275.6990 276.1521 276.1521
   276.5009 276.5009 276.5009 276.5880 276.5880 276.5880 277.1652 277.1652
   277.1652 277.6575 277.6575 277.6575 277.7437 277.7437 277.9009 278.0768
   278.0768 278.0768 278.3426 278.3426 278.4438 278.4438 278.4438 278.6793
   278.6793 278.6793 278.7457 278.7457 278.7457 278.9851 278.9851 279.5404
   279.7358 279.7358 279.7358 279.8061 279.8061 279.8061 279.9338 281.9004
   281.9004 281.9004 282.0450 282.0450 282.1586 282.1586 282.1586 282.2121
   282.2121 282.2121 282.3741 282.3741 282.3741 282.4030 282.4725 282.4725
   282.4725 282.4784 282.4955 282.4955 282.6756 282.6756 282.7156 282.7156
   282.7156 282.8539 282.8857 282.8857 282.8857 283.0060 283.9672 283.9672
   283.9672 286.4410 286.4410 286.4410 286.5086 287.5816 287.5816 287.5816
   290.1627 290.1627 290.1627 293.9136 293.9136 294.5966 294.5966 294.5966
   294.6243 294.6243 294.6243 294.6558 294.6882 294.6882 294.6882 294.8573
   294.8573 294.8573 294.9042 294.9042 295.0374 295.0374 295.7023 295.7023
   295.7023 296.3930 296.3930 296.3930 296.3931 296.3931 296.3931 299.3370
   299.3370 299.3370 299.7429 299.7429 299.7868 299.9051 303.0683 303.0683
   303.0683 303.3032 303.3032 303.3032 304.4625 304.4625 304.4625 304.4635
   304.4635 306.9669 307.6041 307.6041 307.6041 307.6220 307.6220 307.6220
   307.6324 307.6324 307.6324 307.7245 307.7245 307.7245 309.1620 309.1620
   309.1635 309.1635 309.1635 309.1823 317.0774 317.1173 317.1173 317.6541
   317.6541 317.6541 318.1370 318.1370 318.1370 318.9178 318.9178 318.9178
   318.9959 318.9959 318.9959 319.0475 319.0475 319.0475 319.0868 319.0868
   319.2495 319.4219 319.4474 319.4474 319.4474 319.5825 319.5825 319.5825
   319.6192 319.6192 320.0298 320.3340 320.3340 321.0162 321.0162 321.0162
   321.6678 321.6678 321.6678 321.9327 321.9327 321.9327 322.3488 323.8268
   323.8268 323.8268 324.2936 324.2936 324.8096 324.8096 324.8096 325.1402
   325.1402 325.1402 327.1310 328.1561 328.1561 328.1561 328.4034 328.4034
   328.4034 328.5033 328.5033 328.5033 328.7440 328.7440 329.2440 329.2440
   329.2440 329.3012 329.3012 330.1039 330.3503 330.3503 330.3503 330.5786
   330.5786 330.5786 330.6090 332.0708 332.0708 332.0708 332.3675 332.3675
   332.3675 332.3735 332.3735 332.6256 332.6256 332.6256 332.6769 332.6769
   332.6769 332.7199 332.7199 332.7230 332.7230 332.7230 332.8376 332.8376
   332.8376 332.8668 333.0425 333.0588 333.0588 333.0588 333.2515 333.2515
   333.6275 333.6275 333.6275 333.6307 333.6307 333.6431 333.6431 333.6431
   333.6577 333.6577 333.6577 338.1574 339.5913 339.5913 339.5913 339.6308
   339.6308 339.6308 342.0907 342.0907 342.0907 342.2102 342.2102 342.2102
   343.0149 343.0149 343.0149 343.7151 343.7151 343.7151 343.7257 343.7257
   343.7931 343.9113 343.9113 343.9327 343.9327 343.9327 343.9617 343.9617
   343.9617 344.4880 344.4880 344.4880 346.1124 346.1124 346.1124 346.4332
   346.5832 346.5832 346.5835 346.5835 346.5835 347.9250 347.9250 347.9250
   348.0002 348.0002 348.0002 348.9639 348.9639 348.9639 348.9743 348.9743
   348.9743 348.9858 348.9858 349.0316 349.0316 349.0316 349.0931 349.1238
   349.2826 349.2826 349.2826 349.3981 349.3981 349.4675 349.4675 349.4675
   350.1795 350.1795 350.2769 350.2769 350.2769 350.3436 350.3436 350.3436
   350.3481 350.4164 350.4164 350.5177 350.5177 350.5177 350.6401 350.9857
   350.9857 350.9857 351.1683 351.1683 351.1683 351.1968 351.1968 351.2634
   351.2634 351.2634 351.3787 352.0079 355.5186 355.5186 355.5186 355.6426
   355.6426 355.6426 356.1688 356.1688 356.2061 356.2061 356.2061 356.2713
   357.2369 357.2369 357.2369 357.4247 357.4974 357.4974 357.4974 357.5532
   357.5532 357.5532 357.6219 357.6219 357.6593 357.6593 357.6593 358.4513
   358.5214 358.5214 358.5214 360.0687 360.1923 360.1923 360.1965 360.1965

          k =-0.1667 0.1667-0.1667 (  3278 PWs)   bands (ev):

   -21.0964  -6.5486  -6.2199  -6.2199  -5.0786   4.6317   5.0034   5.0034
     8.8560   9.2743   9.2743   9.4035  10.4278  10.4278  12.9904  14.5278
    14.5278  14.6670  14.7000  14.8435  14.8435  16.8181  17.6672  18.2353
    18.2353  20.4629  20.4629  21.7964  23.3734  23.3734  23.4520  24.4929
    24.4929  27.0711  27.3599  27.3599  27.7891  29.2986  29.2986  30.1630
    31.0727  31.0727  32.6581  32.9693  32.9693  33.5916  34.5483  35.6881
    35.6881  36.4452  36.9598  36.9598  37.1415  37.6633  38.2058  38.2058
    39.3868  39.3868  39.7267  40.8990  40.8990  41.2387  42.3653  42.6382
    42.6382  44.0009  44.0009  45.1260  47.0455  50.7410  51.1505  51.1505
    51.6680  51.6680  54.6520  55.2839  55.2839  56.0462  56.0668  56.0668
    57.0916  57.3119  57.3119  57.8065  58.0697  58.0697  58.9888  58.9888
    59.2972  59.9170  61.0281  61.0281  61.9585  61.9585  62.7552  62.9139
    62.9758  62.9758  63.8272  64.6269  64.6269  65.4417  65.4417  65.4771
    65.6606  65.7388  65.7388  66.3498  66.3498  66.5535  66.7607  67.3391
    69.2610  69.2610  69.8273  70.8038  70.8038  71.4327  71.4327  72.0050
    72.1326  72.1326  72.9293  72.9293  73.3365  73.3365  73.4157  74.9861
    75.2560  75.2560  75.5856  76.8245  78.2904  78.2904  78.5450  79.4629
    79.4629  79.8721  81.3739  81.4527  81.4527  81.6027  82.0042  82.1505
    82.1505  82.5496  83.1667  83.1667  84.1933  84.1933  84.5484  84.5484
    84.5660  85.1548  85.4732  85.4732  87.8611  88.2460  88.2460  88.5154
    88.8872  88.8872  89.0692  91.8098  91.8098  92.4498  92.4498  92.5260
    93.1665  93.1817  93.1817  94.3807  94.3807  94.7958  96.0544  98.9479
    99.3876  99.3876  99.5269  99.5269 100.0835 101.5378 101.5378 101.9479
   102.4920 102.4920 102.7961 104.3976 104.3976 104.4729 104.5997 104.9319
   106.2470 106.2470 106.7191 107.0543 107.0731 107.0731 108.1137 108.1137
   108.4980 109.1460 109.1460 110.1395 110.1395 110.2955 110.2955 110.8840
   111.4724 111.4724 111.5273 111.5273 111.6101 113.1433 113.1433 113.3982
   113.5290 113.6687 113.6687 114.5389 114.5389 114.6950 115.0626 115.1728
   115.4053 115.4053 116.0696 116.2631 116.7049 116.7049 117.4870 117.4870
   118.0190 118.0190 118.1711 118.3262 118.6325 118.6325 119.6609 119.6609
   119.8936 119.8936 120.1093 120.4828 120.5729 120.5729 120.8360 121.6693
   121.6693 121.9456 122.1144 122.1144 122.2222 122.4598 122.4598 122.7195
   122.8113 122.8113 123.1134 123.5921 124.7367 124.7367 124.7889 125.7256
   125.7256 126.0331 126.3527 127.2407 127.2407 127.7757 127.9826 127.9826
   128.1383 128.6305 128.6583 128.6583 129.6857 130.6499 130.6499 131.4155
   131.4155 132.7315 133.6528 133.6528 133.6735 134.2746 134.2746 134.3889
   134.3889 134.3909 134.7533 134.7533 135.3489 137.2843 137.2843 137.7427
   137.7440 138.1965 138.1965 139.2528 139.2528 139.3782 139.5788 139.5788
   139.6462 140.4949 141.0403 141.0403 141.3139 141.6420 141.6734 141.6734
   142.1351 142.1351 142.8918 143.8606 143.8606 144.3147 145.3326 147.0407
   147.0407 147.0763 147.3070 147.3070 148.0850 148.2504 148.2504 148.7447
   148.9472 148.9472 149.6388 150.9965 151.3894 151.3894 151.5221 152.5236
   152.7879 152.7879 152.8251 152.8251 153.4984 153.4984 153.7544 154.4859
   154.4859 155.4643 155.4643 155.7021 156.9741 156.9741 157.1222 158.9389
   159.1218 159.5805 159.5805 159.8847 159.8847 160.1602 160.1602 160.2629
   160.3584 160.5418 160.5418 160.6611 161.1240 161.1240 161.6043 161.6043
   161.9307 162.1648 162.8827 162.8827 162.8871 164.2286 164.2286 164.8380
   164.9744 164.9744 166.3767 166.3767 166.9766 166.9766 167.0852 168.4103
   168.8434 170.1443 170.1443 170.2634 171.3011 171.4776 171.4776 171.6042
   171.7281 171.7281 172.0818 172.0818 172.3984 172.4568 172.4568 172.4994
   173.0838 173.7995 173.7995 174.1595 174.1595 174.4046 174.6006 174.6006
   174.6377 175.2804 175.2804 175.4216 175.4216 175.6229 175.8031 176.0215
   177.0173 177.0173 177.5263 177.7307 177.7307 177.8791 178.1854 178.1854
   178.6809 179.9038 180.5241 180.5241 180.5528 180.6956 180.6956 181.6286
   181.6286 181.9759 182.2355 182.3706 182.3706 182.4431 182.4431 182.9362
   182.9543 182.9543 183.0128 183.0601 183.2661 183.2661 183.7303 183.7303
   183.7785 184.4051 184.4051 184.6078 184.6078 184.6485 185.3154 185.3154
   185.9074 186.2198 186.2198 186.7885 186.7885 187.3975 187.4999 187.7500
   187.7873 187.7873 188.1382 188.1382 188.6862 189.3710 189.3710 189.4470
   189.4971 189.4971 189.6175 190.1463 190.5635 190.5635 191.1227 191.1227
   191.2581 191.6532 191.6532 191.8980 192.8630 193.1164 193.1164 193.3199
   193.3199 193.7665 193.7665 194.1457 194.1679 194.5165 194.5880 194.5880
   195.7566 195.8442 195.8442 196.3673 196.3673 196.4316 196.4316 196.4634
   196.8756 197.1449 197.1449 197.5462 197.5592 197.7452 197.7452 199.2603
   199.6192 199.6192 200.6614 200.9630 200.9630 201.2828 201.2828 201.4421
   201.8837 201.8837 202.3191 202.9281 203.5220 203.5220 203.8518 204.5144
   204.5144 204.5763 205.3452 205.3452 205.3546 205.3747 207.0870 207.4585
   207.4585 209.0838 209.0838 209.4222 209.4222 210.1835 210.5625 210.7634
   210.7634 211.1173 211.5347 211.5347 211.9829 212.1199 212.1199 212.1775
   212.4557 212.4557 212.8689 212.8689 212.9604 213.5922 213.5922 213.9329
   213.9329 214.4461 214.4461 214.8734 216.0222 216.6175 217.2144 217.2144
   219.7301 219.7301 219.8518 220.1672 220.3498 220.3498 220.7340 220.7340
   220.9451 220.9711 221.8440 221.8440 222.9627 222.9627 223.1125 223.8704
   223.8704 223.8718 223.8968 223.8968 224.2985 225.7048 225.7048 226.8537
   227.1332 227.1332 227.1779 228.8199 228.8199 228.8528 228.9773 228.9773
   229.2437 229.2437 229.6665 230.0565 230.4247 230.4247 230.5402 230.6047
   230.8939 230.8939 230.9946 231.3406 231.5863 231.5863 231.6199 231.7277
   231.7277 232.4276 232.4276 232.6914 232.6914 232.7778 232.9648 233.1515
   234.1056 234.3635 234.3635 234.5561 234.5561 234.9028 235.0218 235.0218
   235.3815 235.3815 235.5098 235.8348 235.8858 235.8858 236.4435 236.9618
   236.9618 237.2375 237.4808 237.4808 238.1571 238.2140 238.2140 238.6270
   238.9001 238.9001 239.9294 240.1563 240.1563 241.0515 241.0515 241.0764
   241.2769 241.5017 241.5017 242.5655 242.5655 243.1243 243.1243 243.6432
   244.7920 244.7920 245.2232 245.8854 245.9897 245.9897 246.2704 246.9503
   247.0520 247.0520 247.1243 247.1243 247.4489 247.9604 248.1806 248.1806
   248.6450 248.6450 248.7288 248.8971 248.8971 248.9997 248.9997 249.3943
   249.4551 249.4551 249.6663 250.2939 250.3965 250.3965 250.5495 250.6119
   250.8477 250.8477 251.1405 251.4364 251.4364 252.4012 252.6772 252.6772
   252.7980 253.0874 253.0874 253.3659 254.0276 254.0533 254.0533 254.5635
   254.5635 254.9243 254.9243 255.3706 255.3706 255.5352 256.0542 256.0743
   256.0753 256.0753 256.2257 256.2257 257.1682 257.2274 258.4669 258.4669
   258.8301 258.8301 259.6767 259.9368 260.1417 260.1417 260.9428 261.0028
   261.0028 261.2674 261.8644 261.8644 262.4393 262.4895 262.4895 262.8915
   262.8915 263.2631 263.6267 263.6267 263.8922 264.8810 264.9143 264.9143
   265.2646 265.2646 265.2946 265.6552 265.6552 265.7647 266.0571 266.2642
   266.2642 266.3969 266.5360 266.6944 266.6944 266.9891 266.9891 267.2266
   267.6291 267.6291 267.7831 267.8751 267.8751 268.0246 268.0246 268.1226
   268.4018 268.4018 268.5706 268.5799 268.9323 268.9323 268.9899 270.1946
   271.0634 271.1192 271.1192 271.1935 271.1935 272.8549 272.8549 272.8596
   273.1118 273.1118 273.2565 273.6210 273.7990 273.7990 274.1446 274.1446
   274.3822 274.3925 274.3925 274.7478 275.0623 275.0683 275.0683 275.9728
   275.9728 276.0406 276.2055 276.8971 277.0969 277.0969 277.3007 277.3007
   277.8848 277.8848 277.9083 278.0159 278.0159 278.4775 278.4881 278.4881
   279.8054 279.8054 280.0481 280.1207 280.1207 280.7533 280.8505 281.0883
   281.0883 281.7469 281.8638 281.8638 282.3594 282.8786 282.8786 283.4090
   283.8848 283.8848 284.4815 284.4895 284.4895 284.6904 285.1213 285.1213
   285.2268 285.4030 285.5131 285.5211 285.5211 285.5403 285.5403 285.9758
   285.9758 286.1262 287.0850 287.0850 287.3873 288.2559 288.2559 288.3125
   288.8753 288.8753 288.9669 288.9726 288.9726 289.1499 289.5477 290.3000
   290.3000 290.4477 290.6428 290.6428 291.3268 291.3679 291.3679 292.1502
   292.1502 292.4302 292.4302 292.8254 292.8747 293.0665 293.0665 293.1773
   293.2385 293.2385 293.2751 293.4473 293.4473 294.0871 294.0871 295.1348
   295.1617 295.3722 295.3722 295.8455 295.8455 295.9696 296.7345 296.7345
   296.7440 298.4490 298.4585 298.4585 298.9363 299.6057 299.6057 299.6939
   299.6939 299.9687 300.2456 300.7482 302.2364 302.2364 302.2909 302.2909
   302.3030 302.4668 302.4668 303.0747 303.1096 303.1096 303.3120 303.9368
   305.2355 305.2355 305.8861 306.5195 306.9283 306.9283 307.3927 307.8758
   307.8758 309.0121 309.1855 310.4122 310.4122 310.7018 310.7018 310.7580
   310.7580 310.8848 310.8848 311.1814 311.5817 311.7767 312.8652 312.8652
   313.3808 313.3808 313.6205 313.9332 313.9332 314.0954 314.3662 314.3662
   315.2844 315.2844 315.3527 315.6785 315.7360 315.7360 317.4237 317.4237
   317.5614 318.0740 318.1251 318.1251 318.1493 318.1493 318.7910 319.0476
   319.0476 319.1737 319.3349 319.4856 319.4856 319.9101 319.9101 320.2134
   320.2134 320.2529 320.3898 320.5757 320.5757 321.8372 322.0146 322.0146
   322.5850 322.6199 322.6199 322.6302 323.2018 323.3535 323.3535 324.0250
   324.0250 324.7891 324.8092 324.8092 324.9717 325.8499 325.8499 326.8679
   326.8679 327.4093 327.5718 327.5718 327.7331 327.7661 327.9296 327.9296
   328.1061 328.6602 328.6602 328.9484 329.2061 329.2061 329.7275 329.7275
   330.1423 330.3024 330.3024 330.3147 331.1949 331.1949 331.7766 331.8452
   331.8452 331.9570 332.4131 332.4131 332.4456 333.0297 333.0297 333.3881
   333.4398 333.4398 333.5067 333.6774 333.8260 333.8260 333.8372 333.9460
   333.9460 334.1758 334.1758 334.5065 334.5065 334.5871 334.6229 334.6334
   334.6334 334.8863 335.0006 335.0006 335.1159 336.1285 336.4171 336.4171
   336.5074 336.5423 336.5423 336.9859 337.4060 337.4060 337.4659 337.6947
   338.1870 338.2339 338.2339 338.6609 338.6609 339.1223 339.4396 339.5465
   339.5465 340.1756 340.1756 340.1916 340.7651 340.9956 340.9956 341.3590
   341.3590 341.4179 341.7905 341.9197 341.9197 342.1411 342.1411 343.0041
   343.5329 343.5544 343.7010 343.7010 344.6840 344.6840 344.7981 345.5972
   345.5972 345.8973 346.0098 346.0098 346.0946 346.2269 346.2269 346.3360
   346.3360 346.4206 346.6804 346.6804 346.8648 346.8878 346.8878 346.8888
   346.9233 346.9233 347.6269 347.9392 347.9392 348.1899 348.3378 348.5069
   348.5069 348.6408 348.6408 348.8609 349.3367 349.3987 349.3987 349.9315
   349.9315 350.0889 350.2659 350.3930 350.3930 350.9017 351.1302 351.3210
   351.3210 351.4878 351.8783 351.8783 351.9365 351.9768 351.9768 352.3293
   352.3293 352.5808 352.5808 352.8771 352.9772 352.9772 353.0278 353.3968
   353.3968 353.7838 353.7838 353.8088 354.3975 354.5869 354.5869 354.9921
   355.0104 355.0104 355.2218 355.2468 355.2468 356.1269 356.1269 356.5058
   356.8137 357.0687 357.0687 357.1397 357.2659 357.2659 357.2671 358.3889
   358.3889 359.9230 359.9455 359.9455 360.4235 360.6643 360.7902 360.7902
   360.8265 360.8265 361.7391 361.7391 361.9245 361.9740 362.6911 362.6911

          k =-0.3333 0.3333-0.3333 (  3257 PWs)   bands (ev):

   -21.0836  -6.9395  -6.2317  -6.2317  -4.6264   3.7326   4.5204   4.5204
     9.3389  10.2089  10.2089  10.9015  12.0056  12.0056  13.6915  13.7810
    13.7810  14.3077  14.7091  14.7091  14.7182  15.9788  16.6072  16.6072
    18.2726  19.3110  19.3110  20.2987  22.5072  23.1880  23.1880  24.8704
    24.8704  27.6709  27.7100  27.7100  28.3719  28.8554  28.9084  28.9084
    31.4417  31.4461  31.7825  31.7825  34.2471  34.2471  35.1503  35.1503
    35.3014  35.9014  35.9014  36.6029  36.7715  38.9487  38.9487  40.6323
    40.9267  40.9267  42.5278  43.1875  43.1875  43.6388  44.1206  44.1206
    44.6644  45.0684  45.6597  45.6597  47.1289  49.3604  49.3604  50.3688
    50.3688  50.5087  52.2863  52.2863  52.5269  52.5269  52.5840  53.0929
    53.1554  56.0883  56.0883  56.6420  56.6420  57.5464  58.6082  58.6082
    59.2372  59.6242  59.9453  59.9453  60.5529  60.9012  60.9012  61.0252
    63.1741  63.1741  64.2482  64.2603  64.2603  64.9193  66.7291  66.7291
    66.9393  67.3485  67.3485  68.2444  68.5539  68.5539  69.0786  69.3903
    69.3903  69.7000  69.9130  69.9130  70.4938  70.9167  70.9167  71.9792
    71.9792  72.0994  72.1990  75.0187  75.4306  75.4306  76.9121  77.2308
    77.3719  77.3719  77.5605  77.5605  77.7245  78.7244  78.7860  78.7860
    79.1297  79.1297  79.6824  80.0741  80.0741  80.4828  80.7906  80.7906
    82.6090  82.6090  82.7542  83.2824  84.5970  84.5970  84.8739  85.7388
    85.7388  87.6703  88.0190  88.0190  88.5693  89.1981  89.1981  89.7858
    90.1083  90.1083  91.8363  91.8363  91.8484  94.4797  94.5204  94.5204
    95.3008  95.8293  95.8293  95.9467  96.2924  97.6581  97.6581  98.3883
    98.3883  98.4332  98.4857  98.7549  98.7549  99.9730  99.9730 100.4826
   100.5283 100.5832 100.5832 101.2114 101.2114 102.0986 102.1441 102.3964
   102.3964 102.6038 102.6038 104.0433 104.9517 104.9517 105.4793 105.9671
   106.3444 106.3444 106.7371 106.7371 106.9650 106.9650 107.0389 108.3638
   108.3638 109.3000 110.3686 111.6945 111.9787 111.9787 112.3396 112.5984
   112.5984 113.5425 113.7357 113.8388 113.8388 114.6009 114.6009 115.3285
   115.6034 115.6034 115.8095 116.0830 116.0830 116.2981 116.5392 116.5392
   116.8134 117.2611 117.2611 117.5673 117.9888 119.3802 119.3802 120.8171
   120.8171 121.0026 121.0026 121.3824 122.0643 122.0643 122.2755 122.6330
   123.0710 123.0710 123.5413 123.5413 123.6886 124.0024 124.2310 124.5706
   124.5706 125.0606 125.0606 125.5486 125.5486 125.5904 125.9274 126.7042
   126.7042 127.6290 127.6290 128.4716 129.1579 129.8946 129.9489 129.9489
   130.9782 131.1163 131.1163 132.0102 132.3450 132.3450 132.6423 132.8930
   133.0146 133.0146 133.8288 133.8288 133.8622 133.9194 134.0406 134.0406
   135.4180 136.1934 136.1934 137.4194 138.6331 138.6331 138.9119 138.9929
   138.9929 139.1624 139.1624 139.7782 139.8285 140.2322 140.6033 140.6033
   140.9056 141.1793 141.3456 141.3456 141.9108 141.9108 142.7678 142.7678
   142.8330 143.2626 143.2626 143.9086 144.2203 144.2203 145.0779 145.3528
   145.3528 146.9610 146.9610 148.5356 148.8818 149.4150 149.4150 149.9653
   150.1280 150.3585 150.3585 150.5562 150.5562 150.7363 150.7387 150.7387
   151.9924 152.1070 152.1070 152.4268 152.5131 152.5131 152.5984 152.7964
   153.1229 153.1229 153.5784 153.5784 155.0621 155.3063 155.3063 157.0790
   158.0592 158.0592 158.8517 159.3252 159.9194 159.9479 159.9479 160.2958
   160.2958 160.8273 160.8273 160.9592 160.9724 160.9724 161.7920 161.7920
   162.1608 162.6340 162.8285 162.8285 162.8523 163.3569 164.1090 164.1090
   164.1136 165.0865 165.0865 166.0935 166.0935 166.4716 166.8455 166.8455
   166.9350 166.9595 167.2800 167.2800 167.8588 167.9787 167.9787 168.1522
   169.0997 169.0997 169.3116 169.3116 169.3153 169.6706 169.6706 169.9856
   170.2458 170.6703 170.6703 171.3542 171.3542 172.6262 172.6262 172.9358
   173.0668 173.0668 173.7281 174.6964 174.6964 174.9493 175.1503 175.1581
   175.1581 176.0727 176.3923 176.3923 177.3477 177.3477 177.8447 177.8447
   178.1303 178.1532 178.3620 178.3620 179.0768 179.7011 179.7011 179.8143
   180.1496 181.3286 181.3286 181.8031 182.2130 182.2130 182.7602 182.8263
   182.8263 183.1395 183.1395 183.3761 183.7583 183.7583 183.8957 184.6495
   184.6747 184.6747 185.1257 185.1582 186.1148 186.1148 186.3857 186.8954
   186.8954 187.7721 187.7721 187.9537 187.9537 188.0370 188.1925 188.9958
   188.9958 189.1249 189.4223 189.4223 189.5658 189.8365 189.8365 190.0268
   191.3287 191.7469 191.8019 191.8019 192.3118 192.3118 192.6288 193.2222
   193.2222 193.2593 193.7117 193.9315 193.9315 194.3235 194.3235 194.5702
   195.1916 195.4880 195.4880 195.7130 195.7130 195.9798 195.9798 196.1467
   196.1845 196.9152 196.9152 197.6318 197.6318 198.6065 198.9924 198.9924
   199.6075 200.7636 201.0128 201.0128 201.3118 201.9171 201.9171 202.5645
   202.5645 203.4743 203.5363 203.8271 203.8271 204.4701 204.4701 205.0146
   206.1783 206.5606 206.5877 206.5877 206.6190 206.6190 206.8508 206.8508
   206.8580 207.6012 207.6012 207.7230 208.0681 208.0681 208.2142 208.4097
   208.6116 208.6116 209.2218 209.2801 209.2801 209.6351 210.5573 210.5573
   210.9780 211.1576 211.1576 211.4869 211.7250 212.0536 212.0536 212.4193
   212.4193 212.9530 212.9530 213.5611 213.7580 213.9477 214.0742 214.0742
   214.6669 214.6669 214.8587 214.8587 214.9379 215.1196 215.4661 215.4661
   216.1035 216.5576 216.5576 217.1540 217.6854 218.9844 218.9844 219.9122
   220.0387 220.5619 220.5619 220.8611 221.1545 221.1545 221.3947 221.3947
   221.8375 221.8375 222.4731 222.7502 222.7953 222.7953 222.8682 223.4726
   223.5050 223.5050 223.8414 223.8414 224.2074 224.5812 224.5812 224.8379
   224.9864 224.9864 225.5860 226.4371 226.4371 226.5390 227.6602 227.6602
   227.8398 227.8398 228.9044 228.9745 228.9745 229.5667 231.0277 231.0277
   231.1184 231.7720 231.8180 231.8180 232.4121 232.4121 233.0692 234.2036
   234.2036 234.6656 234.8510 234.8510 235.0208 235.0208 235.1631 235.8577
   235.8577 235.9801 236.8209 237.1305 237.1305 237.1926 237.4881 237.5351
   237.5351 237.6088 237.6925 237.6925 238.0428 238.2728 238.2728 238.5654
   238.5654 238.7157 239.0854 239.0854 239.4608 240.0859 240.0859 241.2687
   241.6146 241.6146 242.1025 242.3476 242.5523 242.5523 243.1162 243.1162
   243.7256 245.4418 245.4418 246.1728 246.4545 246.4545 246.8602 247.3394
   247.6994 247.6994 247.9167 248.0497 248.0497 248.4666 248.4666 248.6638
   248.7917 248.7917 248.8317 249.1980 249.1980 249.5588 249.7047 250.1159
   250.1159 250.1839 250.1839 250.5013 250.5013 250.5665 250.7721 251.0928
   251.0928 251.4181 252.0266 252.0933 252.0933 252.3340 252.3997 253.2217
   253.2217 253.3251 253.9489 253.9489 254.2028 254.2028 254.4984 254.7057
   255.0044 255.0044 255.2823 255.8020 255.8020 256.0036 256.0036 256.9260
   257.0807 257.2299 257.2299 257.3368 257.5386 257.5386 257.7774 257.7774
   257.7956 258.0081 258.0081 258.8067 258.8067 258.9980 259.0643 259.1208
   259.1208 259.2489 259.2489 259.3456 259.4622 259.4622 259.5228 259.7546
   259.7546 259.8877 260.0326 260.0326 260.1177 260.1448 260.1448 261.6614
   261.6614 262.1952 263.4671 263.5711 264.1161 264.1161 264.5081 264.5081
   264.5776 264.9497 265.4767 265.4767 265.8338 265.8338 266.5657 267.3533
   267.3533 268.0606 268.1686 268.3087 268.3087 268.3826 268.3826 268.8141
   268.8141 268.9583 269.1573 269.3247 270.2304 270.2304 271.7070 272.0404
   272.0404 272.4828 272.4828 272.7685 272.8275 272.8275 273.0041 273.0041
   273.2058 273.3934 273.4260 273.4260 273.4339 274.9298 274.9298 275.0860
   275.0860 275.1011 275.6826 276.0828 276.1709 276.1709 277.4170 277.4170
   277.6382 277.6448 277.6448 277.9833 278.4219 278.4219 279.2057 279.3325
   279.5800 279.5800 280.3220 280.3220 280.6935 280.6975 280.6975 280.9205
   280.9205 281.3428 281.8645 282.1248 282.1248 282.4458 282.4499 282.4499
   282.9219 282.9219 282.9646 283.3960 283.4023 283.9239 284.4930 284.4930
   284.5296 284.6830 284.6830 285.2390 285.3194 285.3194 285.6184 285.6184
   285.8440 286.3408 286.3408 286.3812 286.6986 286.6986 286.9001 287.7597
   287.7597 288.2140 288.2140 288.5932 288.5932 288.6224 289.1061 289.3129
   289.9054 290.2698 290.2698 291.3780 291.5133 291.5133 291.9679 292.2117
   292.2117 292.3941 293.4019 293.4019 293.5735 293.6204 293.6204 294.0252
   294.0252 294.1288 294.2945 294.2945 294.5637 294.8690 295.0781 295.0781
   295.6757 295.8764 295.8764 296.3322 296.3322 296.4874 296.8942 296.8942
   296.9091 297.5844 297.5844 297.6879 297.9634 298.1634 298.1634 299.7042
   299.7042 299.7380 299.8148 301.2692 301.2692 302.0720 302.0720 302.2420
   302.2420 302.7130 302.7268 302.9075 302.9075 303.3785 303.6715 303.6715
   303.7422 304.3114 304.3114 304.3197 304.5098 304.5098 304.8682 305.1400
   305.1400 305.1898 305.4326 305.5108 305.7238 305.7238 306.8043 306.8043
   307.1247 308.4632 308.4632 309.0787 309.0787 309.3239 309.8663 309.8663
   309.8960 310.4024 310.4024 310.5449 311.2393 311.5159 311.5159 311.9816
   311.9816 312.4399 312.5530 312.5530 312.7636 312.7636 313.1177 313.1177
   313.7928 313.9370 314.4858 314.6919 314.6919 314.8621 315.0961 315.0961
   315.9897 316.3883 316.3883 316.7537 317.3337 317.3827 317.3827 317.6221
   317.6297 317.6297 318.2365 318.6441 318.6441 319.0676 319.3131 319.3285
   319.3285 319.5371 319.6945 319.6945 319.7709 319.7709 320.0449 320.2555
   320.2555 320.3046 320.3527 320.3527 320.5828 320.5828 320.6039 321.4210
   321.4290 321.4290 321.7602 321.8316 321.8316 322.1339 322.2537 322.2918
   322.2918 323.2579 323.2579 323.3532 323.4486 323.4486 323.5334 323.6991
   324.0959 324.1469 324.1469 324.4362 324.4362 325.0235 325.1228 325.1228
   325.7697 325.7697 326.2448 326.2448 326.2673 326.4259 328.1788 328.6490
   328.6490 330.1987 330.2748 330.2748 330.4324 330.8835 330.8835 331.1250
   331.1250 331.3010 331.5451 331.7529 331.7529 331.9531 332.1170 332.1170
   333.4677 333.4677 333.8673 334.0456 334.0456 334.1011 334.1932 334.1932
   334.2985 334.5214 334.5721 334.5721 335.2797 335.2797 335.6452 335.6452
   335.6482 336.2199 336.6104 336.6104 336.7442 336.7442 337.0354 337.3835
   337.4737 337.4737 337.9574 338.0052 338.0052 338.5778 338.8371 338.8926
   338.8926 339.1589 339.3066 339.3066 339.5531 339.5531 340.1365 340.2163
   340.2163 340.4909 340.4909 340.5397 340.9536 340.9536 341.3044 341.3567
   342.2486 342.4981 342.4981 343.1465 343.1465 343.2918 344.2338 344.2338
   344.4510 344.7805 345.0510 345.0510 345.4796 345.4796 346.1159 346.1159
   346.3875 346.8608 347.1980 347.1980 347.5049 347.6095 347.6095 348.1322
   348.1322 348.7201 348.8761 348.8925 348.8925 348.9291 348.9291 349.1338
   349.2084 349.3292 349.3292 349.7944 349.7944 350.3476 350.5895 350.5950
   350.5950 350.8297 350.9004 350.9004 351.2021 351.2021 351.4595 351.4595
   351.5267 351.5267 351.7613 352.1010 352.5224 352.7082 352.7082 353.2123
   353.5948 353.6271 353.6271 353.7065 353.7065 353.7354 353.9131 353.9131
   354.0278 354.0736 355.0446 355.0446 355.2513 355.9255 355.9255 356.2761
   357.5548 357.5548 357.7305 357.7981 357.7981 358.3209 358.3209 358.4649
   358.7628 358.7838 359.1752 359.1752 359.9367 360.3603 360.3603 360.4742
   360.4742 360.6356 361.3389 361.3605 361.3605 361.8079 362.5837 362.5837
   362.5895 363.0725 363.2006 363.2006 363.5960 363.5960 364.0241 364.3226

          k = 0.5000-0.5000 0.5000 (  3274 PWs)   bands (ev):

   -21.0772  -7.0874  -6.2376  -6.2376  -4.4458   3.3799   4.3221   4.3221
    10.2176  10.6108  11.0750  11.0750  12.7018  12.7018  13.5789  13.5789
    14.1808  14.1808  14.4513  14.5916  14.7270  15.1113  15.9279  15.9279
    18.5729  18.6142  18.6142  19.7606  22.9294  23.1416  23.1416  24.9620
    26.0338  26.0338  26.7259  26.7259  28.0026  28.0026  28.3712  28.9934
    30.2982  33.0758  33.0758  34.4816  34.4816  34.5787  34.6704  34.8208
    34.8208  37.1094  37.1230  37.1230  37.1865  39.0112  39.0112  40.1367
    40.8094  40.8094  42.6087  44.4760  44.4760  44.6431  45.4262  46.0713
    46.0713  46.7277  46.7277  47.3845  47.4260  47.7306  47.7306  48.2342
    48.2342  48.3945  48.3945  48.9820  49.8948  52.1681  53.7192  55.2932
    55.2932  56.2766  56.2766  56.6142  56.6142  58.3128  58.5873  58.5873
    59.2776  59.2776  59.6502  60.1010  60.1010  60.1180  60.1202  60.2035
    61.2032  61.2032  62.1550  63.1449  63.1449  65.0449  65.6727  65.6727
    66.4074  67.3205  67.3205  68.3353  68.7280  68.8463  68.8463  69.2276
    69.2276  70.0624  70.1744  71.4493  71.4493  71.4499  72.5519  73.1131
    73.1131  73.1163  73.1163  73.9061  73.9061  74.2027  74.3884  76.7530
    76.7530  79.2441  79.2441  79.4550  79.8714  79.8714  80.5010  80.8700
    80.9566  80.9566  81.2800  81.4311  81.4311  81.9458  81.9458  82.0008
    82.6596  83.8207  83.8207  84.4359  84.7849  84.7849  86.0902  86.0902
    86.5143  87.0612  87.0612  87.8953  88.1774  88.6733  88.7620  88.7620
    89.1160  89.1160  89.4839  91.8508  93.1054  93.1054  94.1426  94.1426
    94.5588  94.6445  94.6445  95.3982  95.4803  95.4803  95.6640  95.7525
    95.7525  96.2991  96.5549  96.5549  99.1646 100.6015 100.6015 100.8134
   100.8134 100.9235 102.3804 102.5156 102.5156 103.0331 104.1937 104.1937
   104.5886 105.0058 105.4276 105.5076 105.5076 105.6921 105.6921 105.9092
   106.0911 106.0911 106.2028 106.3495 106.3495 107.0741 107.2795 107.2795
   107.3398 107.7438 107.7438 108.9163 108.9163 108.9801 108.9801 111.4660
   111.7347 112.5541 112.5541 113.5692 113.7037 113.7037 114.4094 114.7340
   114.7340 114.8603 115.1273 115.4268 115.4268 115.8041 115.9042 115.9042
   116.3230 116.3230 117.0421 118.3591 118.5410 118.5410 118.5746 118.5746
   119.1643 119.9434 119.9434 120.2641 120.2641 120.6722 120.7384 121.5683
   121.5731 123.9551 124.9048 124.9048 125.7831 125.7831 127.0987 127.1239
   127.3761 127.3761 127.8021 127.8021 127.9031 127.9031 128.1175 128.5947
   128.5947 128.8124 129.1269 129.4210 129.4210 129.4223 129.5276 129.6672
   129.6672 129.8917 129.8917 130.4441 132.0824 132.1773 132.1773 133.0032
   133.2209 134.0425 134.0425 134.1891 134.1891 134.6105 134.6105 136.9969
   136.9969 137.2111 138.8451 139.6011 139.6011 140.1828 140.3788 140.3908
   140.7655 140.7655 141.0321 141.0321 141.2968 141.3307 141.3307 141.4673
   141.8578 141.8578 141.9384 141.9384 142.0405 144.3325 144.6666 145.0298
   145.2921 145.2921 145.3948 145.3948 145.9208 145.9278 145.9278 146.0290
   146.0290 146.1486 146.2893 146.6273 146.6273 146.8702 147.2276 147.2276
   147.5596 147.5596 147.6505 147.8257 147.8257 150.0373 150.0373 150.0761
   150.1037 150.1037 151.1874 151.4472 151.4494 154.2771 154.2771 155.4258
   155.4814 155.6546 155.6546 155.7225 155.7225 155.8220 155.8220 156.5880
   157.4561 157.4561 157.5507 157.9666 157.9666 159.0440 159.1292 159.1292
   159.1698 159.1698 159.2583 159.3030 159.4247 159.8260 159.8260 160.3295
   160.6696 160.6696 160.9494 160.9494 160.9689 162.2782 162.2782 162.3960
   162.3960 162.4342 163.5451 163.7261 163.7261 163.7265 164.3298 164.3298
   165.4088 165.4088 166.9949 167.2145 167.7639 167.7639 168.2722 168.2722
   168.4181 168.5034 168.5034 168.8572 169.3214 169.3214 170.2874 172.0004
   172.5265 172.6846 172.6846 172.7173 172.7173 173.1388 173.4854 173.8172
   173.9151 173.9151 174.1565 174.1565 175.1407 175.6729 175.6989 175.6989
   175.7492 175.7492 175.7775 176.0840 176.0840 176.3753 176.3753 176.7818
   176.9743 176.9743 177.0500 177.4968 178.6977 178.6977 178.9504 179.5725
   179.5725 179.9124 179.9124 180.2588 180.2882 180.2882 180.8821 181.6487
   182.1043 182.1043 182.6461 182.6461 182.8916 182.8916 183.6102 184.8732
   184.8732 185.1175 186.4696 186.5210 186.5210 186.8504 186.8504 187.3978
   187.5289 187.5289 188.4199 188.8687 188.8687 189.0885 189.3752 189.3752
   189.9339 190.8475 190.9952 190.9952 191.3287 191.3287 191.3960 191.4940
   191.5613 191.5613 191.9020 192.1265 192.1265 192.5192 192.7933 192.7933
   193.8248 193.8248 194.5162 194.7515 195.0028 195.0028 195.4248 196.7787
   197.2915 197.2915 197.6623 198.2209 198.2209 199.5070 199.6510 199.9082
   199.9082 200.4656 200.4974 200.4974 200.9281 200.9281 201.1052 201.1052
   201.2408 201.7657 201.7657 201.8093 202.0897 202.0897 202.2023 202.4656
   203.0797 203.4017 203.4017 203.6243 203.6243 203.6265 203.9879 204.0126
   204.0126 204.2714 204.2714 204.7598 205.7880 206.1491 206.1491 206.6848
   206.6848 207.0285 207.1546 207.1546 207.3015 207.6984 207.6984 208.3342
   208.3912 208.3912 208.6239 208.6239 208.7260 208.9993 209.2721 209.2721
   209.3249 209.3249 209.6846 209.8830 209.8830 210.5041 210.7866 213.8204
   214.1471 214.1471 214.7341 214.7341 214.7575 215.0571 215.2270 215.2270
   215.6111 215.6111 215.9811 215.9811 216.0383 216.2437 216.5956 216.8433
   216.8433 217.4701 217.4701 217.5469 217.6407 217.7781 217.7781 220.2312
   220.2312 220.2688 220.4365 220.9537 220.9537 221.0265 221.0697 221.0697
   222.2639 222.2639 222.5046 222.6253 222.7304 223.1533 223.1533 223.4783
   223.4783 224.4651 224.9305 224.9305 224.9494 225.0162 225.0178 225.5266
   225.5266 225.6372 225.6372 225.6732 226.0012 226.0012 226.6760 226.6760
   227.4049 227.4049 227.4882 227.7264 229.2861 229.2861 230.1874 230.1874
   230.1919 230.1919 230.5678 230.5678 231.2170 231.5750 231.8023 231.8023
   231.9525 231.9544 232.1257 232.7574 232.7574 233.5433 234.0231 234.0231
   234.2233 234.2233 235.2789 235.4263 235.5279 235.5279 236.1622 236.1622
   236.3859 236.9845 236.9845 237.0386 237.9885 237.9885 238.0378 238.0378
   238.2533 238.2639 238.7767 239.4398 241.4514 241.4514 242.3086 243.5153
   243.5153 243.6468 243.6468 244.6123 244.6123 245.0211 245.3579 245.3579
   245.6495 245.9096 245.9096 246.0005 246.1002 246.1002 246.2029 246.3914
   246.6741 246.7114 246.7114 246.8527 246.8527 246.9575 247.1397 247.1397
   247.1929 247.1929 247.2023 247.3775 247.3775 248.3530 248.3762 248.3762
   248.4204 248.4204 249.0876 249.2262 249.3593 249.3593 249.5302 249.5782
   249.5782 250.0879 250.3568 250.3568 250.4140 250.5567 250.5567 250.9026
   250.9026 251.0813 251.0813 251.2877 252.0222 252.5409 252.5409 252.6681
   252.9270 253.1194 253.1194 254.8197 254.8197 255.3716 255.3978 255.5013
   255.5013 256.1172 257.4064 257.4064 257.7577 257.7771 257.7771 258.0771
   258.7271 259.2552 259.2552 260.3059 260.3059 260.5817 260.6672 260.6672
   260.9160 260.9160 260.9887 261.0718 261.4878 261.7369 261.7369 261.9925
   262.1179 262.1179 262.5738 262.5901 262.5901 263.0700 263.0700 263.1254
   263.3942 263.3942 263.8707 263.8707 264.1645 264.2385 264.4707 264.4707
   265.9267 265.9864 265.9864 266.5226 266.8746 267.0801 267.0801 267.2362
   267.4213 267.4213 267.8651 268.3401 268.9836 268.9836 269.1920 269.1920
   269.2037 269.3453 269.7759 269.7759 270.0643 270.0643 270.0852 271.8888
   271.8888 272.5370 272.7287 272.7520 272.7520 273.2332 273.2332 274.0640
   274.1428 274.1428 274.9563 275.7446 275.8077 275.8077 276.3452 276.3452
   276.4409 276.4409 276.6275 276.7098 277.0705 277.0705 277.5560 277.6222
   277.6222 277.6740 277.6740 278.0837 278.7802 278.9050 278.9050 278.9381
   278.9381 279.0433 279.0433 279.1139 279.2655 279.2655 279.4890 279.6154
   280.0748 280.0748 280.2061 280.2061 280.5078 282.1225 282.1225 282.1299
   282.3573 282.3573 282.5469 282.6469 283.6336 283.6336 283.7264 283.7264
   283.7385 283.8637 285.4647 285.4647 286.0411 286.4482 287.8097 288.0374
   288.0374 288.3496 288.3496 288.3597 288.3597 288.4841 288.5733 288.6473
   288.6473 289.0872 289.0872 289.1010 289.1010 289.2263 289.3697 290.7593
   292.1501 292.1501 292.2737 292.2737 292.2760 292.2981 292.5968 292.5968
   292.9206 292.9206 293.5795 293.9351 293.9351 294.7027 294.7504 294.8204
   294.8204 295.0702 295.0702 295.2360 295.4473 295.4473 296.4913 296.4913
   296.8664 297.4257 297.8516 297.8516 298.4802 298.4802 298.5849 298.6509
   298.7593 298.7593 299.7534 299.8041 299.9525 299.9525 300.3926 300.4750
   300.9026 300.9026 300.9078 301.0605 301.0605 301.4252 301.4252 301.5739
   301.6896 302.7805 302.7805 303.3962 303.9526 303.9526 304.4703 304.4703
   304.4709 304.8550 304.8550 305.2231 305.2231 305.5006 305.5110 305.8333
   305.8333 306.1376 306.3005 306.3190 306.3190 306.3676 306.3676 306.5745
   306.5817 306.5817 306.5942 306.7003 306.8384 306.8384 307.1770 307.1935
   307.6327 307.6327 307.6539 307.6539 308.7656 309.7439 310.8586 310.8586
   310.8983 310.9334 310.9334 311.2382 311.2382 311.2863 311.2863 311.3647
   311.3770 311.6570 312.8340 312.8340 314.5603 315.5056 315.5056 315.7533
   315.7533 315.9740 316.8854 316.8854 316.9349 317.0432 317.0432 317.1731
   317.4873 317.4873 317.5345 317.5345 317.6714 317.6813 318.3821 318.3821
   318.4322 318.4322 318.4946 318.6720 319.4966 319.8017 319.8017 320.0938
   320.2836 320.2836 320.3931 320.9089 320.9089 321.3670 321.3670 321.3999
   321.3999 321.5855 321.7544 321.7814 322.0559 322.0559 322.0662 322.0662
   322.5340 322.5905 322.5905 322.9239 323.0052 323.0052 323.0557 323.2849
   324.1735 324.1735 324.5893 324.9059 324.9059 325.3226 325.4546 325.4546
   325.5709 325.5709 325.7685 326.2457 326.4577 326.4577 327.0389 327.0389
   327.9310 327.9310 329.5667 329.9056 329.9218 329.9218 329.9248 329.9248
   330.3338 330.4056 330.7595 330.7595 330.7766 330.7766 330.8571 330.8650
   330.8650 331.2844 331.2880 332.4255 332.4255 332.4958 332.4958 332.9013
   332.9013 333.8759 333.9317 333.9317 334.9909 334.9909 335.2926 335.3117
   335.3117 335.3821 335.7051 335.7051 336.9025 337.4642 337.4642 337.5212
   337.5891 337.5891 337.6287 337.6287 338.0542 338.2486 338.2486 338.3000
   338.5204 338.5204 338.6155 339.1158 339.5440 339.5440 339.6823 339.7479
   339.8782 339.9735 339.9735 340.1848 340.1848 340.2425 340.6360 340.6360
   340.7911 340.7911 340.8106 341.8551 342.2386 342.2386 342.4933 342.9079
   342.9079 342.9223 343.8387 343.8387 345.3944 346.3641 346.8651 347.1236
   347.1236 347.7512 347.8377 347.8377 348.0475 348.1588 348.1588 348.1720
   348.1720 348.6818 348.6818 349.0075 349.0075 349.1565 349.2024 349.2024
   349.2398 349.3319 349.4004 349.4004 349.5220 349.5557 349.5557 349.6191
   350.4353 350.4353 350.4477 350.9016 350.9425 350.9425 351.0812 351.0826
   351.0826 351.2449 351.2449 351.3909 351.3909 351.8775 351.8775 351.9501
   352.0475 352.0475 352.1087 352.3895 352.7975 352.9155 352.9155 353.0575
   353.0575 353.1315 353.1408 353.2615 353.2615 353.3115 353.3115 353.7694
   353.7694 354.0152 355.6346 356.3453 356.3453 357.2443 357.3911 357.3911
   357.8666 357.8666 360.0570 360.3423 361.6481 361.6481 362.4059 362.4059
   362.5296 362.6129 362.6129 362.6763 362.7077 362.8004 362.8004 363.0328
   363.4387 363.4387 363.4869 363.4869 363.4888 363.5028 363.5400 363.5400

          k = 0.0000 0.3333 0.0000 (  3259 PWs)   bands (ev):

   -21.0943  -6.5391  -6.2462  -6.2462  -5.0641   4.3259   5.1893   5.1893
     8.3586   9.0006   9.7387   9.7387   9.9292  11.5001  13.1426  14.5417
    14.5417  14.5505  14.6529  14.8331  14.8331  16.9520  17.6292  17.6292
    17.7166  19.5190  21.8077  22.3046  22.6203  22.6203  24.4970  24.4970
    24.6918  25.2433  27.3353  27.9885  27.9885  28.9593  30.0867  30.2443
    30.2443  31.4050  33.4560  33.8503  33.8503  34.5540  34.8219  34.8219
    35.2678  35.4396  35.4396  35.6040  36.2833  36.5885  37.1861  39.5292
    39.6336  40.3696  40.3696  41.4611  42.1459  42.1459  42.2483  43.2703
    43.2703  44.8247  45.3425  46.4368  48.6371  48.6371  50.2636  50.7548
    50.7548  51.8554  52.6414  53.5779  53.5779  54.1400  56.7265  56.7796
    56.8858  56.8858  56.9942  57.1904  58.5022  58.6389  58.6389  58.9347
    59.6162  59.6162  60.3040  60.6268  61.0423  62.4713  62.4713  63.0889
    63.3723  63.3723  63.9998  64.7644  65.0791  65.3176  65.3176  65.4461
    65.7699  65.8348  65.8348  67.4490  67.4766  68.1572  68.1572  68.5535
    69.0027  69.3820  69.3820  70.0292  70.5141  71.4233  71.4233  71.4902
    71.4902  72.4705  72.5601  73.5788  73.8492  73.8492  74.3722  75.1511
    75.7908  75.9658  75.9658  76.3381  76.7585  76.7585  76.8800  77.2734
    79.2328  79.6177  79.6177  80.5364  81.6384  81.9171  81.9171  82.2046
    82.2046  82.6827  83.4812  84.7172  84.7172  85.0936  86.0812  86.2830
    86.4698  86.7904  87.2854  87.2854  87.6444  87.8279  87.9254  87.9254
    88.0538  88.5906  88.5906  90.2370  91.9062  93.3384  93.3422  93.8161
    93.8161  94.2121  94.4803  94.4803  95.2570  95.4754  95.4754  95.6502
    98.4620  98.7389  98.8628  98.8628  99.2463  99.2463 100.8241 102.3450
   102.3694 103.4079 103.4079 104.1077 104.4527 104.6926 104.6926 104.7634
   105.2464 105.9472 106.3742 106.4361 106.4361 107.0630 107.9105 107.9105
   108.4100 109.3953 109.6515 109.6515 109.7397 110.4776 110.5007 110.5007
   111.1377 111.5579 111.5579 111.5676 111.8174 112.0496 112.1479 112.1479
   112.7536 112.9700 113.1498 113.1498 113.2760 113.4629 113.6751 113.6751
   114.7773 114.9103 115.3080 115.3080 115.9185 116.5014 116.5014 116.6162
   117.4180 117.5991 117.5991 117.7436 117.8372 117.8372 119.1552 119.8260
   120.1187 120.1187 120.3815 120.7714 120.9539 121.2934 122.1493 122.1493
   122.8839 122.8839 123.4083 123.6358 123.9605 124.4427 124.4427 124.5258
   125.2558 126.0092 126.0092 126.2358 126.3201 126.3328 126.3854 126.9024
   127.1842 127.1842 127.9504 127.9858 127.9858 128.7319 128.9636 128.9838
   129.5078 129.5078 129.6167 129.8571 130.1681 130.1681 130.4822 130.4822
   130.6696 130.6873 131.3639 131.6529 131.6733 132.6393 132.6393 133.0045
   133.0045 134.2553 134.8534 134.9030 134.9030 135.2339 135.6559 135.6559
   135.6889 135.8186 136.1048 136.7400 136.7400 137.0364 140.2228 140.9966
   140.9966 141.2418 141.2951 141.4586 141.4586 142.0008 142.3095 142.7000
   142.7000 143.6560 144.6834 145.4044 146.2595 146.2595 147.5721 147.5909
   148.2014 148.3911 148.3911 149.0628 149.0628 149.2694 149.6459 149.8280
   150.0981 150.1864 150.1864 150.6607 150.6994 150.8011 151.2344 151.2344
   152.1758 152.1758 152.2201 152.3794 152.4070 152.4070 152.8103 153.3587
   153.5493 153.5493 153.7926 155.0195 155.0270 155.0270 155.4592 156.6810
   156.6810 157.8657 158.7965 159.3501 159.6398 159.6398 160.2646 160.3499
   160.4830 160.5881 160.5881 161.4848 161.8032 161.8584 161.8598 161.8598
   163.5289 163.5289 163.6620 164.8280 165.4170 165.4170 166.3356 166.3356
   166.3537 166.3758 166.7962 167.6609 167.8688 167.8688 167.9777 168.2498
   168.5153 168.5153 168.6753 169.4907 170.1390 170.1390 170.8711 170.9763
   171.2894 171.6172 171.7125 171.7125 172.4850 172.4850 172.4959 172.5018
   172.7933 172.9984 173.0903 173.2713 173.2713 173.6844 173.6844 174.5678
   175.1424 175.2406 175.2406 175.4194 175.5647 175.8891 175.8891 176.0632
   176.0632 176.2302 176.2694 176.7327 176.9013 177.0293 177.0293 177.4185
   177.4185 177.8598 178.9547 179.3180 179.5744 179.6895 179.6895 180.8664
   181.1228 181.1230 181.1230 182.1976 182.5917 182.5917 182.7882 182.8792
   183.0290 183.0290 183.6055 183.6191 183.6191 183.6479 183.7812 183.8262
   183.8795 183.8795 183.9694 184.3181 184.3181 184.7608 184.8216 184.8216
   184.9179 186.0319 186.1920 186.5450 186.5450 186.8176 187.3217 187.3217
   187.7215 187.7605 188.2348 188.5669 188.7803 189.3147 189.3147 189.8160
   189.8160 189.8671 189.9709 190.3688 190.6982 190.7888 190.7888 191.3696
   191.6455 191.6627 191.6627 192.5218 193.2665 193.3356 193.3356 193.9577
   193.9769 193.9769 194.8160 194.9740 195.3264 195.3264 195.8339 196.0606
   196.0606 196.2813 197.3376 197.3671 197.3671 197.9405 198.2023 198.3653
   198.3653 198.5876 199.1638 199.3955 199.4318 199.5673 200.1433 200.1433
   200.8529 200.9532 201.0142 201.0142 201.0419 201.3911 201.8926 201.8926
   202.3327 202.9205 202.9205 202.9765 203.7283 203.7283 204.2084 205.2781
   205.2781 205.5047 205.9037 206.0647 206.1255 206.1255 206.3981 206.9345
   207.0772 207.3754 207.3754 207.5094 207.6362 207.6362 208.8742 208.9246
   208.9246 209.0409 209.4413 210.6602 211.1138 211.5257 211.5257 212.9325
   214.6221 214.6221 214.8167 214.8915 215.2666 215.6784 215.6784 215.8984
   215.9253 215.9346 215.9346 216.1849 216.1849 216.9367 217.1261 217.7382
   217.7827 217.7827 217.8993 218.2152 219.3376 219.3376 219.7031 220.0794
   220.6477 220.7037 221.0152 221.1992 221.4578 221.4578 222.1540 222.1540
   222.5690 222.6732 222.8819 222.8819 223.8376 223.9999 223.9999 224.0863
   224.8751 225.6485 225.6485 226.4527 227.9764 228.0988 228.1892 228.1892
   228.4648 228.5504 228.5504 229.0621 229.3579 229.4095 229.4095 229.7183
   230.4588 230.4588 230.6952 231.7020 232.7526 232.8104 233.7061 233.7061
   234.4551 234.6599 234.6599 234.7717 234.9123 235.2827 235.3030 235.4805
   235.4805 235.7700 235.8433 235.8433 236.1249 236.1249 236.2503 236.3749
   236.4024 236.5411 236.7597 236.7597 236.8849 236.9310 237.4386 237.5054
   237.5054 237.7612 237.7612 238.0852 238.1815 238.5605 238.5605 238.6090
   238.6883 239.5509 239.5696 239.5696 239.7031 239.9668 239.9668 240.1752
   240.4959 240.5250 240.8478 240.8478 242.2413 242.2481 242.2481 242.3258
   242.3658 242.4675 242.6223 242.6223 243.9070 244.2196 244.2196 244.3179
   244.7591 244.7591 244.8339 244.9706 245.6339 245.6339 245.7694 245.9330
   245.9419 246.3612 246.5736 247.1703 247.4768 247.4768 248.0825 248.0825
   249.3856 249.4806 249.5856 250.0381 250.0381 251.2786 251.2786 251.4524
   252.4527 252.5476 252.8740 253.1188 253.1188 253.7075 253.7075 254.5514
   254.6870 255.0564 255.0920 255.1566 255.1566 255.7548 255.7548 255.8617
   256.4082 256.8627 256.9857 257.0535 257.0535 257.1457 257.2487 257.6536
   257.6536 258.2705 258.2705 258.2762 258.5430 258.8483 258.8483 258.9293
   259.2175 259.4467 259.4467 260.4528 260.4528 260.6744 260.7770 260.9239
   260.9938 261.1131 261.1131 262.2369 262.3411 262.3498 262.3498 262.5127
   262.5834 262.5874 262.7705 262.7705 263.0702 263.2529 263.2958 263.2958
   263.3380 263.4806 263.9353 264.3120 264.3120 264.7142 265.4558 265.5445
   265.5445 265.5928 265.6887 265.9376 265.9376 266.0474 266.2839 266.2839
   266.2940 267.2576 267.2818 268.0730 268.0730 268.7011 268.8494 268.8494
   268.8846 269.0971 269.1879 269.3467 269.3467 269.5773 269.8461 270.5384
   270.5384 271.1209 271.1209 271.2480 271.6944 271.9222 271.9222 272.0430
   272.1448 272.2832 272.2832 272.2867 272.3293 273.4981 273.5673 273.5673
   274.2383 274.5319 274.5319 274.6062 274.6119 275.1379 275.3889 275.3889
   275.6056 276.5700 276.8280 276.8280 277.0888 277.1685 277.2527 277.2527
   277.3039 277.3164 277.5857 277.5857 278.1260 278.8816 279.1191 279.1191
   280.1414 280.3798 280.4606 280.4606 281.3689 281.6027 281.7538 281.7538
   281.8148 281.8768 281.9428 282.4646 282.4646 283.1146 283.2734 283.2734
   283.4693 283.4923 283.7129 283.7129 284.1268 284.3878 284.4525 284.5615
   284.5615 285.0312 285.0813 285.1135 285.1135 285.3448 285.4911 286.1351
   287.1084 287.1084 287.6586 287.6586 287.8579 287.9414 287.9559 287.9559
   288.8801 289.1794 289.1794 289.2479 289.3392 289.4576 289.7083 289.7083
   290.1880 290.1998 290.5860 290.5860 290.7646 291.5069 291.7675 291.7675
   292.0558 292.3559 292.7607 292.7607 293.3761 294.4959 294.4959 294.7848
   295.0427 295.3035 295.3733 295.3733 295.7051 296.1041 296.3847 296.5829
   296.5829 297.1887 297.5004 297.5004 297.8295 298.2779 298.6416 298.6416
   299.9396 300.3895 300.5478 300.5478 300.8512 300.8512 301.1181 301.3132
   301.3283 301.3371 301.7176 301.7176 302.0974 302.2964 302.2964 303.1033
   303.3507 303.4634 303.7385 303.7385 304.5093 305.7331 306.2823 306.2823
   306.4321 306.4635 307.1253 307.1253 307.2297 307.3401 307.4874 307.5677
   307.5677 308.0305 308.5498 308.7093 308.7093 308.7963 308.8316 308.8316
   309.0310 309.1004 309.1759 309.2174 309.2174 310.0899 310.0899 310.2706
   310.3694 310.7037 310.7037 310.7082 310.7498 311.8729 312.6671 312.6671
   313.0665 313.0665 313.9888 314.6155 314.7030 314.7113 314.7113 316.9811
   317.1831 317.3319 317.3915 317.4281 317.4789 317.4789 317.6479 317.6853
   317.6853 317.9058 318.2041 318.2041 318.5819 318.5819 319.0924 319.7325
   320.0017 320.1728 320.1728 320.3106 320.4585 320.4719 320.5469 320.5469
   320.9996 321.4475 322.6605 322.8624 322.8624 323.1875 323.4155 323.8943
   323.8943 324.2003 324.2003 324.2020 324.6872 324.7114 324.7221 325.2334
   325.2646 327.1760 327.1760 327.7595 327.8634 327.8634 327.8927 328.0242
   328.2098 328.2098 328.2898 328.4743 328.4743 328.7539 328.7539 329.1428
   329.7711 329.8376 330.1533 330.4796 330.4796 330.5211 330.7702 331.3840
   331.5429 331.8410 331.8410 332.9223 332.9223 333.1522 333.1522 333.2694
   333.4116 334.2415 334.2666 334.2889 334.2889 334.4815 334.7534 334.7534
   334.7707 334.8570 334.8570 334.8688 335.4550 335.5869 335.5869 336.2226
   336.2696 336.4262 336.4406 336.8035 337.2030 337.2030 337.6761 337.7391
   337.7391 337.8340 338.0381 338.0695 338.5811 338.5811 338.5978 339.0677
   339.0724 339.3193 339.3193 339.3390 339.6036 339.6036 340.1391 340.1463
   340.1735 340.1735 340.2033 340.5094 340.5094 340.7752 340.9097 341.2761
   341.2761 341.4070 341.7297 342.0149 342.0149 342.1982 342.2144 342.4720
   342.4720 342.5531 342.5531 342.5882 342.6070 342.6501 342.7212 343.7387
   343.8506 343.8506 344.0527 344.1753 344.1753 344.5130 345.2223 345.2377
   345.2377 345.3738 345.4756 345.5969 345.6813 345.6916 345.6916 345.9771
   345.9837 345.9837 346.7267 347.3275 347.3275 348.1253 348.5271 348.8926
   348.8926 349.4580 349.4956 349.4956 349.5069 349.6081 349.6081 349.6374
   349.6507 349.7619 349.9521 350.0883 350.0883 350.3056 350.3750 350.4309
   350.4309 350.5836 350.6005 350.6093 350.8296 350.8296 351.0443 351.2780
   351.4557 351.4557 351.4797 352.2983 352.2983 352.2988 352.4869 354.1297
   354.1823 354.1823 354.2229 355.7868 356.7210 356.7210 356.8639 356.9348
   357.1495 357.1495 357.2848 357.5844 358.5198 358.5198 358.7464 359.0062
   359.0502 359.0502 359.1383 360.0248 360.0329 360.6889 360.6889 361.0121
   361.0762 361.0762 361.1609 361.5850 361.5850 361.7893 361.8103 361.8103
   361.8956 362.0334 362.1411 362.1809 362.1939 362.1939 362.3007 363.5295

          k =-0.1667 0.5000-0.1667 (  3265 PWs)   bands (ev):

   -21.0838  -6.7859  -6.2683  -6.2636  -4.8212   3.9308   4.7556   4.8860
     8.3963   9.9980  10.5746  10.5929  10.8338  12.8382  13.8319  13.8462
    14.1045  14.4549  14.5959  14.6593  14.8166  15.6578  16.7580  16.8502
    17.9999  19.0926  20.8959  20.9474  21.9682  22.1086  23.5132  24.3864
    25.0929  26.3640  26.9712  28.4589  28.5165  29.2446  30.2006  30.3322
    30.4874  31.5641  32.1398  32.5997  32.8062  33.4231  33.8378  34.1767
    35.1168  35.5009  36.4228  38.0591  38.3146  38.3927  38.6688  38.9257
    40.1095  40.3872  41.8209  42.6727  44.2174  45.1944  45.2231  45.4520
    45.8900  46.1469  46.2195  46.4603  46.5873  48.8585  49.1775  49.5910
    50.6347  50.7190  51.0828  51.6990  52.1634  52.5860  52.6625  53.4537
    54.0313  54.4125  55.0818  55.5500  55.9113  57.1090  57.5084  57.8873
    58.8270  59.5677  59.6196  60.7712  61.5023  62.1431  62.8650  62.9768
    63.0602  63.8359  64.6028  65.0601  65.3829  65.5275  65.6511  65.6580
    66.1384  66.2974  66.4599  67.0688  67.0771  67.8813  68.1955  70.2836
    70.7481  70.7580  71.1308  71.2809  71.5130  71.6250  71.9306  72.2004
    72.4373  72.6325  72.9206  72.9464  73.3353  74.8014  74.9998  75.6387
    75.6542  76.0729  76.4350  77.2469  77.8551  77.8818  78.4663  79.1465
    79.5294  79.5841  80.2291  80.3320  80.8873  81.0236  81.3737  81.7734
    81.8582  83.5659  83.6755  84.0274  84.2846  84.6835  85.1015  85.8776
    87.1505  87.7560  88.1924  88.4350  88.9237  90.2393  90.2850  91.2101
    91.9054  92.0710  92.1262  92.4800  93.0272  93.2492  93.3512  93.9384
    93.9644  94.2728  94.8539  94.8789  94.9510  96.3519  96.7680  96.9104
    97.1981  97.7921  97.9861  98.2634  98.5316  98.6852  99.1138  99.7473
   100.3840 100.9241 101.4638 101.6229 101.8846 101.9087 103.1710 103.1870
   103.6127 104.0162 104.0878 104.3686 104.6441 104.6865 104.8951 105.1622
   106.0737 106.1658 107.0540 107.6308 107.7337 107.8489 108.0234 108.5950
   108.7141 109.3710 109.5847 109.9939 111.3386 111.5136 111.6752 111.7415
   111.9076 111.9107 112.9185 112.9559 113.3030 113.3687 113.6697 113.8182
   115.0083 115.2566 115.3748 115.4803 115.6598 116.7544 117.4676 117.5365
   117.8791 118.1836 118.4195 118.8120 119.1837 119.5160 120.1676 120.4884
   121.0407 121.5751 121.8274 122.0076 122.1408 122.4749 122.6005 123.0398
   123.4786 123.6450 123.8233 124.5217 124.7603 124.8586 125.0510 125.4040
   125.4653 125.8104 125.9977 126.1820 126.6858 126.9587 127.0272 127.4448
   127.7235 127.8958 128.2499 129.8072 129.8514 129.8833 130.2610 130.8045
   130.9656 131.0204 131.1136 131.1635 131.2963 131.7708 131.9872 132.0789
   132.1544 132.3574 132.5079 133.6427 133.8836 133.9403 134.1285 134.1743
   134.2260 134.7091 135.2652 135.3086 135.5681 135.9466 136.2704 136.4458
   136.4874 136.9730 138.4485 138.8595 139.3819 139.8510 140.3386 140.5490
   141.2057 141.2954 141.8847 141.9927 142.6306 143.4399 143.6549 143.7540
   144.1160 144.1629 144.2948 144.7691 144.8457 145.3039 145.3189 145.6836
   145.8662 146.1188 146.3180 147.0603 147.7384 148.4308 148.4984 148.7025
   148.9009 149.2667 149.4178 149.6087 150.0815 150.3155 151.1039 151.1222
   151.2748 151.4590 151.9525 152.5215 152.9969 153.0003 153.4221 153.8850
   154.3761 154.8258 155.0780 155.7534 155.8514 156.9732 157.4965 157.5683
   157.8796 158.9215 158.9942 159.6171 159.8047 159.8375 160.2277 160.4679
   160.7624 160.9470 160.9579 161.2418 161.3336 161.3544 161.7471 161.8686
   162.4195 162.5055 163.0412 163.2539 163.3569 163.4429 163.5776 163.9191
   163.9916 164.2893 164.3280 164.7657 165.0143 165.3741 166.1585 166.5212
   166.7758 167.1479 167.4941 167.9530 168.2347 168.5604 168.9126 168.9369
   169.0823 169.5548 169.6507 170.7006 170.7685 171.0044 171.2314 171.2989
   171.3765 171.6772 171.8191 172.3690 172.5288 172.5343 172.9824 173.4925
   173.5043 173.7410 173.9038 174.2106 174.3041 174.5256 174.8443 174.8873
   175.1798 175.3334 175.4494 175.6975 175.7290 175.9807 176.2272 176.9312
   177.1110 177.6236 178.0044 178.2556 178.3793 178.6410 179.0261 179.2969
   179.9558 180.2363 180.8026 181.0343 181.6078 181.6588 181.9352 182.0158
   182.0490 182.4334 183.0357 183.3800 183.5837 183.6099 183.7579 183.7898
   184.0917 184.5743 184.7733 184.8656 185.1093 185.1159 185.4774 185.5079
   186.2388 186.8402 187.1664 187.1952 187.4469 187.6531 188.3509 188.5744
   188.8221 189.3261 189.8468 189.9201 190.4055 190.5519 190.6907 191.2637
   191.3608 191.8489 192.0440 192.4891 192.6270 192.9802 193.3820 193.5718
   193.5865 194.0035 194.3636 194.4503 194.6700 194.7016 195.2104 195.2913
   195.4886 195.7654 195.9384 195.9995 196.5158 196.7708 196.9290 196.9975
   197.3696 197.5333 197.9319 198.4755 198.7561 199.1573 199.4902 199.9013
   200.6445 201.0127 201.2462 201.6017 201.6485 201.6815 201.8583 202.0188
   202.1677 202.5204 202.6271 202.8270 203.0331 203.1248 203.2788 203.4532
   203.9769 204.4968 204.6775 205.0798 205.1181 205.3930 205.7302 206.0884
   206.2283 207.3055 207.6932 207.7741 207.8198 208.1314 208.6162 208.8761
   209.1172 209.2502 209.4115 209.4689 209.7986 209.9539 210.0614 210.2955
   210.4786 210.5799 211.3543 211.4243 211.5087 211.7816 212.3276 212.3418
   212.5255 212.6360 213.0844 213.2084 213.3311 213.7352 213.9847 214.8630
   215.2603 215.5417 215.7128 215.7131 215.8565 216.3209 216.7119 217.0518
   217.1295 217.6098 217.8238 218.3352 218.7081 218.7229 219.5468 219.6141
   219.7781 220.1739 220.7198 220.7945 221.3739 221.4086 221.6586 221.7604
   221.8118 221.8578 222.4691 222.5445 222.6121 222.8201 223.5741 223.8769
   223.9528 224.0174 224.0484 224.6847 224.8046 225.1504 225.4503 225.6555
   225.8672 226.0721 226.2969 226.5697 227.0731 227.3295 227.3657 227.5491
   227.8848 228.5993 228.6682 228.7459 229.0057 229.2019 229.6267 229.7169
   230.0204 230.6868 230.7179 231.4063 231.4968 231.7988 232.2522 232.8227
   232.9680 233.2675 233.4518 233.9383 234.1893 234.7396 235.0795 235.4727
   235.9162 236.0274 236.1616 236.3226 236.6560 236.7425 237.6787 238.0097
   238.0486 238.2139 238.3959 238.9968 239.5011 239.5502 239.7164 240.0391
   240.3424 240.4363 240.5150 240.9050 241.4517 241.4625 241.9423 241.9440
   242.0268 242.2590 242.4300 242.4384 242.9918 243.1075 243.2428 243.4010
   243.8301 243.9465 244.9270 245.0313 245.1087 245.2484 245.3689 245.4246
   245.4841 245.5975 245.6963 245.9440 246.0154 246.2906 246.3764 246.4531
   246.7026 246.8408 247.2079 247.4774 247.5792 247.8080 247.9294 248.8263
   248.8699 248.9969 249.6964 249.7940 250.0770 250.2243 250.4024 250.4387
   250.6723 250.9684 250.9802 251.2730 251.7529 251.9028 252.5521 252.5648
   252.6720 252.8870 253.2833 253.3548 254.0837 254.0875 254.2659 254.4701
   255.2124 255.8184 256.0451 256.0490 256.2737 256.3393 256.6018 256.6757
   256.8486 256.9512 257.3958 257.4987 257.6304 257.7066 258.0437 258.3663
   258.4774 258.8506 258.9394 259.0335 259.3755 259.8151 260.0897 260.1370
   260.6504 260.8978 260.9858 261.3099 261.3968 261.9260 261.9580 262.1269
   262.2419 262.4933 262.6445 262.6603 262.9738 263.0639 263.3039 263.4617
   263.6086 264.1714 264.2083 264.3577 264.4366 264.6894 264.8711 265.0818
   265.1288 265.2255 265.5310 265.6835 265.9835 266.1171 266.2644 266.5749
   267.0727 267.1365 267.2067 267.2638 267.7972 267.9198 268.0341 269.1422
   269.6278 269.8206 269.9441 270.0906 270.2754 270.4254 270.4899 270.7191
   271.0469 271.2029 271.2274 271.7559 271.8563 272.0163 272.2048 272.3103
   272.3507 272.3578 273.0228 273.2692 273.6739 273.7209 273.9216 274.3534
   274.5388 274.6824 274.8531 275.5596 275.5642 275.8425 276.1167 276.1303
   276.4932 276.6355 276.9642 277.2086 277.2485 278.0280 278.1838 279.1163
   279.1960 279.5107 279.7248 279.8220 279.9333 279.9965 280.0521 280.2690
   281.0444 281.1511 281.7396 281.7594 281.8717 282.1180 282.2378 282.6343
   282.6642 282.7332 282.7693 283.0302 283.1762 283.6203 283.7956 283.9276
   284.1311 284.1729 284.1865 284.5533 284.9152 285.5835 286.0442 286.1004
   286.4609 286.4956 286.5574 286.6829 287.1788 287.3421 287.4125 287.8732
   288.2534 288.5168 288.7505 288.8091 289.1313 289.2655 289.7687 290.0312
   290.0731 290.5606 290.6660 291.2692 291.3687 291.4254 291.4753 292.2718
   292.4007 292.8075 293.6821 293.7289 293.7596 294.1767 294.3934 294.3991
   294.5555 294.6572 294.6988 294.8561 295.2391 295.4258 295.5026 296.4214
   296.7655 297.0083 297.5015 297.9078 297.9962 298.2266 298.2462 298.4353
   298.5630 299.1505 299.2758 299.4188 299.8404 299.9866 300.5252 300.9396
   301.5759 301.6594 301.7243 301.9442 301.9826 302.2212 302.4044 302.4127
   302.4644 302.8013 302.8286 302.9120 303.2109 303.4237 303.6063 303.6318
   303.6410 303.8670 304.1836 304.3020 304.4326 304.6160 304.8850 304.9546
   305.4028 305.4070 305.5779 305.6352 306.0623 306.2474 306.5142 306.9731
   307.0030 307.0916 307.2697 307.4889 307.6551 308.1042 308.3244 308.6222
   308.6286 308.6933 308.8270 309.0098 309.6260 309.8030 309.9163 310.4142
   310.7252 310.8966 311.0730 311.0776 311.2308 311.5124 311.9603 311.9887
   312.0552 312.2593 312.3286 312.7546 313.0580 313.4591 313.9696 314.1722
   314.2430 314.3454 314.7912 314.9209 315.3508 315.7476 316.0937 316.6227
   316.7464 316.7618 316.7707 317.1621 317.1698 317.3255 317.5009 317.8142
   317.8419 318.0716 318.4786 318.4898 318.9044 318.9055 318.9973 319.5520
   319.8266 319.9113 320.1890 320.6025 320.6057 321.1218 321.4148 322.0175
   322.1317 322.1429 322.6609 322.8701 322.8727 323.0796 323.4162 323.5118
   324.0727 324.2514 324.4958 324.6695 324.9811 325.2618 325.4127 325.5263
   325.6686 325.7585 326.1196 326.3112 326.5255 326.6218 326.7682 327.0123
   327.3644 327.6823 327.7311 327.9196 327.9357 328.4531 328.5152 328.5728
   328.7680 328.8834 328.9884 329.0139 329.1944 329.6327 329.8009 329.8886
   330.0770 330.0982 330.4993 330.6423 330.8197 331.3844 331.4252 332.1712
   332.3175 332.7219 333.0280 333.4548 333.6845 334.0152 334.2191 334.3644
   334.6123 334.8195 335.1180 335.1250 335.2624 335.3805 335.4134 335.4501
   335.4766 335.9715 336.1134 336.2733 336.4531 336.5445 336.6831 336.7921
   336.9458 337.5159 337.6921 338.0149 338.2459 338.6592 338.8488 339.0395
   339.1916 339.5322 339.5530 339.7293 339.9539 339.9789 340.5112 340.7882
   340.8199 341.1032 341.1437 341.2107 341.9635 342.3003 342.4615 343.0886
   343.3440 343.6044 343.6066 343.8947 344.1917 344.6144 344.8185 344.8542
   345.1165 345.3851 345.7918 345.8686 346.2901 346.4208 346.6790 346.7950
   346.9150 346.9713 347.2065 347.2483 347.3225 347.5592 347.6874 347.9289
   348.3738 348.4436 348.4516 348.8638 349.0312 349.6444 349.8786 350.0589
   350.0929 350.4115 350.5237 350.6552 350.6795 350.8804 350.8945 351.2194
   351.4304 351.5011 351.6102 351.9464 352.1199 352.6420 352.6699 352.7228
   352.9867 353.0875 353.3583 353.3792 353.5626 353.9337 354.2462 354.5861
   354.6451 354.7388 354.8920 355.0062 355.4049 355.4467 355.4701 355.5441
   355.6829 355.7684 355.8292 356.0898 356.3281 356.6214 356.6393 356.8316
   357.0298 357.5262 357.5807 357.7249 357.7293 357.7783 357.9488 358.0278
   358.3080 358.4328 358.5041 358.6718 358.7055 359.1930 359.4044 359.5594
   359.7998 359.9033 360.0246 360.1104 360.2291 360.2620 360.4342 360.5975
   361.2400 361.3590 361.5217 361.5299 362.2450 362.4928 362.7164 362.8017

          k = 0.6667-0.3333 0.6667 (  3267 PWs)   bands (ev):

   -21.0753  -6.9650  -6.2985  -6.2644  -4.6255   3.7035   4.4214   4.4994
     9.2279  10.6491  11.2455  11.3860  12.2882  12.9792  13.2055  13.2122
    14.0168  14.5009  14.6010  14.6928  14.8145  15.2254  16.1281  16.2125
    18.6096  18.9285  19.0908  20.1825  22.2108  22.2448  23.4015  24.3813
    24.4422  25.3424  26.0826  27.9305  28.5943  28.8856  29.9155  30.7185
    30.9130  31.3185  31.5052  32.5190  32.7613  33.1983  34.0639  35.1410
    36.9107  37.8391  37.9106  38.2205  39.1878  40.1249  40.1884  41.0067
    41.1321  41.1978  42.4993  42.5328  42.9896  43.7937  44.0767  44.3150
    44.6665  44.8331  46.9107  47.3405  48.6787  48.9554  49.2696  49.5899
    49.8608  50.4458  50.6030  51.0004  51.7938  52.2117  52.4615  53.5615
    53.7804  53.8557  54.5403  55.0746  56.3145  56.7662  56.8266  58.0472
    58.2873  58.3480  58.7067  59.6912  60.0220  60.2643  60.9011  61.5276
    61.9044  62.7130  63.0288  63.9758  64.8001  65.0867  66.1588  66.2456
    66.2572  66.8145  66.8260  67.3260  67.4675  67.9172  67.9936  68.1857
    69.1574  69.3041  69.6847  69.7051  70.6585  72.0263  72.3156  73.7345
    73.9585  74.3727  75.1722  76.0988  76.5619  76.6450  77.0860  77.0926
    77.2749  77.5066  77.6428  78.3412  78.5151  78.5448  79.5025  79.5487
    79.7383  79.9671  80.1738  80.8428  81.3236  82.6748  83.5077  83.9148
    84.2451  84.7629  85.0829  85.8937  86.3351  86.6132  86.9410  87.1382
    87.2585  87.6855  87.9488  88.2541  88.4622  89.0594  89.2654  89.3359
    89.7202  90.0089  90.3871  90.6644  90.8538  91.4237  92.2738  92.5370
    93.8256  94.0550  94.3604  94.4503  95.1335  95.1647  96.0622  96.1572
    97.0236  97.2030  97.6684  97.9552  98.5566  98.9381  99.0433  99.1652
   100.2413 100.3035 100.8648 101.2710 101.3970 101.6135 101.7258 102.1471
   102.7360 103.2033 103.6210 103.9310 104.0044 105.2560 105.3580 105.4580
   106.0150 106.3111 106.8339 107.1686 107.5172 107.6996 107.9804 108.4957
   109.2981 109.5362 109.7775 110.3432 110.9192 111.0066 111.3733 111.5400
   111.6873 111.9054 112.2545 112.5898 112.7898 112.8119 113.0222 113.3480
   113.7087 114.0147 114.4962 114.5851 114.6253 115.6875 115.9485 116.2346
   116.7570 117.0223 117.3955 117.5708 118.0599 118.8546 119.0416 119.4910
   120.6584 121.1820 121.3782 121.5845 121.6183 121.7569 121.9163 122.6737
   122.8062 123.1807 123.4580 124.4534 124.9374 125.7136 125.8523 126.1488
   126.2903 126.4952 126.6233 126.9979 127.2350 127.3799 127.5757 128.3124
   128.4426 128.5916 129.0128 129.5076 129.8784 130.0963 130.7721 130.8521
   131.1440 131.5440 131.7392 132.2806 132.4014 133.5918 133.6853 134.0370
   134.1425 135.0912 135.3149 135.4191 135.6192 136.0203 136.2009 136.8156
   137.2707 137.6049 137.8667 138.0505 138.2728 138.3630 138.6163 138.8090
   139.1583 139.2849 139.9646 140.4166 140.4559 140.7118 140.7198 140.9318
   141.1707 141.4306 141.7470 141.8620 141.9300 141.9876 142.6041 142.6283
   143.2300 143.5322 144.6198 145.3103 145.6631 145.7384 146.3600 146.5488
   147.2783 147.6030 147.8361 147.8619 148.4791 148.6922 148.9329 149.2743
   149.7130 149.9167 150.3048 150.5430 151.1894 151.3298 151.5078 151.5413
   151.8768 152.1166 152.2443 152.3505 152.4848 152.5962 152.8034 152.8245
   153.4303 153.6469 153.8865 154.1674 154.1884 154.3889 154.5921 154.8831
   155.3362 155.3932 155.5443 155.9595 156.6956 156.9047 157.4249 157.8957
   158.7760 159.1113 159.3691 159.7895 160.3213 160.5208 160.7501 160.8766
   161.1822 161.4218 162.0619 162.5389 162.5389 162.5670 162.8522 163.0547
   163.3125 163.4207 163.6253 164.1584 164.4176 165.0304 165.3629 165.4669
   165.6534 165.6536 166.0495 166.0777 166.3637 166.4713 166.7911 167.4390
   167.5859 167.7976 168.2360 168.4565 168.6393 169.0044 169.2319 170.0018
   170.1892 171.2154 171.6696 172.4038 172.5615 172.8994 173.0727 173.3483
   173.5379 173.8146 174.1524 174.2729 174.6452 174.8554 175.3023 175.3352
   175.5507 175.6233 175.7624 175.9007 176.0275 176.3393 176.8274 177.2055
   177.6596 177.7219 178.4490 178.5277 178.6723 179.0851 179.3162 179.6219
   179.7237 180.0904 180.2125 180.2844 181.0310 181.5427 182.2432 182.9500
   183.1613 183.9287 184.0875 184.2865 184.4044 184.4813 184.6072 184.8954
   185.0626 185.6615 185.7067 185.8605 185.8882 186.2223 186.2518 186.5522
   186.8565 187.1770 187.3882 187.6940 187.9896 188.2849 188.4079 188.7975
   188.9220 189.4448 189.6049 190.2996 190.6643 190.8421 191.4612 191.5839
   191.8074 192.5889 192.7808 193.1890 193.5033 193.6297 193.9968 194.4320
   194.5128 194.5789 194.7404 195.4081 195.7452 195.8021 196.1734 196.4097
   196.8765 196.9424 197.4161 197.6338 197.8977 198.0572 198.2172 198.5888
   198.8618 199.1882 199.4505 199.6373 199.8196 199.8976 200.1616 200.3123
   200.5419 200.7427 200.7903 201.1670 201.3201 201.4267 201.5344 201.9277
   202.4004 202.4491 203.0702 203.4566 203.8466 204.0264 204.2214 204.4060
   204.6849 204.8902 205.0244 205.8345 205.9601 206.4664 206.7477 206.7495
   206.8950 207.5269 207.8302 207.8454 207.9755 208.5226 208.6871 208.8266
   209.2333 209.5863 209.6230 209.6619 210.0485 210.7052 210.7105 210.8987
   211.6343 211.7683 211.8398 212.1287 212.3103 212.3812 212.4684 212.9015
   212.9140 213.4087 214.0381 214.2392 214.5310 214.5398 214.9890 215.1868
   215.4274 215.5160 215.6478 216.0069 216.3481 216.5840 217.0261 217.4021
   217.4708 217.9954 218.2392 218.2623 218.3979 218.7073 218.9121 218.9661
   219.2948 219.7208 219.8069 220.1081 220.1328 220.3736 220.6252 220.8973
   221.0791 221.4062 221.6333 221.8534 222.6153 222.9300 222.9836 223.1367
   223.6844 223.7823 224.3754 224.6758 224.8408 225.2029 225.5073 225.8389
[...]
   193.7431 194.2396 194.4703 194.5747 194.5788 194.9245 195.2256 195.6676
   195.8764 195.9725 196.7927 196.9787 197.2102 197.7575 197.8675 198.1489
   198.6010 199.0706 199.1533 199.2896 199.6960 199.8719 200.3458 200.5441
   200.7346 200.7936 201.4144 201.4210 201.8747 202.2274 202.5321 203.3825
   203.5675 203.9537 204.0114 204.2302 204.5421 204.6900 204.8894 205.0849
   205.2126 205.8180 206.1812 206.2208 207.0484 207.0585 207.5478 207.7645
   208.0232 208.1574 208.2379 208.4104 208.5134 208.9602 209.1495 209.2651
   209.5813 209.5820 210.1857 210.2662 210.3789 210.7079 210.8459 211.0174
   211.1273 211.2419 211.3041 211.8011 211.8269 212.1208 212.2999 212.5527
   212.5938 212.7015 212.7572 213.4392 213.7161 214.3165 214.7752 215.8021
   215.8137 216.6784 216.7257 217.2968 217.6832 217.9791 218.3054 218.7935
   219.1671 219.5028 219.9054 220.0144 220.2076 220.7065 220.9756 221.0869
   221.1888 221.3759 221.6279 221.6529 221.8854 221.9242 222.2325 222.6492
   222.8020 222.8669 223.1551 223.1842 223.3369 223.3677 223.5400 224.0595
   224.0630 224.5493 224.6281 224.7857 224.8981 224.9616 225.3803 225.8404
   225.9314 226.1296 226.3435 226.7312 226.7503 226.7938 227.1547 227.4444
   227.8176 228.3805 228.4101 228.4670 228.5480 228.6984 229.1860 229.2683
   229.6271 229.8489 230.2062 230.4879 230.7047 230.8308 231.2318 231.7751
   231.9745 232.0149 232.3897 232.4067 232.7500 233.0842 233.3307 233.5099
   233.9467 233.9844 234.0365 234.1845 234.2971 234.4069 234.7053 234.7353
   235.0101 235.1984 235.2566 235.5333 235.9254 236.0880 236.3689 236.5270
   236.8068 237.1518 237.3410 237.8984 238.5368 238.7338 238.9626 239.3127
   239.3204 239.4845 239.7129 240.2230 240.2691 240.4669 240.5115 240.9093
   240.9926 241.8947 242.2126 242.5949 242.7642 242.9480 242.9971 243.2016
   243.2340 243.2978 243.7313 243.7924 243.8963 244.1232 244.5461 244.8785
   245.2381 245.5521 245.6286 246.2670 246.3850 246.4128 246.5676 247.3748
   247.5057 247.6145 248.0348 248.1849 248.3247 248.6934 249.1038 249.5490
   249.5915 250.0196 250.0731 250.5171 250.8682 251.2236 251.3858 251.6099
   251.7742 252.1317 252.4525 252.4557 252.8828 253.0761 253.4077 253.6174
   253.7019 254.1348 254.3073 254.4860 254.8426 254.9946 255.4763 255.5897
   256.1360 256.2850 256.6218 256.9002 257.7972 257.9069 258.2134 258.3561
   258.4937 259.4829 259.5514 259.8189 260.1053 260.1285 260.5810 260.9983
   261.1360 261.3074 261.3428 261.8406 262.2114 262.4618 262.6682 262.9084
   263.2593 263.6317 264.0132 264.1957 264.2500 264.3599 264.6685 264.9571
   265.6343 265.7979 265.9333 266.1486 266.1757 266.3952 266.4084 266.9252
   267.0741 267.6516 267.9826 268.3151 268.3187 268.3288 269.0266 269.0386
   269.2898 269.6530 269.7757 270.0048 270.1809 270.3150 270.3826 270.4199
   270.5356 270.8316 271.2000 271.5508 271.8704 271.9838 272.1052 272.1506
   272.2767 272.5343 273.0460 273.8131 274.2853 274.4406 274.4481 274.7721
   274.8952 275.2839 275.5450 275.8234 276.0295 276.3970 276.7699 277.0645
   277.1147 277.1999 277.2515 277.3957 277.7087 277.8475 277.9429 277.9692
   278.3384 278.4231 278.5219 278.6996 278.7136 279.3464 279.4000 279.5759
   279.9226 280.1246 280.5112 280.7838 280.9475 281.0698 281.1204 281.2550
   281.3914 281.5441 282.4789 282.5190 282.9200 283.3096 283.5077 283.9346
   284.2806 284.4170 284.4473 285.0453 285.3226 285.4864 286.1257 286.1586
   286.5676 286.7173 286.7283 287.1286 287.1475 287.2190 287.3670 287.4188
   287.8837 287.9644 288.0000 288.0052 288.3178 288.3825 288.4471 288.7062
   288.7324 289.0927 289.1834 289.2590 289.7072 289.8223 289.9301 289.9691
   290.1257 290.3779 290.9140 291.5243 291.7699 291.9810 292.0966 292.2238
   292.2239 292.3859 292.6668 292.7633 292.9435 293.0952 293.3773 293.5275
   293.9016 294.3783 294.6168 295.0998 295.3721 295.7826 296.1309 296.1785
   296.4140 296.5067 296.5814 296.8598 296.9045 296.9524 297.0748 297.1529
   297.1903 297.2318 297.4961 297.7898 298.0938 298.4050 298.8159 299.4872
   300.4228 300.5440 300.6619 300.7006 300.8577 301.1567 301.6216 301.6998
   301.7579 301.9831 302.5610 302.9225 303.3766 303.4378 303.6215 303.6287
   303.8743 304.0267 304.0740 304.2435 304.4411 304.5244 304.8369 304.9120
   305.1697 305.2818 305.4868 305.6359 305.6438 305.9323 306.1779 306.2065
   306.3356 306.5861 306.9641 307.2173 307.6262 308.0232 308.1622 309.0055
   309.0274 309.2012 309.2114 309.5425 309.5620 309.7912 310.2202 310.4880
   310.6201 310.6989 311.1981 311.8568 312.1049 312.3471 312.4920 312.6073
   312.7438 312.9687 313.1844 313.2527 313.3145 313.7300 313.8616 314.3631
   314.3674 314.6287 314.9339 314.9987 315.1569 315.3493 315.7808 315.7977
   316.1875 316.6563 316.6849 316.8994 316.9708 317.3722 317.5013 317.6579
   317.8922 317.9828 318.5059 318.7522 318.7572 318.9944 319.0280 319.3506
   319.6520 319.7137 320.0717 320.0779 320.2891 320.3633 321.1865 321.4418
   321.6174 321.6602 321.8316 322.0119 322.1174 322.1252 322.3037 322.6832
   322.6913 322.8205 323.1644 323.2229 323.4958 323.5355 323.8961 323.9265
   324.2115 324.2430 324.4076 324.8859 325.0885 325.2487 325.2505 325.8537
   325.9739 326.0977 326.1770 326.4909 326.7096 326.7522 327.0240 327.2769
   327.5469 327.5725 327.6667 327.6830 327.8483 327.9807 328.0859 328.5078
   328.8273 328.8501 329.4178 329.8074 329.9532 330.1340 330.6816 330.7427
   330.9984 331.1092 331.2193 331.2960 331.4306 331.9487 331.9874 332.2343
   332.4418 332.5885 332.8726 333.0212 333.3530 333.3777 333.4273 334.0147
   334.4767 334.8597 334.8993 335.0427 335.2084 335.5954 335.8083 336.2620
   336.6123 336.9716 337.3925 337.4985 337.5205 337.7527 337.7635 337.9706
   338.1425 338.4980 338.7407 338.9055 338.9715 339.0135 339.0715 339.3336
   339.3643 339.6140 339.8175 339.9984 340.0700 340.1540 340.5659 340.5851
   340.6808 341.3461 341.7108 341.8514 342.1945 342.6039 342.6522 342.6779
   342.9189 343.2843 343.9406 343.9931 344.4579 344.7458 345.1152 345.1780
   345.2955 345.3839 346.0114 346.0134 346.1237 346.4365 347.3106 347.3401
   347.5776 347.6973 347.7753 348.0828 348.2566 348.7981 348.9189 349.0305
   349.0877 349.1954 349.7872 349.8977 349.8982 350.1493 350.1646 350.2600
   350.3064 350.4017 350.6326 350.6653 351.1177 351.2515 351.3574 351.4951
   351.6224 351.6414 351.8438 352.0186 352.1643 352.2264 352.4651 352.5783
   352.9601 352.9789 353.8902 354.0084 354.0406 354.7450 354.9366 355.1409
   355.2590 355.8687 355.9051 356.1895 356.2284 356.4526 356.6936 356.7664
   357.0324 357.3100 357.7295 357.8243 357.9279 358.0138 358.0742 358.1029
   358.3466 358.6539 359.5971 359.6406 359.7001 360.0814 360.2437 360.2969
   360.7194 360.8694 361.0203 361.3887 361.5794 361.6517 361.6573 362.2916
   362.4024 362.5335 362.5980 363.7144 364.7578 364.8958 365.0350 365.0614

          k =-0.3333-1.0000 0.0000 (  3256 PWs)   bands (ev):

   -21.0694  -6.5550  -6.4904  -6.3925  -5.0208   4.4222   4.6281   4.8367
     8.3372  10.4141  10.8573  11.5215  12.0756  12.8010  13.5028  13.9015
    14.1152  14.4006  14.4876  14.6707  14.6885  15.7729  16.4299  16.6450
    17.7435  18.4172  19.0430  21.9441  22.2245  22.8649  22.8857  24.1269
    24.4978  25.3454  25.3973  25.8310  26.9532  27.3074  27.7659  29.7324
    30.7717  32.7387  32.9861  33.3425  34.1040  34.9286  35.2494  36.3226
    36.9630  37.2184  37.9944  39.5474  39.6870  39.7820  40.2780  40.6736
    40.8562  41.5926  41.8462  42.4705  43.0495  43.7046  45.0501  45.1928
    46.1579  47.4861  47.6037  47.9509  48.3726  48.7172  48.7799  49.6046
    49.9465  50.1780  50.3081  50.5789  50.5810  50.8855  51.7586  52.9385
    54.0907  54.1216  54.4223  55.1017  55.6899  56.8488  57.1783  57.5878
    57.8216  58.1690  58.6701  58.9123  58.9651  59.3296  60.2156  60.8038
    61.4964  61.7096  62.0717  63.0619  63.5961  63.8360  64.0325  64.2882
    64.4182  64.6092  65.4470  65.9866  66.3597  66.9544  67.0480  69.0129
    69.3557  70.3436  71.2490  71.9378  72.2586  74.4047  74.8306  75.0168
    75.0901  75.5288  75.7095  76.4770  76.8402  77.0859  77.9706  78.2317
    78.5562  78.6619  79.0742  79.6248  79.7177  80.0315  80.4649  80.5349
    81.0834  81.1712  81.3492  81.9681  82.1330  82.6627  82.8478  83.6976
    84.6995  85.2903  86.4046  86.6866  86.7043  86.9562  87.6293  87.6631
    87.7220  88.2119  88.3588  88.3727  88.9334  89.0797  89.5598  89.6573
    89.8287  90.1129  90.2880  90.8596  91.4068  91.5342  91.6726  92.2254
    92.3955  92.9577  92.9763  93.4538  94.6088  94.8927  94.9865  95.5391
    95.9405  96.4560  96.6279  97.6593  97.9065  98.3981  98.7688  98.9932
    99.2373  99.3309  99.6811 100.7452 101.1156 101.2038 101.5571 101.6264
   102.2950 102.3292 102.3623 103.6006 103.7444 103.7978 104.0260 104.2677
   104.4086 104.5294 104.7469 104.7561 104.9374 105.4015 105.9159 105.9697
   106.4890 106.5171 108.0444 108.8223 109.9302 111.4093 111.8781 112.1107
   112.2963 112.6475 112.9119 112.9723 113.3120 113.6345 114.2883 114.6167
   114.9044 115.6988 115.8511 116.2984 116.5221 116.6819 116.8676 117.5513
   117.6697 118.0873 118.3552 118.4767 119.1777 119.7299 120.2980 120.3427
   120.4186 120.7583 120.9215 121.9766 122.3874 122.5697 122.7965 123.3106
   123.4060 123.8488 124.0550 124.1447 124.2320 124.4284 124.9780 125.2300
   125.4109 126.1515 126.2103 126.3641 126.9410 126.9727 127.4135 128.3763
   129.9058 130.1867 130.4612 130.5981 130.8482 131.3133 131.4531 131.6713
   132.2627 132.7417 133.0240 133.4031 133.4053 133.4773 133.6567 133.8531
   134.1032 134.1394 134.2732 134.7314 135.8503 135.9656 136.4413 136.5990
   136.8663 137.5730 137.6299 138.2924 138.6563 139.2447 139.6576 140.2266
   140.4012 140.5020 140.9768 141.4417 141.7485 141.7742 142.0040 142.2286
   142.2631 142.6874 142.7442 143.0864 143.3299 143.3520 143.3594 144.2769
   144.7593 145.0742 145.1324 145.1330 145.2615 145.6089 145.6609 146.4169
   146.7512 147.0635 147.2933 147.6232 147.6358 148.1726 148.2354 148.2692
   149.3962 149.4208 149.6827 149.9973 150.3618 150.9605 151.0747 151.2586
   151.4140 151.7198 151.7753 151.9531 151.9585 152.0297 152.5898 152.6731
   152.8999 152.9170 153.3748 153.3782 153.8506 153.9596 154.3228 155.4740
   155.4894 155.5634 155.6197 156.0133 156.8053 157.0194 157.0785 157.2699
   157.4058 157.5112 158.0612 158.2284 158.3695 158.5034 158.6736 159.0373
   159.1339 159.1697 159.4674 159.7736 160.8316 161.0630 161.1437 162.6112
   162.6474 163.1774 163.2131 164.3562 164.3824 165.9442 166.0120 166.2908
   166.4459 166.6060 166.6362 166.6673 166.6963 167.6612 167.6701 167.7861
   168.2494 168.2802 168.7884 169.5075 169.7897 169.7898 170.3601 170.4012
   170.4975 170.6128 170.9275 171.0824 171.1226 172.0467 172.0605 172.2175
   172.3800 172.4440 172.6881 173.8276 173.9291 174.3681 174.6696 174.6720
   174.7773 174.9445 175.2868 175.8003 175.9324 176.4174 176.6282 176.7616
   176.9124 176.9497 177.4322 177.7905 177.9755 178.0317 178.2873 179.3192
   179.3325 179.4080 181.4211 181.7426 182.6530 182.6699 182.7197 184.0917
   184.1900 184.3527 184.5397 184.7715 184.8081 184.8391 185.2240 185.2642
   185.3058 185.3534 185.6230 186.1145 186.1863 186.2259 186.6183 186.8352
   186.8456 187.4306 187.8874 188.4623 188.6008 188.6832 188.8712 189.3438
   189.8475 189.9857 190.1806 190.6039 190.7613 190.9111 190.9409 192.2563
   192.3904 192.5764 192.6803 192.9044 192.9998 193.3401 193.4609 193.5509
   193.5988 194.2707 194.7256 195.3878 195.7611 195.9278 196.2053 196.3213
   196.4652 196.8317 196.9321 197.0178 197.1374 197.3264 197.5764 197.7951
   197.8144 198.2518 198.4153 198.4213 198.8487 199.3403 199.5847 199.6065
   199.8075 200.0965 200.5172 200.5501 200.6868 201.7722 201.9267 202.5305
   202.5467 203.8479 203.8506 204.9392 205.1322 205.2877 205.6277 205.8393
   206.0468 206.3263 206.4088 207.5704 207.7360 207.7989 208.1128 208.5240
   208.5281 208.7485 209.0525 209.1889 209.2600 210.0622 210.1582 210.5380
   210.5674 210.5816 210.8836 211.1110 211.4554 211.7064 211.7525 211.7888
   211.8678 212.6060 212.7988 213.2231 213.4722 213.4784 214.0177 214.4596
   214.7164 214.8271 214.8417 214.9883 215.1854 215.8032 215.8498 216.5843
   216.8429 217.0812 217.1475 217.2878 218.0471 218.2599 218.8566 218.8692
   218.8808 219.0736 219.3383 219.8028 219.8948 219.9089 220.1049 220.1752
   220.2424 220.4520 220.5819 220.6933 220.7202 220.8540 220.8824 221.1610
   221.4822 221.6016 222.0119 222.0894 222.2803 222.8170 223.0904 223.1415
   223.2904 223.5206 223.5258 223.7415 223.8309 224.3861 224.9541 225.5929
   225.8029 225.8190 225.9360 226.1614 226.3249 227.0260 227.1198 227.1226
   227.1682 227.5559 227.6781 227.7446 227.9590 228.3612 228.4070 228.6615
   228.8913 228.9720 229.1700 229.4240 229.8869 229.9249 230.3307 230.6880
   230.9224 231.1592 231.2715 231.9436 232.3409 232.5017 232.8416 233.0758
   233.1878 233.6255 234.1655 234.2240 234.4196 234.5067 235.7487 235.8831
   236.5953 236.6996 236.7767 236.8886 237.4086 237.6253 237.7472 238.3956
   238.5179 238.5623 238.5806 238.7414 238.7818 238.8932 239.0430 239.1611
   239.1857 239.2106 239.3286 239.3862 239.6324 239.9393 240.0555 240.2373
   240.7015 240.8324 240.8386 241.3935 241.4994 242.2634 242.4150 242.5134
   242.9662 243.3820 243.8026 243.8412 244.0465 244.4027 244.5758 244.5817
   245.0058 245.0349 245.2075 245.6378 246.2553 246.4590 246.7163 246.7623
   246.9105 247.5538 247.8581 248.7072 249.2632 249.2979 249.3239 249.4497
   249.9107 250.0314 250.0691 250.0946 250.4327 250.5858 250.7326 250.8831
   251.6044 251.6134 252.2582 252.3207 252.6040 253.0195 253.1442 253.2123
   253.4669 254.3788 254.4320 254.5619 254.7159 254.8812 254.9645 256.5761
   256.7140 257.1332 257.1670 257.1953 257.2407 257.2603 257.4777 257.5683
   257.6106 258.1315 258.5002 258.8690 259.0482 259.5241 259.6125 259.6379
   259.9665 260.0984 260.3700 260.4063 260.4896 260.8982 261.3547 261.5710
   261.7535 261.8022 262.1587 262.3595 262.5903 262.7706 263.1086 263.9202
   264.1369 264.9317 265.0051 265.0625 265.7357 265.8912 266.3298 266.9920
   267.8163 267.9669 268.1564 269.0774 269.0856 269.4087 269.5335 269.7462
   270.4038 270.7035 270.7614 271.5234 272.0960 272.3710 272.5213 273.1313
   273.2868 273.3815 273.8944 273.9009 274.0985 274.1678 274.3033 274.3590
   274.6839 274.7454 274.8558 275.0088 275.1612 275.6043 275.7631 275.9564
   276.0421 276.1642 276.1864 276.3748 276.7060 276.8935 277.1329 277.2016
   277.3054 277.3557 277.4388 277.6507 277.6813 278.0649 278.1559 278.5135
   278.5627 279.1779 279.4502 279.5889 279.6614 279.8053 279.8535 280.5720
   280.5980 280.6454 280.9630 281.0747 281.4958 281.6039 281.6641 281.8987
   282.2530 282.2934 282.3838 282.4096 282.4751 282.8921 283.2306 283.4361
   283.9104 284.0024 284.0941 284.1298 284.3138 284.4404 284.5758 284.8161
   285.3290 285.7494 285.8641 286.9790 287.4247 287.7763 287.9587 288.0979
   288.3811 288.5538 289.1539 289.3006 289.3115 289.4035 289.7071 289.9253
   289.9459 290.0171 290.8412 290.8812 291.2235 291.2937 291.4547 291.7386
   291.8752 292.0654 292.1184 292.1562 292.2219 292.3737 292.4163 292.4307
   292.4666 292.6083 292.6123 292.7460 292.7486 292.9212 293.0704 293.1913
   293.3398 293.3413 293.3489 293.4420 293.6167 293.7650 293.9632 294.3313
   294.6519 294.8781 294.9783 295.0514 295.0931 295.4663 296.1370 296.6980
   297.0331 297.4803 297.5558 298.3106 298.3400 298.4697 298.8733 298.9308
   299.9140 300.0606 300.5556 301.4520 301.5100 301.5790 301.6349 302.0785
   302.5796 302.5921 302.7872 302.9368 303.7205 303.7739 304.2136 304.2729
   304.2956 304.3179 304.4470 304.5009 304.8407 304.8638 304.8774 305.2979
   305.3556 305.5522 305.7045 305.8631 306.0186 306.0406 306.1026 306.7049
   306.7223 306.8643 307.4932 307.7132 307.7473 308.0366 308.1294 308.1395
   308.2508 308.2693 308.3137 308.6518 308.8418 309.1505 309.1954 309.2541
   309.8439 309.8850 310.5357 310.6134 310.7764 310.7983 310.9613 311.0851
   311.7366 311.9755 312.1547 312.3449 312.7634 313.2776 313.2986 313.9842
   314.1681 314.7326 314.7492 314.8989 315.0199 315.1137 315.1930 315.2500
   315.2878 315.6313 315.7435 315.9921 316.0456 316.1088 316.9852 317.0272
   317.4667 317.8054 317.8498 318.2529 318.2767 318.6019 318.6262 318.6597
   318.8813 319.4786 319.7114 319.7716 320.2314 320.4124 320.5907 320.6754
   320.7825 320.8749 320.9994 321.0955 321.2311 321.3008 321.3351 321.3585
   321.4894 321.5438 321.8862 321.8904 321.9057 322.0083 322.2836 323.6216
   324.1605 324.1795 324.2183 324.5863 325.4089 326.0928 326.4090 326.7393
   327.2138 327.3499 327.3888 327.6367 327.8734 328.0093 328.1411 328.2308
   328.4602 328.5012 328.6361 328.7495 328.9466 329.0565 329.1345 329.3377
   329.3488 329.5478 329.8231 329.9448 330.6186 330.8385 331.5142 331.5154
   331.5725 331.7209 331.8337 331.8351 331.8369 331.8639 332.0923 332.4685
   332.5072 332.9550 332.9715 333.3793 333.3867 333.4824 333.5290 333.5731
   333.5874 333.5910 334.1481 334.2479 334.5205 334.7369 334.8023 334.8306
   334.8459 335.1668 335.5904 336.2998 337.5967 337.9851 338.0906 338.6106
   338.6904 338.7526 338.8505 338.9907 339.1307 339.2247 339.2467 339.4186
   339.4547 339.7050 339.7231 339.9554 339.9581 339.9817 340.3181 340.6155
   340.8614 340.8997 341.1331 341.4451 341.8491 341.8696 342.2356 343.0753
   343.6909 343.7836 344.6893 344.6994 344.9803 345.5150 345.7109 345.7144
   345.7235 345.8486 345.9834 346.0631 346.8667 347.1560 347.1829 347.3460
   347.3751 347.6449 347.6881 347.7179 348.1159 348.1760 348.2583 348.6230
   348.7358 348.9063 349.0738 349.2377 349.8525 349.9078 350.1493 350.6099
   350.9426 351.0790 351.2215 351.2402 351.4054 351.4479 351.4880 351.4923
   351.6686 351.6948 351.7281 351.8454 351.9960 353.0496 353.0522 353.5071
   354.3090 354.6913 354.7185 355.4159 355.4203 355.6802 355.8212 355.8600
   356.1091 356.3224 356.3498 356.4442 356.7930 356.8283 356.9424 357.1520
   357.3249 357.5414 357.7101 358.1554 358.2251 358.2548 358.5420 358.5517
   359.1309 359.3397 359.5232 359.5990 359.6472 359.9748 360.1448 360.4729
   360.4739 360.5447 361.0216 361.4388 361.4987 361.9462 361.9563 362.5001
   362.7610 362.9355 363.0261 363.5202 363.7400 364.0677 364.5513 365.0704

     the Fermi energy is     6.0208 ev
     (compare with:     5.7738 eV, computed in scf)

     Writing all to output data dir out/mp-1253.save/
 
     init_run     :      0.03s CPU      0.06s WALL (       1 calls)
     electrons    :    658.20s CPU    698.91s WALL (       1 calls)

     Called by init_run:
     wfcinit      :      0.00s CPU      0.00s WALL (       1 calls)
     potinit      :      0.01s CPU      0.01s WALL (       1 calls)
     hinit0       :      0.01s CPU      0.03s WALL (       1 calls)

     Called by electrons:
     c_bands      :    658.19s CPU    698.89s WALL (       1 calls)
     v_of_rho     :      0.00s CPU      0.00s WALL (       1 calls)

     Called by c_bands:
     init_us_2    :      0.00s CPU      0.00s WALL (       8 calls)
     init_us_2:cp :      0.00s CPU      0.00s WALL (       8 calls)
     cegterg      :    636.12s CPU    675.22s WALL (       8 calls)

     Called by *egterg:
     cdiaghg      :    594.26s CPU    632.11s WALL (     101 calls)
     h_psi        :     12.43s CPU     12.90s WALL (     109 calls)
     g_psi        :      0.08s CPU      0.08s WALL (      93 calls)

     Called by h_psi:
     h_psi:calbec :      0.30s CPU      0.32s WALL (     109 calls)
     vloc_psi     :     11.71s CPU     12.16s WALL (     109 calls)
     add_vuspsi   :      0.25s CPU      0.25s WALL (     109 calls)

     General routines
     calbec       :      0.30s CPU      0.32s WALL (     109 calls)
     fft          :      0.00s CPU      0.02s WALL (      10 calls)
     fftw         :     10.70s CPU     11.12s WALL (  120668 calls)
 
     Parallel routines
 
     PWSCF        :  10m58.91s CPU  11m40.08s WALL

 
   This run was terminated on:  17:35:40  14Dec2023            

=------------------------------------------------------------------------------=
   JOB DONE.
=------------------------------------------------------------------------------=
