
     Program PWSCF v.7.1 starts on 14Dec2023 at  6:49:41 

     This program is part of the open-source Quantum ESPRESSO suite
     for quantum simulation of materials; please cite
         "P. Giannozzi et al., J. Phys.:Condens. Matter 21 395502 (2009);
         "P. Giannozzi et al., J. Phys.:Condens. Matter 29 465901 (2017);
         "P. Giannozzi et al., J. Chem. Phys. 152 154105 (2020);
          URL http://www.quantum-espresso.org", 
     in publications or presentations arising from this work. More details at
     http://www.quantum-espresso.org/quote

     Parallel version (MPI), running on     8 processors

     MPI processes distributed on     1 nodes
     122782 MiB available memory on the printing compute node when the environment starts
 
     Reading input from pw_mp-1253_nscf_k10_E53.in
Warning: card &IONS ignored
Warning: card / ignored
Warning: card &CELL ignored
Warning: card / ignored

     Current dimensions of program PWSCF are:
     Max number of different atomic species (ntypx) = 10
     Max number of k-points (npk) =  40000
     Max angular momentum in pseudopotentials (lmaxx) =  4

     Atomic positions and unit cell read from directory:
     out/mp-1253.save/
     Atomic positions from file used, from input discarded
 
 
     R & G space division:  proc/nbgrp/npool/nimage =       8
     Subspace diagonalization in iterative solution of the eigenvalue problem:
     one sub-group per band group will be used
     scalapack distributed-memory algorithm (size of sub-group:  2*  2 procs)

 
     Parallelization info
     --------------------
     sticks:   dense  smooth     PW     G-vecs:    dense   smooth      PW
     Min         144     144     40                 3276     3276     492
     Max         145     145     43                 3280     3280     494
     Sum        1159    1159    337                26229    26229    3943
 
     Using Slab Decomposition
 


     bravais-lattice index     =            2
     lattice parameter (alat)  =      12.5993  a.u.
     unit-cell volume          =     500.0063 (a.u.)^3
     number of atoms/cell      =            2
     number of atomic types    =            2
     number of electrons       =        16.00
     number of Kohn-Sham states=         1200
     kinetic-energy cutoff     =      53.0000  Ry
     charge density cutoff     =     212.0000  Ry
     Exchange-correlation= PBE
                           (   1   4   3   4   0   0   0)

     celldm(1)=  12.599264  celldm(2)=   0.000000  celldm(3)=   0.000000
     celldm(4)=   0.000000  celldm(5)=   0.000000  celldm(6)=   0.000000

     crystal axes: (cart. coord. in units of alat)
               a(1) = (  -0.500000   0.000000   0.500000 )  
               a(2) = (   0.000000   0.500000   0.500000 )  
               a(3) = (  -0.500000   0.500000   0.000000 )  

     reciprocal axes: (cart. coord. in units 2 pi/alat)
               b(1) = ( -1.000000 -1.000000  1.000000 )  
               b(2) = (  1.000000  1.000000  1.000000 )  
               b(3) = ( -1.000000  1.000000 -1.000000 )  


     PseudoPot. # 1 for Ba read from file:
     /usr/scratch4/magr4985/MG/HTDF/pseudo/SG15/Ba.upf
     MD5 check sum: ac4691792522964bb0504809e83fae44
     Pseudo is Norm-conserving, Zval = 10.0
     Generated using ONCVPSP code by D. R. Hamann
     Using radial grid of  602 points,  8 beta functions with: 
                l(1) =   0
                l(2) =   0
                l(3) =   1
                l(4) =   1
                l(5) =   2
                l(6) =   2
                l(7) =   3
                l(8) =   3

     PseudoPot. # 2 for Se read from file:
     /usr/scratch4/magr4985/MG/HTDF/pseudo/SG15/Se.upf
     MD5 check sum: e78e48a4f5d8ce1f8dc76ec1271f249c
     Pseudo is Norm-conserving, Zval =  6.0
     Generated using ONCVPSP code by D. R. Hamann
     Using radial grid of  602 points,  6 beta functions with: 
                l(1) =   0
                l(2) =   0
                l(3) =   1
                l(4) =   1
                l(5) =   2
                l(6) =   2

     atomic species   valence    mass     pseudopotential
        Ba            10.00   137.32700     Ba( 1.00)
        Se             6.00    78.96000     Se( 1.00)

     48 Sym. Ops., with inversion, found



   Cartesian axes

     site n.     atom                  positions (alat units)
         1           Ba  tau(   1) = (   0.0000000   0.0000000   0.0000000  )
         2           Se  tau(   2) = (  -0.5000000   0.5000000   0.5000000  )

     number of k points=     3  Gaussian smearing, width (Ry)=  0.0005
                       cart. coord. in units 2pi/alat
        k(    1) = (   0.0000000   0.0000000   0.0000000), wk =   0.2500000
        k(    2) = (   0.5000000  -0.5000000   0.5000000), wk =   1.0000000
        k(    3) = (   0.0000000  -1.0000000   0.0000000), wk =   0.7500000

     Dense  grid:    26229 G-vectors     FFT dimensions: (  45,  45,  45)

     Estimated max dynamical RAM per process >     133.73 MB

     Estimated total dynamical RAM >       1.04 GB

     The potential is recalculated from file :
     out/mp-1253.save/charge-density

     Starting wfcs are random

     Band Structure Calculation
     Davidson diagonalization with overlap

     ethr =  5.00E-06,  avg # of iterations = 12.0

     total cpu time spent up to now is      412.7 secs

     End of band structure calculation

          k = 0.0000 0.0000 0.0000 (  3287 PWs)   bands (ev):

   -21.1027  -6.2139  -6.2139  -6.2139  -5.4423   5.3178   5.3178   5.3178
     8.3008   8.9218   8.9218   8.9218   9.7263   9.7263  12.3110  14.6910
    14.6910  14.6910  14.8870  14.8870  14.8870  16.6549  19.2984  19.2984
    19.2984  20.9974  20.9974  20.9974  22.9828  22.9828  25.0112  25.4841
    25.4841  25.4841  26.9554  26.9554  27.5916  27.5916  27.5916  30.5719
    30.5719  30.5719  33.2889  35.6734  35.6734  35.6734  36.3136  36.3136
    36.3136  36.4148  36.4148  36.4148  37.3487  37.3487  37.3487  37.9947
    38.4497  39.1810  39.1810  39.1810  39.5341  39.5341  39.5341  40.0086
    40.0086  40.9901  45.2132  45.2132  48.5596  48.5596  48.5596  52.7662
    55.4238  55.4238  55.4238  56.5265  56.5265  57.8129  57.8129  57.8129
    58.5925  58.5925  58.5925  59.9147  59.9147  59.9147  61.0345  62.0078
    62.0078  62.0078  62.4282  62.4282  62.4282  62.6245  62.6245  62.6245
    62.7821  62.7821  62.7821  62.7910  62.7910  63.4014  64.5514  64.5514
    64.5514  64.6552  64.6552  64.6552  65.3468  65.3468  65.5794  65.5794
    65.5794  65.9937  65.9937  66.9694  66.9694  66.9694  68.0118  70.5744
    73.9243  74.5065  74.5065  74.5065  76.9051  76.9051  77.0094  77.0094
    77.0094  78.6150  78.6150  79.1863  79.1863  79.1863  79.3420  79.3420
    79.3420  80.0223  80.0223  80.0223  80.2419  80.2419  80.2419  80.5839
    80.5839  80.9475  80.9475  80.9475  83.8270  85.2361  86.5715  86.5715
    86.5715  86.9913  86.9913  86.9913  87.2513  87.3136  87.3136  87.3136
    88.2206  88.2206  88.2206  88.3261  88.3261  88.3261  89.0049  89.0049
    89.0049  93.1120  93.1120  93.2370  93.2370  93.2370  93.4667  94.7399
   100.2305 100.2305 102.0356 102.0356 102.0356 102.3000 102.3000 102.3000
   104.3283 104.3283 104.3283 105.9879 107.5760 107.5760 107.9891 107.9891
   107.9891 108.1774 108.1774 108.1774 110.0190 110.0190 110.0190 110.5483
   110.5483 110.5483 112.0074 112.0074 112.3618 112.9226 112.9226 113.0567
   113.0567 113.0567 113.2229 113.2229 113.2229 113.2719 113.4546 113.4546
   113.4546 114.0843 114.9758 114.9758 115.3710 115.3710 115.3710 115.5107
   115.5107 115.5107 116.4378 116.4378 116.4378 116.4402 116.7224 116.7224
   116.7224 118.7038 118.7038 118.7038 118.7434 118.7434 118.7434 118.9564
   118.9564 119.3720 119.3720 119.3720 119.8388 119.8388 119.8388 120.1966
   120.1966 120.1966 120.3002 120.3002 120.3002 120.3207 120.3207 120.3270
   120.3270 120.5191 120.5572 120.5572 120.5572 120.6121 120.6121 120.6121
   121.4176 123.3312 126.6191 126.6191 126.6191 127.8803 127.8803 127.8803
   128.5575 128.5575 128.5575 128.7919 128.7919 128.7919 129.6326 129.6326
   130.4223 131.8221 131.8221 131.8221 133.7788 133.7788 133.8418 133.8883
   133.8883 133.8883 136.4969 137.5064 137.5064 137.5064 137.8936 139.7783
   139.7783 139.7783 141.7817 141.7817 141.9925 141.9925 141.9925 142.3062
   142.3062 142.3062 143.2088 143.2088 143.2586 143.2586 143.2586 143.3801
   143.3801 143.3801 144.2820 144.5701 144.5701 144.5701 144.8803 144.8803
   145.5757 145.6264 145.6264 145.6264 145.7114 145.7114 145.7114 145.7537
   145.7537 145.7537 145.9206 145.9206 145.9206 146.5656 146.5656 147.6549
   147.6549 147.6549 148.2531 153.3016 153.3016 155.4071 155.4071 155.4071
   155.6040 156.7614 156.7614 156.7614 158.3758 159.1605 159.1605 159.1605
   159.8616 160.1212 160.1212 161.4895 161.4895 161.4895 161.8330 161.8330
   161.8330 162.1982 162.1982 162.1982 163.9796 164.9188 164.9188 164.9188
   165.0432 165.0432 165.7326 165.7326 165.7326 166.5724 166.5724 166.5724
   167.2709 167.2709 167.2709 168.3214 168.3214 168.3214 168.3751 168.3751
   168.3751 170.7649 170.7649 170.7649 171.0530 171.0530 171.0530 171.0766
   171.0766 171.0766 171.1544 171.1544 171.2012 171.2012 171.2012 171.2858
   171.2858 171.2858 171.4794 171.5033 171.5033 172.2812 172.7980 172.7980
   172.7980 173.3504 173.3504 173.3504 174.2191 174.2191 174.2526 174.2526
   174.2526 174.3319 180.0038 180.0038 180.0038 181.4248 181.8319 181.8451
   181.8451 181.8472 181.8472 181.8472 182.1879 182.1879 182.1879 183.5981
   183.5981 183.5981 183.6626 183.6626 183.6626 183.9016 184.4347 184.4347
   184.8876 184.8876 184.8876 186.7280 186.7280 186.7280 186.9341 186.9341
   187.0163 187.0163 187.0621 187.0621 187.0621 187.2002 187.2002 187.2002
   187.3427 187.3427 187.3427 187.5214 187.5214 187.5214 187.7767 187.7767
   187.7767 187.8458 187.8458 188.2576 188.2576 188.2576 188.8510 189.0035
   189.0035 189.0035 189.0128 189.2266 189.2266 189.2266 190.0508 190.0508
   190.0508 190.1209 190.1209 190.1209 190.9800 191.4734 191.4734 191.4734
   191.5789 191.5789 191.5789 191.7024 191.7024 192.2863 194.9526 194.9526
   194.9526 195.1891 195.1891 195.9431 195.9431 195.9431 196.1839 196.6241
   196.6241 196.6241 196.7240 196.7240 196.7240 197.3203 197.3203 197.6242
   197.7586 197.7586 197.7586 197.8746 197.9034 197.9034 197.9034 197.9470
   197.9470 199.5020 199.5020 199.5020 199.5556 199.5556 199.6151 199.6151
   199.6151 199.7865 199.7865 199.7865 199.9058 199.9058 199.9058 200.9661
   201.0347 201.0347 201.0347 201.0595 201.0595 205.7818 205.7818 205.7818
   217.0318 217.4291 217.4291 217.4291 218.3330 218.3330 218.3330 219.9611
   220.2049 220.2049 220.2049 220.5732 220.5732 220.5732 220.6212 220.6212
   220.6212 220.6442 220.6442 220.6442 220.7034 221.1310 221.1310 221.1310
   221.2213 221.2213 221.2213 221.2734 221.2734 221.3568 221.3568 221.3568
   221.3629 221.3629 221.4057 221.4057 221.4057 221.7286 221.7286 221.8835
   221.8835 221.8835 222.3784 223.7987 223.7987 223.7987 226.8302 226.8302
   226.9870 226.9870 226.9870 227.1044 227.1044 227.1660 227.1660 227.1660
   227.3045 227.3045 227.3045 227.3633 227.3633 227.3633 228.0694 228.0694
   228.0694 228.1069 228.1069 228.3115 228.3976 228.3976 228.3976 229.7369
   232.5968 232.5968 232.6857 232.6857 232.6857 232.9900 233.6508 233.6508
   233.6508 236.1196 236.1196 236.1196 237.0719 237.0719 237.0719 237.1220
   237.1220 237.1220 237.1270 237.3130 237.3130 238.5121 238.5121 238.5121
   238.5938 238.6014 238.6014 239.4869 239.4869 239.4869 239.8525 239.8525
   239.8525 240.3617 240.3617 240.3617 240.4895 240.4895 240.4895 240.5872
   240.5872 240.9975 240.9975 240.9975 241.1526 245.7549 245.7549 245.7549
   245.9827 245.9827 246.0530 246.0530 246.0530 246.2155 246.2155 246.2155
   246.4140 246.5731 246.5731 246.5731 247.4855 248.5204 248.8245 248.8245
   248.8245 249.1865 249.1865 249.1865 249.2639 249.2639 249.2663 249.2663
   249.2663 249.9446 249.9446 249.9446 250.4183 250.4183 250.4183 252.5839
   252.6307 252.6957 252.6957 252.6957 252.8367 252.8367 253.1881 253.1881
   253.1881 253.1922 253.1922 253.1922 253.3348 253.3348 253.3419 253.3419
   253.3419 253.3570 253.3570 253.3570 254.0221 254.0221 254.0221 254.0695
   254.0695 254.0726 254.0726 254.0726 254.1785 254.1785 254.1785 254.2075
   255.0271 255.0271 255.7089 257.3482 257.3482 257.3482 258.3520 258.4772
   258.4772 258.4772 262.2125 262.2125 262.2754 262.2754 262.2754 262.9045
   262.9045 262.9045 262.9246 263.0541 263.0541 263.0541 263.0562 263.0562
   263.0562 263.1177 263.3525 263.3525 266.4009 266.4009 266.4009 267.4443
   267.4443 267.4443 270.0437 270.0437 270.0437 270.7012 272.1911 272.1911
   272.1911 272.5458 272.5458 272.5458 272.6740 272.6740 272.6740 272.7667
   272.8840 272.8840 273.0384 273.0384 274.8984 274.8984 274.8984 275.0605
   275.0605 275.0605 275.1431 275.1431 275.1431 275.1496 275.1496 275.1496
   275.2234 275.2234 275.2234 275.6990 275.6990 275.6990 276.1521 276.1521
   276.5009 276.5009 276.5009 276.5880 276.5880 276.5880 277.1652 277.1652
   277.1652 277.6575 277.6575 277.6575 277.7437 277.7437 277.9009 278.0768
   278.0768 278.0768 278.3426 278.3426 278.4438 278.4438 278.4438 278.6793
   278.6793 278.6793 278.7457 278.7457 278.7457 278.9851 278.9851 279.5404
   279.7358 279.7358 279.7358 279.8061 279.8061 279.8061 279.9338 281.9004
   281.9004 281.9004 282.0450 282.0450 282.1586 282.1586 282.1586 282.2121
   282.2121 282.2121 282.3741 282.3741 282.3741 282.4030 282.4725 282.4725
   282.4725 282.4784 282.4955 282.4955 282.6756 282.6756 282.7156 282.7156
   282.7156 282.8539 282.8857 282.8857 282.8857 283.0060 283.9672 283.9672
   283.9672 286.4410 286.4410 286.4410 286.5086 287.5816 287.5816 287.5816
   290.1627 290.1627 290.1627 293.9136 293.9136 294.5966 294.5966 294.5966
   294.6243 294.6243 294.6243 294.6558 294.6882 294.6882 294.6882 294.8573
   294.8573 294.8573 294.9042 294.9042 295.0374 295.0374 295.7023 295.7023
   295.7023 296.3930 296.3930 296.3930 296.3931 296.3931 296.3931 299.3370
   299.3370 299.3370 299.7429 299.7429 299.7868 299.9051 303.0683 303.0683
   303.0683 303.3032 303.3032 303.3032 304.4625 304.4625 304.4625 304.4635
   304.4635 306.9669 307.6041 307.6041 307.6041 307.6220 307.6220 307.6220
   307.6324 307.6324 307.6324 307.7245 307.7245 307.7245 309.1620 309.1620
   309.1635 309.1635 309.1635 309.1823 317.0774 317.1173 317.1173 317.6541
   317.6541 317.6541 318.1370 318.1370 318.1370 318.9178 318.9178 318.9178
   318.9959 318.9959 318.9959 319.0475 319.0475 319.0475 319.0868 319.0868
   319.2495 319.4219 319.4474 319.4474 319.4474 319.5825 319.5825 319.5825
   319.6192 319.6192 320.0298 320.3340 320.3340 321.0162 321.0162 321.0162
   321.6678 321.6678 321.6678 321.9327 321.9327 321.9327 322.3488 323.8268
   323.8268 323.8268 324.2936 324.2936 324.8096 324.8096 324.8096 325.1402
   325.1402 325.1402 327.1310 328.1561 328.1561 328.1561 328.4034 328.4034
   328.4034 328.5033 328.5033 328.5033 328.7440 328.7440 329.2440 329.2440
   329.2440 329.3012 329.3012 330.1039 330.3503 330.3503 330.3503 330.5786
   330.5786 330.5786 330.6090 332.0708 332.0708 332.0708 332.3675 332.3675
   332.3675 332.3735 332.3735 332.6256 332.6256 332.6256 332.6769 332.6769
   332.6769 332.7199 332.7199 332.7230 332.7230 332.7230 332.8376 332.8376
   332.8376 332.8668 333.0425 333.0588 333.0588 333.0588 333.2515 333.2515
   333.6275 333.6275 333.6275 333.6307 333.6307 333.6431 333.6431 333.6431
   333.6577 333.6577 333.6577 338.1574 339.5913 339.5913 339.5913 339.6308
   339.6308 339.6308 342.0907 342.0907 342.0907 342.2102 342.2102 342.2102
   343.0149 343.0149 343.0149 343.7151 343.7151 343.7151 343.7257 343.7257
   343.7931 343.9113 343.9113 343.9327 343.9327 343.9327 343.9617 343.9617
   343.9617 344.4880 344.4880 344.4880 346.1124 346.1124 346.1124 346.4332
   346.5832 346.5832 346.5835 346.5835 346.5835 347.9250 347.9250 347.9250
   348.0002 348.0002 348.0002 348.9639 348.9639 348.9639 348.9743 348.9743
   348.9743 348.9858 348.9858 349.0316 349.0316 349.0316 349.0931 349.1238
   349.2826 349.2826 349.2826 349.3981 349.3981 349.4675 349.4675 349.4675
   350.1795 350.1795 350.2769 350.2769 350.2769 350.3436 350.3436 350.3436
   350.3481 350.4164 350.4164 350.5177 350.5177 350.5177 350.6401 350.9857
   350.9857 350.9857 351.1683 351.1683 351.1683 351.1968 351.1968 351.2634
   351.2634 351.2634 351.3787 352.0079 355.5186 355.5186 355.5186 355.6426
   355.6426 355.6426 356.1688 356.1688 356.2061 356.2061 356.2061 356.2713
   357.2369 357.2369 357.2369 357.4247 357.4974 357.4974 357.4974 357.5532
   357.5532 357.5532 357.6219 357.6219 357.6593 357.6593 357.6593 358.4513
   358.5214 358.5214 358.5214 360.0687 360.1922 360.1922 360.1965 360.1965

          k = 0.5000-0.5000 0.5000 (  3274 PWs)   bands (ev):

   -21.0772  -7.0874  -6.2376  -6.2376  -4.4458   3.3799   4.3221   4.3221
    10.2176  10.6108  11.0750  11.0750  12.7018  12.7018  13.5789  13.5789
    14.1808  14.1808  14.4513  14.5916  14.7270  15.1113  15.9279  15.9279
    18.5729  18.6142  18.6142  19.7606  22.9294  23.1416  23.1416  24.9620
    26.0338  26.0338  26.7259  26.7259  28.0026  28.0026  28.3712  28.9934
    30.2982  33.0758  33.0758  34.4816  34.4816  34.5787  34.6704  34.8208
    34.8208  37.1094  37.1230  37.1230  37.1865  39.0112  39.0112  40.1367
    40.8094  40.8094  42.6087  44.4760  44.4760  44.6431  45.4262  46.0713
    46.0713  46.7277  46.7277  47.3845  47.4260  47.7306  47.7306  48.2342
    48.2342  48.3945  48.3945  48.9820  49.8948  52.1681  53.7192  55.2932
    55.2932  56.2766  56.2766  56.6142  56.6142  58.3128  58.5873  58.5873
    59.2776  59.2776  59.6502  60.1010  60.1010  60.1180  60.1202  60.2035
    61.2032  61.2032  62.1550  63.1449  63.1449  65.0449  65.6727  65.6727
    66.4074  67.3205  67.3205  68.3353  68.7280  68.8463  68.8463  69.2276
    69.2276  70.0624  70.1744  71.4493  71.4493  71.4499  72.5519  73.1131
    73.1131  73.1163  73.1163  73.9061  73.9061  74.2027  74.3884  76.7530
    76.7530  79.2441  79.2441  79.4550  79.8714  79.8714  80.5010  80.8700
    80.9566  80.9566  81.2800  81.4311  81.4311  81.9458  81.9458  82.0008
    82.6596  83.8207  83.8207  84.4359  84.7849  84.7849  86.0902  86.0902
    86.5143  87.0612  87.0612  87.8953  88.1774  88.6733  88.7620  88.7620
    89.1160  89.1160  89.4839  91.8508  93.1054  93.1054  94.1426  94.1426
    94.5588  94.6445  94.6445  95.3982  95.4803  95.4803  95.6640  95.7525
    95.7525  96.2991  96.5549  96.5549  99.1646 100.6015 100.6015 100.8134
   100.8134 100.9235 102.3804 102.5156 102.5156 103.0331 104.1937 104.1937
   104.5886 105.0058 105.4276 105.5076 105.5076 105.6921 105.6921 105.9092
   106.0911 106.0911 106.2028 106.3495 106.3495 107.0741 107.2795 107.2795
   107.3398 107.7438 107.7438 108.9163 108.9163 108.9801 108.9801 111.4660
   111.7347 112.5541 112.5541 113.5692 113.7037 113.7037 114.4094 114.7340
   114.7340 114.8603 115.1273 115.4268 115.4268 115.8041 115.9042 115.9042
   116.3230 116.3230 117.0421 118.3591 118.5410 118.5410 118.5746 118.5746
   119.1643 119.9434 119.9434 120.2641 120.2641 120.6722 120.7384 121.5683
   121.5731 123.9551 124.9048 124.9048 125.7831 125.7831 127.0987 127.1239
   127.3761 127.3761 127.8021 127.8021 127.9031 127.9031 128.1175 128.5947
   128.5947 128.8124 129.1269 129.4210 129.4210 129.4223 129.5276 129.6672
   129.6672 129.8917 129.8917 130.4441 132.0824 132.1773 132.1773 133.0032
   133.2209 134.0425 134.0425 134.1891 134.1891 134.6105 134.6105 136.9969
   136.9969 137.2111 138.8451 139.6011 139.6011 140.1828 140.3788 140.3908
   140.7655 140.7655 141.0321 141.0321 141.2968 141.3307 141.3307 141.4673
   141.8578 141.8578 141.9384 141.9384 142.0405 144.3325 144.6666 145.0298
   145.2921 145.2921 145.3948 145.3948 145.9208 145.9278 145.9278 146.0290
   146.0290 146.1486 146.2893 146.6273 146.6273 146.8702 147.2276 147.2276
   147.5596 147.5596 147.6505 147.8257 147.8257 150.0373 150.0373 150.0761
   150.1037 150.1037 151.1874 151.4472 151.4494 154.2771 154.2771 155.4258
   155.4814 155.6546 155.6546 155.7225 155.7225 155.8220 155.8220 156.5880
   157.4561 157.4561 157.5507 157.9666 157.9666 159.0440 159.1292 159.1292
   159.1698 159.1698 159.2583 159.3030 159.4247 159.8260 159.8260 160.3295
   160.6696 160.6696 160.9494 160.9494 160.9689 162.2782 162.2782 162.3960
   162.3960 162.4342 163.5451 163.7261 163.7261 163.7265 164.3298 164.3298
   165.4088 165.4088 166.9949 167.2145 167.7639 167.7639 168.2722 168.2722
   168.4181 168.5034 168.5034 168.8572 169.3214 169.3214 170.2874 172.0004
   172.5265 172.6846 172.6846 172.7173 172.7173 173.1388 173.4854 173.8172
   173.9151 173.9151 174.1565 174.1565 175.1407 175.6729 175.6989 175.6989
   175.7492 175.7492 175.7775 176.0840 176.0840 176.3753 176.3753 176.7818
   176.9743 176.9743 177.0500 177.4968 178.6977 178.6977 178.9504 179.5725
   179.5725 179.9124 179.9124 180.2588 180.2882 180.2882 180.8821 181.6487
   182.1043 182.1043 182.6461 182.6461 182.8916 182.8916 183.6102 184.8732
   184.8732 185.1175 186.4696 186.5210 186.5210 186.8504 186.8504 187.3978
   187.5289 187.5289 188.4199 188.8687 188.8687 189.0885 189.3752 189.3752
   189.9339 190.8475 190.9952 190.9952 191.3287 191.3287 191.3960 191.4940
   191.5613 191.5613 191.9020 192.1265 192.1265 192.5192 192.7933 192.7933
   193.8248 193.8248 194.5162 194.7515 195.0028 195.0028 195.4248 196.7787
   197.2915 197.2915 197.6623 198.2209 198.2209 199.5070 199.6509 199.9082
   199.9082 200.4656 200.4974 200.4974 200.9281 200.9281 201.1052 201.1052
   201.2408 201.7656 201.7656 201.8093 202.0897 202.0897 202.2023 202.4656
   203.0797 203.4017 203.4017 203.6243 203.6243 203.6265 203.9879 204.0126
   204.0126 204.2714 204.2714 204.7598 205.7880 206.1491 206.1491 206.6848
   206.6848 207.0285 207.1546 207.1546 207.3015 207.6984 207.6984 208.3342
   208.3912 208.3912 208.6239 208.6239 208.7260 208.9993 209.2721 209.2721
   209.3249 209.3249 209.6846 209.8830 209.8830 210.5041 210.7866 213.8204
   214.1471 214.1471 214.7341 214.7341 214.7575 215.0571 215.2270 215.2270
   215.6111 215.6111 215.9811 215.9811 216.0383 216.2437 216.5956 216.8433
   216.8433 217.4701 217.4701 217.5469 217.6407 217.7781 217.7781 220.2312
   220.2312 220.2688 220.4365 220.9537 220.9537 221.0265 221.0697 221.0697
   222.2639 222.2639 222.5046 222.6253 222.7304 223.1533 223.1533 223.4783
   223.4783 224.4651 224.9305 224.9305 224.9494 225.0162 225.0178 225.5266
   225.5266 225.6372 225.6372 225.6732 226.0012 226.0012 226.6760 226.6760
   227.4049 227.4049 227.4882 227.7264 229.2861 229.2861 230.1874 230.1874
   230.1919 230.1919 230.5678 230.5678 231.2170 231.5750 231.8023 231.8023
   231.9525 231.9544 232.1257 232.7574 232.7574 233.5433 234.0231 234.0231
   234.2233 234.2233 235.2789 235.4263 235.5279 235.5279 236.1622 236.1622
   236.3859 236.9845 236.9845 237.0386 237.9885 237.9885 238.0378 238.0378
   238.2533 238.2639 238.7767 239.4398 241.4514 241.4514 242.3086 243.5153
   243.5153 243.6468 243.6468 244.6123 244.6123 245.0211 245.3579 245.3579
   245.6495 245.9096 245.9096 246.0005 246.1002 246.1002 246.2029 246.3914
   246.6741 246.7114 246.7114 246.8527 246.8527 246.9575 247.1397 247.1397
   247.1929 247.1929 247.2023 247.3775 247.3775 248.3530 248.3762 248.3762
   248.4204 248.4204 249.0876 249.2262 249.3593 249.3593 249.5302 249.5782
   249.5782 250.0879 250.3568 250.3568 250.4140 250.5567 250.5567 250.9026
   250.9026 251.0813 251.0813 251.2877 252.0222 252.5409 252.5409 252.6681
   252.9270 253.1194 253.1194 254.8197 254.8197 255.3716 255.3978 255.5013
   255.5013 256.1172 257.4064 257.4064 257.7577 257.7771 257.7771 258.0771
   258.7271 259.2551 259.2551 260.3059 260.3059 260.5817 260.6672 260.6672
   260.9160 260.9160 260.9887 261.0718 261.4878 261.7369 261.7369 261.9925
   262.1179 262.1179 262.5738 262.5901 262.5901 263.0700 263.0700 263.1254
   263.3942 263.3942 263.8707 263.8707 264.1645 264.2385 264.4707 264.4707
   265.9267 265.9864 265.9864 266.5226 266.8746 267.0801 267.0801 267.2362
   267.4213 267.4213 267.8651 268.3401 268.9836 268.9836 269.1920 269.1920
   269.2037 269.3453 269.7759 269.7759 270.0643 270.0643 270.0852 271.8888
   271.8888 272.5370 272.7287 272.7520 272.7520 273.2332 273.2332 274.0640
   274.1428 274.1428 274.9563 275.7446 275.8077 275.8077 276.3452 276.3452
   276.4409 276.4409 276.6275 276.7098 277.0705 277.0705 277.5560 277.6222
   277.6222 277.6740 277.6740 278.0837 278.7802 278.9050 278.9050 278.9381
   278.9381 279.0433 279.0433 279.1139 279.2655 279.2655 279.4890 279.6154
   280.0748 280.0748 280.2061 280.2061 280.5078 282.1225 282.1225 282.1299
   282.3573 282.3573 282.5469 282.6469 283.6336 283.6336 283.7264 283.7264
   283.7385 283.8637 285.4647 285.4647 286.0411 286.4482 287.8097 288.0374
   288.0374 288.3496 288.3496 288.3597 288.3597 288.4841 288.5733 288.6473
   288.6473 289.0872 289.0872 289.1010 289.1010 289.2263 289.3697 290.7593
   292.1501 292.1501 292.2737 292.2737 292.2760 292.2981 292.5968 292.5968
   292.9206 292.9206 293.5795 293.9351 293.9351 294.7027 294.7504 294.8204
   294.8204 295.0702 295.0702 295.2360 295.4472 295.4472 296.4913 296.4913
   296.8664 297.4257 297.8516 297.8516 298.4802 298.4802 298.5849 298.6509
   298.7593 298.7593 299.7534 299.8041 299.9525 299.9525 300.3926 300.4750
   300.9026 300.9026 300.9078 301.0605 301.0605 301.4252 301.4252 301.5739
   301.6896 302.7805 302.7805 303.3962 303.9526 303.9526 304.4703 304.4703
   304.4709 304.8550 304.8550 305.2231 305.2231 305.5006 305.5110 305.8333
   305.8333 306.1376 306.3005 306.3190 306.3190 306.3676 306.3676 306.5745
   306.5817 306.5817 306.5942 306.7003 306.8384 306.8384 307.1770 307.1935
   307.6327 307.6327 307.6539 307.6539 308.7656 309.7439 310.8586 310.8586
   310.8983 310.9334 310.9334 311.2382 311.2382 311.2863 311.2863 311.3647
   311.3770 311.6570 312.8340 312.8340 314.5603 315.5056 315.5056 315.7533
   315.7533 315.9740 316.8854 316.8854 316.9349 317.0432 317.0432 317.1731
   317.4873 317.4873 317.5345 317.5345 317.6714 317.6813 318.3821 318.3821
   318.4322 318.4322 318.4946 318.6720 319.4966 319.8017 319.8017 320.0938
   320.2836 320.2836 320.3931 320.9089 320.9089 321.3670 321.3670 321.3999
   321.3999 321.5855 321.7544 321.7814 322.0559 322.0559 322.0662 322.0662
   322.5340 322.5905 322.5905 322.9239 323.0052 323.0052 323.0557 323.2849
   324.1735 324.1735 324.5893 324.9059 324.9059 325.3226 325.4546 325.4546
   325.5709 325.5709 325.7685 326.2457 326.4577 326.4577 327.0389 327.0389
   327.9310 327.9310 329.5667 329.9056 329.9218 329.9218 329.9248 329.9248
   330.3338 330.4056 330.7595 330.7595 330.7766 330.7766 330.8571 330.8650
   330.8650 331.2844 331.2880 332.4255 332.4255 332.4958 332.4958 332.9013
   332.9013 333.8759 333.9317 333.9317 334.9909 334.9909 335.2926 335.3117
   335.3117 335.3821 335.7051 335.7051 336.9025 337.4642 337.4642 337.5212
   337.5891 337.5891 337.6287 337.6287 338.0542 338.2486 338.2486 338.3000
   338.5204 338.5204 338.6155 339.1158 339.5440 339.5440 339.6823 339.7479
   339.8782 339.9735 339.9735 340.1848 340.1848 340.2425 340.6360 340.6360
   340.7911 340.7911 340.8106 341.8551 342.2386 342.2386 342.4933 342.9079
   342.9079 342.9223 343.8387 343.8387 345.3944 346.3641 346.8651 347.1236
   347.1236 347.7512 347.8377 347.8377 348.0475 348.1588 348.1588 348.1720
   348.1720 348.6818 348.6818 349.0075 349.0075 349.1565 349.2024 349.2024
   349.2398 349.3319 349.4004 349.4004 349.5220 349.5557 349.5557 349.6191
   350.4353 350.4353 350.4477 350.9016 350.9425 350.9425 351.0812 351.0826
   351.0826 351.2449 351.2449 351.3909 351.3909 351.8775 351.8775 351.9501
   352.0475 352.0475 352.1087 352.3895 352.7975 352.9155 352.9155 353.0575
   353.0575 353.1315 353.1408 353.2615 353.2615 353.3115 353.3115 353.7694
   353.7694 354.0152 355.6346 356.3453 356.3453 357.2443 357.3911 357.3911
   357.8666 357.8666 360.0570 360.3423 361.6481 361.6481 362.4059 362.4059
   362.5296 362.6129 362.6129 362.6763 362.7077 362.8004 362.8004 363.0328
   363.4387 363.4387 363.4869 363.4869 363.4888 363.5028 363.5400 363.5400

          k = 0.0000-1.0000 0.0000 (  3282 PWs)   bands (ev):

   -21.0696  -6.5385  -6.3428  -6.3428  -5.3384   4.5988   5.1072   5.1072
     7.3375  10.6154  10.7388  12.0638  12.0638  12.0664  12.8211  13.8698
    14.0443  14.0443  14.5135  14.8419  14.8419  15.6336  17.7918  17.7918
    17.8943  17.8943  18.5343  20.3151  22.8594  23.2792  23.3402  23.6389
    25.1905  25.3088  25.3088  27.3842  27.3842  27.3875  29.3848  29.3848
    29.5823  30.5585  31.3305  31.5630  34.2122  34.2122  34.4168  36.7928
    36.7928  38.6861  39.8184  39.8184  40.3068  40.3068  40.4383  40.6514
    41.0451  42.6311  42.7511  42.7511  43.3718  43.9024  44.8259  45.3651
    46.1196  46.4824  46.7889  46.7889  47.7158  47.7158  48.5684  48.5750
    49.8080  49.8080  50.1719  50.4922  52.4694  52.7876  54.1081  54.2144
    54.2144  55.4541  55.4541  55.5917  55.6926  55.6926  55.9140  56.5047
    57.2217  57.2217  57.2284  57.8143  57.8143  58.3336  58.3336  58.4658
    59.1062  61.1243  62.7265  62.8389  63.5240  63.5240  63.8327  67.4197
    67.4197  67.5984  67.6444  68.2274  68.2274  69.6997  70.0713  70.6369
    71.1213  71.1213  71.2177  71.4116  71.4116  71.4984  71.5702  71.6285
    72.6399  72.6399  73.1270  75.7352  76.0280  77.3081  78.0011  78.4145
    78.4145  78.6746  78.6746  79.0875  79.3263  80.4770  80.4770  80.8973
    80.8973  81.1544  81.4323  81.7540  81.9373  81.9373  83.3460  84.7152
    85.1120  85.3752  85.7412  86.4526  86.4526  86.6267  87.0744  87.0744
    87.6722  87.6722  88.8782  88.9781  90.1247  90.3403  90.3403  91.9545
    92.0421  92.1429  92.1429  92.3446  92.4997  92.4997  92.6826  93.1258
    93.1258  93.8912  93.9851  93.9851  95.0475  95.3691  95.4139  96.0882
    96.3192  96.3901  96.3901  96.4312  96.7612  96.8551  96.8551  97.4924
    97.6947  97.6947  97.7954  98.1815  99.9759 100.6444 100.6744 100.7747
   100.7747 100.9796 100.9796 101.0427 101.0988 102.8453 104.4862 104.8108
   104.8108 107.2441 107.2985 108.3701 108.4903 108.4903 108.5828 108.5828
   109.3623 109.5868 109.7716 109.7716 109.7739 110.1080 110.5902 110.6906
   110.6906 111.1020 111.1020 111.1143 111.3063 111.4750 111.4750 111.6125
   111.9085 112.0624 112.2646 112.2646 112.2664 112.5634 116.2649 116.2649
   116.7545 117.7119 120.1990 121.6788 121.6788 122.3649 122.5997 122.5997
   122.6643 122.9560 123.8677 123.8677 123.9296 124.2725 124.2725 125.0826
   125.5284 125.5284 125.5455 125.5949 125.8477 125.9616 125.9616 126.1681
   126.9831 127.1954 127.1954 127.7071 128.9200 129.3483 129.3483 129.6473
   130.1913 130.2687 131.1445 131.1445 131.4287 131.5879 132.0813 132.4981
   132.7140 132.7140 132.8073 132.8997 132.8997 133.6415 133.6446 133.7534
   133.8214 134.0027 134.0027 134.0204 134.2341 134.2341 134.8619 134.8619
   134.8760 135.0526 135.8937 135.8937 136.7625 137.4612 137.4612 137.7826
   138.3111 138.3111 138.3886 138.4301 138.7665 140.7339 140.8988 140.9686
   140.9779 140.9779 141.2856 141.2856 141.9150 143.6037 145.0595 145.0595
   145.1291 145.7515 145.8812 145.8812 145.9743 146.2152 146.2563 146.5285
   146.5285 146.5862 146.6548 146.6548 147.3181 147.3181 147.7533 147.8877
   148.2313 148.9355 148.9355 149.3917 149.4088 149.6082 149.7669 149.8697
   150.4063 150.4063 150.6362 150.6362 151.1159 151.1159 151.8937 152.2560
   152.6162 153.5686 154.9482 155.4359 155.4359 155.5099 155.5099 156.1486
   156.1486 156.9717 156.9898 157.7072 159.8492 160.4019 160.5071 160.5071
   160.5545 160.6409 160.6810 160.7525 160.7525 161.2547 161.2547 161.3236
   161.5446 161.5804 161.5804 161.6420 162.3397 162.3397 162.6261 162.6718
   163.0441 163.4225 163.4225 164.1489 164.1489 164.2283 165.0090 165.0704
   165.2088 165.2088 165.8517 166.3335 166.3335 166.3624 166.6296 166.6569
   167.1146 167.1146 167.1581 167.2351 167.7473 169.2552 169.2552 170.6167
   170.6167 171.2630 171.3374 171.3374 171.9041 172.1516 172.1516 172.6062
   172.6740 173.0182 173.3774 173.3774 174.0311 175.2857 175.3889 175.3889
   176.0667 176.0854 176.8668 176.8668 177.0627 177.6029 177.6999 177.8428
   177.9910 178.1406 178.2097 178.2097 178.7093 179.0211 179.0847 179.0847
   179.2423 179.3157 179.3539 179.4294 179.4294 179.8074 179.8074 179.8128
   179.8529 180.1628 180.1628 180.8982 181.6988 181.8117 181.8667 181.8667
   181.8738 181.8738 181.9106 184.1976 185.1373 185.7507 185.7507 186.2794
   186.6215 186.6215 187.8929 188.7560 189.0358 189.4735 189.4888 189.4888
   189.5381 189.6554 189.6554 189.7791 189.9186 189.9186 190.2340 190.2791
   190.5367 190.5661 190.5661 194.2312 194.3907 194.4139 195.1675 195.1675
   195.5920 196.6603 196.6847 196.8911 196.8911 197.5870 197.5870 198.0748
   198.3729 198.6143 198.6143 198.9298 199.3945 199.4208 199.4208 199.9969
   200.1035 200.5249 201.1594 201.1736 202.2038 202.2038 202.2180 202.4098
   202.4098 202.6049 202.7421 202.7421 203.4297 203.7720 204.0796 204.0796
   204.0840 204.0840 204.8238 205.2181 205.2181 205.2955 205.3734 205.4375
   205.6535 206.0955 206.1200 206.1200 206.2987 207.3401 207.5197 207.9103
   208.0232 208.0232 208.0725 208.0725 208.2628 208.2661 209.4680 209.4680
   210.0136 211.0554 211.2596 211.2596 211.5423 211.6289 212.6508 213.2282
   213.2282 213.8840 213.9410 213.9410 214.1929 214.2232 214.3278 214.3278
   214.4481 214.6059 214.6059 214.7203 214.8585 214.8750 215.1822 215.1822
   215.4565 215.8151 215.8151 216.1104 216.1658 216.4249 216.5861 216.5861
   216.8642 216.8774 216.8774 216.9630 217.2883 217.2883 217.4394 217.4394
   217.4849 217.5161 217.7978 217.7978 220.1372 220.1372 221.1037 221.1267
   221.2748 221.7038 222.5143 222.5143 222.5907 222.5952 222.6517 222.6573
   222.6573 222.6934 222.8168 224.0626 224.0626 224.6870 225.0245 225.5554
   225.9298 225.9638 226.0598 226.0598 226.6654 226.6654 227.6487 227.7867
   227.8736 228.3787 228.3787 229.2218 229.2260 229.4745 229.4745 229.5807
   230.8866 230.8992 231.2262 231.2262 231.2523 231.3477 231.3477 231.4999
   231.6314 231.6314 231.7401 232.4079 232.4079 232.4236 232.4559 232.7855
   232.8094 232.9206 232.9206 232.9272 233.8175 233.9016 233.9864 233.9864
   234.0807 234.0807 234.2039 234.2301 235.5398 235.8465 235.8465 236.4996
   236.6025 237.4910 238.4976 238.5481 238.5481 239.2881 239.2881 239.3747
   239.5390 239.7291 239.7291 240.1088 240.1088 241.1128 241.6691 242.5161
   242.8964 243.7002 243.8992 244.4831 244.4831 244.7923 244.7923 244.9850
   245.0042 245.0120 245.0120 245.0959 245.1065 245.1065 245.3354 245.3821
   245.3821 245.4282 246.3801 246.3913 246.3913 246.4642 246.8540 246.9164
   247.0519 247.1736 248.0887 248.0887 249.1812 249.7009 249.7331 249.7331
   250.0284 250.1375 250.1375 250.2349 250.2349 250.6485 251.4636 251.4636
   251.6689 251.6736 253.5686 253.8075 254.1234 254.1234 254.4998 254.6498
   254.8038 254.8038 254.8924 254.9046 255.5266 255.9647 256.2903 256.3071
   256.3071 256.3565 256.5028 256.5028 256.6644 256.6644 256.9841 257.0952
   257.7565 258.3089 258.3089 258.3450 258.3875 258.4485 258.4786 258.4786
   258.5488 258.8054 258.9266 259.6238 259.6238 261.2523 261.2851 261.2851
   261.4190 261.4646 261.4646 261.7515 261.8842 262.6757 263.2801 263.2801
   263.3263 263.3861 264.0469 264.2123 264.9390 264.9390 266.3149 267.9049
   267.9049 268.2820 268.3046 268.5048 268.5205 268.9386 268.9386 268.9958
   268.9958 269.4170 269.7309 269.7309 270.0294 270.0472 270.7978 270.7978
   270.9968 271.3768 271.3768 271.4133 271.4406 272.1215 273.2026 273.2026
   273.3182 273.3539 273.3539 273.3875 273.8740 273.8807 273.8847 273.9010
   273.9010 273.9412 274.5728 274.5958 274.5958 274.6130 275.2666 276.0653
   276.0653 276.0819 276.1413 276.1413 276.2112 277.6184 277.6230 277.6230
   277.9651 278.3153 278.3153 278.9071 279.4508 279.4508 280.0034 280.0047
   280.0974 280.5642 280.5642 282.6139 282.7308 283.4390 283.4390 283.4966
   283.5619 283.7619 283.7619 284.2732 285.1037 285.1037 285.8968 285.9024
   285.9104 287.0973 287.5763 288.1243 288.1243 288.4890 288.7550 288.7976
   289.0580 289.0580 289.3265 289.5626 289.6264 289.6264 289.9927 290.0034
   290.0034 290.0052 290.1556 290.1556 290.4966 291.2392 291.3264 291.3264
   291.5500 292.3991 292.3991 292.8947 294.0698 294.0887 294.1734 294.1734
   294.2058 294.2328 294.4864 294.4864 294.6015 294.6637 294.6652 294.9502
   294.9502 295.1610 295.3954 295.5490 295.6271 295.6271 295.7163 295.7163
   295.9503 296.0139 296.0263 296.0263 296.0673 296.0673 296.0757 296.1520
   296.1520 296.1905 296.2682 296.4857 296.4857 296.7183 296.8481 296.8730
   296.9077 296.9077 296.9883 296.9883 297.0013 297.0083 297.2744 297.2744
   297.3013 297.3607 297.8343 297.9240 297.9858 297.9932 297.9932 298.2253
   298.2253 298.2357 298.2357 298.2890 298.3222 298.6504 300.3435 301.1113
   301.1581 301.1581 301.3039 301.3039 301.3399 301.4356 302.8716 303.1383
   303.1383 303.2474 303.5421 303.5421 303.7660 303.7732 304.5671 304.8730
   304.8730 306.1131 306.2923 306.5968 306.5968 309.7656 309.7656 309.7706
   309.8038 309.8262 310.3187 310.3187 311.0108 311.0108 311.0476 311.0817
   311.3359 311.3910 311.5508 311.6015 311.6015 311.7221 311.7221 312.1885
   312.2038 312.3752 312.3752 312.5009 312.5009 312.5140 312.6856 313.0939
   313.2376 313.2376 313.2504 313.2629 313.4444 313.4444 313.6553 313.7044
   313.7044 313.7402 313.7865 313.8716 314.1877 314.1901 314.3510 314.3510
   314.4630 314.9578 314.9578 315.0872 317.3346 318.0914 318.6147 318.9078
   319.0253 319.5680 319.5680 319.9549 319.9549 320.0036 320.0765 320.0988
   320.2319 320.2435 320.2435 320.2919 320.4941 320.4941 320.6090 320.7072
   320.8905 321.2542 321.2542 321.4213 321.4213 321.7017 321.7139 321.7386
   323.1102 323.4309 323.4309 323.9776 324.0191 324.0191 324.4405 324.5648
   324.5648 324.5938 325.0314 325.4518 328.3121 328.9743 328.9743 329.0324
   329.0422 329.0498 329.0498 329.1072 329.5837 330.6709 330.6709 330.8125
   330.8195 330.8580 330.8580 330.8644 330.9139 331.3347 331.3347 331.7785
   332.4785 332.4785 332.7279 332.7279 332.9565 333.2477 333.2595 333.7669
   333.9950 334.2657 334.9071 336.1680 336.2109 336.4493 336.4493 336.5080
   336.5080 337.0438 337.0438 337.0921 337.0921 337.1334 337.2232 337.9174
   337.9174 337.9361 338.0353 338.0411 338.0923 338.1653 338.1653 338.1696
   338.1696 338.2186 339.1369 339.1369 339.2177 339.2177 339.8991 339.9032
   340.1850 340.1850 340.2552 340.2552 340.4046 340.5167 340.5203 340.5653
   340.5691 340.6959 340.7299 340.7299 341.4444 341.4444 341.7357 341.9871
   341.9871 341.9909 342.6145 342.9032 343.1892 344.2097 344.9344 344.9344
   345.0623 346.7331 346.7514 346.9604 346.9604 347.3018 347.4508 348.5343
   348.5343 349.1478 349.1755 349.1755 349.3310 349.3470 349.3470 349.4163
   349.4250 349.4763 349.5268 349.5268 349.6490 349.7149 349.8529 349.8529
   350.1753 350.3026 351.4554 351.5513 351.6294 352.4714 352.4714 352.9106
   352.9106 352.9726 353.0630 353.1565 353.3795 353.3795 353.5765 353.5765
   353.6109 353.6592 353.7283 353.7283 353.8204 353.9386 354.2394 354.2417
   354.2428 354.2428 355.0217 355.0217 356.4512 357.1222 357.2038 358.3250
   358.4512 358.4512 360.2071 360.2071 360.6811 360.9008 361.0060 361.1069
   361.1070 361.2510 361.2911 361.3083 361.3083 361.3546 361.4282 361.6061
   361.6061 361.6233 361.8596 361.8596 361.9068 361.9153 362.0299 362.0299
   362.6074 363.7718 364.3919 364.4760 364.4760 365.3929 365.3929 365.4177

     the Fermi energy is     6.0208 ev
     (compare with:     5.7739 eV, computed in scf)

     Writing all to output data dir out/mp-1253.save/
 
     init_run     :      0.04s CPU      0.06s WALL (       1 calls)
     electrons    :    382.47s CPU    412.38s WALL (       1 calls)

     Called by init_run:
     wfcinit      :      0.00s CPU      0.00s WALL (       1 calls)
     potinit      :      0.01s CPU      0.01s WALL (       1 calls)
     hinit0       :      0.01s CPU      0.02s WALL (       1 calls)

     Called by electrons:
     c_bands      :    382.47s CPU    412.38s WALL (       1 calls)
     v_of_rho     :      0.01s CPU      0.01s WALL (       1 calls)

     Called by c_bands:
     init_us_2    :      0.00s CPU      0.00s WALL (       3 calls)
     init_us_2:cp :      0.00s CPU      0.00s WALL (       3 calls)
     cegterg      :    374.85s CPU    404.28s WALL (       3 calls)

     Called by *egterg:
     cdiaghg      :    354.89s CPU    384.03s WALL (      39 calls)
     h_psi        :      6.45s CPU      6.66s WALL (      42 calls)
     g_psi        :      0.04s CPU      0.04s WALL (      36 calls)

     Called by h_psi:
     h_psi:calbec :      0.14s CPU      0.15s WALL (      42 calls)
     vloc_psi     :      6.15s CPU      6.35s WALL (      42 calls)
     add_vuspsi   :      0.12s CPU      0.13s WALL (      42 calls)

     General routines
     calbec       :      0.14s CPU      0.15s WALL (      42 calls)
     fft          :      0.01s CPU      0.02s WALL (      10 calls)
     fftw         :      5.57s CPU      5.75s WALL (   44828 calls)
 
     Parallel routines
 
     PWSCF        :   6m22.91s CPU   6m53.00s WALL

 
   This run was terminated on:   6:56:34  14Dec2023            

=------------------------------------------------------------------------------=
   JOB DONE.
=------------------------------------------------------------------------------=
