
     Program PWSCF v.7.1 starts on 14Dec2023 at  6:40:27 

     This program is part of the open-source Quantum ESPRESSO suite
     for quantum simulation of materials; please cite
         "P. Giannozzi et al., J. Phys.:Condens. Matter 21 395502 (2009);
         "P. Giannozzi et al., J. Phys.:Condens. Matter 29 465901 (2017);
         "P. Giannozzi et al., J. Chem. Phys. 152 154105 (2020);
          URL http://www.quantum-espresso.org", 
     in publications or presentations arising from this work. More details at
     http://www.quantum-espresso.org/quote

     Parallel version (MPI), running on     8 processors

     MPI processes distributed on     1 nodes
     122785 MiB available memory on the printing compute node when the environment starts
 
     Reading input from pw_mp-1253_nscf_k0_E53.in
Warning: card &IONS ignored
Warning: card / ignored
Warning: card &CELL ignored
Warning: card / ignored

     Current dimensions of program PWSCF are:
     Max number of different atomic species (ntypx) = 10
     Max number of k-points (npk) =  40000
     Max angular momentum in pseudopotentials (lmaxx) =  4

     Atomic positions and unit cell read from directory:
     out/mp-1253.save/
     Atomic positions from file used, from input discarded
 
 
     R & G space division:  proc/nbgrp/npool/nimage =       8
     Subspace diagonalization in iterative solution of the eigenvalue problem:
     one sub-group per band group will be used
     scalapack distributed-memory algorithm (size of sub-group:  2*  2 procs)

 
     Parallelization info
     --------------------
     sticks:   dense  smooth     PW     G-vecs:    dense   smooth      PW
     Min         144     144     36                 3276     3276     410
     Max         145     145     37                 3280     3280     412
     Sum        1159    1159    295                26229    26229    3287
 
     Using Slab Decomposition
 


     bravais-lattice index     =            2
     lattice parameter (alat)  =      12.5993  a.u.
     unit-cell volume          =     500.0063 (a.u.)^3
     number of atoms/cell      =            2
     number of atomic types    =            2
     number of electrons       =        16.00
     number of Kohn-Sham states=         1200
     kinetic-energy cutoff     =      53.0000  Ry
     charge density cutoff     =     212.0000  Ry
     Exchange-correlation= PBE
                           (   1   4   3   4   0   0   0)

     celldm(1)=  12.599264  celldm(2)=   0.000000  celldm(3)=   0.000000
     celldm(4)=   0.000000  celldm(5)=   0.000000  celldm(6)=   0.000000

     crystal axes: (cart. coord. in units of alat)
               a(1) = (  -0.500000   0.000000   0.500000 )  
               a(2) = (   0.000000   0.500000   0.500000 )  
               a(3) = (  -0.500000   0.500000   0.000000 )  

     reciprocal axes: (cart. coord. in units 2 pi/alat)
               b(1) = ( -1.000000 -1.000000  1.000000 )  
               b(2) = (  1.000000  1.000000  1.000000 )  
               b(3) = ( -1.000000  1.000000 -1.000000 )  


     PseudoPot. # 1 for Ba read from file:
     /usr/scratch4/magr4985/MG/HTDF/pseudo/SG15/Ba.upf
     MD5 check sum: ac4691792522964bb0504809e83fae44
     Pseudo is Norm-conserving, Zval = 10.0
     Generated using ONCVPSP code by D. R. Hamann
     Using radial grid of  602 points,  8 beta functions with: 
                l(1) =   0
                l(2) =   0
                l(3) =   1
                l(4) =   1
                l(5) =   2
                l(6) =   2
                l(7) =   3
                l(8) =   3

     PseudoPot. # 2 for Se read from file:
     /usr/scratch4/magr4985/MG/HTDF/pseudo/SG15/Se.upf
     MD5 check sum: e78e48a4f5d8ce1f8dc76ec1271f249c
     Pseudo is Norm-conserving, Zval =  6.0
     Generated using ONCVPSP code by D. R. Hamann
     Using radial grid of  602 points,  6 beta functions with: 
                l(1) =   0
                l(2) =   0
                l(3) =   1
                l(4) =   1
                l(5) =   2
                l(6) =   2

     atomic species   valence    mass     pseudopotential
        Ba            10.00   137.32700     Ba( 1.00)
        Se             6.00    78.96000     Se( 1.00)

     48 Sym. Ops., with inversion, found



   Cartesian axes

     site n.     atom                  positions (alat units)
         1           Ba  tau(   1) = (   0.0000000   0.0000000   0.0000000  )
         2           Se  tau(   2) = (  -0.5000000   0.5000000   0.5000000  )

     number of k points=     1  Gaussian smearing, width (Ry)=  0.0005
                       cart. coord. in units 2pi/alat
        k(    1) = (   0.0000000   0.0000000   0.0000000), wk =   2.0000000

     Dense  grid:    26229 G-vectors     FFT dimensions: (  45,  45,  45)

     Estimated max dynamical RAM per process >     111.37 MB

     Estimated total dynamical RAM >     891.00 MB

     The potential is recalculated from file :
     out/mp-1253.save/charge-density

     Starting wfcs are random

     Band Structure Calculation
     Davidson diagonalization with overlap

     ethr =  5.00E-06,  avg # of iterations = 10.0

     total cpu time spent up to now is      173.9 secs

     End of band structure calculation

          k = 0.0000 0.0000 0.0000 (  3287 PWs)   bands (ev):

   -21.1027  -6.2139  -6.2139  -6.2139  -5.4423   5.3178   5.3178   5.3178
     8.3008   8.9218   8.9218   8.9218   9.7263   9.7263  12.3110  14.6910
    14.6910  14.6910  14.8870  14.8870  14.8870  16.6549  19.2984  19.2984
    19.2984  20.9974  20.9974  20.9974  22.9828  22.9828  25.0112  25.4841
    25.4841  25.4841  26.9554  26.9554  27.5916  27.5916  27.5916  30.5719
    30.5719  30.5719  33.2889  35.6734  35.6734  35.6734  36.3136  36.3136
    36.3136  36.4148  36.4148  36.4148  37.3487  37.3487  37.3487  37.9947
    38.4497  39.1810  39.1810  39.1810  39.5341  39.5341  39.5341  40.0086
    40.0086  40.9901  45.2132  45.2132  48.5596  48.5596  48.5596  52.7662
    55.4238  55.4238  55.4238  56.5265  56.5265  57.8129  57.8129  57.8129
    58.5925  58.5925  58.5925  59.9147  59.9147  59.9147  61.0345  62.0078
    62.0078  62.0078  62.4282  62.4282  62.4282  62.6245  62.6245  62.6245
    62.7821  62.7821  62.7821  62.7910  62.7910  63.4014  64.5514  64.5514
    64.5514  64.6552  64.6552  64.6552  65.3468  65.3468  65.5794  65.5794
    65.5794  65.9937  65.9937  66.9694  66.9694  66.9694  68.0118  70.5744
    73.9243  74.5065  74.5065  74.5065  76.9051  76.9051  77.0094  77.0094
    77.0094  78.6150  78.6150  79.1863  79.1863  79.1863  79.3420  79.3420
    79.3420  80.0223  80.0223  80.0223  80.2419  80.2419  80.2419  80.5839
    80.5839  80.9475  80.9475  80.9475  83.8270  85.2361  86.5715  86.5715
    86.5715  86.9913  86.9913  86.9913  87.2513  87.3136  87.3136  87.3136
    88.2206  88.2206  88.2206  88.3261  88.3261  88.3261  89.0049  89.0049
    89.0049  93.1120  93.1120  93.2370  93.2370  93.2370  93.4667  94.7399
   100.2305 100.2305 102.0356 102.0356 102.0356 102.3000 102.3000 102.3000
   104.3283 104.3283 104.3283 105.9879 107.5760 107.5760 107.9891 107.9891
   107.9891 108.1774 108.1774 108.1774 110.0190 110.0190 110.0190 110.5483
   110.5483 110.5483 112.0074 112.0074 112.3618 112.9226 112.9226 113.0567
   113.0567 113.0567 113.2229 113.2229 113.2229 113.2719 113.4546 113.4546
   113.4546 114.0843 114.9758 114.9758 115.3710 115.3710 115.3710 115.5107
   115.5107 115.5107 116.4378 116.4378 116.4378 116.4402 116.7224 116.7224
   116.7224 118.7038 118.7038 118.7038 118.7434 118.7434 118.7434 118.9564
   118.9564 119.3720 119.3720 119.3720 119.8388 119.8388 119.8388 120.1966
   120.1966 120.1966 120.3002 120.3002 120.3002 120.3207 120.3207 120.3270
   120.3270 120.5191 120.5572 120.5572 120.5572 120.6121 120.6121 120.6121
   121.4176 123.3312 126.6191 126.6191 126.6191 127.8803 127.8803 127.8803
   128.5575 128.5575 128.5575 128.7919 128.7919 128.7919 129.6326 129.6326
   130.4223 131.8221 131.8221 131.8221 133.7788 133.7788 133.8418 133.8883
   133.8883 133.8883 136.4969 137.5064 137.5064 137.5064 137.8936 139.7783
   139.7783 139.7783 141.7817 141.7817 141.9925 141.9925 141.9925 142.3062
   142.3062 142.3062 143.2088 143.2088 143.2586 143.2586 143.2586 143.3801
   143.3801 143.3801 144.2820 144.5701 144.5701 144.5701 144.8803 144.8803
   145.5757 145.6264 145.6264 145.6264 145.7114 145.7114 145.7114 145.7537
   145.7537 145.7537 145.9206 145.9206 145.9206 146.5656 146.5656 147.6549
   147.6549 147.6549 148.2531 153.3016 153.3016 155.4071 155.4071 155.4071
   155.6040 156.7614 156.7614 156.7614 158.3758 159.1605 159.1605 159.1605
   159.8616 160.1212 160.1212 161.4895 161.4895 161.4895 161.8330 161.8330
   161.8330 162.1982 162.1982 162.1982 163.9796 164.9188 164.9188 164.9188
   165.0432 165.0432 165.7326 165.7326 165.7326 166.5724 166.5724 166.5724
   167.2709 167.2709 167.2709 168.3214 168.3214 168.3214 168.3751 168.3751
   168.3751 170.7649 170.7649 170.7649 171.0530 171.0530 171.0530 171.0766
   171.0766 171.0766 171.1544 171.1544 171.2012 171.2012 171.2012 171.2858
   171.2858 171.2858 171.4794 171.5033 171.5033 172.2812 172.7980 172.7980
   172.7980 173.3504 173.3504 173.3504 174.2191 174.2191 174.2526 174.2526
   174.2526 174.3319 180.0038 180.0038 180.0038 181.4248 181.8319 181.8451
   181.8451 181.8472 181.8472 181.8472 182.1879 182.1879 182.1879 183.5981
   183.5981 183.5981 183.6626 183.6626 183.6626 183.9016 184.4347 184.4347
   184.8876 184.8876 184.8876 186.7280 186.7280 186.7280 186.9341 186.9341
   187.0163 187.0163 187.0621 187.0621 187.0621 187.2002 187.2002 187.2002
   187.3427 187.3427 187.3427 187.5214 187.5214 187.5214 187.7767 187.7767
   187.7767 187.8458 187.8458 188.2576 188.2576 188.2576 188.8510 189.0035
   189.0035 189.0035 189.0128 189.2266 189.2266 189.2266 190.0508 190.0508
   190.0508 190.1209 190.1209 190.1209 190.9800 191.4734 191.4734 191.4734
   191.5789 191.5789 191.5789 191.7024 191.7024 192.2863 194.9526 194.9526
   194.9526 195.1891 195.1891 195.9431 195.9431 195.9431 196.1839 196.6241
   196.6241 196.6241 196.7240 196.7240 196.7240 197.3203 197.3203 197.6242
   197.7586 197.7586 197.7586 197.8746 197.9034 197.9034 197.9034 197.9470
   197.9470 199.5020 199.5020 199.5020 199.5556 199.5556 199.6151 199.6151
   199.6151 199.7865 199.7865 199.7865 199.9058 199.9058 199.9058 200.9661
   201.0347 201.0347 201.0347 201.0595 201.0595 205.7818 205.7818 205.7818
   217.0318 217.4291 217.4291 217.4291 218.3330 218.3330 218.3330 219.9611
   220.2049 220.2049 220.2049 220.5732 220.5732 220.5732 220.6212 220.6212
   220.6212 220.6442 220.6442 220.6442 220.7034 221.1310 221.1310 221.1310
   221.2213 221.2213 221.2213 221.2734 221.2734 221.3568 221.3568 221.3568
   221.3629 221.3629 221.4057 221.4057 221.4057 221.7286 221.7286 221.8835
   221.8835 221.8835 222.3784 223.7987 223.7987 223.7987 226.8302 226.8302
   226.9870 226.9870 226.9870 227.1044 227.1044 227.1660 227.1660 227.1660
   227.3045 227.3045 227.3045 227.3633 227.3633 227.3633 228.0694 228.0694
   228.0694 228.1069 228.1069 228.3115 228.3976 228.3976 228.3976 229.7369
   232.5968 232.5968 232.6857 232.6857 232.6857 232.9900 233.6508 233.6508
   233.6508 236.1196 236.1196 236.1196 237.0719 237.0719 237.0719 237.1220
   237.1220 237.1220 237.1270 237.3130 237.3130 238.5121 238.5121 238.5121
   238.5938 238.6014 238.6014 239.4869 239.4869 239.4869 239.8525 239.8525
   239.8525 240.3617 240.3617 240.3617 240.4895 240.4895 240.4895 240.5872
   240.5872 240.9975 240.9975 240.9975 241.1526 245.7549 245.7549 245.7549
   245.9827 245.9827 246.0530 246.0530 246.0530 246.2155 246.2155 246.2155
   246.4140 246.5731 246.5731 246.5731 247.4855 248.5204 248.8245 248.8245
   248.8245 249.1865 249.1865 249.1865 249.2639 249.2639 249.2663 249.2663
   249.2663 249.9446 249.9446 249.9446 250.4183 250.4183 250.4183 252.5839
   252.6307 252.6957 252.6957 252.6957 252.8367 252.8367 253.1881 253.1881
   253.1881 253.1922 253.1922 253.1922 253.3348 253.3348 253.3419 253.3419
   253.3419 253.3570 253.3570 253.3570 254.0221 254.0221 254.0221 254.0695
   254.0695 254.0726 254.0726 254.0726 254.1785 254.1785 254.1785 254.2075
   255.0271 255.0271 255.7089 257.3482 257.3482 257.3482 258.3520 258.4772
   258.4772 258.4772 262.2125 262.2125 262.2754 262.2754 262.2754 262.9045
   262.9045 262.9045 262.9246 263.0541 263.0541 263.0541 263.0562 263.0562
   263.0562 263.1177 263.3525 263.3525 266.4009 266.4009 266.4009 267.4443
   267.4443 267.4443 270.0437 270.0437 270.0437 270.7012 272.1911 272.1911
   272.1911 272.5458 272.5458 272.5458 272.6740 272.6740 272.6740 272.7667
   272.8840 272.8840 273.0384 273.0384 274.8984 274.8984 274.8984 275.0605
   275.0605 275.0605 275.1431 275.1431 275.1431 275.1496 275.1496 275.1496
   275.2234 275.2234 275.2234 275.6990 275.6990 275.6990 276.1521 276.1521
   276.5009 276.5009 276.5009 276.5880 276.5880 276.5880 277.1652 277.1652
   277.1652 277.6575 277.6575 277.6575 277.7437 277.7437 277.9009 278.0768
   278.0768 278.0768 278.3426 278.3426 278.4438 278.4438 278.4438 278.6793
   278.6793 278.6793 278.7457 278.7457 278.7457 278.9851 278.9851 279.5404
   279.7358 279.7358 279.7358 279.8061 279.8061 279.8061 279.9338 281.9004
   281.9004 281.9004 282.0450 282.0450 282.1586 282.1586 282.1586 282.2121
   282.2121 282.2121 282.3741 282.3741 282.3741 282.4030 282.4725 282.4725
   282.4725 282.4784 282.4955 282.4955 282.6756 282.6756 282.7156 282.7156
   282.7156 282.8539 282.8857 282.8857 282.8857 283.0060 283.9672 283.9672
   283.9672 286.4410 286.4410 286.4410 286.5086 287.5816 287.5816 287.5816
   290.1627 290.1627 290.1627 293.9136 293.9136 294.5966 294.5966 294.5966
   294.6243 294.6243 294.6243 294.6558 294.6882 294.6882 294.6882 294.8573
   294.8573 294.8573 294.9042 294.9042 295.0374 295.0374 295.7023 295.7023
   295.7023 296.3930 296.3930 296.3930 296.3931 296.3931 296.3931 299.3370
   299.3370 299.3370 299.7429 299.7429 299.7868 299.9051 303.0683 303.0683
   303.0683 303.3032 303.3032 303.3032 304.4625 304.4625 304.4625 304.4635
   304.4635 306.9669 307.6041 307.6041 307.6041 307.6220 307.6220 307.6220
   307.6324 307.6324 307.6324 307.7245 307.7245 307.7245 309.1620 309.1620
   309.1635 309.1635 309.1635 309.1823 317.0774 317.1173 317.1173 317.6541
   317.6541 317.6541 318.1370 318.1370 318.1370 318.9178 318.9178 318.9178
   318.9959 318.9959 318.9959 319.0475 319.0475 319.0475 319.0868 319.0868
   319.2495 319.4219 319.4474 319.4474 319.4474 319.5825 319.5825 319.5825
   319.6192 319.6192 320.0298 320.3340 320.3340 321.0162 321.0162 321.0162
   321.6678 321.6678 321.6678 321.9327 321.9327 321.9327 322.3488 323.8268
   323.8268 323.8268 324.2936 324.2936 324.8096 324.8096 324.8096 325.1402
   325.1402 325.1402 327.1310 328.1561 328.1561 328.1561 328.4034 328.4034
   328.4034 328.5033 328.5033 328.5033 328.7440 328.7440 329.2440 329.2440
   329.2440 329.3012 329.3012 330.1039 330.3503 330.3503 330.3503 330.5786
   330.5786 330.5786 330.6090 332.0708 332.0708 332.0708 332.3675 332.3675
   332.3675 332.3735 332.3735 332.6256 332.6256 332.6256 332.6769 332.6769
   332.6769 332.7199 332.7199 332.7230 332.7230 332.7230 332.8376 332.8376
   332.8376 332.8668 333.0425 333.0588 333.0588 333.0588 333.2515 333.2515
   333.6275 333.6275 333.6275 333.6307 333.6307 333.6431 333.6431 333.6431
   333.6577 333.6577 333.6577 338.1574 339.5913 339.5913 339.5913 339.6308
   339.6308 339.6308 342.0907 342.0907 342.0907 342.2102 342.2102 342.2102
   343.0149 343.0149 343.0149 343.7151 343.7151 343.7151 343.7257 343.7257
   343.7931 343.9113 343.9113 343.9327 343.9327 343.9327 343.9617 343.9617
   343.9617 344.4880 344.4880 344.4880 346.1124 346.1124 346.1124 346.4332
   346.5832 346.5832 346.5835 346.5835 346.5835 347.9250 347.9250 347.9250
   348.0002 348.0002 348.0002 348.9639 348.9639 348.9639 348.9743 348.9743
   348.9743 348.9858 348.9858 349.0316 349.0316 349.0316 349.0931 349.1238
   349.2826 349.2826 349.2826 349.3981 349.3981 349.4675 349.4675 349.4675
   350.1795 350.1795 350.2769 350.2769 350.2769 350.3436 350.3436 350.3436
   350.3481 350.4164 350.4164 350.5177 350.5177 350.5177 350.6401 350.9857
   350.9857 350.9857 351.1683 351.1683 351.1683 351.1968 351.1968 351.2634
   351.2634 351.2634 351.3787 352.0079 355.5186 355.5186 355.5186 355.6426
   355.6426 355.6426 356.1688 356.1688 356.2061 356.2061 356.2061 356.2713
   357.2369 357.2369 357.2369 357.4247 357.4974 357.4974 357.4974 357.5532
   357.5532 357.5532 357.6219 357.6219 357.6593 357.6593 357.6593 358.4513
   358.5214 358.5214 358.5214 360.0687 360.1922 360.1922 360.1965 360.1965

     the Fermi energy is     5.6536 ev
     (compare with:     5.7739 eV, computed in scf)

     Writing all to output data dir out/mp-1253.save/
 
     init_run     :      0.05s CPU      0.07s WALL (       1 calls)
     electrons    :    160.34s CPU    173.63s WALL (       1 calls)

     Called by init_run:
     wfcinit      :      0.00s CPU      0.00s WALL (       1 calls)
     potinit      :      0.01s CPU      0.02s WALL (       1 calls)
     hinit0       :      0.02s CPU      0.03s WALL (       1 calls)

     Called by electrons:
     c_bands      :    160.34s CPU    173.63s WALL (       1 calls)
     v_of_rho     :      0.01s CPU      0.01s WALL (       1 calls)

     Called by c_bands:
     init_us_2    :      0.00s CPU      0.00s WALL (       1 calls)
     init_us_2:cp :      0.00s CPU      0.00s WALL (       1 calls)
     cegterg      :    157.80s CPU    170.88s WALL (       1 calls)

     Called by *egterg:
     cdiaghg      :    152.12s CPU    165.10s WALL (      11 calls)
     h_psi        :      1.98s CPU      2.06s WALL (      12 calls)
     g_psi        :      0.01s CPU      0.01s WALL (      10 calls)

     Called by h_psi:
     h_psi:calbec :      0.04s CPU      0.05s WALL (      12 calls)
     vloc_psi     :      1.89s CPU      1.96s WALL (      12 calls)
     add_vuspsi   :      0.04s CPU      0.04s WALL (      12 calls)

     General routines
     calbec       :      0.04s CPU      0.05s WALL (      12 calls)
     fft          :      0.01s CPU      0.02s WALL (      10 calls)
     fftw         :      1.71s CPU      1.77s WALL (   13796 calls)
 
     Parallel routines
 
     PWSCF        :   2m40.61s CPU   2m54.02s WALL

 
   This run was terminated on:   6:43:21  14Dec2023            

=------------------------------------------------------------------------------=
   JOB DONE.
=------------------------------------------------------------------------------=
