
     Program PWSCF v.7.1 starts on 14Dec2023 at  2:14:13 

     This program is part of the open-source Quantum ESPRESSO suite
     for quantum simulation of materials; please cite
         "P. Giannozzi et al., J. Phys.:Condens. Matter 21 395502 (2009);
         "P. Giannozzi et al., J. Phys.:Condens. Matter 29 465901 (2017);
         "P. Giannozzi et al., J. Chem. Phys. 152 154105 (2020);
          URL http://www.quantum-espresso.org", 
     in publications or presentations arising from this work. More details at
     http://www.quantum-espresso.org/quote

     Parallel version (MPI), running on     8 processors

     MPI processes distributed on     1 nodes
     123202 MiB available memory on the printing compute node when the environment starts
 
     Reading input from pw_mp-2114_nscf_k60_E81.in
Warning: card &IONS ignored
Warning: card / ignored
Warning: card &CELL ignored
Warning: card / ignored

     Current dimensions of program PWSCF are:
     Max number of different atomic species (ntypx) = 10
     Max number of k-points (npk) =  40000
     Max angular momentum in pseudopotentials (lmaxx) =  4

     Atomic positions and unit cell read from directory:
     out/mp-2114.save/
     Atomic positions from file used, from input discarded
 
 
     R & G space division:  proc/nbgrp/npool/nimage =       8
     Subspace diagonalization in iterative solution of the eigenvalue problem:
     one sub-group per band group will be used
     scalapack distributed-memory algorithm (size of sub-group:  2*  2 procs)

 
     Parallelization info
     --------------------
     sticks:   dense  smooth     PW     G-vecs:    dense   smooth      PW
     Min         119     119     35                 2446     2446     389
     Max         120     120     36                 2450     2450     391
     Sum         955     955    283                19579    19579    3119
 
     Using Slab Decomposition
 


     bravais-lattice index     =            2
     lattice parameter (alat)  =       9.2535  a.u.
     unit-cell volume          =     198.0857 (a.u.)^3
     number of atoms/cell      =            2
     number of atomic types    =            2
     number of electrons       =        16.00
     number of Kohn-Sham states=         1200
     kinetic-energy cutoff     =      81.0000  Ry
     charge density cutoff     =     324.0000  Ry
     Exchange-correlation= PBE
                           (   1   4   3   4   0   0   0)

     celldm(1)=   9.253465  celldm(2)=   0.000000  celldm(3)=   0.000000
     celldm(4)=   0.000000  celldm(5)=   0.000000  celldm(6)=   0.000000

     crystal axes: (cart. coord. in units of alat)
               a(1) = (  -0.500000   0.000000   0.500000 )  
               a(2) = (   0.000000   0.500000   0.500000 )  
               a(3) = (  -0.500000   0.500000   0.000000 )  

     reciprocal axes: (cart. coord. in units 2 pi/alat)
               b(1) = ( -1.000000 -1.000000  1.000000 )  
               b(2) = (  1.000000  1.000000  1.000000 )  
               b(3) = ( -1.000000  1.000000 -1.000000 )  


     PseudoPot. # 1 for N  read from file:
     /usr/scratch4/magr4985/MG/HTDF/pseudo/SG15/N.upf
     MD5 check sum: c233fa8df51455e992258b7c3dee8a9f
     Pseudo is Norm-conserving, Zval =  5.0
     Generated using ONCVPSP code by D. R. Hamann
     Using radial grid of  602 points,  4 beta functions with: 
                l(1) =   0
                l(2) =   0
                l(3) =   1
                l(4) =   1

     PseudoPot. # 2 for Y  read from file:
     /usr/scratch4/magr4985/MG/HTDF/pseudo/SG15/Y.upf
     MD5 check sum: 1a657b90673a6e990374512484d9703d
     Pseudo is Norm-conserving, Zval = 11.0
     Generated using ONCVPSP code by D. R. Hamann
     Using radial grid of  602 points,  6 beta functions with: 
                l(1) =   0
                l(2) =   0
                l(3) =   1
                l(4) =   1
                l(5) =   2
                l(6) =   2

     atomic species   valence    mass     pseudopotential
        N              5.00    14.00670     N ( 1.00)
        Y             11.00    88.90590     Y ( 1.00)

     48 Sym. Ops., with inversion, found



   Cartesian axes

     site n.     atom                  positions (alat units)
         1           Y   tau(   1) = (   0.0000000   0.0000000   0.0000000  )
         2           N   tau(   2) = (  -0.5000000   0.5000000   0.5000000  )

     number of k points=     8  Gaussian smearing, width (Ry)=  0.0005
                       cart. coord. in units 2pi/alat
        k(    1) = (   0.0000000   0.0000000   0.0000000), wk =   0.0312500
        k(    2) = (  -0.2500000   0.2500000  -0.2500000), wk =   0.2500000
        k(    3) = (   0.5000000  -0.5000000   0.5000000), wk =   0.1250000
        k(    4) = (   0.0000000   0.5000000   0.0000000), wk =   0.1875000
        k(    5) = (   0.7500000  -0.2500000   0.7500000), wk =   0.7500000
        k(    6) = (   0.5000000   0.0000000   0.5000000), wk =   0.3750000
        k(    7) = (   0.0000000  -1.0000000   0.0000000), wk =   0.0937500
        k(    8) = (  -0.5000000  -1.0000000   0.0000000), wk =   0.1875000

     Dense  grid:    19579 G-vectors     FFT dimensions: (  40,  40,  40)

     Estimated max dynamical RAM per process >      98.16 MB

     Estimated total dynamical RAM >     785.25 MB

     The potential is recalculated from file :
     out/mp-2114.save/charge-density

     Starting wfcs are random

     Band Structure Calculation
     ParO style diagonalization

     ethr =  5.00E-06,  avg # of iterations =  6.3

     total cpu time spent up to now is      585.2 secs

     End of band structure calculation

          k = 0.0000 0.0000 0.0000 (  2421 PWs)   bands (ev):

   -28.8023  -8.4664  -8.4664  -8.4664  -0.8292  12.0323  12.0323  12.0323
    15.1655  15.1655  15.1655  16.1632  17.1402  17.1402  22.9534  35.3074
    35.3074  35.3074  36.5605  36.5605  36.5605  39.7124  39.7124  39.7124
    41.1932  41.1932  45.9996  45.9996  45.9996  46.0681  52.9823  52.9823
    58.4608  58.4608  58.4608  60.9003  61.3643  61.3643  61.3643  61.4457
    65.8856  65.8856  65.8856  67.5138  67.5138  67.5138  69.4230  69.4230
    69.4230  69.4896  69.4896  69.4896  72.6167  72.6167  73.4211  73.4211
    73.4211  74.4619  75.0861  84.0338  84.0338  84.0338  85.1706  85.1706
    97.1989  97.2056  97.2056  97.2056 101.8081 101.8081 101.8081 102.3447
   102.3447 102.3447 103.8457 103.8457 109.1314 109.1314 109.1314 109.8007
   114.0877 114.0877 114.0877 116.5293 116.5293 116.5293 117.1045 117.1045
   117.3201 117.3201 117.3201 118.2422 118.2422 118.2422 118.5520 119.6736
   119.6736 119.6736 120.0469 120.0469 120.0469 120.2654 120.2654 121.4647
   121.4647 121.4647 123.8872 123.8872 124.8331 124.8331 124.8331 125.7207
   128.3565 136.2834 136.2834 136.2834 137.3313 138.5691 138.5691 138.5691
   141.7904 141.7904 146.9885 146.9885 147.0079 147.0079 147.0079 147.0196
   147.0196 147.0196 147.0336 147.0336 147.0336 147.1380 147.1380 147.1380
   148.3769 148.3769 148.3769 148.8669 148.8669 151.9424 159.5441 160.2559
   160.2559 160.2559 160.4652 160.4652 160.4652 162.7905 164.1800 164.1800
   164.1800 164.6561 164.6561 164.6561 165.6729 165.6729 165.6729 165.8492
   165.8492 165.8492 171.2761 172.0187 172.0187 172.0965 172.0965 172.0965
   172.2138 185.2808 185.2808 185.3152 185.3152 185.3152 185.3865 185.3865
   185.3865 188.5388 188.5388 188.5388 194.7818 194.7818 194.7818 195.4709
   203.0657 203.0657 203.0657 203.9825 203.9825 205.0858 205.0858 205.0858
   205.3708 206.1367 206.1367 206.1367 206.7707 206.7707 207.8618 207.8618
   207.8618 208.0292 208.0292 208.0292 210.2310 211.6781 211.6781 211.6781
   212.0613 212.0613 212.7273 212.7273 212.7273 213.2228 213.6072 213.6072
   214.3151 215.4602 215.4602 215.4602 215.8873 215.8873 215.8873 217.0599
   217.0599 217.0599 217.5340 217.5340 217.5340 218.4585 219.9500 219.9500
   219.9500 220.0451 220.0451 220.6997 220.6997 220.6997 221.6603 221.6603
   221.6603 222.2391 223.2842 223.2842 223.2842 223.4174 223.4174 224.1260
   224.1260 224.1260 224.7276 224.7276 224.7276 225.2074 225.2074 225.2074
   225.2639 225.2639 228.0539 238.4469 238.4469 238.4469 239.4699 239.4699
   241.3026 241.3026 241.3026 241.4680 241.4680 241.4680 241.5921 241.5921
   241.5921 241.7802 241.7802 241.7802 244.8997 249.1240 249.1240 249.2060
   249.2060 249.2060 249.2883 255.2825 255.2825 255.2825 255.3038 257.0078
   257.0078 257.0078 259.6558 263.4837 263.4837 263.6385 263.6385 263.6385
   264.1047 264.1047 264.1047 264.2184 264.2184 264.2184 264.3148 264.3148
   264.3148 264.4208 264.4208 268.9736 268.9736 268.9736 270.1466 270.4462
   270.4462 270.4462 272.2399 272.2399 272.2399 272.2789 272.2789 272.2789
   272.2896 272.2896 272.2896 272.2959 272.2959 272.4413 272.4413 272.4413
   272.4679 272.4679 274.6118 284.4426 284.4426 284.4426 291.2970 291.2970
   293.2677 293.4599 293.4599 293.4599 293.6437 295.3873 295.3873 295.3873
   297.4196 297.4196 297.4196 297.8818 297.8818 298.0626 298.0626 298.0626
   299.9960 301.2924 301.2924 301.2924 301.7930 310.3550 310.3550 310.3550
   313.4670 313.4670 313.4670 313.8572 313.8572 313.8572 314.1130 314.1130
   314.1130 314.5977 314.5977 314.5977 316.9731 316.9731 316.9731 317.0714
   317.3231 317.3231 317.3231 317.3372 317.3372 317.5162 317.5162 317.5162
   317.6075 317.6075 317.7424 317.7424 317.7424 317.7607 317.7607 317.7607
   319.6990 319.6990 319.8709 319.8709 319.8709 320.0000 320.1590 320.1590
   320.1590 320.2371 320.2371 320.2371 322.3306 322.3306 322.3687 322.3687
   322.3687 322.4236 328.8695 336.8217 337.6638 337.6638 337.6638 337.9866
   337.9866 337.9866 340.4059 340.8907 340.8907 341.1541 341.1541 341.1541
   341.5046 341.5046 341.5046 341.9498 341.9498 341.9498 342.0844 342.0844
   342.0844 342.6910 342.6910 345.9494 345.9494 345.9494 347.4235 347.4235
   347.4235 347.5243 347.5243 347.5243 347.5759 347.5759 347.5852 347.5852
   347.6374 347.6374 347.6374 347.6806 347.6806 347.6806 349.7531 349.8349
   349.8349 349.8349 349.9555 349.9555 349.9555 350.1109 354.4804 354.4804
   354.4804 354.6783 354.6783 355.6047 355.6047 355.6047 356.0704 356.0704
   356.0704 356.0755 356.8669 356.8669 356.8669 358.3224 358.3224 358.3224
   358.3710 358.9012 358.9012 358.9012 360.6470 360.6470 360.9057 360.9057
   360.9057 361.3779 365.7810 365.7810 366.1465 366.1465 366.1465 366.8397
   366.8397 366.8397 366.8901 366.8901 366.8901 367.1879 367.2393 367.2393
   367.2393 367.2462 367.2462 367.9088 367.9088 367.9088 368.0157 368.0157
   368.0956 370.2838 370.2838 370.2838 370.3071 370.3071 370.3071 370.4370
   370.4370 370.4370 370.4689 370.4689 370.4689 371.9574 372.0106 372.0106
   372.0106 372.0255 372.0255 379.8252 379.8252 379.8252 384.7951 384.7951
   391.3057 406.4805 406.4805 406.4805 409.3381 410.3645 410.4145 410.4145
   410.4145 411.1903 411.1903 411.1903 411.5707 411.5707 411.5707 411.5768
   411.5768 411.5768 411.6276 411.6276 411.6276 411.8923 411.8923 412.4361
   412.4361 412.4361 413.0525 413.0525 415.2003 415.2003 415.2003 415.3542
   415.3717 415.3717 415.3717 415.4443 415.7127 415.7127 416.7042 416.7042
   416.7042 416.7403 416.7403 416.7403 416.8377 416.8377 416.8377 416.9500
   416.9500 416.9500 423.6086 423.6086 423.6135 423.6135 423.6135 423.6434
   423.6434 423.6434 423.7855 423.7855 423.7855 423.8318 423.8318 423.8318
   423.8786 423.8786 424.4575 424.4575 424.4578 424.4578 424.4578 424.4922
   425.2559 434.5422 434.5422 434.5422 434.7447 434.7447 434.7447 436.1712
   436.2295 436.2295 438.0255 438.0255 438.0255 443.0547 443.0547 443.0547
   445.5785 445.6501 445.6501 445.6501 445.6962 445.6962 446.3508 446.3508
   446.3508 446.3581 446.3581 446.3581 446.4416 446.4416 446.4416 446.4758
   446.4758 446.4758 447.5834 447.5834 448.3966 450.0142 450.0142 450.0142
   454.3335 454.3335 454.3335 455.0790 455.0790 455.6299 455.6299 455.6299
   459.8422 459.8422 459.8422 459.8682 459.8682 459.8682 459.8945 459.8945
   459.8945 459.9079 460.4110 460.8752 460.9569 460.9569 461.4735 461.4735
   461.4735 462.3916 462.3916 462.3916 462.5680 462.5680 462.5696 462.5696
   462.5696 463.6973 463.9266 463.9266 463.9266 464.4963 464.4963 464.4963
   464.8045 468.8118 468.8118 468.8118 470.7792 470.7792 470.7930 470.7930
   470.7930 470.8536 470.8536 470.8536 470.8869 470.8869 470.8869 470.8959
   471.1810 471.1810 471.1810 471.3258 471.3258 471.9968 471.9968 471.9968
   473.4959 473.7539 473.7539 473.7539 473.8230 473.8230 473.8230 474.0307
   474.0307 474.0307 474.0510 474.0510 475.0616 486.4676 486.4676 486.4676
   491.8006 491.8006 492.1059 492.1059 492.1059 492.4534 492.4534 492.4534
   492.4907 492.4907 492.4907 492.4998 492.5679 492.5679 492.5679 492.9442
   492.9442 493.0151 493.0151 493.0151 493.0669 493.6985 493.6985 493.6985
   498.9444 499.0676 499.0676 505.1397 505.1397 505.1397 505.5235 508.1272
   508.1272 508.1272 508.6275 508.6275 508.6628 508.8631 508.8631 508.8631
   508.8986 508.8986 508.8986 509.1533 509.1533 509.1533 511.7744 511.7744
   511.7744 512.1972 512.1972 514.3728 514.3728 514.3728 514.4528 514.4528
   514.4528 514.5920 514.5920 514.5920 514.7362 514.7362 514.7362 514.8308
   514.8308 515.1265 515.1265 515.1265 515.2865 515.2865 515.2865 515.6114
   515.6114 515.6114 515.6719 515.6719 515.6719 515.8334 515.8334 516.6159
   516.6159 516.6159 517.5503 517.7521 517.9633 517.9633 517.9633 518.1751
   518.1751 518.1751 518.3856 518.9376 518.9376 518.9376 519.7447 519.7447
   519.9717 519.9717 519.9717 519.9906 519.9906 519.9906 520.2812 520.2812
   520.2812 520.7815 520.7815 520.7815 521.9390 521.9390 522.9820 523.1017
   523.1304 523.1304 523.1304 523.1432 523.1432 524.8500 524.8500 524.8855
   524.8855 524.8855 524.8918 524.8918 524.8918 524.9002 524.9002 524.9002
   524.9484 524.9484 525.0228 525.0228 525.0228 525.4722 525.4722 525.4722
   525.4754 525.4756 525.4756 525.4756 525.4849 536.2475 536.2475 536.2475
   537.9904 539.9931 539.9931 539.9931 540.1811 548.2538 548.2538 548.2538
   548.3386 548.3386 548.3593 548.3593 548.3593 548.4544 548.4544 548.4544
   548.5062 548.5062 548.5062 548.5271 548.5271 552.2112 552.2112 552.2112
   556.0200 556.0200 556.0200 556.1698 556.1698 556.1698 556.1865 556.1865
   556.1865 556.7616 558.4905 558.4905 558.4905 559.0128 559.0128 560.8830
   560.8830 560.8830 560.9591 561.1594 561.1594 566.9957 567.0090 567.0090
   567.0634 567.0634 567.0634 570.6749 570.6749 570.6749 570.6757 570.6757
   570.6757 570.6770 570.6770 570.6770 570.7044 570.7044 570.7044 572.5107
   572.5114 572.5114 572.5114 572.5121 572.5121 592.3753 592.3753 592.3753
   593.6722 593.6722 593.6722 593.7030 593.7692 593.7801 593.7801 593.7801
   593.8554 593.8554 593.8554 593.8753 593.8753 593.8753 593.9503 593.9503
   595.2371 595.2371 595.6590 595.6590 595.6590 597.8634 597.8634 597.8634
   597.9275 597.9275 597.9275 598.7602 600.6234 600.6234 600.6234 600.7406
   600.7406 604.1012 604.1012 604.1012 606.1244 607.8215 608.9472 608.9472
   608.9472 610.1257 612.1015 612.1015 612.2553 612.2553 612.2553 613.4926
   613.4926 613.4926 613.9151 613.9151 613.9151 614.0240 614.0240 614.0240
   614.0450 614.0450 614.0450 614.0634 614.0634 614.3883 614.3883 614.3883
   614.8071 615.1982 615.1982 615.1982 615.6172 616.6195 616.6195 617.2357
   617.2357 617.2357 617.4130 617.4130 617.4130 617.4506 617.4506 617.4566
   617.4566 617.4566 617.8379 617.8379 617.8379 617.9023 617.9023 617.9023
   618.2480 618.2480 618.4294 618.4294 618.4294 618.7101 618.7101 618.7101
   618.7863 618.8428 618.8428 618.8562 618.8562 618.8562 618.8762 618.8762
   618.8762 619.5725 619.5725 619.7537 620.2772 620.3566 620.3566 620.3566
   620.4376 620.4376 620.4376 620.4914 620.4914 620.4914 622.1532 622.1532
   622.1532 624.8872 624.8872 639.5871 639.5871 639.5871 640.8516 641.5586
   641.5586 641.5586 641.7135 641.7135 641.7135 641.7982 641.8170 641.8170
   641.9612 641.9612 641.9612 641.9658 641.9658 641.9658 642.1114 642.1114
   642.1114 642.1363 642.1363 642.1363 642.4958 642.4958 642.9272 642.9272
   642.9272 643.6926 643.6926 643.6926 643.8892 643.8892 643.8892 644.0088
   646.1244 646.1244 647.7780 647.9639 647.9639 647.9639 648.0498 648.0498
   648.0498 648.0989 648.0989 648.0989 648.0992 648.0992 648.0992 648.1383
   648.1383 648.1712 648.2269 648.2269 648.2269 648.2357 648.2357 648.2357
   649.1468 649.1468 649.1468 649.8811 649.8811 650.3391 650.3391 650.3391
   650.4401 650.7162 650.7162 654.9501 654.9501 654.9501 656.8911 656.8911
   656.8911 657.8411 657.8411 658.1906 658.3444 658.3444 658.3444 658.3722
   658.3722 658.3722 658.5129 658.5129 658.5129 658.6393 660.7407 660.7407
   660.7407 664.4104 664.4104 664.4398 664.5263 664.5263 664.5263 664.7675
   664.7675 664.7952 664.7952 664.7952 665.0401 665.0401 665.0401 665.2098
   665.2098 665.2098 665.4952 665.4952 665.4952 665.5167 665.7712 665.7712
   666.5686 666.5686 666.5686 669.0302 669.2033 669.2033 669.2033 669.5843
   670.0475 670.0475 670.0475 670.1330 670.1330 670.2347 670.2347 670.2347

          k =-0.2500 0.2500-0.2500 (  2442 PWs)   bands (ev):

   -28.7442  -9.0572  -8.5080  -8.5080   0.0357   9.6138  10.6661  10.6661
    15.6963  16.4977  16.4977  18.5341  19.5454  19.5454  25.7860  30.2532
    30.3098  30.3098  35.9905  36.7311  36.7311  38.1708  38.1708  41.0636
    42.2156  42.2156  46.7739  49.5746  49.5746  50.8264  51.0785  54.1985
    54.1985  55.4378  55.4378  57.9245  59.1332  59.5046  59.5046  60.7570
    63.2472  63.4216  63.4216  66.5567  66.5567  67.7991  69.0616  72.0303
    72.0303  73.9020  73.9020  75.5906  75.7965  75.7965  76.8951  78.7607
    78.7607  79.3025  83.1975  84.5969  84.5969  85.6148  85.6148  86.2241
    90.5659  93.4842  93.4842  94.7538  97.7641  97.7641  99.1449 100.0362
   100.0362 100.4289 102.9601 102.9601 103.7418 103.7418 104.2395 105.7917
   105.7917 106.5242 109.3505 109.3505 110.3362 113.6830 115.7135 115.7135
   116.5677 116.7796 116.7796 118.2504 119.5293 119.5293 119.5827 121.7174
   121.7368 121.7368 122.5270 122.5270 123.0687 123.9490 123.9490 124.9964
   127.3288 127.3288 128.5660 129.7590 129.7590 130.1507 132.0558 132.0558
   134.2359 135.9162 135.9559 135.9559 136.3234 136.3234 136.4783 139.0693
   140.0456 140.0456 140.8183 140.8183 141.1629 142.9687 144.4502 144.4502
   145.6566 146.7052 146.7052 148.4090 148.4090 148.4853 149.3313 149.3313
   149.8351 150.1892 154.6036 154.6036 155.1617 157.0243 157.0243 157.7154
   158.0943 158.0943 159.7911 159.7911 159.9982 160.7508 161.2181 161.2181
   162.3961 163.9127 163.9127 169.2232 170.6375 171.3011 171.3011 172.9513
   172.9513 173.8159 178.2588 178.6515 178.6515 180.0939 180.0939 180.6579
   180.7709 180.9982 180.9982 183.0628 183.0628 183.9650 185.4172 185.9947
   185.9947 187.6139 188.2355 188.2355 188.8219 190.4125 190.4125 191.1717
   191.1717 191.9609 192.6564 192.6564 192.8818 193.7510 195.6837 195.6837
   195.8872 195.8872 196.9085 197.3684 197.7938 197.7938 202.2038 202.2300
   202.2300 203.1654 203.1654 203.4593 205.4448 208.1303 208.7845 208.7845
   210.5685 210.5685 212.0562 212.0562 212.7368 213.1387 213.1387 213.8465
   214.9393 214.9393 215.1725 215.5025 215.8074 216.6623 216.6623 216.6779
   217.8665 217.8665 218.7730 218.7730 218.9658 220.9971 220.9971 221.3630
   221.8287 221.8287 222.1128 223.9230 224.6496 224.6496 225.0476 225.0476
   225.9703 227.5705 228.1688 228.1688 229.0063 229.8314 229.8314 231.5917
   231.5917 231.6547 231.7544 231.7544 232.2846 232.2846 232.6636 233.7455
   234.9509 234.9509 234.9795 235.0119 235.0119 236.2864 236.3422 239.2581
   239.2581 241.9925 241.9925 242.1627 242.7907 243.9019 243.9019 244.6031
   244.6031 245.8049 247.3933 247.4781 247.4781 248.9079 248.9079 248.9740
   249.2334 252.0072 252.0072 254.0509 254.5476 254.5476 255.5609 255.6594
   255.6594 255.7954 255.9951 255.9951 257.8895 257.8895 258.0813 258.1004
   261.2650 261.4889 261.4889 262.0413 263.0905 263.0905 264.1641 264.6900
   264.6900 266.7822 266.7822 268.3237 268.3893 268.3893 269.1946 269.1946
   270.9598 272.2413 272.2413 272.2962 276.1870 277.2466 277.2466 277.8391
   278.9405 278.9405 280.2050 281.4619 281.4619 281.4913 281.9826 281.9826
   282.9149 283.9274 286.2642 286.2642 287.7140 287.7140 287.8962 289.3796
   289.4288 289.4288 290.3026 290.3026 291.7478 291.7478 291.8176 291.8765
   291.9646 292.3809 292.3809 293.2897 293.3704 293.3704 293.7619 297.9170
   298.2235 298.2235 298.4337 298.4337 298.5393 300.7087 300.7087 302.4658
   302.5771 302.5771 302.8175 303.6988 303.8599 303.8599 305.7444 305.7444
   305.9787 305.9787 307.8573 309.4088 309.4088 311.5521 311.5815 311.5815
   313.8312 313.8384 313.8384 314.1250 315.1570 315.4368 315.4368 317.1723
   317.1997 317.1997 319.0115 319.0115 319.2033 319.4555 319.7782 319.7782
   320.5811 321.6200 321.6200 322.1917 322.7028 322.7028 323.8510 324.4180
   324.4180 325.2616 325.2616 325.3301 327.6247 327.6247 328.8247 328.8247
   329.2586 329.4168 329.7618 329.7618 330.6599 332.4525 333.5625 333.7284
   333.7284 334.1371 334.1371 334.1598 335.9825 335.9825 336.3347 336.5526
   336.5526 337.0218 337.5090 337.5090 338.7184 339.3669 339.3669 340.0411
   341.1360 341.1360 341.2777 341.5142 341.6373 341.6373 343.2650 343.2650
   343.7909 344.3190 344.3190 345.3926 346.1792 346.4698 346.4698 347.3296
   347.3735 347.3735 347.7349 347.7349 348.5074 348.5074 348.5112 349.3890
   349.3890 349.4138 350.0180 350.7742 351.1574 351.1574 352.0417 352.0417
   352.1110 353.9067 353.9067 354.7307 356.4746 356.4746 356.8624 357.6451
   357.6451 358.0203 358.0253 358.0684 358.0684 358.3202 358.3202 359.1505
   359.6170 359.6170 361.3464 361.3464 361.3613 361.9135 366.0056 366.0056
   367.6653 368.8718 369.0354 369.0354 369.6813 369.6839 369.6839 371.8247
   371.9683 372.1970 372.1970 372.5226 372.5226 374.2511 374.2511 374.2676
   374.6110 377.4031 377.4031 377.6153 378.1983 379.9602 379.9602 381.3762
   381.3762 382.0735 382.2538 382.2538 383.6241 383.6241 383.9090 384.9952
   385.6924 385.6924 386.1313 386.1313 387.3856 387.3856 388.0327 388.4924
   388.6832 388.6832 388.8385 389.1903 389.3626 389.3626 391.0853 391.1254
   391.1254 391.4711 391.4711 391.5075 391.9905 391.9905 392.0628 394.6165
   394.6165 396.2518 397.4841 397.7896 397.7896 399.0209 399.0209 399.2864
   400.9506 400.9506 401.2046 402.2184 403.5694 403.7186 403.7186 404.8470
   404.8470 405.0494 405.7973 405.7973 405.9588 407.5258 407.9076 407.9076
   409.2698 409.2698 410.4268 410.4268 410.5106 410.7011 410.7011 411.7476
   413.0518 413.0518 413.2977 416.5020 416.8651 416.8651 419.0208 419.5833
   419.5833 421.0194 422.1858 422.1858 422.2284 422.4378 422.4378 422.5509
   423.0742 423.0742 423.1345 423.9394 423.9394 425.1664 425.3773 425.3773
   427.6376 431.8637 432.5371 432.5371 433.2233 433.6066 433.6066 433.7778
   433.8679 433.8679 434.6978 434.6978 435.0166 435.2669 435.2669 435.2936
   435.5292 435.6418 435.6418 436.2216 436.2216 437.1869 437.5033 437.5033
   437.5567 438.8136 438.8136 439.5702 439.7431 440.0185 440.0185 441.3973
   441.3973 442.4444 443.9510 443.9510 444.1412 445.8356 446.1150 446.1150
   447.4861 447.4861 449.0501 450.7648 450.7648 451.9521 452.3541 452.3541
   453.4121 453.7670 453.7670 453.7974 453.8072 454.2336 454.2336 454.9569
   456.0261 456.0261 456.5015 456.6180 456.6180 458.8548 460.1981 460.1981
   460.2655 460.7465 460.7465 461.1439 461.4847 461.4847 461.8309 461.9950
   462.4105 462.4105 462.8246 463.4840 463.7120 463.7120 464.1352 464.1352
   465.1771 465.1771 466.7530 467.3287 467.3287 467.7835 468.0291 468.0291
   468.4377 468.4377 468.8775 470.1849 470.1849 472.1333 472.1333 472.6173
   472.7791 472.7791 472.8202 472.8557 474.4706 474.4706 474.4862 475.5411
   475.5411 475.6305 475.7566 476.1671 476.1671 476.2451 477.1509 477.1509
   478.0345 478.0345 479.8888 479.8888 479.8913 480.2877 480.4648 480.4648
   480.8009 481.7206 481.8782 481.9486 482.0239 482.0239 482.1116 482.1116
   482.4884 482.4884 482.5104 483.5457 483.5457 484.8304 484.8304 484.9649
   485.2419 485.7017 485.7017 486.5470 486.5793 486.5793 487.7263 487.7263
   487.8991 489.4644 490.4200 490.7195 490.7195 492.7345 492.7345 493.1560
   493.1560 493.1646 494.3289 497.7107 497.7624 497.7771 497.7771 497.8750
   497.8750 498.1584 498.1584 498.2864 498.6624 498.6671 498.6671 499.5748
   499.5748 500.3527 500.3527 500.5772 503.9364 503.9364 505.0316 505.5040
   505.5040 505.6922 505.8788 505.8788 506.3279 506.6456 506.6456 506.6920
   507.5210 507.5210 507.8143 509.2304 509.2642 509.2642 510.4736 510.4736
   510.5071 510.7306 511.0563 511.2098 511.2098 514.6720 514.6720 515.0611
   515.0740 515.0740 515.3671 516.5560 516.6728 516.6728 516.8925 516.8925
   517.0090 517.3421 517.3421 518.0659 519.1796 519.1958 519.1958 522.1452
   522.1452 522.2187 522.2899 522.4673 522.4673 522.7708 522.8900 522.8900
   526.3832 526.3832 526.6657 529.1181 529.2214 529.6744 529.6744 530.1028
   530.1028 530.5603 531.2916 531.2916 531.3339 531.9443 531.9443 532.1356
   532.2831 532.2831 532.6324 532.6324 533.0033 533.2648 533.2648 533.3864
   533.9924 534.4366 534.4366 537.0864 537.0864 537.1850 538.6052 538.6052
   539.3949 540.3488 540.3488 540.5059 540.7197 540.7985 540.7985 541.0984
   541.2769 541.3698 541.3698 541.9097 541.9097 542.9286 543.0419 543.0419
   543.8668 543.9623 543.9623 545.4650 545.4650 545.7069 545.7069 545.7727
   546.1959 550.9645 550.9645 551.0615 551.6023 553.6355 553.6355 553.9162
   554.1158 554.1158 554.8399 555.2862 555.2862 555.2924 555.3302 555.3776
   555.3776 555.6437 555.6437 555.6689 555.9354 556.5847 556.5847 559.0257
   559.0257 560.0827 562.1900 562.1900 562.1907 562.2647 562.2647 562.7365
   564.7921 564.7921 565.1867 566.0312 566.0312 568.7123 568.9936 568.9936
   569.8889 570.0979 570.3020 570.3020 570.3837 570.3837 571.3718 571.4368
   571.4368 572.2349 572.7478 572.7478 573.1650 573.9632 573.9632 574.7067
   574.7067 575.2003 576.0798 576.0798 577.2382 577.5953 577.8934 577.8934
   578.5428 578.6215 578.8183 578.8183 579.9209 579.9209 586.2636 586.8927
   586.8927 587.4706 587.8375 587.8375 588.8012 589.2977 589.2977 589.3671
   589.7142 589.7142 589.7519 590.4247 590.7573 590.7573 594.2854 594.3374
   594.3374 594.7451 594.7645 594.7645 595.2899 595.5752 595.5752 595.8859
   595.8859 596.5610 596.5636 596.8083 596.8083 597.0773 597.1862 597.1862
   597.9168 599.0132 599.0132 599.5815 599.6443 599.6443 599.9763 599.9763
   603.5949 603.5949 603.6947 605.1542 605.1542 605.3277 606.2745 606.6489
   606.6489 607.0176 607.4050 607.4050 607.5630 607.7307 607.7307 607.9349
   608.2394 608.2394 608.4918 609.3759 609.3759 611.1299 611.2704 611.2704
   611.4513 611.4513 611.5252 611.6979 611.7172 611.7172 613.0654 613.0654
   614.4665 614.5298 614.6909 614.6909 615.2692 615.3727 615.3727 615.3748
   615.8761 615.8761 616.5879 617.2553 617.7998 617.7998 619.5119 619.7360
   619.7360 619.9477 620.3002 620.3002 620.5268 620.7401 621.1968 621.1968
   622.0332 622.0332 622.8267 623.0008 623.0008 623.1962 623.9065 623.9065
   624.8734 624.8734 625.5181 625.5590 625.9025 625.9025 626.8220 627.1518
   627.1518 627.8453 628.1898 628.1898 628.6818 628.6818 628.7356 630.2290
   630.3533 630.3533 632.0582 632.1911 632.1911 634.2242 634.4590 634.5177
   634.5177 634.9469 634.9469 635.3560 636.2721 636.2721 639.7689 639.7689
   639.8769 640.2298 641.2555 641.2555 641.9208 642.0538 642.0780 642.0780
   642.3442 642.3442 643.9200 643.9527 643.9527 644.0832 644.0832 644.1165
   644.2165 644.4359 644.4440 644.4440 645.0294 645.1409 645.1409 645.6802
   645.6802 646.5772 646.5772 646.6835 647.0134 647.0260 647.0260 647.2600
   647.3922 647.6632 647.6632 649.5966 649.5966 649.8683 650.8038 650.8038
   651.9010 653.0596 653.0596 653.9786 654.5984 654.5984 656.5225 657.0832
   657.0832 657.1898 657.2540 657.7139 657.7139 657.8771 657.8771 658.9507
   659.1529 659.3612 659.3612 659.6592 659.6592 659.6712 660.5891 660.6805
   660.6805 660.8262 661.1757 661.1757 662.0597 662.0597 662.0774 662.8519
   662.8519 663.2420 663.2420 663.7204 664.2358 665.1179 665.1179 665.2553
   665.2992 665.6001 665.6001 665.6876 665.6876 666.7885 668.6564 668.6564
   669.0089 670.3419 670.5655 670.5655 670.6592 670.6592 671.6161 671.6161
   671.6724 672.0808 672.0948 672.0948 672.3027 672.3027 672.6134 674.8667
   675.3213 675.3213 675.4451 675.6556 675.6556 675.7252 675.9610 675.9610

          k = 0.5000-0.5000 0.5000 (  2452 PWs)   bands (ev):

   -28.6852  -9.5690  -8.5488  -8.5488   0.8947   7.9744   9.7893   9.7893
    17.6915  18.3705  18.3705  18.7534  22.1441  22.1441  25.8020  25.8020
    25.8797  31.9409  34.6828  34.9834  34.9834  39.2981  39.2981  40.0849
    43.5767  43.5767  46.6255  47.1733  47.1733  47.8694  51.1059  52.7275
    52.7275  55.6647  55.6647  55.7811  58.7877  59.2304  63.3031  63.3031
    65.0835  65.0835  66.8767  67.4814  68.8178  68.8178  69.5616  69.5616
    70.5256  70.5256  71.7781  74.2862  79.5580  83.4102  83.7684  83.7684
    85.0490  85.0490  86.1229  86.1229  86.4589  86.4589  87.2674  87.2674
    88.6271  88.7058  89.7118  89.7333  90.1653  90.1653  96.9252  97.6299
   100.5215 100.5215 101.7924 101.7924 102.2549 102.2549 103.1967 103.6621
   104.2511 104.2511 105.9166 105.9166 110.7060 113.1298 113.1298 113.2313
   113.7517 114.5858 114.5858 115.8778 115.8778 116.6297 118.4667 118.8379
   118.8379 120.4395 123.9814 123.9814 125.1973 126.0870 127.8007 127.8007
   128.2866 128.2866 128.5333 129.4989 132.2909 132.2909 134.4076 134.4076
   134.5013 135.2176 137.2427 137.2427 137.3248 138.4380 138.4380 139.1289
   140.9951 140.9951 142.5498 142.5498 143.8616 145.1460 145.1460 146.8279
   146.8457 148.4597 149.3755 149.3755 151.9422 151.9422 152.7099 152.7099
   153.0116 153.7339 155.3571 156.3103 156.3103 157.0965 157.5625 157.5625
   157.6833 161.2098 161.2098 161.7028 161.7028 163.9358 164.2164 164.2285
   164.6812 164.6812 165.3799 165.3799 168.9115 168.9115 172.7369 173.1255
   173.1255 173.7870 173.7870 173.8020 176.5081 176.5081 176.7149 177.2763
   177.3669 177.3669 178.2285 178.2285 179.4274 183.1175 183.5285 183.5285
   186.1252 186.5016 187.1602 187.1602 187.5236 187.5236 189.8605 190.5453
   192.8048 192.8048 193.6755 194.8686 196.0810 196.0810 197.1363 197.1363
   198.0190 198.0190 198.6063 199.6948 199.8812 199.8812 200.0188 200.0188
   200.3978 200.4244 200.5352 200.5352 200.9716 201.7075 201.7075 201.8165
   201.8165 205.2744 207.1207 207.6638 207.6638 211.1765 211.1765 212.4515
   212.5119 213.5412 213.5515 213.6995 213.6995 214.6929 214.6929 215.3491
   215.3491 215.5435 215.5435 216.3992 216.3992 216.6746 220.5243 220.5243
   221.2093 221.7747 222.5694 222.9895 225.2158 225.2158 225.7378 225.7378
   226.2329 226.8784 228.4884 228.4884 230.4428 232.7456 233.0319 233.0319
   235.0964 235.6769 235.6769 235.8095 236.2140 236.2266 236.2266 237.0702
   237.0702 238.5009 238.9159 238.9159 238.9438 238.9438 240.3671 240.3671
   241.8613 241.9377 241.9377 242.2277 242.2277 242.2727 242.3815 243.4751
   245.3885 245.3885 245.4155 250.8136 250.8136 254.0521 256.2674 256.2674
   257.3674 257.7092 257.7092 260.3036 260.6134 260.6134 260.8367 260.9386
   260.9386 261.0007 261.0007 261.4009 261.4571 261.8275 261.8279 262.3473
   262.3473 262.9382 262.9382 263.5141 263.5141 266.3117 269.2917 269.2917
   269.9451 271.3052 272.1038 272.1038 272.2215 272.6157 272.6157 273.3117
   273.3117 273.4209 273.8580 273.8580 273.9348 273.9501 273.9501 274.6505
   274.7452 274.9704 274.9704 275.5409 275.5409 276.9689 277.8019 278.1536
   278.1536 278.1567 278.1567 280.2142 280.2146 284.9509 289.2916 289.2916
   289.3175 289.3175 289.3792 289.5676 289.5907 289.5907 290.3800 290.3800
   292.4838 293.4139 293.4139 294.7156 294.7156 294.7349 295.1802 295.1802
   296.3884 296.4335 296.4886 296.4886 296.8226 296.8226 298.4791 298.8222
   298.8222 298.9665 298.9665 298.9677 299.0914 299.2237 300.7322 300.7322
   301.5915 301.5915 301.9209 301.9991 301.9991 302.6574 305.7437 305.7437
   312.3263 312.3738 312.3738 312.7146 313.6794 313.7794 313.7794 313.8801
   313.8801 314.3104 314.3104 314.3320 314.3320 314.5083 314.5363 317.1739
   321.7672 321.7672 321.8401 321.9719 322.3968 322.3968 322.6287 322.6287
   323.0440 323.8453 323.8453 325.7378 326.3618 327.2553 327.3251 327.3251
   327.3620 327.3620 327.4278 329.2515 329.4755 329.4755 331.8584 332.3870
   332.4382 332.4382 332.8655 334.2756 334.2756 334.2920 334.2920 334.6285
   334.6285 335.9722 336.2577 336.2577 336.5159 336.5159 336.8705 336.8705
   336.9145 337.2506 337.7035 342.0706 342.0706 342.0976 342.0976 343.7374
   344.0862 344.0862 344.5179 344.5179 344.8129 347.9067 350.0637 350.3632
   350.3632 350.3636 350.3636 350.5185 350.8369 350.8369 350.8852 350.8852
   350.9859 354.5433 355.7455 355.7879 355.7879 355.9571 355.9571 356.0150
   357.4443 359.6154 359.6154 359.7100 359.7100 361.1245 361.1245 361.1882
   361.5591 361.5591 362.1384 362.1749 363.9389 364.0655 364.0655 364.4408
   364.6391 364.6391 369.0138 372.5757 372.5757 372.8882 373.0646 373.0646
   373.3819 373.3819 373.4704 373.4839 373.5123 373.6480 373.7362 373.7362
   374.7135 374.7135 377.1228 377.1228 377.2596 377.3605 377.3915 377.3915
   377.8216 380.5402 380.5402 381.5629 381.5629 381.7005 382.1530 382.2186
   382.2186 383.7244 383.7244 383.8978 383.9930 384.3714 384.3714 386.3471
   386.4668 386.5675 386.5739 386.5739 386.7521 386.7521 386.9069 387.0045
   387.0045 387.0297 387.1335 387.1335 387.1381 388.0082 388.0082 388.0833
   388.0833 390.4192 390.4192 390.5194 390.5194 390.5232 390.6256 394.2634
   398.4738 398.5324 398.6380 398.6380 398.9695 398.9695 400.7146 400.8543
   400.8543 401.1341 401.1341 401.5929 401.6006 401.6800 401.6800 401.7296
   401.7296 402.8030 403.4580 403.4580 403.4670 403.4670 403.5164 403.5220
   410.8360 410.8360 410.9378 410.9611 411.1209 411.1209 411.6171 412.3790
   412.3790 413.2450 413.2450 414.2988 416.5560 417.2065 419.5899 419.5899
   419.6912 419.6912 420.5828 420.8405 420.8405 422.0649 422.0649 422.2348
   422.2348 422.2437 422.2480 422.2769 422.2769 422.6886 424.3027 424.3027
   425.3383 425.3383 425.6341 426.6585 427.4044 427.4044 427.4065 427.4065
   429.8345 429.8351 431.8518 432.6086 432.6086 434.2919 434.2919 434.7076
   435.3211 435.3211 435.6264 435.7100 436.2808 436.2954 436.2954 436.3790
   436.6755 436.6755 437.3183 437.3183 437.4169 437.4169 438.2388 439.4852
   439.4852 442.1025 442.1025 442.1104 442.1104 442.3397 442.3399 442.5231
   443.6001 444.5370 448.1549 448.1549 450.0054 450.1096 450.1096 453.0733
   453.0803 453.0803 453.0994 453.0994 456.5858 456.5858 456.6057 456.9435
   458.0349 458.0349 458.3692 458.5802 458.5802 458.8994 459.1554 459.1554
   459.8934 459.8934 460.1193 460.2589 460.2608 460.2608 460.5819 460.9400
   460.9400 461.1781 461.1781 461.3520 462.3585 462.5022 462.5022 462.7886
   462.8536 462.8536 462.8851 462.8851 463.1313 463.5574 463.5574 465.0502
   465.2392 465.2392 465.7033 465.7406 465.7406 466.4248 466.8509 466.9551
   466.9551 466.9880 466.9880 467.2524 469.2239 469.2239 470.0825 470.0825
   470.1535 472.6825 474.1958 474.1958 474.4607 474.6065 475.0080 475.0080
   477.3567 477.3845 477.3845 477.4115 477.4446 477.4446 479.7974 481.7282
   481.7282 482.6178 482.6178 483.5739 484.8302 484.8302 484.9393 484.9393
   485.0095 485.4576 485.8709 485.9320 485.9320 486.4579 486.7626 486.7626
   487.1265 487.1265 487.2096 487.2135 487.2874 487.2874 490.7564 490.8832
   490.8832 491.0535 491.0535 491.3743 491.4123 491.4123 491.8716 491.8716
   491.8723 492.7181 496.7932 497.8688 497.8773 497.8773 498.1239 498.1239
   498.2746 498.2746 498.5077 498.5077 499.3071 499.6819 501.6037 501.6037
   501.6048 501.9268 501.9843 501.9962 502.0141 502.0141 502.0746 502.0746
   502.6226 502.6226 503.5431 506.6349 508.3537 508.3537 508.4352 509.4390
   509.6766 509.6766 513.0039 513.0039 513.9791 514.9545 514.9654 514.9654
   515.0016 515.0675 515.0675 515.1887 515.1887 515.7702 515.7702 516.4334
   516.8657 516.8657 518.2052 518.2052 520.9262 520.9262 521.7211 522.2345
   522.2482 522.2663 522.2663 522.4510 522.9517 522.9517 523.0397 523.0397
   523.0459 523.4171 523.6909 524.4342 524.4342 525.6708 525.6708 525.7513
   525.7513 526.3005 528.2065 528.2317 528.2317 528.2445 528.4192 528.4192
   530.2639 532.0854 532.0854 532.8551 532.8551 533.7815 536.6639 536.6650
   536.7103 536.7103 536.7688 536.7688 537.0054 537.2563 537.2563 537.3064
   537.4110 537.4110 537.5654 537.9942 537.9942 538.1061 538.1061 539.3081
   542.2953 542.2953 542.2970 542.2970 542.2982 542.3011 546.3724 547.9264
   547.9264 548.1832 548.2414 548.2414 548.3755 548.3755 548.4922 548.5026
   548.7130 548.7130 549.0705 549.1028 549.1028 549.2290 549.2290 549.3171
   550.8200 551.0951 551.0951 551.6080 552.3527 552.3527 553.6324 553.6324
   553.6407 553.6414 553.8727 553.8727 559.5000 561.5756 562.3229 562.7220
   562.7220 562.8599 562.8615 562.9938 562.9938 563.1492 563.1852 563.1852
   563.4800 563.4800 563.5124 563.5124 564.2576 564.2734 564.2734 564.5680
   569.6597 569.6597 569.9945 570.2571 570.2571 570.5958 571.4005 571.4921
   571.4921 571.6908 571.6908 571.8287 571.8289 571.9260 572.1685 572.1685
   572.5759 572.5759 572.6525 572.6525 572.7153 572.9781 573.0914 573.0914
   573.1320 573.1320 573.7534 574.3127 575.3955 575.3963 575.5482 575.5482
   575.5698 575.5698 577.6687 577.6687 577.6966 577.7196 577.7196 577.7249
   578.2613 578.2613 578.3831 578.3831 578.4395 578.4633 578.5716 578.5716
   589.3982 589.6685 589.6685 589.7594 589.8721 589.8721 590.1136 590.1136
   590.1212 590.1212 590.5309 590.5779 590.5779 590.5808 590.5851 590.6811
   590.6811 590.6965 594.4303 594.5038 594.6328 594.6328 595.0944 595.0944
   596.5477 596.5477 596.7239 596.7239 596.7766 597.0117 597.2214 598.8976
   598.8976 599.8288 599.8383 600.0064 600.0064 600.0237 600.0237 600.3756
   600.8593 601.0345 601.0962 601.0962 601.1853 601.1853 602.1203 602.1203
   603.2627 603.2627 603.2928 603.6482 604.6247 605.6702 605.6702 606.8685
   606.8685 608.0799 608.0799 608.2687 611.3205 611.3205 611.3225 611.3225
   611.7753 612.0729 612.0729 613.3030 613.3338 613.3338 613.8619 613.8624
   614.0966 614.1914 614.3658 614.3658 614.5785 614.6183 614.6183 614.7785
   614.8164 614.8164 614.8906 614.8909 614.9019 614.9019 615.5303 615.5303
   615.8621 615.8621 618.8401 618.8401 618.8445 618.8445 620.4719 620.4719
   623.2527 623.2770 623.2770 623.3977 623.6854 623.6854 628.0506 628.1841
   628.1841 628.7492 629.0793 629.0793 629.6684 629.6684 631.8994 632.1100
   632.1292 632.1292 632.8633 633.9612 633.9612 634.7636 635.0102 635.0102
   635.0327 635.0327 635.0391 635.0640 635.7066 635.7066 635.9608 636.0075
   636.0075 636.4889 637.0264 637.5481 637.5481 637.5518 637.6216 637.6216
   638.0282 638.0282 638.4574 638.6669 638.6669 639.2021 641.7102 641.7102
   643.1141 644.6826 647.1804 647.2710 647.2710 647.5814 647.5814 647.8540
   648.2634 648.3300 648.5795 648.5795 648.7120 648.7120 648.7590 648.8265
   648.8704 648.8704 648.9499 649.2760 649.2760 649.3661 649.3661 649.6367
   650.1537 650.1537 650.5434 651.4998 651.4998 653.0519 653.0519 653.3934
   653.3934 653.7713 653.7713 653.9552 653.9687 654.0386 654.0386 654.2935
   654.2935 654.3585 654.6434 654.6434 654.8338 654.9070 654.9070 654.9536
   655.1302 655.1309 655.1505 655.1505 655.3556 655.3556 659.6265 660.3844
   660.3844 660.6080 661.9962 661.9962 665.9031 665.9125 665.9125 665.9235
   665.9386 665.9386 671.0561 672.8589 672.8589 674.1599 674.1599 674.7344
   674.7377 674.7377 674.7649 674.7846 675.0839 675.1449 675.3372 675.3372
   675.4261 675.4261 675.9229 675.9229 675.9404 675.9487 675.9487 676.0043
   676.1755 676.1755 676.1776 676.2762 677.2389 677.2389 680.3323 680.3323

          k = 0.0000 0.5000 0.0000 (  2429 PWs)   bands (ev):

   -28.7253  -8.9791  -8.6277  -8.6277  -0.1133   9.4163  11.5256  11.5256
    13.3778  17.5494  17.9032  17.9086  17.9086  21.6758  27.1242  29.4658
    29.6294  29.6294  35.6970  35.8171  36.1132  37.6210  37.6210  42.1816
    42.1816  44.6442  46.7850  48.2250  48.2250  51.6033  51.6898  51.8151
    51.8151  54.3276  58.6297  59.4905  59.5878  59.5878  61.6618  61.6618
    62.0489  62.0747  62.9922  64.8321  67.7025  67.7025  68.4385  70.1949
    70.6832  71.0268  75.5605  75.5605  78.4070  79.0684  79.0684  82.7863
    82.7863  83.3002  83.8445  84.2568  84.2568  85.0867  88.7181  88.7181
    89.0442  89.8813  92.4091  92.8755  92.9115  94.9711  94.9711  98.3595
    99.7129  99.7129 101.6706 101.9274 102.5637 103.0841 104.5178 104.5178
   106.7771 106.7771 108.0432 109.0043 113.2517 113.5712 113.5712 115.1179
   117.2086 117.4155 117.4155 118.2200 118.5243 120.4416 120.8214 120.8214
   121.3244 121.5556 121.5556 121.9548 123.6358 123.6358 124.5077 124.5582
   125.8713 130.5236 132.2341 132.2835 132.2835 133.0118 133.0450 133.0450
   135.1212 135.4490 135.4490 135.5311 136.9093 136.9214 136.9214 137.1016
   137.6014 137.6014 139.1102 140.5990 140.8364 140.8364 142.0326 142.4835
   142.7191 145.2543 145.2543 146.2721 147.2136 147.2136 148.0241 151.0002
   153.4404 155.1512 155.9826 155.9826 157.2149 160.0938 160.1974 160.1974
   160.5067 161.5501 161.5501 161.7570 162.2417 163.0789 164.4056 164.4056
   165.4572 168.0712 168.0712 168.6083 171.1014 171.1358 171.3958 171.8931
   171.8931 174.4568 174.5391 174.5391 176.2376 176.8952 176.8952 177.3438
   178.4047 180.9384 180.9440 181.6042 181.8506 181.8506 183.6389 185.6174
   185.8491 185.8579 185.8579 188.5424 188.5424 189.5405 189.7083 190.3954
   190.6078 190.6078 192.7492 192.7492 193.0847 193.7534 195.8941 195.8941
   196.1089 197.0334 197.1942 197.1942 199.8163 199.8523 200.9385 200.9385
   203.3409 203.4240 203.4240 204.2735 204.8628 205.4914 206.2438 206.2438
   206.5725 206.7962 208.4716 208.4716 208.8967 208.8967 208.9231 210.1744
   210.2332 211.4486 211.6297 211.8660 211.8660 213.3201 214.0855 214.5950
   214.5950 217.0248 219.1021 220.3377 220.3377 220.5919 222.7303 222.7303
   223.3108 223.7362 225.3219 226.9717 226.9717 228.9373 229.5566 229.6973
   229.6973 230.8334 231.6190 232.1532 232.1532 232.7607 233.0964 233.7920
   233.7920 234.0368 235.6986 235.8633 235.8633 236.3463 236.3463 236.6849
   236.7889 237.4818 239.1329 239.1329 241.2281 242.0698 242.2575 242.2575
   242.2989 242.8473 242.9157 243.3999 243.3999 243.8429 244.0042 244.3868
   244.7502 245.3496 245.3496 246.0966 246.1392 246.1392 247.8330 248.1970
   248.1970 248.2474 248.3701 248.9911 249.0412 249.0412 250.1352 250.8841
   253.8121 253.8121 255.2247 256.3263 257.6522 257.6522 257.7969 257.9114
   259.6199 259.6199 260.4889 261.3055 261.3055 261.3254 261.5018 263.0001
   267.5295 268.1610 268.1610 268.5625 268.5625 269.6943 270.3652 271.4996
   272.7219 272.7219 276.3922 276.7011 276.9277 276.9277 279.7743 279.7743
   279.9637 280.0550 281.1135 281.1135 281.1227 281.9034 281.9034 281.9680
   282.3635 283.9711 284.4664 284.4664 284.7398 287.4346 287.5907 287.8078
   287.8078 287.9473 288.1793 288.4025 288.4025 288.7377 289.0825 290.0457
   290.0457 291.5112 292.6195 294.3222 294.3222 294.3392 295.5729 295.9836
   295.9979 295.9979 297.6849 297.9750 299.3102 299.3102 300.9018 304.0853
   305.0442 305.0442 305.7850 307.4528 309.4412 309.4412 309.7829 310.7415
   310.8195 310.8195 311.1500 311.1500 311.1789 311.8065 312.2969 312.6267
   312.7416 312.7416 314.8842 314.8842 315.4947 316.6426 317.1243 317.1243
   317.1649 318.6004 319.0078 319.3332 319.3628 319.3628 319.7143 320.0717
   320.0759 320.0759 320.2743 320.7049 320.7049 320.7265 321.1681 322.0251
   322.2719 322.2719 322.5758 322.7561 322.7561 322.9661 324.0478 324.5969
   327.3839 327.4029 327.4029 327.4469 327.4469 327.4557 328.3263 329.0974
   329.0974 329.6857 329.7756 330.0264 330.7739 330.7739 331.6970 333.0120
   333.3843 333.3843 333.4730 334.5668 336.5858 336.5974 336.5974 337.3540
   337.6711 337.6798 337.6798 337.7524 338.3421 339.3041 339.3041 340.5154
   341.8425 344.1980 344.1980 346.2121 347.4168 347.4519 347.4519 347.5963
   350.1425 350.2430 350.2430 350.2880 350.5072 350.6963 350.8534 350.8534
   351.0722 354.3029 354.3029 354.8500 354.8753 354.9821 354.9821 355.7271
   356.3276 356.5924 356.5924 356.7186 356.8898 356.8898 357.2097 357.3784
   359.7644 359.7644 359.9481 360.4971 360.4997 360.4997 360.6373 366.1754
   367.3477 367.3477 367.7320 369.6429 369.6429 369.8513 369.9978 370.4514
   370.7478 370.7478 370.8294 371.0854 371.0854 371.2504 371.4473 371.6453
   371.6453 372.8267 372.9787 373.3809 373.3809 373.5175 373.6438 375.9193
   377.3616 377.3616 378.1359 379.5280 379.5280 379.5729 380.1888 380.2253
   380.8491 380.8491 381.6784 382.1528 382.2065 382.2065 382.2350 383.3463
   383.3463 383.9292 385.2201 386.9365 387.2332 387.2332 387.4680 389.8359
   390.2438 390.2661 390.2661 390.2946 392.0815 392.1909 392.1909 392.6031
   393.2335 393.4337 393.4337 393.5702 393.7938 394.7987 394.7987 395.4407
   397.2494 397.2494 397.2821 397.6809 397.8483 397.8483 398.4572 398.4885
   399.0217 399.4300 399.4300 399.6550 399.8805 399.9674 399.9674 400.1453
   401.4994 401.4994 401.5631 401.6127 401.9641 401.9641 402.7126 406.2081
   407.6906 407.6906 408.3050 409.0757 412.1493 414.6068 414.6068 415.2585
   415.6256 415.6256 415.6319 416.9022 416.9022 417.3610 417.3897 417.7562
   418.9510 418.9510 420.6937 422.6017 424.0057 424.0822 424.0822 424.1379
   426.7138 426.7138 426.7162 427.7240 429.7027 431.0999 431.0999 431.8601
   431.9745 432.0008 432.0008 432.4318 432.4318 432.5217 432.5926 433.0804
   433.1020 433.1644 433.1644 433.3939 433.6865 433.7772 433.7772 433.8402
   433.8890 434.3037 434.3037 435.0816 435.0816 435.1421 436.1269 436.3739
   436.5153 436.5153 436.6200 437.0037 437.0059 437.0059 437.2846 437.6964
   438.4464 438.8303 440.4097 440.4097 441.1722 441.2529 441.2605 441.2605
   441.7452 443.8373 444.8169 444.8169 444.9861 446.3745 449.7386 449.7386
   449.8250 449.9398 451.7900 451.7900 454.5872 455.5700 455.5746 455.9198
   455.9198 456.3614 458.2797 458.2797 458.3635 458.6346 458.6346 458.9489
   459.7428 459.7428 459.7940 459.8624 459.9025 459.9025 459.9071 460.1210
   460.6297 460.6297 460.9548 461.1522 462.4169 462.4169 462.4464 462.6987
   464.1073 465.4122 465.4122 466.1256 466.3952 467.8798 467.8798 468.3303
   469.0116 469.0116 469.4512 469.9738 470.5226 470.6107 470.6107 471.0102
   471.3863 471.3863 471.4396 472.0127 472.0448 472.0448 472.1137 472.7391
   473.6919 474.2671 475.2303 475.2303 475.2568 475.5111 476.0020 476.0020
   476.5127 477.1664 477.1664 477.2671 477.3350 481.1441 481.1441 482.8960
   482.8960 483.0113 483.0469 483.2789 483.9986 484.0802 484.0802 485.6193
   485.6882 487.6064 487.6064 488.2411 490.6706 491.3919 491.3919 492.3777
   492.5981 492.5981 492.8160 492.8557 492.8557 493.4538 493.9491 494.1748
   494.1748 494.3535 494.4216 495.3827 495.5738 495.5738 496.0858 496.6762
   497.2931 497.4671 497.6226 497.6226 497.7499 497.7803 498.0253 498.0253
   498.3526 498.6199 498.6199 498.9263 499.1489 499.2459 499.6087 499.6087
   499.6288 499.6987 499.6987 499.8884 500.1724 500.4541 501.2078 501.2078
   502.2967 502.5854 502.5854 504.7042 504.8189 504.9466 504.9466 505.5043
   506.1297 509.1191 509.2089 509.2089 509.2828 510.4147 510.4147 510.4843
   510.9178 511.8751 511.8751 512.0921 512.2290 512.2290 512.2516 512.2586
   512.3312 512.4796 512.5345 512.5345 512.6518 512.6589 512.9320 512.9320
   513.0520 513.1540 515.8474 515.8474 516.1914 516.3803 516.3803 516.5747
   517.6511 517.8051 518.0768 518.0768 518.2858 519.7281 519.7281 520.2204
   520.5015 523.0162 523.0162 523.2737 523.2996 527.4964 527.4964 527.6083
   528.0218 528.7890 529.3718 529.3718 530.9701 531.0511 531.0711 531.0711
   531.9014 534.2416 534.2416 535.6335 536.0108 538.7489 538.7489 538.9645
   539.0427 539.5259 539.5259 539.7701 541.4819 541.5587 543.6303 543.6303
   544.0382 544.1117 544.1117 544.1313 544.3159 544.9750 545.1564 545.1564
   545.5425 545.9167 546.0726 547.1215 547.1215 548.9176 549.4175 549.4175
   549.9384 550.2045 550.6077 550.6077 550.6261 550.7008 550.7904 550.7904
   550.8547 550.8650 551.6025 555.4128 555.4128 555.4390 555.7499 556.0535
   556.0535 556.3863 556.6982 557.4863 557.4863 557.5567 558.2552 558.7988
   559.2118 559.2118 559.8442 559.8880 560.6024 560.6024 561.3963 562.0633
   562.3065 562.3065 562.5084 566.1485 566.5423 566.5423 568.4704 568.6939
   568.6939 569.6669 569.8755 570.2042 570.2576 570.2576 570.4807 570.5307
   570.6050 570.6050 571.2917 571.6188 571.7883 571.7883 571.8743 571.8949
   572.2675 572.2675 572.3128 572.6204 572.6204 573.6174 573.6174 573.6610
   574.3705 574.5424 574.6083 574.6083 575.0103 575.9061 576.1506 576.1708
   576.1708 576.4030 576.4121 576.4121 576.4242 579.2358 579.3967 579.3967
   579.8195 580.6731 581.0543 581.2608 581.2608 581.4192 581.4192 581.9679
   582.7623 583.0238 583.1480 583.1480 583.1718 583.4942 583.9553 584.4656
   584.4656 587.6570 587.6586 587.6691 587.6691 587.7073 587.8322 587.8322
   588.0421 589.0918 590.6883 590.6948 590.6948 590.6996 595.7434 595.7434
   595.7781 595.7807 596.2444 596.2444 596.5825 597.1915 597.5193 597.5193
   597.5943 597.7100 597.9207 598.4197 598.4197 598.4299 599.1374 599.1374
   600.5248 602.8826 602.8826 602.8961 603.4962 605.7966 606.8527 606.8527
   609.4227 609.4227 609.4695 609.7315 609.9501 610.4145 610.5098 610.5547
   610.7181 610.7181 611.7512 611.7512 612.1077 614.3549 614.3549 615.3025
   615.4103 615.4518 615.6141 615.6141 615.7045 615.7045 615.7612 618.5240
   618.8318 619.4482 619.9254 619.9418 619.9418 620.6443 621.5116 621.5116
   621.6791 621.7258 621.7258 621.8521 621.8588 621.8822 621.8822 622.1048
   622.5191 622.5741 623.0111 623.0111 623.1068 623.4567 623.8834 623.9136
   624.1968 624.1968 625.0340 628.1144 628.1144 628.1187 628.6703 628.6703
   629.5880 630.5158 632.4489 633.2192 633.2192 633.6965 634.0389 634.0459
   634.0459 634.1040 634.2691 634.2691 634.5405 634.6343 634.9182 634.9182
   635.0177 635.0435 635.0435 635.4634 636.6248 636.6864 638.2342 638.2422
   638.2422 638.5225 640.6698 640.6793 640.6793 640.7417 641.4090 641.4090
   641.4254 642.0407 643.0248 643.0593 643.0593 644.0757 644.1799 644.7740
   644.7740 644.8420 645.5818 645.7216 645.7216 645.7576 647.1899 647.7906
   647.7906 648.8088 649.4755 649.6253 649.6253 649.9279 650.2767 650.3077
   650.3077 650.9686 654.3026 654.9604 655.3985 655.3985 655.7068 656.1671
   656.1671 656.1972 656.4123 656.4123 656.7353 656.7353 656.7430 656.9732
   657.0627 657.2037 657.5585 657.5585 657.5621 658.7438 658.8823 658.8823
   659.3108 660.0405 660.1126 660.2012 660.3667 660.3667 661.3466 661.5379
   661.7175 661.7175 661.7457 661.8582 661.8582 662.0135 662.2198 662.2198
   662.2966 662.3852 662.3852 662.3995 662.4440 663.0223 663.0223 663.0491
   663.2572 663.7742 664.1136 664.1136 664.7782 665.5010 668.0511 669.2190
   669.2190 669.8960 670.1898 670.6009 671.1058 671.1058 672.4264 672.6545
   673.1035 673.1035 674.5285 674.5285 674.5473 674.7954 674.8121 674.8965
   674.9168 674.9168 674.9306 675.1123 675.1419 675.1419 675.5172 678.7187

          k = 0.7500-0.2500 0.7500 (  2424 PWs)   bands (ev):

   -28.6668  -9.3099  -8.8182  -8.6694   0.2262   9.3278  10.2556  10.6214
    14.6731  18.3596  19.0116  19.9554  20.4343  22.7280  24.5305  27.2700
    27.5835  32.2066  33.6837  34.2390  36.6713  38.0654  39.1631  40.8841
    42.0686  43.7200  44.3694  45.2318  47.6285  49.3284  50.7816  52.8938
    54.0237  54.6924  55.5359  56.1501  58.4562  59.3336  59.3749  62.5778
    65.5907  66.1095  68.1332  68.7235  68.9158  70.9249  71.1573  71.7550
    72.2774  73.7070  74.5076  74.9897  78.7452  79.1171  80.2167  81.3760
    81.8753  82.6063  83.1766  85.1899  86.6227  87.4619  87.4795  89.0278
    90.9551  92.0410  92.6901  93.0587  94.1110  94.9289  95.0634  96.4174
    97.3987  97.3999  99.8762 100.6451 100.9082 101.4670 102.4980 102.8920
   104.6863 105.6190 106.1220 106.9481 108.0759 108.6672 110.0343 113.1690
   113.2593 114.1455 115.5414 116.3869 118.0267 118.3754 119.4278 120.3925
   120.4551 122.1359 122.2689 122.5339 123.6208 123.7587 124.3235 125.0570
   126.2466 128.2475 128.6837 129.8049 130.4658 130.7836 132.0910 132.1920
   134.4340 136.3553 137.1737 138.2398 139.3509 139.7152 140.7159 141.1868
   141.6917 142.0215 143.5880 143.7015 144.8398 145.7854 146.8501 147.2502
   147.5512 149.9048 150.8578 151.1089 151.2109 152.2564 152.7664 154.2917
   155.2458 156.4208 156.8660 157.0770 157.7673 158.1172 158.3522 159.4999
   160.6630 160.9975 161.1785 162.7133 163.0348 164.2578 164.7692 165.8354
   166.6745 167.2483 167.3876 167.7235 167.8168 168.8127 169.6310 172.0311
   172.3228 173.2892 173.9755 174.5463 174.6283 175.8098 177.6439 177.9433
   177.9872 178.2116 179.2724 180.0609 180.5891 181.0043 182.3906 183.1980
   183.8996 184.1201 184.6383 185.3702 186.3195 186.4550 186.7399 187.1429
   187.7635 187.7735 189.1912 189.8920 190.6769 191.5746 193.0119 193.2892
   194.2550 195.8853 196.5370 197.3649 197.9941 198.3014 198.9362 199.7344
   200.3964 200.6860 201.2563 201.5894 201.7715 202.2502 204.0976 204.7664
   206.2318 207.0184 207.1014 207.9059 210.1855 210.8694 211.0790 211.8006
   212.1158 213.1717 213.3702 213.4201 213.8760 213.9693 215.2308 215.4343
   216.2313 216.3734 216.4706 216.6737 217.8348 219.8540 219.9110 220.6198
   221.5441 221.7019 222.0416 223.6322 225.4272 225.7494 226.1892 228.4958
   229.8483 230.6534 231.0901 231.4611 231.8264 232.6291 232.7008 233.4552
   233.4777 233.5353 233.8002 234.1806 234.6353 235.6684 236.1450 237.2271
   238.3912 238.6765 239.2879 240.2064 240.6547 241.2095 243.0178 243.4612
   244.5366 244.7123 245.4361 246.0378 246.5706 247.0017 247.0087 248.0539
   249.7072 249.7235 250.2212 251.0000 251.1464 251.8493 252.2605 252.7901
   253.8329 254.2814 255.1988 256.0074 256.9882 257.8565 258.9165 259.5879
   260.1778 260.3215 260.5485 260.8643 261.3425 262.1546 262.5867 262.9366
   263.8188 264.7913 265.0492 265.3446 265.5733 265.9224 266.3681 266.7762
   267.8680 268.0291 268.2047 268.7617 268.8426 269.3401 270.1999 270.4039
   270.7461 270.8420 271.4517 271.4530 271.6586 271.8227 274.3086 275.2997
   276.4619 276.7686 279.2416 279.5263 280.4999 280.6155 281.0479 281.4755
   282.4992 282.5719 283.9174 284.3101 284.4620 284.7574 285.0579 285.6016
   286.0515 286.2563 286.5864 287.0681 287.5055 288.5203 290.2161 290.2369
   290.6241 291.1655 291.4894 292.3629 292.7926 294.1896 294.8851 295.4725
   296.6051 297.2894 297.9917 298.2850 298.5572 298.8414 299.1005 299.3437
   299.5712 299.6070 300.1668 300.1719 300.7441 300.7630 301.1062 302.1255
   302.1791 303.8577 304.7980 305.1866 305.6911 307.2452 307.2567 307.7682
   308.7332 309.5057 309.7922 310.6359 310.8867 311.4378 311.9875 312.0986
   312.5465 313.2674 313.4261 313.8476 313.9354 314.1931 314.6866 315.0164
   315.6089 316.2499 316.9237 317.6207 319.6209 320.7358 320.9126 321.4905
   322.0442 323.1400 323.2295 324.1094 324.1184 325.1562 325.5930 326.0204
   326.4235 327.1294 328.6190 328.6761 329.2070 329.5977 330.2102 330.4662
   330.8236 331.5372 331.5534 332.1301 333.0003 333.2162 334.1046 334.5369
   335.2490 335.2837 335.5567 335.8949 337.6853 338.0906 338.2028 338.5430
   338.9642 340.7521 341.3343 342.2934 342.3309 342.7766 343.0335 344.0119
   344.2075 344.7289 344.8185 346.4879 346.9263 348.0015 348.7507 349.3524
   350.2813 351.2737 351.2766 352.0525 352.9130 353.2477 353.5114 354.0956
   354.2036 354.3965 354.5972 355.8005 356.4866 356.6041 357.0163 357.2576
   358.8001 359.3201 359.8970 360.4407 361.7312 361.8505 361.9167 362.1103
   362.4155 362.9366 363.1450 363.3661 363.8141 364.0293 364.3084 364.3414
   364.7026 365.5406 366.1307 366.6186 366.6776 366.8596 367.2237 368.3248
   369.2751 369.4043 369.7554 369.9622 370.9758 372.9875 373.2826 373.2896
   374.2261 374.2878 374.8235 375.2891 375.8057 375.9967 376.5852 378.1315
   379.5106 381.3006 381.6337 381.6642 381.7464 381.9283 382.0959 382.1445
   382.8833 383.6145 384.2069 385.1801 385.2272 385.8529 387.0852 387.4880
   388.0462 388.6714 388.6815 388.8795 389.0798 389.4233 389.9246 389.9572
   390.8961 391.0305 391.1329 391.6480 391.7645 392.1257 392.1536 393.0097
   394.0641 394.2305 394.5326 394.5917 394.7263 395.7643 396.4404 397.8968
   398.0976 399.2937 399.3691 399.4248 399.4914 399.6507 399.9060 400.5886
   401.0164 402.4346 402.6542 403.0696 403.2507 403.7068 403.8641 405.6710
   406.9642 407.0765 408.1812 408.4523 409.1208 409.1271 409.8764 410.0258
   410.5205 410.6462 410.8810 411.2341 412.4302 412.7307 412.9599 413.1703
   413.3074 413.4000 413.5475 413.7815 413.9774 414.1217 414.6054 415.4555
   416.9523 417.0566 417.3879 418.7359 418.9372 419.7415 420.0131 420.1370
   421.0513 421.1566 421.8345 422.3276 422.4177 422.6509 422.7145 423.2649
   424.3375 424.6511 425.1895 426.1029 426.6616 427.4430 428.4792 429.0092
   430.1441 430.6556 430.7343 430.9101 431.6303 431.7514 431.9722 431.9792
   432.4432 433.1533 433.3694 433.5925 433.8747 434.1025 434.5447 434.9968
   435.4338 435.9157 437.4230 437.5689 437.7959 437.8864 437.9115 438.2839
   438.3443 438.7761 439.5057 439.6709 439.8906 440.5512 440.6547 440.9445
   442.7164 442.8096 443.1129 443.3018 444.7721 445.6371 446.7475 447.7875
   447.9584 448.3401 450.0653 450.4514 450.6057 450.7642 451.0955 451.3885
   451.6791 451.9467 452.0611 452.6897 452.9556 453.9092 453.9839 454.2614
   454.3788 454.9628 455.2688 455.4676 455.9883 456.3240 456.7547 457.3790
   457.4022 457.5086 457.7517 458.2202 458.4002 459.5974 459.7235 460.4857
   460.6750 461.6659 461.7609 462.4124 463.8697 463.8795 464.1999 464.2393
   464.6285 465.3876 465.7351 466.4329 467.1174 467.9897 468.6054 468.6448
   468.8929 469.4961 469.8749 470.7793 471.3477 471.6448 471.6790 472.2247
   474.3691 475.2229 475.2937 475.4320 476.1888 476.3904 476.9144 478.6753
   478.6961 479.0527 480.3581 481.0291 481.2341 481.6525 481.7785 481.9495
   482.2030 483.5964 483.9387 484.4200 484.4302 484.5200 484.8169 485.0593
   485.2530 485.5448 485.5470 485.6348 485.8214 486.3094 487.3175 487.7027
   488.0878 488.2711 488.4166 489.6487 490.8093 492.5446 493.0883 493.6471
   493.7199 494.2649 494.6170 495.1181 495.9482 496.1757 496.5563 496.5807
   497.3484 497.5367 497.6114 497.8745 497.9682 498.2505 499.1888 499.4278
   499.8530 500.4658 500.5645 501.0741 501.5765 501.5912 502.0350 503.2548
   503.3769 504.3397 504.3981 505.0258 505.3005 506.0190 506.2134 506.3885
   506.4704 506.9775 507.6555 507.8563 507.9336 509.0529 509.1170 509.5887
   512.3402 512.8102 512.8627 512.9960 513.1535 513.2561 513.3331 513.3890
   513.5655 513.9006 514.0897 514.5600 516.1979 517.0024 517.1279 517.1729
   517.3795 517.7190 517.7669 518.2278 518.7651 518.8360 519.8820 519.9059
   520.2063 521.0927 522.1931 522.2546 522.4659 522.4793 523.5591 523.5956
   523.7852 524.0951 525.2720 525.6766 525.6985 526.1956 526.5389 527.8639
   528.3142 528.9038 529.4400 529.5038 529.6648 530.5233 530.6387 530.7611
   531.0098 531.2908 532.9594 533.9326 534.1834 534.4344 534.5050 535.6184
   535.8179 536.2282 536.2289 536.9057 537.5392 537.8975 538.5924 539.3669
   539.5449 539.9949 540.2000 540.8286 541.0170 541.0302 541.3334 541.6736
   541.7405 541.8141 542.5122 543.6019 543.9108 545.4981 545.6956 546.0179
   546.4708 546.7438 547.2453 547.2726 548.1408 548.3117 548.6171 548.8470
   549.4649 549.7119 550.0270 550.1518 550.7555 550.7884 550.9015 551.2102
   551.6238 553.1401 553.5506 553.6172 553.6888 554.1881 554.3445 554.5710
   555.1749 556.5743 556.8200 556.8566 557.1411 557.3814 558.0595 558.2537
   558.5135 558.6758 559.0213 559.6243 560.2121 560.4648 560.5521 560.9980
   561.2918 561.6364 561.7701 561.9740 562.1604 562.3719 562.5142 562.5253
   563.1461 563.4404 563.6680 563.7607 563.9761 565.4502 565.7456 569.6747
   570.2621 570.3839 571.5464 571.6379 571.9044 572.3948 572.5320 572.6760
   572.8850 573.6509 573.7673 574.0103 574.6461 574.6893 575.3693 575.3737
   575.7617 575.7747 576.1367 576.6176 576.6884 576.7474 577.1802 577.2327
   577.8672 578.0719 578.3456 578.4035 578.6388 578.9004 579.3924 579.5410
   579.5880 580.0251 580.3049 581.3464 581.5573 582.2420 582.2960 582.6683
   583.0673 583.4117 583.7591 584.0683 584.4940 585.3876 585.5903 585.6471
   585.7677 586.6957 587.4450 587.8717 587.8993 588.6065 589.3336 589.4909
   589.8485 591.0157 591.0406 591.4108 591.6514 591.9751 592.7579 592.8410
   593.6648 593.7867 594.2001 594.6511 594.8435 595.2363 595.8646 597.4887
   597.7678 597.9606 598.0220 598.0989 598.3492 598.5440 598.8569 598.9727
   599.4197 599.4337 599.8558 600.2713 600.2849 600.4156 600.4659 601.0447
   601.1999 602.5826 603.7157 604.2650 605.0851 606.5981 607.0769 607.2590
   607.3768 608.0586 608.3492 608.6906 609.0679 609.4757 610.1556 610.2145
   610.3203 611.3625 611.7201 611.7876 612.1438 612.4460 612.6396 612.7725
   613.2595 613.5932 613.6757 614.0320 614.2944 615.6271 615.7387 615.8735
   616.3243 616.7405 617.1815 617.2738 617.8404 618.0119 618.3302 618.8788
   619.1106 620.7472 620.8781 621.5138 621.8035 622.0937 622.2939 622.4411
   622.9103 623.1667 623.2236 623.8957 624.3827 624.4042 624.9456 625.5487
   626.5131 626.6886 626.8287 627.3723 627.4694 628.4801 628.8022 628.9366
   629.3757 629.7206 630.3746 630.8729 631.1004 631.2960 631.8024 631.8937
   632.7718 633.3856 633.6582 635.0129 635.0833 635.2905 635.7994 635.9013
   636.0333 636.2977 636.3927 636.8987 637.1202 638.2463 638.4081 638.8684
   639.1707 640.2035 640.4341 640.4901 640.9223 641.0653 641.1789 641.4929
   641.8024 642.4410 642.5527 642.5750 643.1466 643.2450 643.8831 644.3161
   644.5075 645.1776 645.4717 646.1070 647.4382 648.0119 648.6955 648.9739
   649.4143 649.6335 650.1505 650.3284 650.8505 650.9829 651.3111 652.0184
   652.0936 653.4665 653.7148 653.8285 654.8405 655.0918 655.5825 656.4885
   656.6559 656.7399 656.9042 656.9216 657.1659 657.4477 657.7483 658.2021
   658.2179 658.2921 658.4240 658.9840 659.2940 661.0929 661.1726 661.8509
   661.9723 662.7900 663.7620 663.7743 664.7696 664.8310 665.2870 665.4727
   666.3017 666.3188 666.8966 667.0261 667.1450 667.1660 668.0887 668.2424
   668.6671 669.3844 669.4151 669.7611 669.8864 670.2900 671.2282 671.7171
   671.7814 672.2926 672.5015 672.7183 673.3950 673.6521 673.9993 673.9997
   674.9698 675.3675 675.5540 675.6563 675.8557 676.2560 676.5154 676.7607
   677.0068 677.2441 677.7238 678.2593 678.3339 678.4900 678.9862 679.3082

          k = 0.5000 0.0000 0.5000 (  2437 PWs)   bands (ev):

   -28.6860  -9.2597  -8.8415  -8.5510   0.4462   8.7978  10.0119  10.5686
    16.4419  17.2316  17.6972  18.8288  21.8849  22.0544  25.3998  26.4002
    29.9879  31.8497  33.5154  33.6201  36.7784  37.1924  37.5347  39.9024
    44.8319  44.9800  47.0127  47.2185  48.2659  49.7011  50.7998  51.5362
    52.1450  52.7986  55.2959  58.0017  58.1431  59.4904  61.0094  61.7749
    64.0872  66.1886  68.0044  68.0964  68.4220  69.2770  70.0526  70.8904
    71.9541  73.8747  73.9619  75.5497  77.1585  77.8012  80.3932  82.0898
    82.5109  84.0256  84.0419  85.0129  86.5970  86.8110  87.2990  88.0375
    89.6497  90.0443  91.1773  92.3087  93.9860  95.0372  95.3953  97.6187
    98.0446 100.3766 101.1163 101.1430 101.5580 103.0927 103.6772 104.3724
   105.2347 105.7658 107.1027 107.8079 109.7919 110.9117 111.1376 112.7880
   113.6545 113.7791 114.1978 114.5892 116.6845 117.3536 117.3657 119.3378
   120.1633 121.8837 122.6621 122.7233 124.0290 124.3771 125.7972 128.4967
   129.8476 129.8913 131.6364 131.9552 132.7851 132.8060 133.3316 134.0042
   134.1957 135.1750 135.2172 136.6290 136.6899 137.8892 139.3619 139.4666
   139.8996 139.9876 142.7724 143.2479 143.4001 145.1966 145.8755 146.2325
   146.8804 147.3143 147.6835 147.7218 148.5144 149.4407 149.7915 149.9279
   152.1316 155.4344 158.5494 159.4986 159.9072 159.9781 160.2715 160.6000
   161.3916 161.6650 162.0811 162.0913 163.2342 164.3132 164.5377 165.3720
   165.7932 165.9444 167.6526 168.1950 168.4564 168.7825 168.8557 170.9072
   171.5671 171.8618 172.2407 172.6206 173.1719 176.9613 177.2665 177.2786
   178.2671 178.3925 180.0386 180.8788 181.6659 182.6628 183.0909 183.8551
   184.6007 185.8262 186.0983 186.9519 187.0438 187.6836 187.7396 188.5988
   190.1335 190.4806 190.8479 191.4187 192.2164 193.2201 193.3904 193.7062
   194.2119 194.8578 196.8888 197.4686 198.2484 199.7245 200.6519 200.8635
   202.0990 203.7439 204.2630 204.2746 204.4938 204.9891 205.7812 206.2699
   207.0431 207.3275 207.9174 207.9233 209.2599 209.5607 210.2186 210.4421
   210.8400 210.9804 211.2237 212.3558 212.5684 212.6159 214.0851 214.8245
   216.0455 217.0604 217.6010 217.7255 219.3270 220.2548 221.2768 221.9936
   222.0900 222.7258 223.5888 224.2493 224.5321 225.6559 226.0518 226.5799
   226.7094 227.5442 227.7036 228.6826 229.8819 230.2848 233.0080 233.3800
   233.5053 233.6873 234.6289 234.6854 235.2804 235.3683 236.2458 236.5094
   236.5323 238.6857 239.3521 239.3527 240.0840 240.5499 241.2568 242.2295
   243.0307 244.0299 245.2959 245.3689 245.7406 245.9881 246.6426 247.2849
   247.8314 248.7261 250.3315 250.7109 250.9059 251.3825 252.5480 252.7724
   253.0666 253.3184 253.6756 254.1456 254.5999 254.6231 254.8393 256.3750
   257.7095 258.2095 258.9331 260.1438 260.3320 260.3874 261.0135 263.0234
   263.4165 264.2702 264.5265 265.1411 265.7877 265.8099 265.8313 266.7316
   267.0057 268.3323 268.7265 269.6268 270.6653 271.3259 271.7929 271.8809
   272.4582 273.5904 274.1291 274.1845 275.0788 275.1781 275.3581 276.0650
   276.6824 277.6294 278.2346 278.7100 279.1037 279.2549 281.4320 281.9632
   282.0167 282.3468 282.3960 283.2121 283.4143 283.8819 284.8927 284.9028
   286.6169 286.9331 286.9496 288.7200 291.1782 291.4880 291.7789 291.8173
   291.8356 293.0127 294.2933 294.3228 295.4754 295.6873 295.8332 296.0411
   296.4271 296.5374 296.5985 296.6959 296.7768 298.2522 298.2753 299.4344
   299.5754 299.6787 299.7824 299.8044 300.0408 300.4309 300.4320 300.8194
   301.7312 301.7744 302.2765 302.4224 306.2093 308.0991 308.4374 308.6146
   309.2388 309.4455 313.1890 313.4341 313.6278 313.8499 313.9168 314.0516
   314.0741 314.3063 314.4761 314.8265 316.2584 316.4841 316.5054 316.6333
   316.8326 317.2860 317.3222 319.6024 319.6847 320.5172 320.8951 320.9842
   321.3218 321.4128 321.6934 323.5557 324.3085 324.7392 325.2145 326.4032
   329.1158 329.8412 329.9141 330.3478 330.4165 330.6527 331.1653 331.2312
   331.7528 332.0560 332.0624 333.0468 333.8898 334.1662 334.7011 334.7496
   334.8634 334.9090 335.1401 335.2316 335.6299 335.6775 336.3355 336.5918
   339.5577 339.5672 341.5763 341.7613 341.7956 341.8560 345.6057 345.8402
   346.8276 347.5210 348.1268 348.1417 348.4096 351.1316 351.2060 351.3072
   351.5645 352.2521 352.7208 352.7324 352.8153 353.4231 353.4636 354.0771
   354.1125 355.0644 355.3238 355.7216 356.0256 356.5268 356.5590 356.7934
   356.8990 356.9860 358.2232 358.3241 359.3777 359.6934 359.7321 359.8743
   360.2762 360.3749 361.1998 362.1454 362.1590 362.3127 362.3150 362.9397
   362.9444 363.9988 364.1687 364.2405 365.1709 366.4295 367.6605 367.9645
   368.7236 368.7301 369.0834 371.2115 371.6752 371.8080 371.9989 372.6236
   372.7266 373.5598 374.2659 374.2788 374.2837 374.3463 376.4530 376.4722
   376.8325 378.2302 378.3506 380.6653 381.0143 381.2198 381.3828 381.5839
   381.7064 381.7684 382.8882 383.2743 383.3619 383.4095 384.1967 384.3886
   384.8844 385.3660 387.2337 387.2530 387.3713 387.4745 387.5075 387.6607
   388.6889 389.7051 390.5459 390.6048 390.8234 390.8726 391.3511 391.5275
   393.1757 395.6908 395.8023 396.3182 396.3692 396.7670 397.0324 397.8579
   397.8887 398.4505 398.5012 398.7819 399.0165 399.5163 399.6302 400.7548
   400.9495 401.1188 402.1634 402.7691 403.0683 404.0770 404.9916 406.4448
   407.9631 408.2720 408.3686 408.3913 408.7629 409.3884 410.5446 410.6461
   411.0662 411.4490 411.7227 411.7847 412.2046 412.7473 413.1162 413.3752
   413.8371 414.1943 415.1464 415.3146 415.4034 415.4416 415.7155 416.7142
   417.2793 418.1162 418.3903 418.8731 420.5829 420.7389 420.7456 420.7482
   422.1549 422.5842 422.7256 422.8235 423.0209 423.1426 423.7876 424.0251
   424.9742 425.0095 425.7547 425.9668 426.2114 426.5217 426.9692 427.3362
   429.5180 430.5310 430.5377 430.8728 430.8905 431.0437 431.0784 431.0968
   432.8645 433.0844 434.1430 434.1648 434.4197 434.9350 435.5477 435.7004
   435.8192 435.8455 435.9210 436.0792 437.1823 437.2799 438.7463 439.6270
   440.9483 442.0827 442.7054 442.7359 442.9575 442.9837 443.1311 443.2043
   443.3468 443.5336 444.0519 445.1164 445.1728 446.5124 448.4564 449.0241
   449.1105 449.2799 449.8403 450.0193 450.0999 450.4261 450.4533 450.5193
   450.5307 450.7774 450.9540 452.3485 452.9292 453.1341 454.0307 454.0856
   454.2116 454.2778 457.6839 458.0319 458.0882 458.1710 459.7354 460.2128
   462.1797 462.4666 462.7553 463.2464 463.6107 463.8794 463.8969 464.0173
   464.3522 464.9462 465.9410 466.2258 467.3830 467.6577 468.2663 469.0145
   469.3335 469.3516 469.6577 469.6959 470.4657 470.7522 471.2947 471.3854
   471.4140 471.4385 471.4821 472.4105 472.5184 472.5184 472.9791 472.9877
   473.0030 473.7718 474.0723 474.6201 474.6925 474.8659 475.9935 476.1455
   476.4019 477.1861 477.6677 477.8775 478.2268 478.2846 482.2632 482.4107
   483.4952 483.8415 483.9195 484.1429 484.3678 484.5904 484.6475 484.8441
   485.6095 485.7525 485.9684 486.0929 486.2230 486.5163 486.6110 487.3633
   487.8937 487.9718 488.6492 488.8090 488.8726 489.0985 489.2236 490.2276
   490.5835 490.7080 490.8373 490.8494 491.3460 491.4185 491.9749 492.6191
   492.6829 495.9916 496.0894 496.1967 497.7420 497.7547 497.8320 497.9161
   498.1503 498.4598 498.7349 499.8437 500.3471 500.8224 500.9924 501.4080
   502.6583 502.8087 502.8807 503.1125 503.1293 503.1943 503.6158 504.3543
   505.3768 506.1048 506.1507 506.3095 506.4109 506.6261 506.7748 506.9020
   510.9923 511.3681 511.4722 511.5642 511.6064 512.2692 512.3985 512.7819
   513.3981 514.8099 515.1409 516.1905 516.7054 517.3697 517.4452 517.8599
   518.1212 518.1318 518.1852 518.6658 518.7442 518.7815 519.6876 520.2032
   520.4492 520.6814 521.1175 521.5734 522.1447 522.5266 522.5280 522.8977
   524.3220 524.3828 525.1382 525.2294 525.2819 525.3421 526.9587 527.3015
   527.7937 528.4741 528.5756 529.0386 529.2440 529.2835 529.3378 530.0567
   530.9829 532.2135 532.2486 532.2995 532.3673 533.2708 533.6191 534.9891
   535.1510 535.8500 535.9431 536.0154 536.3478 537.3620 538.1559 538.2164
   538.4355 538.6904 538.7408 538.8074 539.1206 541.1434 541.3324 542.0025
   542.0348 542.2181 542.3772 542.5992 542.6001 542.8896 542.9490 543.4710
   543.8579 544.7149 545.0087 545.1790 545.8292 545.8314 546.5046 547.1740
   547.5629 547.8387 547.9222 547.9544 548.8577 549.2123 549.3351 550.0974
   550.1362 550.5194 550.5990 550.9249 551.0734 552.1577 552.3707 555.2967
   555.5041 556.0065 556.2139 556.4457 556.7517 556.7647 556.8125 557.2241
   558.0272 558.8145 558.9755 560.1194 560.4897 561.3433 561.6986 561.7104
   562.2115 563.0496 563.2761 563.5763 563.8222 564.1432 564.1615 564.1629
   564.2029 564.5932 565.6947 569.7712 569.9147 570.3798 570.4175 570.5003
   570.8029 570.8413 571.5827 571.7317 571.7514 571.7599 571.9748 572.3887
   572.6947 572.9857 573.3719 573.4392 574.3847 575.2448 576.0796 576.3465
   577.0239 577.3494 577.3714 578.1125 578.4847 578.5767 578.7053 578.9399
   578.9787 579.8490 580.0727 580.1663 580.5472 580.5703 580.6869 580.8418
   580.8471 581.2800 581.5297 582.3176 582.3847 582.9421 583.2983 583.5648
   583.7333 585.2795 585.4816 585.8503 585.8642 585.9132 586.1607 586.9002
   587.0007 587.2007 587.4224 587.7117 587.7535 588.3870 588.4180 589.6362
   590.5763 591.9075 592.0081 593.5349 594.2978 595.8729 596.4809 596.5136
   596.8736 596.8828 596.9953 597.2287 597.3169 597.8939 598.0104 598.3506
   598.4200 598.6879 599.4111 599.5439 599.6576 599.9626 600.3039 600.5604
   600.6960 600.7298 600.7448 601.6659 601.6895 601.6969 601.7872 601.8741
   601.9304 602.1158 602.1752 602.8679 603.9617 604.6237 604.9154 605.5677
   606.6653 606.7389 606.8449 606.8506 607.9867 608.7787 608.9644 609.2153
   610.0788 610.4549 610.5662 610.9360 612.7695 613.5073 614.0022 614.0258
   614.1833 615.4928 615.6624 615.6819 615.8663 616.0938 616.1363 617.8340
   617.8836 618.7299 618.7463 618.7889 619.5910 619.9874 620.0746 620.0827
   620.4324 620.6581 621.4020 622.0925 622.2360 622.4267 622.5553 623.8538
   623.9427 624.0205 624.3044 624.3446 624.5676 624.7865 625.1987 625.5488
   625.7632 626.4401 627.0184 627.1452 627.9375 628.1725 628.3561 628.6357
   628.9234 629.6798 631.0035 631.1430 631.4066 631.5341 631.7922 631.8082
   631.8211 632.7761 632.8896 633.2530 634.1108 634.1461 634.2796 634.3015
   634.9890 635.1787 635.5661 635.7610 636.4884 636.7335 637.3996 637.5475
   638.8475 639.1645 639.3735 639.4965 639.8099 642.0171 642.0934 642.2211
   642.2957 642.4891 642.5293 642.6377 643.1724 644.3761 645.3343 645.4665
   645.4714 645.5027 645.7246 645.9007 647.2522 648.1144 648.5705 648.7429
   648.7990 648.8400 649.2955 649.3021 650.1208 650.5161 650.8312 651.3076
   652.5108 653.5327 654.7240 655.1627 655.4657 655.4680 655.7887 656.3087
   656.6940 656.8535 657.4887 657.5714 657.7524 658.7356 659.1100 659.1270
   659.4404 659.7328 660.2271 660.9214 661.2573 661.6297 661.6637 661.8125
   661.9143 662.0495 662.4770 662.7522 663.5317 663.6036 663.6425 665.8510
   665.9588 666.8308 667.1381 667.5160 667.9627 668.0500 668.8551 668.9516
   669.0470 670.2731 670.6169 670.8962 671.0441 671.8074 672.1146 672.1198
   672.2248 672.3214 672.5244 672.6546 673.4123 674.0017 674.0145 674.1335
   674.4997 674.9538 675.1838 675.3669 675.7049 675.8991 675.9987 676.0097
   676.2040 676.2731 676.3169 676.3226 676.4744 676.9690 677.4680 677.7583

          k = 0.0000-1.0000 0.0000 (  2450 PWs)   bands (ev):

   -28.6482  -9.2988  -8.7862  -8.7862  -0.4130  10.5118  11.6341  11.6341
    12.2286  18.8603  19.2128  19.8993  19.8993  22.2725  23.4390  28.4658
    28.4658  31.6678  32.2508  35.8458  35.8458  38.9897  41.6352  42.1703
    42.7446  42.7446  42.9490  43.9363  43.9363  46.3019  52.9594  52.9594
    53.0841  54.6445  54.9032  55.8103  60.0171  60.3705  60.3705  63.4250
    65.3060  65.3060  66.9021  69.5098  69.5098  70.4288  70.4942  72.5813
    74.5243  74.5715  74.5715  78.3662  78.3662  80.4032  81.4704  83.4727
    83.4987  84.4283  84.4283  84.5076  85.7722  86.6495  86.6495  88.3812
    88.3812  88.7163  88.9914  89.2510  91.5955  98.1034  98.2230  99.5853
    99.5853  99.8924  99.8924 100.0952 101.2041 101.6037 102.9042 102.9042
   104.4950 104.4950 105.0001 106.0934 106.2469 107.9800 107.9800 109.0500
   109.0500 111.3183 115.1952 115.8089 115.8239 115.8239 117.2262 121.9282
   123.4004 123.4004 123.5360 124.2854 124.2854 124.5558 124.5770 124.7730
   128.5934 130.8238 131.0185 131.0185 131.6258 131.6258 131.8331 132.3893
   134.3078 134.3078 134.9638 136.6111 139.2514 139.8013 139.8013 139.8707
   140.3877 140.3877 141.3512 143.9729 144.4822 145.2657 145.2657 145.7251
   147.6397 151.1217 152.0097 152.0097 152.9930 152.9930 156.5336 156.5594
   156.6345 157.2064 157.2562 160.5718 160.6910 160.6910 160.7516 161.4479
   161.4479 161.9812 161.9812 163.1763 163.8219 163.9982 167.3872 169.2892
   169.2892 170.2964 170.2964 170.5319 171.1268 172.0079 172.0079 172.5569
   173.2122 173.4290 174.7766 174.7766 175.7147 175.7147 176.0879 177.5920
   177.7417 177.9250 177.9500 177.9500 179.3552 179.3664 179.3664 179.5491
   179.9693 179.9693 180.4070 181.7974 181.9314 183.5928 184.6315 186.8963
   186.8963 187.6504 187.9593 188.2014 188.2014 188.5858 189.1459 190.9630
   191.2328 191.2328 196.3355 196.3355 199.3580 199.3767 200.1276 200.1276
   200.5441 201.2519 201.2519 202.1578 204.0447 204.6720 204.7293 204.7293
   204.8511 205.7162 206.5088 206.5862 207.3392 207.3392 207.4657 207.6799
   207.6799 207.7025 207.9296 207.9296 208.3632 209.9455 210.5491 211.5139
   212.7162 213.7729 213.7729 221.9399 227.6561 227.6561 228.3704 228.6055
   228.6549 229.5746 229.5746 229.6749 229.6991 230.9317 230.9317 231.6109
   232.1022 232.1022 232.1867 232.1867 233.4060 233.6685 233.6848 233.6848
   233.6968 233.9071 233.9436 233.9436 239.3031 239.4593 239.5219 239.5219
   239.7712 240.8355 240.8489 240.9457 240.9457 242.3585 243.0535 243.4768
   243.4768 244.7293 245.2067 245.2067 246.8313 247.1696 248.3984 249.0750
   249.0750 249.1826 250.1027 250.1027 250.3329 252.3529 252.5607 253.9768
   253.9768 254.1439 254.2055 254.3124 254.3124 255.9088 256.0489 256.0489
   256.1914 256.6512 256.8835 256.8835 257.0010 260.2320 260.6415 260.7092
   261.0455 261.0455 261.0529 261.0529 261.2422 261.3541 267.2227 269.9275
   269.9275 270.5872 271.5150 271.5150 271.9280 271.9280 272.0713 272.0861
   272.8765 272.8765 273.4963 273.5157 274.6624 276.2012 276.5950 276.5950
   276.7194 276.7329 276.7329 277.1083 277.1597 278.4882 278.5383 279.4168
   279.6405 279.6405 279.7632 279.7632 282.1036 282.1211 285.6827 285.6883
   287.2047 287.2047 287.7062 289.0616 289.0616 289.0917 289.0917 289.5418
   290.4835 290.6870 290.7043 294.9058 295.5326 297.3061 297.3061 297.6724
   298.0044 298.3269 298.3269 299.2770 299.5518 300.0386 300.0386 300.0515
   300.1695 300.1695 300.4629 300.5097 300.7255 300.8862 300.8862 301.1827
   301.5694 301.5694 302.9333 304.0322 304.5367 304.5367 304.5462 310.7089
   310.8286 310.8286 310.9435 310.9591 311.1232 311.1232 311.1296 311.1296
   311.2376 311.2953 311.4237 311.7371 315.9069 315.9069 317.3642 319.1323
   319.3741 322.2722 322.2722 322.4994 322.5129 322.5129 322.5367 322.5367
   322.6731 323.3720 324.3657 324.7067 324.7067 324.8262 325.2108 325.2951
   325.4299 325.4299 327.0862 327.0862 328.3877 330.4626 330.5136 330.5367
   331.1759 331.1996 331.2284 331.5520 331.5520 331.7758 331.7758 332.3757
   332.7285 332.7285 332.9641 332.9727 332.9727 332.9797 333.3458 335.9107
   335.9885 336.0656 336.0656 336.6864 337.2692 337.3741 337.3741 337.5137
   338.0937 338.1195 338.1195 338.1213 344.9471 346.8196 346.8196 349.0059
   349.2085 349.3011 349.3011 352.5054 352.5057 352.5187 352.9677 352.9677
   352.9800 352.9800 353.1531 353.6237 354.4896 354.4896 355.4834 355.4834
   355.4911 355.7073 355.7075 358.0699 362.6511 363.3412 363.3412 363.7220
   363.8127 364.2056 364.8275 364.8275 368.1213 368.3048 368.3048 371.6276
   371.9901 371.9901 372.5667 372.8388 373.0909 374.1370 374.1370 375.7290
   375.8279 375.8279 375.9258 376.5476 376.7750 377.0051 377.0051 378.5966
   378.5966 378.7059 378.8221 381.4585 381.7315 381.7315 382.6816 382.9109
   383.0097 383.0097 383.7900 383.9251 383.9251 384.3828 384.4466 384.5554
   384.5554 384.5882 384.6006 384.6600 384.8784 384.8784 384.9308 385.6938
   386.0009 386.1177 386.1409 386.1409 386.2143 386.2373 386.2373 386.2442
   386.5562 393.1092 393.8341 396.0378 396.0378 397.4167 397.4167 397.8867
   397.9822 399.1147 399.3890 399.3890 399.4481 399.6493 400.2674 400.2674
   400.3569 400.5011 400.6753 400.6753 400.8026 400.8190 400.8190 400.8207
   400.8339 402.2560 403.5046 403.5046 404.2447 404.7769 404.7769 404.8039
   404.8319 404.9041 405.0599 405.0599 405.2356 405.4824 405.4956 405.4956
   405.8784 406.1652 406.3849 406.6917 406.6917 408.1667 408.1667 408.3021
   408.3021 412.3442 413.8236 413.8272 413.8272 413.8591 413.8604 413.8967
   413.8967 413.9011 416.2032 416.2069 418.0460 418.0460 418.5168 419.0868
   420.7745 420.7745 421.3468 421.6345 422.0026 422.0026 422.5928 422.9554
   422.9559 422.9559 423.8844 424.2763 427.2583 428.4364 428.4593 428.7699
   428.7699 428.8873 428.8873 429.0365 429.1400 429.8177 429.8177 430.8466
   430.8466 431.0304 431.0791 431.0959 431.1982 431.6524 431.6524 431.9934
   432.0018 432.0496 432.0496 434.2731 435.1605 435.1605 436.2326 436.2880
   436.2880 436.2972 436.4147 436.4147 436.5214 436.5399 436.7632 439.3731
   444.6736 445.8718 445.8718 448.9521 448.9938 449.0503 449.3545 449.3545
   449.7122 449.7122 450.0766 450.3695 450.3695 450.9287 450.9287 451.8978
   454.4281 454.4647 454.5182 454.5382 454.6660 455.2793 455.2793 455.3125
   455.3191 455.3191 456.2505 456.4255 456.4255 456.5946 456.6069 456.7550
   457.0571 457.0571 457.1686 457.4132 457.7108 457.7108 457.8625 458.3317
   458.4372 458.4372 458.5458 458.9997 460.5636 460.5688 464.1253 464.1253
   464.1476 464.1476 465.9325 465.9337 468.3198 468.3198 468.5455 470.9803
   472.5420 472.5420 472.8299 474.4067 476.0491 476.0491 476.0588 476.3978
   476.6465 476.6465 476.8127 476.8127 476.9679 477.1859 477.2010 477.6729
   477.8079 477.8079 477.8259 479.0665 479.2024 479.4722 479.4722 479.6440
   480.0803 480.0803 480.1003 480.1034 480.1036 480.1072 480.1072 480.1716
   480.4182 480.4182 481.7555 482.9515 485.1344 485.1344 485.2560 485.2759
   485.3075 485.3075 485.3550 485.6542 485.9248 487.6557 487.6557 490.5947
   493.7894 493.7894 493.9145 495.8496 495.8496 495.9006 496.0084 496.2271
   497.5060 497.5500 499.3417 499.3417 499.4053 499.4169 499.9926 500.4386
   500.4386 501.7414 501.8911 502.0581 502.3346 502.3346 502.5468 502.5468
   503.0455 503.0979 506.2812 507.5795 507.6065 507.6065 507.6331 507.8564
   507.8589 507.8589 507.8846 508.3721 508.3721 508.9258 508.9418 508.9976
   508.9976 510.8666 511.5779 511.5779 511.5847 511.9390 512.9542 513.5924
   513.5924 514.1144 515.0990 516.8847 517.9713 519.3597 519.3597 521.5922
   521.5922 522.7255 522.7255 523.3849 523.8933 524.4376 525.2244 525.2244
   525.3812 525.3812 527.2961 528.9720 529.1983 529.5947 529.5947 529.7549
   529.7549 530.0830 530.4785 531.0837 531.2638 531.2638 531.3799 531.4064
   531.4205 531.9336 532.0115 532.6516 532.9907 532.9907 536.1390 536.1953
   536.4459 536.4459 536.6171 536.6171 536.7658 537.0389 537.6620 537.6620
   537.7043 538.1708 538.5589 538.5600 538.5697 538.5697 543.9844 544.3861
   544.3861 546.6979 547.2057 547.2057 547.9066 548.7521 549.0505 549.0505
   549.0537 549.0537 549.1153 549.2533 549.2820 549.3039 549.4081 549.5345
   549.5345 549.8926 549.8926 550.1700 550.1778 550.1778 550.2439 550.3659
   550.3899 550.3953 550.6656 550.8780 550.8780 550.9216 550.9216 551.1243
   551.1353 552.0891 552.4708 552.5169 552.6917 552.6969 553.0844 553.0998
   553.0998 553.1373 553.1373 553.8972 553.8972 554.1610 554.4235 554.4235
   554.7031 555.0671 555.0671 555.1943 555.1943 555.2007 555.2057 555.7686
   555.7705 555.7881 555.7881 556.3029 556.3250 556.4726 556.4726 556.5423
   557.5650 557.9776 557.9776 558.1155 558.1930 559.2167 561.4959 561.5002
   561.5002 561.5108 561.6169 561.6288 561.6288 561.6755 564.0641 564.0680
   564.2229 564.2229 564.3144 564.3144 564.3958 564.4067 575.5681 575.6271
   575.6271 575.6277 575.6459 575.6755 575.6755 576.3605 576.6310 576.7679
   576.8636 576.9227 576.9227 578.5061 578.8956 578.8956 580.8599 580.8599
   581.2868 582.8071 583.1013 583.1222 583.1222 583.1870 583.3785 583.3785
   583.7297 583.9086 583.9086 583.9712 584.2695 584.3532 584.4082 584.4350
   584.4386 584.4386 584.5370 584.5370 584.6117 584.6815 584.6815 584.7148
   584.7210 584.8546 585.1470 585.1470 585.2122 586.0517 595.5639 597.3148
   597.3148 597.8169 598.0499 598.0499 599.1015 599.1015 599.1753 599.2352
   599.3658 599.3658 599.5123 599.5918 599.8285 600.1332 600.6006 600.6006
   600.9914 601.5355 601.5656 601.5656 601.7813 602.5667 602.5867 602.5867
   603.2051 603.4768 603.5655 603.6155 603.6155 603.8975 605.5406 608.2410
   608.2410 608.3752 608.6644 608.6644 609.2404 610.1545 610.4843 610.5014
   610.6553 610.6553 610.8144 610.8248 611.0384 611.0384 613.9902 613.9902
   613.9953 614.0392 614.0463 614.0796 614.0796 614.1365 616.3530 616.3530
   616.4960 618.2999 620.0649 622.1307 622.2896 622.2896 622.3577 622.4544
   622.6911 622.6959 622.6959 623.9131 624.2479 624.2479 624.7836 625.1683
   625.4541 625.5959 625.9467 626.2009 626.2009 626.2734 626.2734 626.4618
   626.7278 627.2931 627.2931 629.4704 629.4879 629.4879 629.5601 629.5650
   629.8312 629.8312 630.1139 630.2853 630.6235 630.6686 630.9912 630.9912
   631.1350 631.1484 631.2929 631.2929 631.3777 631.3777 631.4117 631.4247
   633.3884 633.3884 633.7669 633.7669 633.8341 633.8525 633.8525 633.8725
   634.1784 634.1784 635.4805 635.6295 636.7652 636.8104 636.9014 636.9014
   642.2248 642.2252 643.9368 643.9368 643.9522 645.3869 647.0251 647.0251
   649.1063 649.2565 649.4322 649.4395 649.4943 649.4943 649.5331 649.6619
   649.6714 649.6714 649.6931 650.2165 650.2165 650.7837 652.6309 652.8885
   653.1807 653.1807 653.8215 653.8215 654.9401 654.9710 654.9710 656.8154
   656.8668 657.0722 657.0722 657.1234 657.6278 657.6332 657.6332 657.6385
   657.9670 658.2753 659.2117 659.2117 659.2309 659.2943 659.3289 659.3289
   659.3675 659.5819 659.7032 659.7032 659.7978 659.7978 659.7997 660.0693
   660.2968 661.7056 670.6211 672.8069 672.8069 672.9829 673.0953 673.1680
   673.3043 673.3043 673.8437 673.8437 674.5917 674.6728 674.7273 674.7901
   674.7901 675.3198 675.3198 675.9988 675.9988 676.1813 676.8340 677.4219
   677.6665 677.6948 677.6948 677.7210 677.7347 677.7347 677.8411 678.1701
   678.5400 678.5456 678.5456 679.3332 679.8743 680.2478 680.3002 680.3002

          k =-0.5000-1.0000 0.0000 (  2468 PWs)   bands (ev):

   -28.6476  -9.0484  -9.0484  -8.8686   0.0698   9.8897  10.4776  10.4776
    16.0259  16.0259  19.2954  19.9116  20.8309  24.4085  25.3953  25.3953
    28.3320  31.5243  31.5243  34.7040  37.9996  39.7072  39.8281  39.8281
    43.5872  44.6110  44.6110  44.7389  44.9000  46.9486  46.9486  48.9599
    53.3764  53.3764  58.1328  58.5895  61.5398  61.7555  64.0313  64.0313
    65.3982  66.6798  66.6798  67.4151  67.7295  69.8971  69.8971  71.3754
    71.9378  75.6692  75.6692  78.3531  78.5897  78.8204  80.1036  80.1036
    82.8836  82.8836  85.1564  86.1823  86.1823  86.3141  87.3694  88.6214
    89.8380  89.8380  91.7424  92.0301  92.4538  92.4538  95.4647  96.9725
    97.2755  97.3634  97.3634 102.2785 104.2338 105.3192 105.3192 105.3700
   106.0723 106.4415 106.4415 107.1371 108.3267 110.5137 110.7404 110.7404
   112.5971 112.5971 114.0058 114.1509 114.6060 115.6476 115.6476 117.5990
   118.0072 120.2635 120.2635 120.7792 121.4287 121.5797 121.8615 121.8615
   123.4415 126.8624 130.3511 130.3511 131.5188 131.5188 133.1545 135.5337
   137.2253 138.1744 138.1744 141.5116 142.2385 142.2385 144.0102 144.2386
   144.2386 144.8240 144.8337 145.9133 145.9133 146.4418 147.3211 149.6033
   150.5272 150.5370 150.5370 151.0686 152.6082 152.6082 154.0516 154.0516
   154.4090 154.7394 156.8687 157.6375 157.6375 158.6025 158.7628 158.9613
   162.0451 162.0451 163.4150 163.4243 163.5545 164.6404 164.6404 164.7830
   166.7262 166.7262 167.0648 167.5179 167.8552 168.2483 168.2483 168.2890
   171.4616 171.4616 171.5703 171.7731 176.0093 176.0093 176.2227 176.5065
   178.1107 178.8029 178.8029 179.4128 180.2864 181.6882 181.7118 181.8521
   181.8521 184.2194 185.0851 185.0851 186.1440 187.2017 188.2121 188.6228
   188.6228 189.2022 189.9743 190.0714 190.0714 191.1391 191.5781 191.5781
   192.7136 193.1455 193.2784 193.2784 193.4241 193.5478 193.5478 196.3622
   201.6159 201.6159 201.6206 201.6816 201.8774 201.8774 202.2725 205.0256
   206.5563 206.5563 208.0429 209.4128 209.4128 211.2072 211.9670 212.6103
   212.6103 212.6634 213.8732 214.3193 214.4230 214.7727 214.7727 216.3149
   217.9703 217.9703 217.9720 218.8751 219.9942 219.9942 220.4712 220.4806
   221.2929 224.0570 224.0570 226.3798 226.5815 227.2870 227.2870 228.2549
   228.5331 228.5331 228.9257 230.4169 230.4223 230.7537 230.7537 231.8340
   231.8533 231.8533 232.1074 233.1633 235.4891 236.1117 236.1630 236.1630
   237.7396 238.2186 238.2186 238.9971 239.0809 241.8091 242.7601 242.7601
   244.5191 245.7870 245.7870 245.8167 246.0956 248.1759 248.1759 250.0473
   250.8131 251.0998 251.4997 251.4997 251.8625 252.7215 252.7215 253.0067
   253.4043 256.4137 257.8973 257.8973 257.9661 262.2289 263.1784 263.1784
   263.4789 263.7640 263.7640 263.9085 264.0927 264.0968 264.5230 264.9710
   264.9710 266.7615 266.7615 266.9851 267.2012 267.7254 267.8443 267.9415
   267.9415 268.1712 268.9545 268.9545 269.8908 270.1836 270.1836 270.2682
   272.1366 272.1366 272.5073 274.6602 274.6639 275.3234 275.3234 276.2073
   276.3422 276.4581 276.4581 277.3445 277.7151 277.9851 277.9851 280.2683
   282.1536 282.3704 282.3704 283.0917 283.0917 285.7056 285.9032 286.7200
   286.7445 286.7445 286.9065 287.4594 287.5541 288.1540 288.1540 288.5778
   289.5521 289.5521 290.2934 292.2497 292.7532 292.7532 292.7605 293.0847
   293.1024 293.2336 293.2336 293.4940 293.8064 293.8064 293.9736 294.8968
   294.8968 295.9449 295.9518 297.4381 297.4414 297.7384 297.7384 300.3816
   302.7153 302.8536 302.8536 302.8545 302.8661 303.7908 303.7908 306.9215
   309.6805 309.6805 309.7469 309.7607 312.1363 312.9650 313.2570 313.3604
   313.3604 313.5202 313.5202 313.8578 313.9861 313.9861 314.0403 314.2073
   314.5849 314.5849 314.9516 316.7900 320.8138 320.8138 321.7119 323.0061
   323.8616 324.5362 324.5362 325.6409 325.6409 325.9275 326.2417 326.2644
   326.8968 326.8968 326.9003 329.7966 329.8175 330.2462 330.2462 330.5775
   331.0551 336.2539 336.3164 336.5046 336.5046 337.1631 337.1631 337.3217
   337.5754 338.3547 338.3898 338.5036 338.5036 339.5484 340.8565 340.8565
   341.6631 342.2021 342.2380 342.2436 342.2436 342.7262 342.7262 342.8685
   342.9928 343.1462 343.1462 343.1464 343.1813 345.7463 346.1813 346.1813
   346.6242 350.2351 351.7061 351.7061 351.7256 351.8907 351.8907 351.9192
   352.0778 353.0619 355.3791 355.4274 355.4274 355.4978 356.2193 356.2193
   358.0269 358.8106 358.8106 359.2221 362.2680 362.2680 363.3255 363.3255
   363.7290 364.6822 364.6904 365.1184 365.1691 365.1691 365.3760 365.8150
   366.1201 366.1201 366.1641 366.3127 366.5426 366.5426 366.6437 369.1036
   369.7158 369.7158 371.6184 371.6184 372.2119 372.2148 372.2220 372.6215
   372.6215 373.8322 375.5699 375.6717 376.0619 376.0619 376.3505 376.6003
   376.6003 376.6062 376.7500 378.2498 378.4207 378.4207 378.8923 381.2030
   382.5342 382.5342 382.8032 382.8032 383.4607 383.4700 385.3325 388.3470
   388.4643 388.4643 388.6858 391.4813 392.8893 392.8893 392.9569 393.3175
   395.1981 395.1981 396.3096 397.5301 397.9529 397.9529 397.9777 398.6298
   398.7109 398.7109 398.7173 399.0630 399.5413 399.9003 399.9003 399.9398
   400.5011 401.4653 401.4653 402.1004 402.1004 402.4093 402.4679 402.4899
   404.4876 405.0242 405.0242 405.4366 405.4366 405.4787 405.5826 406.3042
   406.3042 406.3496 406.4006 407.4477 409.7600 410.5944 410.5944 411.7636
   412.5088 413.0243 413.0243 413.1028 413.1230 413.3722 413.3722 413.6770
   414.2181 414.2874 414.2874 414.4840 414.9312 414.9312 415.1845 415.1857
   415.7418 415.7418 415.9319 417.5280 419.0555 419.0555 419.1951 419.2218
   419.3516 419.3516 419.3711 419.4504 419.5271 419.5271 419.9480 420.8011
   421.3807 421.3807 421.4140 421.4310 423.3503 424.1863 424.1863 427.0926
   427.6565 428.4220 428.4405 428.4487 428.4487 428.9439 428.9439 429.9545
   432.0307 432.0307 432.6570 434.7154 435.5475 437.3290 437.4488 437.4488
   437.4539 438.0741 438.0741 438.2178 438.6460 438.6460 438.7640 438.9019
   438.9591 438.9890 439.4540 439.4540 439.9030 440.0928 440.1208 440.1208
   440.2682 440.4631 440.7690 440.7690 440.9943 442.6200 444.2675 444.2675
   444.4110 444.9516 446.6389 446.8200 446.8200 447.9356 448.6232 448.6232
   450.7654 450.9030 450.9030 450.9982 451.5880 452.5552 452.9521 452.9774
   452.9774 453.0254 453.2571 453.2571 453.3612 453.5278 453.5278 453.6834
   453.7016 454.2592 454.4367 454.4367 454.6280 455.6384 456.7953 456.7953
   458.9654 458.9654 459.0123 459.0139 464.3426 464.3426 464.5123 466.4931
   466.4931 466.6109 466.6369 467.0834 467.0846 467.1096 467.1096 467.4119
   467.4241 467.4241 467.4388 467.4707 470.1505 470.1505 472.9054 472.9803
   472.9803 472.9888 473.3091 473.8992 474.7600 475.4479 475.9159 475.9159
   476.2228 476.2228 476.4803 477.0047 477.0047 477.1088 477.3099 477.7863
   482.9430 482.9430 483.6602 483.6744 483.7594 483.7594 484.1894 484.2090
   484.3061 484.3061 486.6253 490.6757 490.6757 490.9332 490.9332 490.9487
   491.1323 491.2142 491.4505 491.4644 491.4644 492.2306 492.9353 494.3053
   494.4761 494.4761 494.4836 496.2414 496.9734 498.9525 498.9525 499.8681
   500.2967 500.2967 500.4970 500.9714 501.0733 501.0733 501.1235 501.4726
   501.6353 501.6353 501.8041 502.0408 502.4244 502.6905 502.9240 502.9240
   503.1057 503.1057 503.2276 504.6151 513.3580 513.3580 513.7393 513.9320
   513.9320 514.2592 514.3940 514.4763 514.4763 514.6960 515.0072 515.4836
   515.6030 515.6030 515.6941 515.7619 515.7619 515.8338 515.9400 516.1106
   516.8899 517.0118 517.0118 519.9237 520.4508 520.4508 521.3862 522.6560
   522.7683 522.7683 522.8260 524.3067 524.3067 524.6619 524.6683 524.7155
   525.1096 525.1096 525.5641 525.5641 525.8161 526.4330 526.8018 527.7536
   527.9187 527.9187 528.3442 528.5359 528.5359 528.6666 528.6666 528.6888
   528.7298 528.7823 528.8244 528.8452 528.9936 529.4750 529.4750 529.7692
   530.0151 530.1984 530.1985 530.9445 531.1159 531.1545 531.1545 531.3806
   531.5453 531.5453 531.6774 532.4746 534.1054 534.1054 534.1163 534.2609
   538.3372 538.4167 538.4167 538.5251 538.6510 539.0929 539.0929 539.5640
   539.8433 541.2423 541.2423 541.6633 541.6633 541.6731 541.6816 541.9652
   542.6719 542.6719 542.8255 542.9899 543.3250 543.3250 543.3369 543.6725
   543.6725 543.7514 544.5651 544.9568 545.7756 546.4330 546.4330 547.2028
   547.2522 547.2522 547.7606 549.0503 550.6495 551.1514 552.5420 552.5420
   553.5700 553.8764 557.1282 557.3637 557.5758 557.5758 559.1790 559.1790
   559.2371 559.2432 562.0630 562.0630 562.2929 562.7317 563.1242 563.6707
   563.6707 563.9569 564.2329 564.2572 564.2572 564.8816 565.3172 565.3719
   565.3719 566.0810 566.4933 566.6009 566.6009 567.5475 567.5687 567.5687
   567.7119 568.0704 569.2813 569.4054 569.4054 569.5770 569.5770 569.6867
   569.7568 569.7568 570.1618 570.4482 571.2711 572.1868 572.1868 572.9424
   575.4299 575.5139 575.5139 576.1507 576.4172 576.4172 576.8703 577.1798
   577.8394 577.8394 577.9620 577.9986 580.7373 581.0601 581.0601 581.2798
   582.8324 582.8324 583.5731 584.3124 584.3124 584.8792 586.1929 587.2129
   588.4118 588.4118 589.3987 589.7431 589.9647 589.9647 590.1941 590.5989
   590.6780 590.6780 590.7533 590.7810 590.8041 590.8660 590.8660 590.9124
   591.0175 591.0175 591.3347 592.2957 592.3739 593.0725 593.0725 593.2424
   595.8314 595.8314 596.2835 596.3388 597.4552 597.4552 597.8312 597.8405
   598.0720 598.0720 599.1180 599.1359 599.1359 599.3892 599.5855 599.6549
   599.7912 599.7912 599.7931 600.6871 600.7305 601.1606 601.1606 601.9052
   601.9052 602.0792 602.3561 602.5831 603.8606 603.8606 603.9883 603.9957
   604.0088 604.4042 604.4352 604.4352 604.5181 604.6632 604.6632 604.9130
   605.2430 605.5279 605.5279 605.9388 606.0914 606.2282 606.2282 606.5647
   606.8687 606.8687 606.9955 607.1879 609.1544 609.1544 611.8197 613.9536
   613.9536 614.1103 616.7678 617.7417 618.5092 618.5092 618.5780 618.5780
   618.6037 618.6292 618.7747 618.9078 624.4906 624.4906 624.6586 624.8568
   624.9319 624.9319 625.3104 625.4836 625.4891 626.4164 626.4386 626.4386
   626.8710 626.8710 627.0611 628.8924 628.9130 628.9130 629.2523 630.4628
   630.8648 631.5523 631.5523 631.7491 631.7628 631.7968 631.7968 631.8962
   631.8962 631.9012 632.1203 632.2514 636.3431 636.5891 636.5891 637.3982
   637.5942 638.2717 638.4204 638.4204 638.6782 638.6782 639.1896 639.9897
   640.6310 640.6382 640.6382 641.0731 641.0731 641.0736 641.2387 641.2387
   641.2474 641.3662 641.5812 641.6123 641.6123 641.6456 641.6887 641.7021
   641.8131 641.8131 642.0531 642.5069 642.5456 642.5456 642.6218 643.1216
   643.9834 647.0991 647.0991 647.1202 647.1319 647.1919 649.7207 649.7207
   653.2658 653.4270 653.5647 653.5647 653.6562 654.2774 654.2774 654.6018
   655.2642 655.2770 655.2770 655.2982 655.6062 655.9956 655.9956 656.2249
   656.8831 657.6736 657.6736 658.7936 659.6253 660.4924 660.4924 660.7796
   661.2668 661.3154 661.3154 662.9325 666.8217 666.8378 666.8635 666.8635
   666.9129 667.0243 667.0243 667.1484 668.2699 668.7858 668.7858 668.8528
   669.7630 669.7630 669.8344 670.7082 671.3076 671.3076 671.7575 672.0312
   672.0313 672.0480 672.1243 672.1243 673.6941 674.6146 674.6962 674.6962
   674.7227 674.9128 674.9128 675.2778 675.6484 675.8444 676.6190 676.6190
   676.6199 677.1999 677.1999 677.9173 677.9837 678.3169 678.5020 678.5020

     the Fermi energy is    12.1739 ev
     (compare with:    12.1601 eV, computed in scf)

     Writing all to output data dir out/mp-2114.save/
 
     init_run     :      0.04s CPU      0.05s WALL (       1 calls)
     electrons    :    545.25s CPU    584.96s WALL (       1 calls)

     Called by init_run:
     wfcinit      :      0.00s CPU      0.00s WALL (       1 calls)
     potinit      :      0.01s CPU      0.01s WALL (       1 calls)
     hinit0       :      0.01s CPU      0.02s WALL (       1 calls)

     Called by electrons:
     c_bands      :    545.25s CPU    584.94s WALL (       1 calls)
     v_of_rho     :      0.01s CPU      0.01s WALL (       1 calls)

     Called by c_bands:
     init_us_2    :      0.00s CPU      0.00s WALL (       8 calls)
     init_us_2:cp :      0.00s CPU      0.00s WALL (       8 calls)
     paro_k       :    527.15s CPU    565.72s WALL (       8 calls)

     Called by paro_*:
     h_psi        :     10.62s CPU     11.15s WALL (     890 calls)
     g_psi        :      0.23s CPU      0.26s WALL (   83809 calls)

     Called by h_psi:
     h_psi:calbec :      0.21s CPU      0.23s WALL (     890 calls)
     vloc_psi     :     10.19s CPU     10.70s WALL (     890 calls)
     add_vuspsi   :      0.15s CPU      0.16s WALL (     890 calls)

     General routines
     calbec       :      0.21s CPU      0.22s WALL (     890 calls)
     fft          :      0.00s CPU      0.01s WALL (      10 calls)
     fftw         :      9.06s CPU      9.52s WALL (  139206 calls)
 
     Parallel routines
 
     PWSCF        :   9m 5.93s CPU   9m45.93s WALL

 
   This run was terminated on:   2:23:59  14Dec2023            

=------------------------------------------------------------------------------=
   JOB DONE.
=------------------------------------------------------------------------------=
