
     Program PWSCF v.7.1 starts on 14Dec2023 at  3:50: 4 

     This program is part of the open-source Quantum ESPRESSO suite
     for quantum simulation of materials; please cite
         "P. Giannozzi et al., J. Phys.:Condens. Matter 21 395502 (2009);
         "P. Giannozzi et al., J. Phys.:Condens. Matter 29 465901 (2017);
         "P. Giannozzi et al., J. Chem. Phys. 152 154105 (2020);
          URL http://www.quantum-espresso.org", 
     in publications or presentations arising from this work. More details at
     http://www.quantum-espresso.org/quote

     Parallel version (MPI), running on    24 processors

     MPI processes distributed on     1 nodes
     122907 MiB available memory on the printing compute node when the environment starts
 
     Reading input from pw_mp-2114_scf_k3000_E81.in
Warning: card &CELL ignored
Warning: card / ignored

     Current dimensions of program PWSCF are:
     Max number of different atomic species (ntypx) = 10
     Max number of k-points (npk) =  40000
     Max angular momentum in pseudopotentials (lmaxx) =  4
 
     K-points division:     npool     =       2
     R & G space division:  proc/nbgrp/npool/nimage =      12
     Subspace diagonalization in iterative solution of the eigenvalue problem:
     a serial algorithm will be used

 
     Parallelization info
     --------------------
     sticks:   dense  smooth     PW     G-vecs:    dense   smooth      PW
     Min          79      79     24                 1629     1629     273
     Max          80      80     25                 1633     1633     275
     Sum         955     955    295                19579    19579    3287
 
     Using Slab Decomposition
 


     bravais-lattice index     =            2
     lattice parameter (alat)  =       9.2535  a.u.
     unit-cell volume          =     198.0857 (a.u.)^3
     number of atoms/cell      =            2
     number of atomic types    =            2
     number of electrons       =        16.00
     number of Kohn-Sham states=           16
     kinetic-energy cutoff     =      81.0000  Ry
     charge density cutoff     =     324.0000  Ry
     scf convergence threshold =      1.0E-10
     mixing beta               =       0.7000
     number of iterations used =            8  plain     mixing
     Exchange-correlation= PBE
                           (   1   4   3   4   0   0   0)

     celldm(1)=   9.253465  celldm(2)=   0.000000  celldm(3)=   0.000000
     celldm(4)=   0.000000  celldm(5)=   0.000000  celldm(6)=   0.000000

     crystal axes: (cart. coord. in units of alat)
               a(1) = (  -0.500000   0.000000   0.500000 )  
               a(2) = (   0.000000   0.500000   0.500000 )  
               a(3) = (  -0.500000   0.500000   0.000000 )  

     reciprocal axes: (cart. coord. in units 2 pi/alat)
               b(1) = ( -1.000000 -1.000000  1.000000 )  
               b(2) = (  1.000000  1.000000  1.000000 )  
               b(3) = ( -1.000000  1.000000 -1.000000 )  


     PseudoPot. # 1 for N  read from file:
     /usr/scratch4/magr4985/MG/HTDF/pseudo/SG15/N.upf
     MD5 check sum: c233fa8df51455e992258b7c3dee8a9f
     Pseudo is Norm-conserving, Zval =  5.0
     Generated using ONCVPSP code by D. R. Hamann
     Using radial grid of  602 points,  4 beta functions with: 
                l(1) =   0
                l(2) =   0
                l(3) =   1
                l(4) =   1

     PseudoPot. # 2 for Y  read from file:
     /usr/scratch4/magr4985/MG/HTDF/pseudo/SG15/Y.upf
     MD5 check sum: 1a657b90673a6e990374512484d9703d
     Pseudo is Norm-conserving, Zval = 11.0
     Generated using ONCVPSP code by D. R. Hamann
     Using radial grid of  602 points,  6 beta functions with: 
                l(1) =   0
                l(2) =   0
                l(3) =   1
                l(4) =   1
                l(5) =   2
                l(6) =   2

     atomic species   valence    mass     pseudopotential
        N              5.00    14.00670     N ( 1.00)
        Y             11.00    88.90590     Y ( 1.00)

     48 Sym. Ops., with inversion, found



   Cartesian axes

     site n.     atom                  positions (alat units)
         1           Y   tau(   1) = (   0.0000000   0.0000000   0.0000000  )
         2           N   tau(   2) = (  -0.5000000   0.5000000   0.5000000  )

     number of k points=    72  Gaussian smearing, width (Ry)=  0.0005
                       cart. coord. in units 2pi/alat
        k(    1) = (   0.0000000   0.0000000   0.0000000), wk =   0.0011574
        k(    2) = (  -0.0833333   0.0833333  -0.0833333), wk =   0.0092593
        k(    3) = (  -0.1666667   0.1666667  -0.1666667), wk =   0.0092593
        k(    4) = (  -0.2500000   0.2500000  -0.2500000), wk =   0.0092593
        k(    5) = (  -0.3333333   0.3333333  -0.3333333), wk =   0.0092593
        k(    6) = (  -0.4166667   0.4166667  -0.4166667), wk =   0.0092593
        k(    7) = (   0.5000000  -0.5000000   0.5000000), wk =   0.0046296
        k(    8) = (   0.0000000   0.1666667   0.0000000), wk =   0.0069444
        k(    9) = (  -0.0833333   0.2500000  -0.0833333), wk =   0.0277778
        k(   10) = (  -0.1666667   0.3333333  -0.1666667), wk =   0.0277778
        k(   11) = (  -0.2500000   0.4166667  -0.2500000), wk =   0.0277778
        k(   12) = (  -0.3333333   0.5000000  -0.3333333), wk =   0.0277778
        k(   13) = (   0.5833333  -0.4166667   0.5833333), wk =   0.0277778
        k(   14) = (   0.5000000  -0.3333333   0.5000000), wk =   0.0277778
        k(   15) = (   0.4166667  -0.2500000   0.4166667), wk =   0.0277778
        k(   16) = (   0.3333333  -0.1666667   0.3333333), wk =   0.0277778
        k(   17) = (   0.2500000  -0.0833333   0.2500000), wk =   0.0277778
        k(   18) = (   0.1666667  -0.0000000   0.1666667), wk =   0.0138889
        k(   19) = (   0.0000000   0.3333333   0.0000000), wk =   0.0069444
        k(   20) = (  -0.0833333   0.4166667  -0.0833333), wk =   0.0277778
        k(   21) = (  -0.1666667   0.5000000  -0.1666667), wk =   0.0277778
        k(   22) = (  -0.2500000   0.5833333  -0.2500000), wk =   0.0277778
        k(   23) = (   0.6666667  -0.3333333   0.6666667), wk =   0.0277778
        k(   24) = (   0.5833333  -0.2500000   0.5833333), wk =   0.0277778
        k(   25) = (   0.5000000  -0.1666667   0.5000000), wk =   0.0277778
        k(   26) = (   0.4166667  -0.0833333   0.4166667), wk =   0.0277778
        k(   27) = (   0.3333333   0.0000000   0.3333333), wk =   0.0138889
        k(   28) = (   0.0000000   0.5000000   0.0000000), wk =   0.0069444
        k(   29) = (  -0.0833333   0.5833333  -0.0833333), wk =   0.0277778
        k(   30) = (  -0.1666667   0.6666667  -0.1666667), wk =   0.0277778
        k(   31) = (   0.7500000  -0.2500000   0.7500000), wk =   0.0277778
        k(   32) = (   0.6666667  -0.1666667   0.6666667), wk =   0.0277778
        k(   33) = (   0.5833333  -0.0833333   0.5833333), wk =   0.0277778
        k(   34) = (   0.5000000   0.0000000   0.5000000), wk =   0.0138889
        k(   35) = (   0.0000000   0.6666667   0.0000000), wk =   0.0069444
        k(   36) = (  -0.0833333   0.7500000  -0.0833333), wk =   0.0277778
        k(   37) = (   0.8333333  -0.1666667   0.8333333), wk =   0.0277778
        k(   38) = (   0.7500000  -0.0833333   0.7500000), wk =   0.0277778
        k(   39) = (   0.6666667  -0.0000000   0.6666667), wk =   0.0138889
        k(   40) = (   0.0000000   0.8333333   0.0000000), wk =   0.0069444
        k(   41) = (   0.9166667  -0.0833333   0.9166667), wk =   0.0277778
        k(   42) = (   0.8333333   0.0000000   0.8333333), wk =   0.0138889
        k(   43) = (   0.0000000  -1.0000000   0.0000000), wk =   0.0034722
        k(   44) = (  -0.1666667   0.3333333   0.0000000), wk =   0.0277778
        k(   45) = (  -0.2500000   0.4166667  -0.0833333), wk =   0.0555556
        k(   46) = (  -0.3333333   0.5000000  -0.1666667), wk =   0.0555556
        k(   47) = (   0.5833333  -0.4166667   0.7500000), wk =   0.0555556
        k(   48) = (   0.5000000  -0.3333333   0.6666667), wk =   0.0277778
        k(   49) = (  -0.1666667   0.5000000   0.0000000), wk =   0.0277778
        k(   50) = (  -0.2500000   0.5833333  -0.0833333), wk =   0.0555556
        k(   51) = (   0.6666667  -0.3333333   0.8333333), wk =   0.0555556
        k(   52) = (   0.5833333  -0.2500000   0.7500000), wk =   0.0555556
        k(   53) = (   0.5000000  -0.1666667   0.6666667), wk =   0.0555556
        k(   54) = (   0.4166667  -0.0833333   0.5833333), wk =   0.0555556
        k(   55) = (   0.3333333   0.0000000   0.5000000), wk =   0.0277778
        k(   56) = (  -0.1666667   0.6666667  -0.0000000), wk =   0.0277778
        k(   57) = (   0.7500000  -0.2500000   0.9166667), wk =   0.0555556
        k(   58) = (   0.6666667  -0.1666667   0.8333333), wk =   0.0555556
        k(   59) = (   0.5833333  -0.0833333   0.7500000), wk =   0.0555556
        k(   60) = (   0.5000000   0.0000000   0.6666667), wk =   0.0277778
        k(   61) = (   0.8333333  -0.1666667   1.0000000), wk =   0.0277778
        k(   62) = (   0.7500000  -0.0833333   0.9166667), wk =   0.0555556
        k(   63) = (   0.6666667   0.0000000   0.8333333), wk =   0.0277778
        k(   64) = (  -0.1666667  -1.0000000  -0.0000000), wk =   0.0138889
        k(   65) = (   0.6666667  -0.3333333   1.0000000), wk =   0.0277778
        k(   66) = (   0.5833333  -0.2500000   0.9166667), wk =   0.0555556
        k(   67) = (   0.5000000  -0.1666667   0.8333333), wk =   0.0277778
        k(   68) = (   0.6666667  -0.1666667   1.0000000), wk =   0.0277778
        k(   69) = (   0.5833333  -0.0833333   0.9166667), wk =   0.0555556
        k(   70) = (   0.5000000   0.0000000   0.8333333), wk =   0.0277778
        k(   71) = (  -0.3333333  -1.0000000   0.0000000), wk =   0.0138889
        k(   72) = (  -0.5000000  -1.0000000   0.0000000), wk =   0.0069444

     Dense  grid:    19579 G-vectors     FFT dimensions: (  40,  40,  40)

     Estimated max dynamical RAM per process >       4.44 MB

     Estimated total dynamical RAM >     101.78 MB

     Initial potential from superposition of free atoms

     starting charge      15.7879, renormalised to      16.0000
     Starting wfcs are random

     total cpu time spent up to now is        0.2 secs

     Self-consistent Calculation

     iteration #  1     ecut=    81.00 Ry     beta= 0.70
     Davidson diagonalization with overlap
     ethr =  1.00E-02,  avg # of iterations =  8.1

     total cpu time spent up to now is        1.0 secs

     total energy              =     -97.01342695 Ry
     estimated scf accuracy    <       0.63913318 Ry

     iteration #  2     ecut=    81.00 Ry     beta= 0.70
     Davidson diagonalization with overlap
     ethr =  3.99E-03,  avg # of iterations =  2.0

     total cpu time spent up to now is        1.4 secs

     total energy              =     -96.99874628 Ry
     estimated scf accuracy    <       1.99564666 Ry

     iteration #  3     ecut=    81.00 Ry     beta= 0.70
     Davidson diagonalization with overlap
     ethr =  3.99E-03,  avg # of iterations =  2.0

     total cpu time spent up to now is        1.7 secs

     total energy              =     -97.34264939 Ry
     estimated scf accuracy    <       0.01109392 Ry

     iteration #  4     ecut=    81.00 Ry     beta= 0.70
     Davidson diagonalization with overlap
     ethr =  6.93E-05,  avg # of iterations =  2.4

     total cpu time spent up to now is        2.0 secs

     total energy              =     -97.34496401 Ry
     estimated scf accuracy    <       0.00136797 Ry

     iteration #  5     ecut=    81.00 Ry     beta= 0.70
     Davidson diagonalization with overlap
     ethr =  8.55E-06,  avg # of iterations =  2.8

     total cpu time spent up to now is        2.4 secs

     total energy              =     -97.34513683 Ry
     estimated scf accuracy    <       0.00001987 Ry

     iteration #  6     ecut=    81.00 Ry     beta= 0.70
     Davidson diagonalization with overlap
     ethr =  1.24E-07,  avg # of iterations =  2.5

     total cpu time spent up to now is        2.7 secs

     total energy              =     -97.34514075 Ry
     estimated scf accuracy    <       0.00000098 Ry

     iteration #  7     ecut=    81.00 Ry     beta= 0.70
     Davidson diagonalization with overlap
     ethr =  6.12E-09,  avg # of iterations =  2.0

     total cpu time spent up to now is        3.1 secs

     total energy              =     -97.34514090 Ry
     estimated scf accuracy    <       0.00000076 Ry

     iteration #  8     ecut=    81.00 Ry     beta= 0.70
     Davidson diagonalization with overlap
     ethr =  4.77E-09,  avg # of iterations =  2.0

     total cpu time spent up to now is        3.4 secs

     total energy              =     -97.34514103 Ry
     estimated scf accuracy    <          4.6E-09 Ry

     iteration #  9     ecut=    81.00 Ry     beta= 0.70
     Davidson diagonalization with overlap
     ethr =  2.86E-11,  avg # of iterations =  2.0

     total cpu time spent up to now is        3.7 secs

     End of self-consistent calculation

          k = 0.0000 0.0000 0.0000 (  2421 PWs)   bands (ev):

   -28.8023  -8.4664  -8.4664  -8.4664  -0.8293  12.0323  12.0323  12.0323
    15.1655  15.1655  15.1655  16.1632  17.1402  17.1402  22.9534  35.3074

          k =-0.0833 0.0833-0.0833 (  2439 PWs)   bands (ev):

   -28.7945  -8.5516  -8.4720  -8.4720  -0.7101  11.5802  11.7883  11.7883
    15.2241  15.3378  15.3378  16.5748  17.4958  17.4958  23.4057  33.6998

          k =-0.1667 0.1667-0.1667 (  2457 PWs)   bands (ev):

   -28.7733  -8.7740  -8.4873  -8.4873  -0.3910  10.6251  11.2446  11.2446
    15.3657  15.8051  15.8051  17.5211  18.3944  18.3944  24.5669  31.6042

          k =-0.2500 0.2500-0.2500 (  2442 PWs)   bands (ev):

   -28.7442  -9.0572  -8.5080  -8.5080   0.0356   9.6138  10.6660  10.6660
    15.6963  16.4977  16.4977  18.5341  19.5454  19.5454  25.7860  30.2532

          k =-0.3333 0.3333-0.3333 (  2442 PWs)   bands (ev):

   -28.7148  -9.3210  -8.5285  -8.5285   0.4605   8.7565  10.1940  10.1940
    16.2890  17.3164  17.3164  19.1976  20.7158  20.7158  26.0089  28.2025

          k =-0.4167 0.4167-0.4167 (  2443 PWs)   bands (ev):

   -28.6931  -9.5039  -8.5433  -8.5433   0.7767   8.1794   9.8925   9.8925
    17.0957  18.0540  18.0540  19.1454  21.6969  21.6969  25.8555  26.5248

          k = 0.5000-0.5000 0.5000 (  2452 PWs)   bands (ev):

   -28.6852  -9.5690  -8.5488  -8.5488   0.8947   7.9743   9.7893   9.7893
    17.6914  18.3705  18.3705  18.7534  22.1441  22.1441  25.8020  25.8064

          k = 0.0000 0.1667 0.0000 (  2449 PWs)   bands (ev):

   -28.7920  -8.5500  -8.4882  -8.4882  -0.6772  11.2249  11.8882  11.8882
    14.8502  15.5981  15.5981  16.4887  17.2344  18.0538  23.5495  33.5833

          k =-0.0833 0.2500-0.0833 (  2454 PWs)   bands (ev):

   -28.7753  -8.7135  -8.5126  -8.4975  -0.4444  10.5093  11.4852  11.5828
    14.7553  16.0180  16.1040  17.0347  17.6753  19.0490  24.4684  31.7532

          k =-0.1667 0.3333-0.1667 (  2449 PWs)   bands (ev):

   -28.7488  -8.9680  -8.5385  -8.5128  -0.0836   9.7369  10.8311  11.0676
    14.9882  16.5722  16.7813  17.9757  18.6230  20.1365  25.7122  29.8534

          k =-0.2500 0.4167-0.2500 (  2447 PWs)   bands (ev):

   -28.7195  -9.2291  -8.5590  -8.5381   0.3071   9.0100  10.2819  10.5473
    15.4967  17.2892  17.5606  18.8707  19.7820  21.1004  26.1427  28.3182

          k =-0.3333 0.5000-0.3333 (  2440 PWs)   bands (ev):

   -28.6953  -9.4315  -8.5687  -8.5665   0.6300   8.4431   9.9510  10.1372
    16.2607  17.9454  18.2293  19.3248  20.9510  21.8208  25.7084  26.7556

          k = 0.5833-0.4167 0.5833 (  2439 PWs)   bands (ev):

   -28.6827  -9.5320  -8.5901  -8.5652   0.8022   8.1488   9.8477   9.8938
    17.1798  17.9143  18.4469  19.5180  21.8873  22.1429  25.3889  26.0070

          k = 0.5000-0.3333 0.5000 (  2439 PWs)   bands (ev):

   -28.6854  -9.5112  -8.6024  -8.5493   0.7742   8.1943   9.8423   9.9595
    17.1636  17.9687  18.0520  19.5777  21.6849  22.1098  25.4571  26.2849

          k = 0.4167-0.2500 0.4167 (  2441 PWs)   bands (ev):

   -28.7025  -9.3735  -8.5996  -8.5253   0.5529   8.5789   9.9885  10.2655
    16.3403  17.2860  18.0960  19.2071  20.7800  21.5547  25.8586  27.0226

          k = 0.3333-0.1667 0.3333 (  2455 PWs)   bands (ev):

   -28.7293  -9.1476  -8.5815  -8.4994   0.1989   9.2395  10.3205  10.7291
    15.7213  16.4746  17.4905  18.4044  19.8742  20.5695  26.1535  28.1859

          k = 0.2500-0.0833 0.2500 (  2452 PWs)   bands (ev):

   -28.7585  -8.8859  -8.5510  -8.4786  -0.1966  10.0721  10.8013  11.2724
    15.3673  15.8163  16.6687  17.4700  18.8816  19.4162  25.3008  29.8313

          k = 0.1667-0.0000 0.1667 (  2447 PWs)   bands (ev):

   -28.7823  -8.6632  -8.5110  -8.4685  -0.5313  10.9353  11.3472  11.7143
    15.2101  15.4158  15.9186  16.8464  17.9120  18.3137  24.0902  31.9988

          k = 0.0000 0.3333 0.0000 (  2445 PWs)   bands (ev):

   -28.7638  -8.7526  -8.5474  -8.5474  -0.3458  10.0249  11.6523  11.6523
    14.1388  16.6422  16.6422  16.9385  17.5034  20.0156  25.0819  31.3977

          k =-0.0833 0.4167-0.0833 (  2451 PWs)   bands (ev):

   -28.7419  -8.9242  -8.5824  -8.5731  -0.1333   9.5686  11.2782  11.4060
    14.0331  17.1975  17.2782  17.5390  18.0096  20.9570  26.1662  29.6251

          k =-0.1667 0.5000-0.1667 (  2451 PWs)   bands (ev):

   -28.7153  -9.1386  -8.6082  -8.6045   0.1294   9.2017  10.6584  10.9793
    14.3724  17.8526  17.9742  18.3871  18.9566  21.6743  26.5490  28.4464

          k =-0.2500 0.5833-0.2500 (  2441 PWs)   bands (ev):

   -28.6912  -9.3227  -8.6496  -8.6181   0.3771   8.8946  10.1847  10.5384
    15.0208  18.2729  18.5482  19.2882  20.0973  22.0934  25.5538  27.1810

          k = 0.6667-0.3333 0.6667 (  2450 PWs)   bands (ev):

   -28.6760  -9.4323  -8.6970  -8.6096   0.5548   8.6357  10.0105  10.1893
    15.9183  18.0397  18.6693  20.0127  21.2430  22.3274  24.9091  26.5425

          k = 0.5833-0.2500 0.5833 (  2435 PWs)   bands (ev):

   -28.6740  -9.4463  -8.7315  -8.5849   0.6203   8.5109   9.9864  10.0955
    16.9084  17.3611  18.2350  20.0605  22.0126  22.2641  24.9252  26.3695

          k = 0.5000-0.1667 0.5000 (  2427 PWs)   bands (ev):

   -28.6858  -9.3661  -8.7392  -8.5504   0.5506   8.6046   9.9534  10.3502
    16.5425  17.4880  17.8279  19.3665  21.6061  22.0683  25.3602  26.4539

          k = 0.4167-0.0833 0.4167 (  2447 PWs)   bands (ev):

   -28.7080  -9.2160  -8.7103  -8.5152   0.3546   8.9322  10.0936  10.7002
    15.9833  16.7273  17.9961  18.4845  20.6549  21.4852  26.1588  26.8390

          k = 0.3333 0.0000 0.3333 (  2445 PWs)   bands (ev):

   -28.7346  -9.0403  -8.6420  -8.4889   0.0798   9.4495  10.3903  11.0578
    15.6084  16.1382  17.5631  17.6404  19.7696  20.5189  26.2708  27.7881

          k = 0.0000 0.5000 0.0000 (  2429 PWs)   bands (ev):

   -28.7253  -8.9791  -8.6277  -8.6277  -0.1133   9.4162  11.5256  11.5256
    13.3778  17.5493  17.9032  17.9086  17.9086  21.6758  27.1242  29.4658

          k =-0.0833 0.5833-0.0833 (  2444 PWs)   bands (ev):

   -28.7034  -9.1083  -8.6706  -8.6624  -0.0354   9.3725  11.1922  11.3606
    13.3847  18.1274  18.3679  18.4837  18.5533  22.1341  27.1617  28.2171

          k =-0.1667 0.6667-0.1667 (  2434 PWs)   bands (ev):

   -28.6819  -9.2339  -8.7348  -8.6776   0.0847   9.3967  10.6173  11.0106
    13.8817  18.6155  18.9607  19.1763  19.3276  22.3787  25.5008  27.7234

          k = 0.7500-0.2500 0.7500 (  2424 PWs)   bands (ev):

   -28.6668  -9.3099  -8.8182  -8.6694   0.2262   9.3277  10.2556  10.6213
    14.6731  18.3596  19.0116  19.9554  20.4343  22.7280  24.5305  27.2700

          k = 0.6667-0.1667 0.6667 (  2432 PWs)   bands (ev):

   -28.6621  -9.3238  -8.8915  -8.6399   0.3590   9.0759  10.2538  10.2934
    15.6964  17.7059  18.5880  19.9782  21.4531  23.3392  24.4198  26.4002

          k = 0.5833-0.0833 0.5833 (  2436 PWs)   bands (ev):

   -28.6691  -9.2955  -8.9107  -8.5966   0.4442   8.8562  10.0815  10.4012
    16.7902  17.0423  17.9074  19.3843  22.0596  23.1946  24.8197  25.9039

          k = 0.5000 0.0000 0.5000 (  2437 PWs)   bands (ev):

   -28.6859  -9.2597  -8.8415  -8.5509   0.4462   8.7978  10.0119  10.5686
    16.4419  17.2316  17.6972  18.8288  21.8849  22.0544  25.3998  26.4002

          k = 0.0000 0.6667 0.0000 (  2453 PWs)   bands (ev):

   -28.6868  -9.1588  -8.7073  -8.7073  -0.1471   9.5903  11.5307  11.5307
    12.7580  18.2914  18.3501  19.0328  19.0328  22.3165  26.6104  28.5947

          k =-0.0833 0.7500-0.0833 (  2432 PWs)   bands (ev):

   -28.6700  -9.2257  -8.7615  -8.7312  -0.1712   9.8381  11.1854  11.4159
    12.9408  18.7804  18.8136  19.3757  19.3913  22.3791  25.2316  28.1990

          k = 0.8333-0.1667 0.8333 (  2436 PWs)   bands (ev):

   -28.6575  -9.2484  -8.8652  -8.7282  -0.0952  10.0161  10.6131  11.0965
    13.5934  18.8466  19.4107  19.6561  19.6709  22.7839  24.2680  27.7738

          k = 0.7500-0.0833 0.7500 (  2427 PWs)   bands (ev):

   -28.6528  -9.2049  -9.0046  -8.6990   0.0640   9.7794  10.3948  10.7061
    14.5063  18.2714  19.0518  19.7891  20.6383  23.6488  24.1333  26.6453

          k = 0.6667-0.0000 0.6667 (  2440 PWs)   bands (ev):

   -28.6570  -9.1832  -9.0615  -8.6510   0.2633   9.2802  10.3463  10.4138
    15.6306  17.5993  18.4770  19.5660  21.5210  24.2608  25.0061  25.0105

          k = 0.0000 0.8333 0.0000 (  2446 PWs)   bands (ev):

   -28.6586  -9.2649  -8.7651  -8.7651  -0.3225  10.1829  11.5975  11.5975
    12.3634  18.7161  18.9614  19.7055  19.7055  22.2234  24.4464  28.3742

          k = 0.9167-0.0833 0.9167 (  2439 PWs)   bands (ev):

   -28.6507  -9.2764  -8.8176  -8.7707  -0.3280  10.4023  11.1834  11.4823
    12.7317  19.0762  19.2459  19.6151  19.7589  22.5042  23.7412  28.2002

          k = 0.8333 0.0000 0.8333 (  2432 PWs)   bands (ev):

   -28.6486  -9.2337  -8.9288  -8.7467  -0.1866  10.4636  10.5082  11.1408
    13.5017  18.9574  19.5011  19.5791  19.7803  23.3530  23.5260  27.5078

          k = 0.0000-1.0000 0.0000 (  2450 PWs)   bands (ev):

   -28.6482  -9.2988  -8.7862  -8.7862  -0.4130  10.5118  11.6341  11.6341
    12.2286  18.8603  19.2128  19.8993  19.8993  22.2725  23.4390  28.4657

          k =-0.1667 0.3333 0.0000 (  2450 PWs)   bands (ev):

   -28.7560  -8.8610  -8.5729  -8.5044  -0.2124   9.9028  11.0759  11.4219
    14.6536  16.4263  16.8569  17.2461  18.3055  20.0772  25.4535  29.7772

          k =-0.2500 0.4167-0.0833 (  2448 PWs)   bands (ev):

   -28.7294  -9.0720  -8.6268  -8.5206   0.0933   9.3374  10.5472  11.0154
    14.9206  16.9210  17.7004  17.8734  19.2975  21.0347  26.4026  27.9386

          k =-0.3333 0.5000-0.1667 (  2439 PWs)   bands (ev):

   -28.7027  -9.2798  -8.6606  -8.5481   0.3886   8.8584  10.1398  10.5684
    15.4510  17.5684  18.1901  18.8577  20.3119  21.7642  25.9376  27.1184

          k = 0.5833-0.4167 0.7500 (  2436 PWs)   bands (ev):

   -28.6831  -9.4276  -8.6756  -8.5756   0.5997   8.5238   9.9512  10.2029
    16.2255  17.9540  18.2524  19.7170  21.2915  22.1823  25.2545  26.4520

          k = 0.5000-0.3333 0.6667 (  2438 PWs)   bands (ev):

   -28.6758  -9.4806  -8.6788  -8.5878   0.6762   8.4024   9.9773   9.9883
    17.0313  17.2917  18.5444  20.0643  21.8928  22.1905  25.0100  26.4524

          k =-0.1667 0.5000 0.0000 (  2451 PWs)   bands (ev):

   -28.7200  -9.0538  -8.6568  -8.5871   0.0100   9.3247  10.9965  11.2259
    13.9807  17.7490  17.7577  18.0588  18.6599  21.6835  27.0401  27.7872

          k =-0.2500 0.5833-0.0833 (  2437 PWs)   bands (ev):

   -28.6960  -9.2000  -8.7192  -8.6129   0.1765   9.1830  10.5231  10.8969
    14.3701  18.2319  18.2689  18.7193  19.6792  22.1669  26.0649  27.2935

          k = 0.6667-0.3333 0.8333 (  2439 PWs)   bands (ev):

   -28.6764  -9.3157  -8.7670  -8.6395   0.3281   9.0629  10.1884  10.5529
    15.0391  18.1311  18.7552  19.4550  20.7572  22.5105  24.9971  26.8195

          k = 0.5833-0.2500 0.7500 (  2431 PWs)   bands (ev):

   -28.6665  -9.3705  -8.8074  -8.6423   0.4331   8.9150  10.1438  10.2618
    15.9426  17.4026  18.8789  20.0557  21.4283  22.8588  24.6262  26.6626

          k = 0.5000-0.1667 0.6667 (  2430 PWs)   bands (ev):

   -28.6691  -9.3555  -8.8289  -8.6174   0.4665   8.8274  10.0856  10.3016
    16.4780  17.0314  18.5284  19.7481  21.7860  22.8815  24.7998  26.2383

          k = 0.4167-0.0833 0.5833 (  2434 PWs)   bands (ev):

   -28.6834  -9.2833  -8.8088  -8.5784   0.4129   8.8689  10.0747  10.5483
    15.7754  17.8238  17.9385  19.0084  21.3710  22.3677  25.3139  26.5090

          k = 0.3333 0.0000 0.5000 (  2436 PWs)   bands (ev):

   -28.7055  -9.1811  -8.7355  -8.5416   0.2774   9.0417  10.2454  10.8148
    15.2392  17.3720  17.9209  18.4794  20.2794  21.7928  26.2832  26.8139

          k =-0.1667 0.6667-0.0000 (  2429 PWs)   bands (ev):

   -28.6840  -9.1876  -8.7398  -8.6872  -0.0294   9.5113  11.0401  11.1438
    13.4603  18.3396  18.9228  18.9439  19.1837  22.3795  25.9558  27.7148

          k = 0.7500-0.2500 0.9167 (  2436 PWs)   bands (ev):

   -28.6671  -9.2427  -8.8169  -8.7148   0.0330   9.6608  10.5780  10.8965
    13.9897  18.4500  19.1668  19.2862  20.1477  22.6929  24.8188  27.2671

          k = 0.6667-0.1667 0.8333 (  2432 PWs)   bands (ev):

   -28.6572  -9.2500  -8.9164  -8.7119   0.1402   9.5973  10.3324  10.6167
    14.7846  17.8369  19.3064  19.7049  20.7962  23.3737  24.3429  26.8209

          k = 0.5833-0.0833 0.7500 (  2432 PWs)   bands (ev):

   -28.6570  -9.2273  -8.9911  -8.6776   0.2640   9.3006  10.3419  10.3860
    15.8061  17.0426  18.9658  19.6444  21.3814  24.2317  24.4263  25.7763

          k = 0.5000 0.0000 0.6667 (  2442 PWs)   bands (ev):

   -28.6666  -9.2474  -8.9458  -8.6271   0.3665   9.0299  10.1459  10.4776
    16.3341  16.9231  18.4405  19.2264  21.8190  23.4944  24.8004  25.8621

          k = 0.8333-0.1667 1.0000 (  2433 PWs)   bands (ev):

   -28.6577  -9.2508  -8.8001  -8.7724  -0.2070  10.1263  11.1178  11.1206
    13.1618  18.8260  19.1636  19.6400  19.6824  22.5577  24.3698  27.7990

          k = 0.7500-0.0833 0.9167 (  2432 PWs)   bands (ev):

   -28.6504  -9.2252  -8.9036  -8.7747  -0.1264  10.2781  10.5662  10.9337
    13.8085  18.4606  19.3166  19.7236  20.1783  23.2387  23.9471  27.2990

          k = 0.6667 0.0000 0.8333 (  2431 PWs)   bands (ev):

   -28.6502  -9.1448  -9.0513  -8.7364   0.0467   9.8628  10.4300  10.6545
    14.7032  17.7217  19.4279  19.5667  20.7352  23.9439  24.3332  26.2980

          k =-0.1667-1.0000-0.0000 (  2428 PWs)   bands (ev):

   -28.6481  -9.2659  -8.8220  -8.8071  -0.2980  10.4865  11.1157  11.1346
    13.0704  19.0967  19.1554  19.6432  19.9024  22.8900  23.4793  27.9289

          k = 0.6667-0.3333 1.0000 (  2433 PWs)   bands (ev):

   -28.6766  -9.2375  -8.8277  -8.6487   0.2216   9.2539  10.3355  10.7072
    14.7936  18.0224  18.7123  18.9295  20.7715  22.6663  25.1871  26.7521

          k = 0.5833-0.2500 0.9167 (  2435 PWs)   bands (ev):

   -28.6623  -9.2520  -8.9026  -8.6928   0.2534   9.3133  10.2543  10.5189
    15.4519  17.2832  19.1270  19.3733  21.2982  23.4142  24.6884  26.2834

          k = 0.5000-0.1667 0.8333 (  2442 PWs)   bands (ev):

   -28.6570  -9.2548  -8.9284  -8.7133   0.2648   9.3220  10.3334  10.3612
    16.2161  16.4127  19.3108  19.7263  21.2335  23.9459  24.4884  26.2206

          k = 0.6667-0.1667 1.0000 (  2436 PWs)   bands (ev):

   -28.6555  -9.2120  -8.8945  -8.7770   0.0360   9.8641  10.4661  10.6792
    14.5225  17.7919  19.2044  19.6160  20.7290  23.3585  24.5110  26.6888

          k = 0.5833-0.0833 0.9167 (  2435 PWs)   bands (ev):

   -28.6502  -9.1467  -8.9946  -8.8001   0.0871   9.8073  10.4191  10.5400
    15.2855  16.9178  19.4020  19.7277  20.8689  24.1823  24.6574  26.0666

          k = 0.5000 0.0000 0.8333 (  2442 PWs)   bands (ev):

   -28.6527  -9.1483  -9.0211  -8.7593   0.1670   9.5753  10.3894  10.4705
    16.1067  16.2402  19.4156  19.5194  21.1104  24.3934  24.9500  25.4900

          k =-0.3333-1.0000 0.0000 (  2424 PWs)   bands (ev):

   -28.6478  -9.1750  -8.9188  -8.8483  -0.0570  10.2757  10.4465  10.6768
    14.4350  17.6811  19.2342  19.9085  20.5459  23.9017  24.0617  26.7524

          k =-0.5000-1.0000 0.0000 (  2468 PWs)   bands (ev):

   -28.6476  -9.0484  -9.0484  -8.8686   0.0697   9.8897  10.4776  10.4776
    16.0259  16.0259  19.2954  19.9116  20.8309  24.4084  25.3953  25.3953

     the Fermi energy is    12.1601 ev

!    total energy              =     -97.34514103 Ry
     estimated scf accuracy    <          5.0E-11 Ry
     smearing contrib. (-TS)   =      -0.00000000 Ry
     internal energy E=F+TS    =     -97.34514103 Ry

     The total energy is F=E-TS. E is the sum of the following terms:
     one-electron contribution =      -9.76228092 Ry
     hartree contribution      =      13.04587599 Ry
     xc contribution           =     -15.33522503 Ry
     ewald contribution        =     -85.29351107 Ry

     convergence has been achieved in   9 iterations

     Writing all to output data dir out/mp-2114.save/
 
     init_run     :      0.10s CPU      0.14s WALL (       1 calls)
     electrons    :      3.11s CPU      3.53s WALL (       1 calls)

     Called by init_run:
     wfcinit      :      0.08s CPU      0.11s WALL (       1 calls)
     potinit      :      0.01s CPU      0.01s WALL (       1 calls)
     hinit0       :      0.00s CPU      0.01s WALL (       1 calls)

     Called by electrons:
     c_bands      :      2.68s CPU      2.96s WALL (       9 calls)
     sum_band     :      0.39s CPU      0.48s WALL (       9 calls)
     v_of_rho     :      0.03s CPU      0.03s WALL (      10 calls)
     mix_rho      :      0.01s CPU      0.01s WALL (       9 calls)

     Called by c_bands:
     init_us_2    :      0.04s CPU      0.05s WALL (     684 calls)
     init_us_2:cp :      0.04s CPU      0.04s WALL (     684 calls)
     cegterg      :      2.38s CPU      2.52s WALL (     324 calls)

     Called by *egterg:
     cdiaghg      :      0.35s CPU      0.36s WALL (    1280 calls)
     h_psi        :      1.90s CPU      2.04s WALL (    1316 calls)
     g_psi        :      0.01s CPU      0.01s WALL (     956 calls)

     Called by h_psi:
     h_psi:calbec :      0.05s CPU      0.06s WALL (    1316 calls)
     vloc_psi     :      1.80s CPU      1.93s WALL (    1316 calls)
     add_vuspsi   :      0.03s CPU      0.04s WALL (    1316 calls)

     General routines
     calbec       :      0.05s CPU      0.05s WALL (    1316 calls)
     fft          :      0.01s CPU      0.01s WALL (      99 calls)
     ffts         :      0.00s CPU      0.00s WALL (       9 calls)
     fftw         :      1.91s CPU      2.06s WALL (   34874 calls)
     davcio       :      0.04s CPU      0.19s WALL (    1130 calls)
 
     Parallel routines
 
     PWSCF        :      3.29s CPU      3.93s WALL

 
   This run was terminated on:   3:50: 8  14Dec2023            

=------------------------------------------------------------------------------=
   JOB DONE.
=------------------------------------------------------------------------------=
