
     Program PWSCF v.7.1 starts on  6Dec2023 at 19:20:44 

     This program is part of the open-source Quantum ESPRESSO suite
     for quantum simulation of materials; please cite
         "P. Giannozzi et al., J. Phys.:Condens. Matter 21 395502 (2009);
         "P. Giannozzi et al., J. Phys.:Condens. Matter 29 465901 (2017);
         "P. Giannozzi et al., J. Chem. Phys. 152 154105 (2020);
          URL http://www.quantum-espresso.org", 
     in publications or presentations arising from this work. More details at
     http://www.quantum-espresso.org/quote

     Parallel version (MPI), running on    24 processors

     MPI processes distributed on     1 nodes
     122723 MiB available memory on the printing compute node when the environment starts
 
     Reading input from pw_mp-2455_scf_k3000_E52.in
Warning: card &CELL ignored
Warning: card / ignored

     Current dimensions of program PWSCF are:
     Max number of different atomic species (ntypx) = 10
     Max number of k-points (npk) =  40000
     Max angular momentum in pseudopotentials (lmaxx) =  4
 
     R & G space division:  proc/nbgrp/npool/nimage =      24
     Subspace diagonalization in iterative solution of the eigenvalue problem:
     a serial algorithm will be used

 
     Parallelization info
     --------------------
     sticks:   dense  smooth     PW     G-vecs:    dense   smooth      PW
     Min          40      40     12                 1454     1454     238
     Max          41      41     13                 1461     1461     241
     Sum         973     973    295                34961    34961    5739
 
     Using Slab Decomposition
 


     bravais-lattice index     =            8
     lattice parameter (alat)  =       5.7510  a.u.
     unit-cell volume          =     691.1208 (a.u.)^3
     number of atoms/cell      =            6
     number of atomic types    =            2
     number of electrons       =        52.00
     number of Kohn-Sham states=           52
     kinetic-energy cutoff     =      52.0000  Ry
     charge density cutoff     =     208.0000  Ry
     scf convergence threshold =      1.0E-10
     mixing beta               =       0.7000
     number of iterations used =            8  plain     mixing
     Exchange-correlation= PBE
                           (   1   4   3   4   0   0   0)

     celldm(1)=   5.750963  celldm(2)=   1.780735  celldm(3)=   2.040484
     celldm(4)=   0.000000  celldm(5)=   0.000000  celldm(6)=   0.000000

     crystal axes: (cart. coord. in units of alat)
               a(1) = (   1.000000   0.000000   0.000000 )  
               a(2) = (   0.000000   1.780735   0.000000 )  
               a(3) = (   0.000000   0.000000   2.040484 )  

     reciprocal axes: (cart. coord. in units 2 pi/alat)
               b(1) = (  1.000000  0.000000  0.000000 )  
               b(2) = (  0.000000  0.561566  0.000000 )  
               b(3) = (  0.000000  0.000000  0.490080 )  


     PseudoPot. # 1 for As read from file:
     /usr/scratch4/magr4985/MG/HTDF/pseudo/SG15/As.upf
     MD5 check sum: a2ff92a4799c87c945fff9e6739df4dd
     Pseudo is Norm-conserving, Zval =  5.0
     Generated using ONCVPSP code by D. R. Hamann
     Using radial grid of  602 points,  6 beta functions with: 
                l(1) =   0
                l(2) =   0
                l(3) =   1
                l(4) =   1
                l(5) =   2
                l(6) =   2

     PseudoPot. # 2 for Os read from file:
     /usr/scratch4/magr4985/MG/HTDF/pseudo/SG15/Os.upf
     MD5 check sum: 95cd203db9fc26cc83e0e7c2505c7528
     Pseudo is Norm-conserving, Zval = 16.0
     Generated using ONCVPSP code by D. R. Hamann
     Using radial grid of  602 points,  8 beta functions with: 
                l(1) =   0
                l(2) =   0
                l(3) =   1
                l(4) =   1
                l(5) =   2
                l(6) =   2
                l(7) =   3
                l(8) =   3

     atomic species   valence    mass     pseudopotential
        As             5.00    74.92160     As( 1.00)
        Os            16.00   190.23000     Os( 1.00)

      4 Sym. Ops., with inversion, found



   Cartesian axes

     site n.     atom                  positions (alat units)
         1           As  tau(   1) = (   0.5000000   0.5860498   1.7674369  )
         2           As  tau(   2) = (   0.5000000   1.1946849   0.2730470  )
         3           As  tau(   3) = (   0.0000000   0.3043176   0.7471950  )
         4           As  tau(   4) = (   0.0000000   1.4764171   1.2932889  )
         5           Os  tau(   5) = (   0.5000000   0.8903674   1.0202419  )
         6           Os  tau(   6) = (   0.0000000   0.0000000   0.0000000  )

     number of k points=   140  Gaussian smearing, width (Ry)=  0.0005

     Number of k-points >= 100: set verbosity='high' to print them.

     Dense  grid:    34961 G-vectors     FFT dimensions: (  27,  48,  54)

     Estimated max dynamical RAM per process >       8.18 MB

     Estimated total dynamical RAM >     196.31 MB

     Initial potential from superposition of free atoms

     starting charge      51.7909, renormalised to      52.0000
     Starting wfcs are random

     total cpu time spent up to now is        1.7 secs

     Self-consistent Calculation

     iteration #  1     ecut=    52.00 Ry     beta= 0.70
     Davidson diagonalization with overlap
     ethr =  1.00E-02,  avg # of iterations =  9.2

     Threshold (ethr) on eigenvalues was too large:
     Diagonalizing with lowered threshold

     Davidson diagonalization with overlap
     ethr =  2.79E-04,  avg # of iterations =  1.9

     total cpu time spent up to now is       34.8 secs

     total energy              =    -418.89921062 Ry
     estimated scf accuracy    <       0.14353557 Ry

     iteration #  2     ecut=    52.00 Ry     beta= 0.70
     Davidson diagonalization with overlap
     ethr =  2.76E-04,  avg # of iterations =  2.0

     total cpu time spent up to now is       43.3 secs

     total energy              =    -418.87360854 Ry
     estimated scf accuracy    <       0.17158580 Ry

     iteration #  3     ecut=    52.00 Ry     beta= 0.70
     Davidson diagonalization with overlap
     ethr =  2.76E-04,  avg # of iterations =  2.0

     total cpu time spent up to now is       50.5 secs

     total energy              =    -418.91673939 Ry
     estimated scf accuracy    <       0.07026352 Ry

     iteration #  4     ecut=    52.00 Ry     beta= 0.70
     Davidson diagonalization with overlap
     ethr =  1.35E-04,  avg # of iterations =  1.2

     total cpu time spent up to now is       57.3 secs

     total energy              =    -418.92729057 Ry
     estimated scf accuracy    <       0.00023285 Ry

     iteration #  5     ecut=    52.00 Ry     beta= 0.70
     Davidson diagonalization with overlap
     ethr =  4.48E-07,  avg # of iterations =  6.2

     total cpu time spent up to now is       66.7 secs

     total energy              =    -418.92733423 Ry
     estimated scf accuracy    <       0.00001078 Ry

     iteration #  6     ecut=    52.00 Ry     beta= 0.70
     Davidson diagonalization with overlap
     ethr =  2.07E-08,  avg # of iterations =  1.5

     total cpu time spent up to now is       73.7 secs

     total energy              =    -418.92733261 Ry
     estimated scf accuracy    <       0.00003138 Ry

     iteration #  7     ecut=    52.00 Ry     beta= 0.70
     Davidson diagonalization with overlap
     ethr =  2.07E-08,  avg # of iterations =  1.0

     total cpu time spent up to now is       80.2 secs

     total energy              =    -418.92733637 Ry
     estimated scf accuracy    <       0.00000039 Ry

     iteration #  8     ecut=    52.00 Ry     beta= 0.70
     Davidson diagonalization with overlap
     ethr =  7.48E-10,  avg # of iterations =  1.0

     total cpu time spent up to now is       87.3 secs

     total energy              =    -418.92733642 Ry
     estimated scf accuracy    <          3.5E-09 Ry

     iteration #  9     ecut=    52.00 Ry     beta= 0.70
     Davidson diagonalization with overlap
     ethr =  6.80E-12,  avg # of iterations =  2.0

     total cpu time spent up to now is       95.2 secs

     total energy              =    -418.92733642 Ry
     estimated scf accuracy    <          1.6E-10 Ry

     iteration # 10     ecut=    52.00 Ry     beta= 0.70
     Davidson diagonalization with overlap
     ethr =  3.17E-13,  avg # of iterations =  2.0

     total cpu time spent up to now is      103.1 secs

     End of self-consistent calculation

     Number of k-points >= 100: set verbosity='high' to print the bands.

     the Fermi energy is    13.4640 ev

!    total energy              =    -418.92733642 Ry
     estimated scf accuracy    <          3.8E-11 Ry
     smearing contrib. (-TS)   =      -0.00000000 Ry
     internal energy E=F+TS    =    -418.92733642 Ry

     The total energy is F=E-TS. E is the sum of the following terms:
     one-electron contribution =    -165.97104530 Ry
     hartree contribution      =     102.50229540 Ry
     xc contribution           =     -51.14764735 Ry
     ewald contribution        =    -304.31093918 Ry

     convergence has been achieved in  10 iterations

     Writing all to output data dir out/mp-2455.save/
 
     init_run     :      1.39s CPU      1.59s WALL (       1 calls)
     electrons    :     81.49s CPU    101.53s WALL (       1 calls)

     Called by init_run:
     wfcinit      :      1.35s CPU      1.54s WALL (       1 calls)
     potinit      :      0.01s CPU      0.02s WALL (       1 calls)
     hinit0       :      0.01s CPU      0.02s WALL (       1 calls)

     Called by electrons:
     c_bands      :     65.99s CPU     79.84s WALL (      11 calls)
     sum_band     :     15.46s CPU     21.52s WALL (      11 calls)
     v_of_rho     :      0.02s CPU      0.02s WALL (      11 calls)
     mix_rho      :      0.01s CPU      0.07s WALL (      11 calls)

     Called by c_bands:
     init_us_2    :      0.41s CPU      0.50s WALL (    3220 calls)
     init_us_2:cp :      0.40s CPU      0.50s WALL (    3220 calls)
     cegterg      :     52.96s CPU     54.90s WALL (    1540 calls)

     Called by *egterg:
     cdiaghg      :     16.46s CPU     16.56s WALL (    5606 calls)
     h_psi        :     31.49s CPU     33.26s WALL (    5886 calls)
     g_psi        :      0.14s CPU      0.14s WALL (    4206 calls)

     Called by h_psi:
     h_psi:calbec :      2.33s CPU      2.45s WALL (    5886 calls)
     vloc_psi     :     27.40s CPU     29.00s WALL (    5886 calls)
     add_vuspsi   :      1.59s CPU      1.64s WALL (    5886 calls)

     General routines
     calbec       :      2.31s CPU      2.44s WALL (    5886 calls)
     fft          :      0.01s CPU      0.01s WALL (     110 calls)
     ffts         :      0.00s CPU      0.00s WALL (      11 calls)
     fftw         :     40.04s CPU     43.22s WALL (  499744 calls)
     davcio       :      0.65s CPU     15.74s WALL (    5006 calls)
 
     Parallel routines
 
     PWSCF        :   1m24.65s CPU   1m48.04s WALL

 
   This run was terminated on:  19:22:32   6Dec2023            

=------------------------------------------------------------------------------=
   JOB DONE.
=------------------------------------------------------------------------------=
