
     Program PWSCF v.6.8 starts on 16Mar2022 at 14:54: 7 

     This program is part of the open-source Quantum ESPRESSO suite
     for quantum simulation of materials; please cite
         "P. Giannozzi et al., J. Phys.:Condens. Matter 21 395502 (2009);
         "P. Giannozzi et al., J. Phys.:Condens. Matter 29 465901 (2017);
         "P. Giannozzi et al., J. Chem. Phys. 152 154105 (2020);
          URL http://www.quantum-espresso.org", 
     in publications or presentations arising from this work. More details at
     http://www.quantum-espresso.org/quote

     Parallel version (MPI), running on     8 processors

     MPI processes distributed on     1 nodes
     R & G space division:  proc/nbgrp/npool/nimage =       8
     60835 MiB available memory on the printing compute node when the environment starts
 
     Reading input from aiida.in

     Current dimensions of program PWSCF are:
     Max number of different atomic species (ntypx) = 10
     Max number of k-points (npk) =  40000
     Max angular momentum in pseudopotentials (lmaxx) =  4
     Message from routine setup:
     using ibrav=0 with symmetry is DISCOURAGED, use correct ibrav instead

     Subspace diagonalization in iterative solution of the eigenvalue problem:
     a serial algorithm will be used

 
     Parallelization info
     --------------------
     sticks:   dense  smooth     PW     G-vecs:    dense   smooth      PW
     Min         138     138     39                 6006     6006     921
     Max         139     139     40                 6011     6011     928
     Sum        1111    1111    313                48083    48083    7379
 
     Using Slab Decomposition
 


     bravais-lattice index     =            0
     lattice parameter (alat)  =       6.2155  a.u.
     unit-cell volume          =     335.5185 (a.u.)^3
     number of atoms/cell      =            4
     number of atomic types    =            2
     number of electrons       =        52.00
     number of Kohn-Sham states=           40
     kinetic-energy cutoff     =     104.0000  Ry
     charge density cutoff     =     416.0000  Ry
     scf convergence threshold =      1.0E-08
     mixing beta               =       0.6000
     number of iterations used =            8  plain     mixing
     Exchange-correlation= SLA  PW   NOGX NOGC
                           (   1   4   0   0   0   0   0)

     GPU acceleration is ACTIVE.

     Message from routine print_cuda_info:
     High GPU oversubscription detected. Are you sure this is what you want?

     GPU used by master process:

        Device Number: 0
        Device name: NVIDIA A100-SXM4-40GB
        Compute capability : 80
        Ratio of single to double precision performance  : 2
        Memory Clock Rate (KHz): 1215000
        Memory Bus Width (bits): 5120
        Peak Memory Bandwidth (GB/s): ******

     celldm(1)=   6.215503  celldm(2)=   0.000000  celldm(3)=   0.000000
     celldm(4)=   0.000000  celldm(5)=   0.000000  celldm(6)=   0.000000

     crystal axes: (cart. coord. in units of alat)
               a(1) = (   1.000000   0.000000   0.000000 )  
               a(2) = (  -0.500000   0.866025   0.000000 )  
               a(3) = (   0.000000   0.000000   1.613456 )  

     reciprocal axes: (cart. coord. in units 2 pi/alat)
               b(1) = (  1.000000  0.577350 -0.000000 )  
               b(2) = (  0.000000  1.154701  0.000000 )  
               b(3) = (  0.000000 -0.000000  0.619788 )  


     PseudoPot. # 1 for O  read from file:
     ./pseudo/O.upf
     MD5 check sum: 86ed389b6a5065e60c3f64c68a612de9
     Pseudo is Norm-conserving + core correction, Zval =  6.0
     Generated using ONCVPSP code by D. R. Hamann
     Using radial grid of  926 points,  5 beta functions with: 
                l(1) =   0
                l(2) =   0
                l(3) =   1
                l(4) =   1
                l(5) =   2

     PseudoPot. # 2 for Zn read from file:
     ./pseudo/Zn.upf
     MD5 check sum: 492e12d15cacde48a98384ec5dd6fb31
     Pseudo is Norm-conserving + core correction, Zval = 20.0
     Generated using ONCVPSP code by D. R. Hamann
     Using radial grid of 1296 points,  6 beta functions with: 
                l(1) =   0
                l(2) =   0
                l(3) =   1
                l(4) =   1
                l(5) =   2
                l(6) =   2

     atomic species   valence    mass     pseudopotential
        O              6.00    15.99940     O ( 1.00)
        Zn            20.00    65.38000     Zn( 1.00)

      6 Sym. Ops. (no inversion) found


                                    s                        frac. trans.

      isym =  1     identity                                     

 cryst.   s( 1) = (     1          0          0      )
                  (     0          1          0      )
                  (     0          0          1      )

 cart.    s( 1) = (  1.0000000  0.0000000  0.0000000 )
                  (  0.0000000  1.0000000  0.0000000 )
                  (  0.0000000  0.0000000  1.0000000 )


      isym =  2     120 deg rotation - cryst. axis [0,0,1]       

 cryst.   s( 2) = (     0          1          0      )
                  (    -1         -1          0      )
                  (     0          0          1      )

 cart.    s( 2) = ( -0.5000000 -0.8660254  0.0000000 )
                  (  0.8660254 -0.5000000  0.0000000 )
                  (  0.0000000  0.0000000  1.0000000 )


      isym =  3     120 deg rotation - cryst. axis [0,0,-1]      

 cryst.   s( 3) = (    -1         -1          0      )
                  (     1          0          0      )
                  (     0          0          1      )

 cart.    s( 3) = ( -0.5000000  0.8660254  0.0000000 )
                  ( -0.8660254 -0.5000000  0.0000000 )
                  (  0.0000000  0.0000000  1.0000000 )


      isym =  4     inv. 180 deg rotation - cart. axis [1,0,0]   

 cryst.   s( 4) = (    -1          0          0      )
                  (     1          1          0      )
                  (     0          0          1      )

 cart.    s( 4) = ( -1.0000000  0.0000000  0.0000000 )
                  (  0.0000000  1.0000000  0.0000000 )
                  (  0.0000000  0.0000000  1.0000000 )


      isym =  5     inv. 180 deg rotation - cryst. axis [0,1,0]  

 cryst.   s( 5) = (     1          1          0      )
                  (     0         -1          0      )
                  (     0          0          1      )

 cart.    s( 5) = (  0.5000000  0.8660254  0.0000000 )
                  (  0.8660254 -0.5000000  0.0000000 )
                  (  0.0000000  0.0000000  1.0000000 )


      isym =  6     inv. 180 deg rotation - cryst. axis [1,1,0]  

 cryst.   s( 6) = (     0         -1          0      )
                  (    -1          0          0      )
                  (     0          0          1      )

 cart.    s( 6) = (  0.5000000 -0.8660254  0.0000000 )
                  ( -0.8660254 -0.5000000  0.0000000 )
                  (  0.0000000  0.0000000  1.0000000 )


   Cartesian axes

     site n.     atom                  positions (alat units)
         1           Zn  tau(   1) = (   0.0000000   0.5773503   0.0008842  )
         2           Zn  tau(   2) = (   0.5000000   0.2886751   0.8076120  )
         3           O   tau(   3) = (   0.0000000   0.5773503   0.6127291  )
         4           O   tau(   4) = (   0.5000000   0.2886751   1.4194570  )

   Crystallographic axes

     site n.     atom                  positions (cryst. coord.)
         1           Zn  tau(   1) = (  0.3333333  0.6666667  0.0005480  )
         2           Zn  tau(   2) = (  0.6666667  0.3333333  0.5005480  )
         3           O   tau(   3) = (  0.3333333  0.6666667  0.3797620  )
         4           O   tau(   4) = (  0.6666667  0.3333333  0.8797620  )

     number of k points=    72
                       cart. coord. in units 2pi/alat
        k(    1) = (   0.0000000   0.0000000   0.0000000), wk =   0.0033333
        k(    2) = (   0.0000000   0.0000000   0.1032980), wk =   0.0066667
        k(    3) = (   0.0000000   0.0000000   0.2065959), wk =   0.0066667
        k(    4) = (   0.0000000   0.0000000  -0.3098939), wk =   0.0033333
        k(    5) = (   0.0000000   0.1154701   0.0000000), wk =   0.0200000
        k(    6) = (   0.0000000   0.1154701   0.1032980), wk =   0.0200000
        k(    7) = (   0.0000000   0.1154701   0.2065959), wk =   0.0200000
        k(    8) = (   0.0000000   0.1154701  -0.3098939), wk =   0.0200000
        k(    9) = (   0.0000000   0.2309401   0.0000000), wk =   0.0200000
        k(   10) = (   0.0000000   0.2309401   0.1032980), wk =   0.0200000
        k(   11) = (   0.0000000   0.2309401   0.2065959), wk =   0.0200000
        k(   12) = (   0.0000000   0.2309401  -0.3098939), wk =   0.0200000
        k(   13) = (   0.0000000   0.3464102   0.0000000), wk =   0.0200000
        k(   14) = (   0.0000000   0.3464102   0.1032980), wk =   0.0200000
        k(   15) = (   0.0000000   0.3464102   0.2065959), wk =   0.0200000
        k(   16) = (   0.0000000   0.3464102  -0.3098939), wk =   0.0200000
        k(   17) = (   0.0000000   0.4618802   0.0000000), wk =   0.0200000
        k(   18) = (   0.0000000   0.4618802   0.1032980), wk =   0.0200000
        k(   19) = (   0.0000000   0.4618802   0.2065959), wk =   0.0200000
        k(   20) = (   0.0000000   0.4618802  -0.3098939), wk =   0.0200000
        k(   21) = (   0.0000000  -0.5773503   0.0000000), wk =   0.0100000
        k(   22) = (   0.0000000  -0.5773503   0.1032980), wk =   0.0200000
        k(   23) = (   0.0000000  -0.5773503   0.2065959), wk =   0.0200000
        k(   24) = (   0.0000000  -0.5773503  -0.3098939), wk =   0.0100000
        k(   25) = (   0.1000000   0.1732051   0.0000000), wk =   0.0200000
        k(   26) = (   0.1000000   0.1732051   0.1032980), wk =   0.0400000
        k(   27) = (   0.1000000   0.1732051   0.2065959), wk =   0.0400000
        k(   28) = (   0.1000000   0.1732051  -0.3098939), wk =   0.0200000
        k(   29) = (   0.1000000   0.2886751   0.0000000), wk =   0.0400000
        k(   30) = (   0.1000000   0.2886751   0.1032980), wk =   0.0400000
        k(   31) = (   0.1000000   0.2886751   0.2065959), wk =   0.0400000
        k(   32) = (   0.1000000   0.2886751  -0.3098939), wk =   0.0400000
        k(   33) = (   0.1000000   0.4041452   0.0000000), wk =   0.0400000
        k(   34) = (   0.1000000   0.4041452   0.1032980), wk =   0.0400000
        k(   35) = (   0.1000000   0.4041452   0.2065959), wk =   0.0400000
        k(   36) = (   0.1000000   0.4041452  -0.3098939), wk =   0.0400000
        k(   37) = (   0.1000000   0.5196152   0.0000000), wk =   0.0400000
        k(   38) = (   0.1000000   0.5196152   0.1032980), wk =   0.0400000
        k(   39) = (   0.1000000   0.5196152   0.2065959), wk =   0.0400000
        k(   40) = (   0.1000000   0.5196152  -0.3098939), wk =   0.0400000
        k(   41) = (   0.2000000   0.3464102   0.0000000), wk =   0.0200000
        k(   42) = (   0.2000000   0.3464102   0.1032980), wk =   0.0400000
        k(   43) = (   0.2000000   0.3464102   0.2065959), wk =   0.0400000
        k(   44) = (   0.2000000   0.3464102  -0.3098939), wk =   0.0200000
        k(   45) = (   0.2000000   0.4618802   0.0000000), wk =   0.0400000
        k(   46) = (   0.2000000   0.4618802   0.1032980), wk =   0.0400000
        k(   47) = (   0.2000000   0.4618802   0.2065959), wk =   0.0400000
        k(   48) = (   0.2000000   0.4618802  -0.3098939), wk =   0.0400000
        k(   49) = (   0.2000000   0.5773503   0.0000000), wk =   0.0200000
        k(   50) = (   0.2000000   0.5773503   0.1032980), wk =   0.0400000
        k(   51) = (   0.2000000   0.5773503   0.2065959), wk =   0.0400000
        k(   52) = (   0.2000000   0.5773503  -0.3098939), wk =   0.0200000
        k(   53) = (   0.3000000   0.5196152   0.0000000), wk =   0.0200000
        k(   54) = (   0.3000000   0.5196152   0.1032980), wk =   0.0400000
        k(   55) = (   0.3000000   0.5196152   0.2065959), wk =   0.0400000
        k(   56) = (   0.3000000   0.5196152  -0.3098939), wk =   0.0200000
        k(   57) = (   0.0000000  -0.1154701   0.1032980), wk =   0.0200000
        k(   58) = (   0.0000000  -0.1154701   0.2065959), wk =   0.0200000
        k(   59) = (   0.0000000  -0.2309401   0.1032980), wk =   0.0200000
        k(   60) = (   0.0000000  -0.2309401   0.2065959), wk =   0.0200000
        k(   61) = (   0.0000000  -0.3464102   0.1032980), wk =   0.0200000
        k(   62) = (   0.0000000  -0.3464102   0.2065959), wk =   0.0200000
        k(   63) = (   0.0000000  -0.4618802   0.1032980), wk =   0.0200000
        k(   64) = (   0.0000000  -0.4618802   0.2065959), wk =   0.0200000
        k(   65) = (  -0.1000000  -0.2886751   0.1032980), wk =   0.0400000
        k(   66) = (  -0.1000000  -0.2886751   0.2065959), wk =   0.0400000
        k(   67) = (  -0.1000000  -0.4041452   0.1032980), wk =   0.0400000
        k(   68) = (  -0.1000000  -0.4041452   0.2065959), wk =   0.0400000
        k(   69) = (  -0.1000000  -0.5196152   0.1032980), wk =   0.0400000
        k(   70) = (  -0.1000000  -0.5196152   0.2065959), wk =   0.0400000
        k(   71) = (  -0.2000000  -0.4618802   0.1032980), wk =   0.0400000
        k(   72) = (  -0.2000000  -0.4618802   0.2065959), wk =   0.0400000

                       cryst. coord.
        k(    1) = (   0.0000000   0.0000000   0.0000000), wk =   0.0033333
        k(    2) = (   0.0000000   0.0000000   0.1666667), wk =   0.0066667
        k(    3) = (   0.0000000   0.0000000   0.3333333), wk =   0.0066667
        k(    4) = (   0.0000000   0.0000000  -0.5000000), wk =   0.0033333
        k(    5) = (   0.0000000   0.1000000   0.0000000), wk =   0.0200000
        k(    6) = (   0.0000000   0.1000000   0.1666667), wk =   0.0200000
        k(    7) = (   0.0000000   0.1000000   0.3333333), wk =   0.0200000
        k(    8) = (   0.0000000   0.1000000  -0.5000000), wk =   0.0200000
        k(    9) = (   0.0000000   0.2000000   0.0000000), wk =   0.0200000
        k(   10) = (   0.0000000   0.2000000   0.1666667), wk =   0.0200000
        k(   11) = (   0.0000000   0.2000000   0.3333333), wk =   0.0200000
        k(   12) = (   0.0000000   0.2000000  -0.5000000), wk =   0.0200000
        k(   13) = (   0.0000000   0.3000000   0.0000000), wk =   0.0200000
        k(   14) = (   0.0000000   0.3000000   0.1666667), wk =   0.0200000
        k(   15) = (   0.0000000   0.3000000   0.3333333), wk =   0.0200000
        k(   16) = (   0.0000000   0.3000000  -0.5000000), wk =   0.0200000
        k(   17) = (   0.0000000   0.4000000   0.0000000), wk =   0.0200000
        k(   18) = (   0.0000000   0.4000000   0.1666667), wk =   0.0200000
        k(   19) = (   0.0000000   0.4000000   0.3333333), wk =   0.0200000
        k(   20) = (   0.0000000   0.4000000  -0.5000000), wk =   0.0200000
        k(   21) = (   0.0000000  -0.5000000   0.0000000), wk =   0.0100000
        k(   22) = (   0.0000000  -0.5000000   0.1666667), wk =   0.0200000
        k(   23) = (   0.0000000  -0.5000000   0.3333333), wk =   0.0200000
        k(   24) = (   0.0000000  -0.5000000  -0.5000000), wk =   0.0100000
        k(   25) = (   0.1000000   0.1000000   0.0000000), wk =   0.0200000
        k(   26) = (   0.1000000   0.1000000   0.1666667), wk =   0.0400000
        k(   27) = (   0.1000000   0.1000000   0.3333333), wk =   0.0400000
        k(   28) = (   0.1000000   0.1000000  -0.5000000), wk =   0.0200000
        k(   29) = (   0.1000000   0.2000000   0.0000000), wk =   0.0400000
        k(   30) = (   0.1000000   0.2000000   0.1666667), wk =   0.0400000
        k(   31) = (   0.1000000   0.2000000   0.3333333), wk =   0.0400000
        k(   32) = (   0.1000000   0.2000000  -0.5000000), wk =   0.0400000
        k(   33) = (   0.1000000   0.3000000   0.0000000), wk =   0.0400000
        k(   34) = (   0.1000000   0.3000000   0.1666667), wk =   0.0400000
        k(   35) = (   0.1000000   0.3000000   0.3333333), wk =   0.0400000
        k(   36) = (   0.1000000   0.3000000  -0.5000000), wk =   0.0400000
        k(   37) = (   0.1000000   0.4000000   0.0000000), wk =   0.0400000
        k(   38) = (   0.1000000   0.4000000   0.1666667), wk =   0.0400000
        k(   39) = (   0.1000000   0.4000000   0.3333333), wk =   0.0400000
        k(   40) = (   0.1000000   0.4000000  -0.5000000), wk =   0.0400000
        k(   41) = (   0.2000000   0.2000000   0.0000000), wk =   0.0200000
        k(   42) = (   0.2000000   0.2000000   0.1666667), wk =   0.0400000
        k(   43) = (   0.2000000   0.2000000   0.3333333), wk =   0.0400000
        k(   44) = (   0.2000000   0.2000000  -0.5000000), wk =   0.0200000
        k(   45) = (   0.2000000   0.3000000   0.0000000), wk =   0.0400000
        k(   46) = (   0.2000000   0.3000000   0.1666667), wk =   0.0400000
        k(   47) = (   0.2000000   0.3000000   0.3333333), wk =   0.0400000
        k(   48) = (   0.2000000   0.3000000  -0.5000000), wk =   0.0400000
        k(   49) = (   0.2000000   0.4000000   0.0000000), wk =   0.0200000
        k(   50) = (   0.2000000   0.4000000   0.1666667), wk =   0.0400000
        k(   51) = (   0.2000000   0.4000000   0.3333333), wk =   0.0400000
        k(   52) = (   0.2000000   0.4000000  -0.5000000), wk =   0.0200000
        k(   53) = (   0.3000000   0.3000000   0.0000000), wk =   0.0200000
        k(   54) = (   0.3000000   0.3000000   0.1666667), wk =   0.0400000
        k(   55) = (   0.3000000   0.3000000   0.3333333), wk =   0.0400000
        k(   56) = (   0.3000000   0.3000000  -0.5000000), wk =   0.0200000
        k(   57) = (   0.0000000  -0.1000000   0.1666667), wk =   0.0200000
        k(   58) = (   0.0000000  -0.1000000   0.3333333), wk =   0.0200000
        k(   59) = (   0.0000000  -0.2000000   0.1666667), wk =   0.0200000
        k(   60) = (   0.0000000  -0.2000000   0.3333333), wk =   0.0200000
        k(   61) = (   0.0000000  -0.3000000   0.1666667), wk =   0.0200000
        k(   62) = (   0.0000000  -0.3000000   0.3333333), wk =   0.0200000
        k(   63) = (   0.0000000  -0.4000000   0.1666667), wk =   0.0200000
        k(   64) = (   0.0000000  -0.4000000   0.3333333), wk =   0.0200000
        k(   65) = (  -0.1000000  -0.2000000   0.1666667), wk =   0.0400000
        k(   66) = (  -0.1000000  -0.2000000   0.3333333), wk =   0.0400000
        k(   67) = (  -0.1000000  -0.3000000   0.1666667), wk =   0.0400000
        k(   68) = (  -0.1000000  -0.3000000   0.3333333), wk =   0.0400000
        k(   69) = (  -0.1000000  -0.4000000   0.1666667), wk =   0.0400000
        k(   70) = (  -0.1000000  -0.4000000   0.3333333), wk =   0.0400000
        k(   71) = (  -0.2000000  -0.3000000   0.1666667), wk =   0.0400000
        k(   72) = (  -0.2000000  -0.3000000   0.3333333), wk =   0.0400000

     Dense  grid:    48083 G-vectors     FFT dimensions: (  45,  45,  72)

     Dynamical RAM for                 wfc:       0.46 MB

     Dynamical RAM for     wfc (w. buffer):      33.46 MB

     Dynamical RAM for           str. fact:       0.18 MB

     Dynamical RAM for           local pot:       0.00 MB

     Dynamical RAM for          nlocal pot:       0.71 MB

     Dynamical RAM for                qrad:       3.27 MB

     Dynamical RAM for          rho,v,vnew:       0.69 MB

     Dynamical RAM for               rhoin:       0.23 MB

     Dynamical RAM for            rho*nmix:       1.47 MB

     Dynamical RAM for           G-vectors:       0.39 MB

     Dynamical RAM for          h,s,v(r/c):       0.29 MB

     Dynamical RAM for          <psi|beta>:       0.04 MB

     Dynamical RAM for                 psi:       0.92 MB

     Dynamical RAM for                hpsi:       0.92 MB

     Dynamical RAM for      wfcinit/wfcrot:       0.95 MB

     Estimated static dynamical RAM per process >      39.91 MB

     Estimated max dynamical RAM per process >      43.54 MB

     Estimated total dynamical RAM >     348.35 MB

     Initial potential from superposition of free atoms

     starting charge   51.99979, renormalised to   52.00000
     Starting wfcs are   28 randomized atomic wfcs +   12 random wfcs

     total cpu time spent up to now is        4.4 secs

     Self-consistent Calculation
[tb_dev] Currently allocated     4.66E+00 Mbytes, locked:    0 /   9
[tb_pin] Currently allocated     0.00E+00 Mbytes, locked:    0 /   0

     iteration #  1     ecut=   104.00 Ry     beta= 0.60
     Davidson diagonalization with overlap

---- Real-time Memory Report at c_bands before calling an iterative solver
          1387 MiB given to the printing process from OS
             0 MiB allocation reported by mallinfo(arena+hblkhd)
         53999 MiB available memory on the node where the printing process lives
     GPU memory used/free/total (MiB): 1731 / 38804 / 40536
------------------
     c_bands:  1 eigenvalues not converged
     c_bands:  1 eigenvalues not converged
     c_bands:  1 eigenvalues not converged
     c_bands:  1 eigenvalues not converged
     c_bands:  1 eigenvalues not converged
     ethr =  5.00E-06,  avg # of iterations = 13.1

     total cpu time spent up to now is       22.6 secs

     total energy              =    -901.48052639 Ry
     estimated scf accuracy    <       0.78504967 Ry
[tb_dev] Currently allocated     5.56E+00 Mbytes, locked:    0 /  10
[tb_pin] Currently allocated     9.77E-02 Mbytes, locked:    0 /   1

     iteration #  2     ecut=   104.00 Ry     beta= 0.60
     Davidson diagonalization with overlap

---- Real-time Memory Report at c_bands before calling an iterative solver
          1391 MiB given to the printing process from OS
             0 MiB allocation reported by mallinfo(arena+hblkhd)
         53996 MiB available memory on the node where the printing process lives
     GPU memory used/free/total (MiB): 1733 / 38802 / 40536
------------------
     ethr =  1.51E-03,  avg # of iterations =  2.1

     total cpu time spent up to now is       28.2 secs

     total energy              =    -901.68155763 Ry
     estimated scf accuracy    <       0.74461177 Ry
[tb_dev] Currently allocated     5.56E+00 Mbytes, locked:    0 /  10
[tb_pin] Currently allocated     9.77E-02 Mbytes, locked:    0 /   1

     iteration #  3     ecut=   104.00 Ry     beta= 0.60
     Davidson diagonalization with overlap

---- Real-time Memory Report at c_bands before calling an iterative solver
          1391 MiB given to the printing process from OS
             0 MiB allocation reported by mallinfo(arena+hblkhd)
         53996 MiB available memory on the node where the printing process lives
     GPU memory used/free/total (MiB): 1733 / 38802 / 40536
------------------
     ethr =  1.43E-03,  avg # of iterations =  2.0

     total cpu time spent up to now is       33.2 secs

     total energy              =    -901.82184271 Ry
     estimated scf accuracy    <       0.00498480 Ry
[tb_dev] Currently allocated     5.56E+00 Mbytes, locked:    0 /  10
[tb_pin] Currently allocated     9.77E-02 Mbytes, locked:    0 /   1

     iteration #  4     ecut=   104.00 Ry     beta= 0.60
     Davidson diagonalization with overlap

---- Real-time Memory Report at c_bands before calling an iterative solver
          1393 MiB given to the printing process from OS
             0 MiB allocation reported by mallinfo(arena+hblkhd)
         53978 MiB available memory on the node where the printing process lives
     GPU memory used/free/total (MiB): 1733 / 38802 / 40536
------------------
     ethr =  9.59E-06,  avg # of iterations =  2.7

     total cpu time spent up to now is       39.6 secs

     total energy              =    -901.82261928 Ry
     estimated scf accuracy    <       0.00057638 Ry
[tb_dev] Currently allocated     5.56E+00 Mbytes, locked:    0 /  10
[tb_pin] Currently allocated     9.77E-02 Mbytes, locked:    0 /   1

     iteration #  5     ecut=   104.00 Ry     beta= 0.60
     Davidson diagonalization with overlap

---- Real-time Memory Report at c_bands before calling an iterative solver
          1393 MiB given to the printing process from OS
             0 MiB allocation reported by mallinfo(arena+hblkhd)
         53979 MiB available memory on the node where the printing process lives
     GPU memory used/free/total (MiB): 1733 / 38802 / 40536
------------------
     ethr =  1.11E-06,  avg # of iterations =  2.6

     total cpu time spent up to now is       44.9 secs

     total energy              =    -901.82266261 Ry
     estimated scf accuracy    <       0.00001064 Ry
[tb_dev] Currently allocated     5.56E+00 Mbytes, locked:    0 /  10
[tb_pin] Currently allocated     9.77E-02 Mbytes, locked:    0 /   1

     iteration #  6     ecut=   104.00 Ry     beta= 0.60
     Davidson diagonalization with overlap

---- Real-time Memory Report at c_bands before calling an iterative solver
          1394 MiB given to the printing process from OS
             0 MiB allocation reported by mallinfo(arena+hblkhd)
         53978 MiB available memory on the node where the printing process lives
     GPU memory used/free/total (MiB): 1733 / 38802 / 40536
------------------
     ethr =  2.05E-08,  avg # of iterations =  4.6

     total cpu time spent up to now is       52.9 secs

     total energy              =    -901.82266393 Ry
     estimated scf accuracy    <       0.00000309 Ry
[tb_dev] Currently allocated     5.56E+00 Mbytes, locked:    0 /  10
[tb_pin] Currently allocated     9.77E-02 Mbytes, locked:    0 /   1

     iteration #  7     ecut=   104.00 Ry     beta= 0.60
     Davidson diagonalization with overlap

---- Real-time Memory Report at c_bands before calling an iterative solver
          1394 MiB given to the printing process from OS
             0 MiB allocation reported by mallinfo(arena+hblkhd)
         53977 MiB available memory on the node where the printing process lives
     GPU memory used/free/total (MiB): 1733 / 38802 / 40536
------------------
     ethr =  5.93E-09,  avg # of iterations =  1.9

     total cpu time spent up to now is       57.6 secs

     total energy              =    -901.82266416 Ry
     estimated scf accuracy    <       0.00000015 Ry
[tb_dev] Currently allocated     5.56E+00 Mbytes, locked:    0 /  10
[tb_pin] Currently allocated     9.77E-02 Mbytes, locked:    0 /   1

     iteration #  8     ecut=   104.00 Ry     beta= 0.60
     Davidson diagonalization with overlap

---- Real-time Memory Report at c_bands before calling an iterative solver
          1398 MiB given to the printing process from OS
             0 MiB allocation reported by mallinfo(arena+hblkhd)
         53941 MiB available memory on the node where the printing process lives
     GPU memory used/free/total (MiB): 1733 / 38802 / 40536
------------------
     ethr =  2.83E-10,  avg # of iterations =  4.3

     total cpu time spent up to now is       64.6 secs

     total energy              =    -901.82266417 Ry
     estimated scf accuracy    <       0.00000003 Ry
[tb_dev] Currently allocated     5.56E+00 Mbytes, locked:    0 /  10
[tb_pin] Currently allocated     9.77E-02 Mbytes, locked:    0 /   1

     iteration #  9     ecut=   104.00 Ry     beta= 0.60
     Davidson diagonalization with overlap

---- Real-time Memory Report at c_bands before calling an iterative solver
          1398 MiB given to the printing process from OS
             0 MiB allocation reported by mallinfo(arena+hblkhd)
         53947 MiB available memory on the node where the printing process lives
     GPU memory used/free/total (MiB): 1733 / 38802 / 40536
------------------
     ethr =  5.67E-11,  avg # of iterations =  2.1

     total cpu time spent up to now is       69.5 secs

     End of self-consistent calculation

          k = 0.0000 0.0000 0.0000 (  5979 PWs)   bands (ev):

  -114.0844-114.0842 -68.7235 -68.7210 -68.7199 -68.7199 -68.7195 -68.7195
    -8.8761  -8.1767   2.9308   2.9308   2.9713   3.1057   3.1057   3.1718
     3.9518   3.9518   4.1426   4.1426   4.4284   7.7708   7.7708   8.4425
     8.5153   8.5153   9.2230  13.4938  16.4455  21.0522  21.0522  22.0531
    22.2353  22.2353  24.6833  26.3112  26.3112  27.8790  27.9818  27.9818

     occupation numbers 
     1.0000   1.0000   1.0000   1.0000   1.0000   1.0000   1.0000   1.0000
     1.0000   1.0000   1.0000   1.0000   1.0000   1.0000   1.0000   1.0000
     1.0000   1.0000   1.0000   1.0000   1.0000   1.0000   1.0000   1.0000
     1.0000   1.0000   0.0000   0.0000   0.0000   0.0000   0.0000   0.0000
     0.0000   0.0000   0.0000   0.0000   0.0000   0.0000   0.0000   0.0000

          k = 0.0000 0.0000 0.1033 (  5991 PWs)   bands (ev):

  -114.0843-114.0842 -68.7233 -68.7211 -68.7199 -68.7199 -68.7195 -68.7195
    -8.8316  -8.2261   2.9301   2.9370   2.9370   3.0216   3.0879   3.0879
     3.9692   3.9692   4.1351   4.1351   4.7635   7.8217   7.8217   7.8676
     8.4666   8.4666   9.8737  13.2729  16.6476  21.0596  21.0596  21.1707
    22.0585  22.0585  24.9865  26.5869  26.5869  27.6778  28.2681  28.2681

     occupation numbers 
     1.0000   1.0000   1.0000   1.0000   1.0000   1.0000   1.0000   1.0000
     1.0000   1.0000   1.0000   1.0000   1.0000   1.0000   1.0000   1.0000
     1.0000   1.0000   1.0000   1.0000   1.0000   1.0000   1.0000   1.0000
     1.0000   1.0000   0.0000   0.0000   0.0000   0.0000   0.0000   0.0000
     0.0000   0.0000   0.0000   0.0000   0.0000   0.0000   0.0000   0.0000

          k = 0.0000 0.0000 0.2066 (  6026 PWs)   bands (ev):

  -114.0843-114.0843 -68.7229 -68.7216 -68.7198 -68.7198 -68.7196 -68.7196
    -8.7085  -8.3590   2.8357   2.8403   2.9578   2.9578   3.0443   3.0443
     4.0136   4.0136   4.1100   4.1100   5.4645   7.0720   7.9601   7.9601
     8.3326   8.3326  10.8475  12.6736  17.2478  19.6254  21.1289  21.1289
    21.6809  21.6809  25.5321  27.0472  27.3138  27.3138  28.6377  28.6377

     occupation numbers 
     1.0000   1.0000   1.0000   1.0000   1.0000   1.0000   1.0000   1.0000
     1.0000   1.0000   1.0000   1.0000   1.0000   1.0000   1.0000   1.0000
     1.0000   1.0000   1.0000   1.0000   1.0000   1.0000   1.0000   1.0000
     1.0000   1.0000   0.0000   0.0000   0.0000   0.0000   0.0000   0.0000
     0.0000   0.0000   0.0000   0.0000   0.0000   0.0000   0.0000   0.0000

          k = 0.0000 0.0000-0.3099 (  6020 PWs)   bands (ev):

  -114.0843-114.0843 -68.7222 -68.7222 -68.7197 -68.7197 -68.7197 -68.7197
    -8.5363  -8.5362   2.7823   2.7823   2.9954   2.9954   2.9955   2.9955
     4.0666   4.0666   4.0666   4.0666   6.2647   6.2647   8.1475   8.1475
     8.1475   8.1475  11.8224  11.8224  18.2494  18.2494  21.3340  21.3340
    21.3340  21.3340  26.2416  26.2417  28.2007  28.2007  28.2007  28.2007

     occupation numbers 
     1.0000   1.0000   1.0000   1.0000   1.0000   1.0000   1.0000   1.0000
     1.0000   1.0000   1.0000   1.0000   1.0000   1.0000   1.0000   1.0000
     1.0000   1.0000   1.0000   1.0000   1.0000   1.0000   1.0000   1.0000
     1.0000   1.0000   0.0000   0.0000   0.0000   0.0000   0.0000   0.0000
     0.0000   0.0000   0.0000   0.0000   0.0000   0.0000   0.0000   0.0000

          k = 0.0000 0.1155 0.0000 (  5967 PWs)   bands (ev):

  -114.0843-114.0842 -68.7234 -68.7210 -68.7201 -68.7200 -68.7196 -68.7195
    -8.8226  -8.1528   2.8798   2.9603   3.0032   3.1019   3.1476   3.2410
     3.9313   3.9490   4.1470   4.1954   4.4170   7.4089   7.6435   7.8902
     8.3801   8.4478   9.9683  13.8939  16.4486  20.0696  21.1357  21.5118
    22.1991  22.3476  24.2009  25.7296  26.4828  28.0061  29.0319  29.1519

     occupation numbers 
     1.0000   1.0000   1.0000   1.0000   1.0000   1.0000   1.0000   1.0000
     1.0000   1.0000   1.0000   1.0000   1.0000   1.0000   1.0000   1.0000
     1.0000   1.0000   1.0000   1.0000   1.0000   1.0000   1.0000   1.0000
     1.0000   1.0000   0.0000   0.0000   0.0000   0.0000   0.0000   0.0000
     0.0000   0.0000   0.0000   0.0000   0.0000   0.0000   0.0000   0.0000

          k = 0.0000 0.1155 0.1033 (  6001 PWs)   bands (ev):

  -114.0843-114.0842 -68.7233 -68.7212 -68.7201 -68.7199 -68.7197 -68.7195
    -8.7797  -8.1997   2.8570   2.9675   2.9824   3.0263   3.1290   3.1419
     3.9524   3.9663   4.1383   4.1590   4.7867   7.4457   7.6156   7.6987
     8.3148   8.3953  10.3535  13.6444  16.6566  20.1066  21.1438  21.1489
    21.4663  22.1510  24.8178  26.1170  26.6662  27.9519  28.9626  29.2881

     occupation numbers 
     1.0000   1.0000   1.0000   1.0000   1.0000   1.0000   1.0000   1.0000
     1.0000   1.0000   1.0000   1.0000   1.0000   1.0000   1.0000   1.0000
     1.0000   1.0000   1.0000   1.0000   1.0000   1.0000   1.0000   1.0000
     1.0000   1.0000   0.0000   0.0000   0.0000   0.0000   0.0000   0.0000
     0.0000   0.0000   0.0000   0.0000   0.0000   0.0000   0.0000   0.0000

          k = 0.0000 0.1155 0.2066 (  6004 PWs)   bands (ev):

  -114.0843-114.0843 -68.7228 -68.7216 -68.7200 -68.7199 -68.7197 -68.7196
    -8.6612  -8.3263   2.7905   2.8228   2.9907   2.9980   3.0783   3.0832
     4.0049   4.0109   4.1106   4.1202   5.4929   6.9688   7.6504   7.8486
     8.1292   8.2507  11.1819  12.9962  17.2531  19.5197  20.4338  21.0778
    21.2122  21.7574  25.6176  26.8877  27.0712  27.8543  29.0431  29.1806

     occupation numbers 
     1.0000   1.0000   1.0000   1.0000   1.0000   1.0000   1.0000   1.0000
     1.0000   1.0000   1.0000   1.0000   1.0000   1.0000   1.0000   1.0000
     1.0000   1.0000   1.0000   1.0000   1.0000   1.0000   1.0000   1.0000
     1.0000   1.0000   0.0000   0.0000   0.0000   0.0000   0.0000   0.0000
     0.0000   0.0000   0.0000   0.0000   0.0000   0.0000   0.0000   0.0000

          k = 0.0000 0.1155-0.3099 (  6010 PWs)   bands (ev):

  -114.0843-114.0843 -68.7222 -68.7222 -68.7198 -68.7198 -68.7197 -68.7197
    -8.4958  -8.4958   2.7512   2.7512   3.0285   3.0285   3.0314   3.0314
     4.0649   4.0649   4.0671   4.0671   6.2567   6.2567   7.8827   7.8827
     8.0510   8.0510  12.1225  12.1225  18.2244  18.2244  20.7014  20.7014
    21.4125  21.4125  26.3328  26.3329  28.2510  28.2510  28.5979  28.5979

     occupation numbers 
     1.0000   1.0000   1.0000   1.0000   1.0000   1.0000   1.0000   1.0000
     1.0000   1.0000   1.0000   1.0000   1.0000   1.0000   1.0000   1.0000
     1.0000   1.0000   1.0000   1.0000   1.0000   1.0000   1.0000   1.0000
     1.0000   1.0000   0.0000   0.0000   0.0000   0.0000   0.0000   0.0000
     0.0000   0.0000   0.0000   0.0000   0.0000   0.0000   0.0000   0.0000

          k = 0.0000 0.2309 0.0000 (  5987 PWs)   bands (ev):

  -114.0843-114.0842 -68.7232 -68.7211 -68.7205 -68.7201 -68.7201 -68.7196
    -8.6764  -8.0926   2.7743   3.0328   3.0343   3.1409   3.2655   3.4333
     3.8792   3.9557   4.1564   4.3592   4.3865   6.5485   7.1506   7.3125
     8.1863   8.2634  11.0649  14.7865  16.4480  18.5399  20.2598  21.3557
    21.8805  22.3768  23.3845  25.6148  26.4029  28.9902  30.5035  31.0410

     occupation numbers 
     1.0000   1.0000   1.0000   1.0000   1.0000   1.0000   1.0000   1.0000
     1.0000   1.0000   1.0000   1.0000   1.0000   1.0000   1.0000   1.0000
     1.0000   1.0000   1.0000   1.0000   1.0000   1.0000   1.0000   1.0000
     1.0000   1.0000   0.0000   0.0000   0.0000   0.0000   0.0000   0.0000
     0.0000   0.0000   0.0000   0.0000   0.0000   0.0000   0.0000   0.0000

          k = 0.0000 0.2309 0.1033 (  5995 PWs)   bands (ev):

  -114.0843-114.0842 -68.7231 -68.7213 -68.7205 -68.7201 -68.7201 -68.7196
    -8.6383  -8.1325   2.7490   2.9700   3.0433   3.1123   3.2439   3.2922
     3.9138   3.9714   4.1453   4.2157   4.8659   6.6066   7.0336   7.3788
     8.1183   8.2016  11.2894  14.4506  16.6686  18.5988  20.1338  21.2953
    21.3610  22.2054  23.6482  26.0404  26.6465  29.1841  29.9678  31.0851

     occupation numbers 
     1.0000   1.0000   1.0000   1.0000   1.0000   1.0000   1.0000   1.0000
     1.0000   1.0000   1.0000   1.0000   1.0000   1.0000   1.0000   1.0000
     1.0000   1.0000   1.0000   1.0000   1.0000   1.0000   1.0000   1.0000
     1.0000   1.0000   0.0000   0.0000   0.0000   0.0000   0.0000   0.0000
     0.0000   0.0000   0.0000   0.0000   0.0000   0.0000   0.0000   0.0000

          k = 0.0000 0.2309 0.2066 (  5983 PWs)   bands (ev):

  -114.0843-114.0842 -68.7228 -68.7217 -68.7204 -68.7201 -68.7200 -68.7197
    -8.5333  -8.2411   2.6952   2.7916   3.0753   3.0924   3.1765   3.1901
     3.9884   4.0126   4.1131   4.1486   5.5351   6.5406   7.0248   7.5574
     7.8455   8.0318  11.9108  13.6841  17.2053  18.5749  19.7755  20.4402
    21.4151  21.8696  24.3842  26.3810  27.1132  29.5036  30.0569  30.2767

     occupation numbers 
     1.0000   1.0000   1.0000   1.0000   1.0000   1.0000   1.0000   1.0000
     1.0000   1.0000   1.0000   1.0000   1.0000   1.0000   1.0000   1.0000
     1.0000   1.0000   1.0000   1.0000   1.0000   1.0000   1.0000   1.0000
     1.0000   1.0000   0.0000   0.0000   0.0000   0.0000   0.0000   0.0000
     0.0000   0.0000   0.0000   0.0000   0.0000   0.0000   0.0000   0.0000

          k = 0.0000 0.2309-0.3099 (  5998 PWs)   bands (ev):

  -114.0843-114.0843 -68.7223 -68.7223 -68.7202 -68.7202 -68.7199 -68.7199
    -8.3882  -8.3881   2.6864   2.6864   3.1169   3.1169   3.1273   3.1273
     4.0651   4.0651   4.0733   4.0733   6.1249   6.1249   7.4074   7.4075
     7.7967   7.7968  12.7720  12.7720  17.9529  17.9529  19.8893  19.8893
    21.5805  21.5805  25.4242  25.4242  28.5434  28.5434  30.1095  30.1095

     occupation numbers 
     1.0000   1.0000   1.0000   1.0000   1.0000   1.0000   1.0000   1.0000
     1.0000   1.0000   1.0000   1.0000   1.0000   1.0000   1.0000   1.0000
     1.0000   1.0000   1.0000   1.0000   1.0000   1.0000   1.0000   1.0000
     1.0000   1.0000   0.0000   0.0000   0.0000   0.0000   0.0000   0.0000
     0.0000   0.0000   0.0000   0.0000   0.0000   0.0000   0.0000   0.0000

          k = 0.0000 0.3464 0.0000 (  6012 PWs)   bands (ev):

  -114.0843-114.0842 -68.7229 -68.7213 -68.7210 -68.7207 -68.7203 -68.7197
    -8.4791  -8.0276   2.7005   3.0187   3.1071   3.2773   3.4324   3.6269
     3.8553   3.9975   4.1673   4.3631   4.6115   5.6493   6.4629   6.8962
     7.8651   8.0217  12.2276  15.5822  16.3543  17.3121  19.3171  20.8705
    21.5434  22.1735  23.6739  26.2332  26.5082  28.0690  31.2484  32.4312

     occupation numbers 
     1.0000   1.0000   1.0000   1.0000   1.0000   1.0000   1.0000   1.0000
     1.0000   1.0000   1.0000   1.0000   1.0000   1.0000   1.0000   1.0000
     1.0000   1.0000   1.0000   1.0000   1.0000   1.0000   1.0000   1.0000
     1.0000   1.0000   0.0000   0.0000   0.0000   0.0000   0.0000   0.0000
     0.0000   0.0000   0.0000   0.0000   0.0000   0.0000   0.0000   0.0000

          k = 0.0000 0.3464 0.1033 (  6010 PWs)   bands (ev):

  -114.0843-114.0842 -68.7229 -68.7215 -68.7210 -68.7206 -68.7202 -68.7198
    -8.4485  -8.0572   2.6744   2.9428   3.1238   3.2538   3.4045   3.4687
     3.8997   4.0085   4.1547   4.2732   4.9596   5.7649   6.4046   6.9770
     7.8587   7.9496  12.3364  15.1274  16.6060  17.3781  19.2912  20.8690
    21.5487  22.0919  23.2056  26.4569  26.8600  28.5793  30.3197  32.6107

     occupation numbers 
     1.0000   1.0000   1.0000   1.0000   1.0000   1.0000   1.0000   1.0000
     1.0000   1.0000   1.0000   1.0000   1.0000   1.0000   1.0000   1.0000
     1.0000   1.0000   1.0000   1.0000   1.0000   1.0000   1.0000   1.0000
     1.0000   1.0000   0.0000   0.0000   0.0000   0.0000   0.0000   0.0000
     0.0000   0.0000   0.0000   0.0000   0.0000   0.0000   0.0000   0.0000

          k = 0.0000 0.3464 0.2066 (  6010 PWs)   bands (ev):

  -114.0843-114.0842 -68.7227 -68.7219 -68.7208 -68.7206 -68.7201 -68.7199
    -8.3650  -8.1387   2.6267   2.7609   3.1727   3.2269   3.3169   3.3335
     3.9925   4.0384   4.1219   4.1897   5.3706   5.8644   6.5924   7.1919
     7.6788   7.7512  12.7266  14.2940  16.9734  17.4663  19.2588  20.4210
    21.5933  21.9050  23.3554  25.8736  27.8302  29.5800  29.8476  30.9604

     occupation numbers 
     1.0000   1.0000   1.0000   1.0000   1.0000   1.0000   1.0000   1.0000
     1.0000   1.0000   1.0000   1.0000   1.0000   1.0000   1.0000   1.0000
     1.0000   1.0000   1.0000   1.0000   1.0000   1.0000   1.0000   1.0000
     1.0000   1.0000   0.0000   0.0000   0.0000   0.0000   0.0000   0.0000
     0.0000   0.0000   0.0000   0.0000   0.0000   0.0000   0.0000   0.0000

          k = 0.0000 0.3464-0.3099 (  6016 PWs)   bands (ev):

  -114.0842-114.0842 -68.7223 -68.7223 -68.7206 -68.7206 -68.7200 -68.7200
    -8.2514  -8.2513   2.6361   2.6361   3.2461   3.2461   3.2477   3.2477
     4.0795   4.0795   4.0957   4.0957   5.6622   5.6622   7.1943   7.1943
     7.4755   7.4756  13.4253  13.4253  17.3135  17.3135  19.6457  19.6458
    21.7157  21.7157  24.5346  24.5346  29.2545  29.2545  29.9502  29.9502

     occupation numbers 
     1.0000   1.0000   1.0000   1.0000   1.0000   1.0000   1.0000   1.0000
     1.0000   1.0000   1.0000   1.0000   1.0000   1.0000   1.0000   1.0000
     1.0000   1.0000   1.0000   1.0000   1.0000   1.0000   1.0000   1.0000
     1.0000   1.0000   0.0000   0.0000   0.0000   0.0000   0.0000   0.0000
     0.0000   0.0000   0.0000   0.0000   0.0000   0.0000   0.0000   0.0000

          k = 0.0000 0.4619 0.0000 (  6012 PWs)   bands (ev):

  -114.0843-114.0842 -68.7227 -68.7215 -68.7214 -68.7211 -68.7204 -68.7198
    -8.2942  -7.9940   2.7181   3.0042   3.1508   3.4547   3.5886   3.5962
     3.9585   4.0681   4.1792   4.3935   4.6833   5.1781   5.9302   6.5391
     7.4848   7.8145  13.3469  15.7897  15.8947  16.7229  18.8787  20.5121
    21.4477  22.1967  23.8406  26.3606  27.2470  27.7786  31.0710  32.2898

     occupation numbers 
     1.0000   1.0000   1.0000   1.0000   1.0000   1.0000   1.0000   1.0000
     1.0000   1.0000   1.0000   1.0000   1.0000   1.0000   1.0000   1.0000
     1.0000   1.0000   1.0000   1.0000   1.0000   1.0000   1.0000   1.0000
     1.0000   1.0000   0.0000   0.0000   0.0000   0.0000   0.0000   0.0000
     0.0000   0.0000   0.0000   0.0000   0.0000   0.0000   0.0000   0.0000

          k = 0.0000 0.4619 0.1033 (  6008 PWs)   bands (ev):

  -114.0842-114.0842 -68.7227 -68.7218 -68.7213 -68.7210 -68.7204 -68.7199
    -8.2726  -8.0123   2.6848   2.9183   3.1740   3.4260   3.5287   3.5521
     3.9863   4.0731   4.1666   4.3327   4.7489   5.2922   6.0582   6.6343
     7.5461   7.7344  13.3314  15.2630  16.2975  16.7566  18.8500  20.6765
    21.4847  22.1348  23.1139  26.4986  28.0736  28.1211  29.7628  32.7459

     occupation numbers 
     1.0000   1.0000   1.0000   1.0000   1.0000   1.0000   1.0000   1.0000
     1.0000   1.0000   1.0000   1.0000   1.0000   1.0000   1.0000   1.0000
     1.0000   1.0000   1.0000   1.0000   1.0000   1.0000   1.0000   1.0000
     1.0000   1.0000   0.0000   0.0000   0.0000   0.0000   0.0000   0.0000
     0.0000   0.0000   0.0000   0.0000   0.0000   0.0000   0.0000   0.0000

          k = 0.0000 0.4619 0.2066 (  6012 PWs)   bands (ev):

  -114.0842-114.0842 -68.7226 -68.7221 -68.7211 -68.7209 -68.7203 -68.7200
    -8.2144  -8.0639   2.6236   2.7385   3.2411   3.3874   3.4411   3.4580
     4.0625   4.0877   4.1390   4.2423   4.8941   5.2429   6.5907   6.8833
     7.5136   7.5323  13.4435  14.5709  16.6071  16.8142  18.9610  20.4380
    21.5968  21.9737  22.9529  25.7577  28.9250  29.1982  29.4307  31.9148

     occupation numbers 
     1.0000   1.0000   1.0000   1.0000   1.0000   1.0000   1.0000   1.0000
     1.0000   1.0000   1.0000   1.0000   1.0000   1.0000   1.0000   1.0000
     1.0000   1.0000   1.0000   1.0000   1.0000   1.0000   1.0000   1.0000
     1.0000   1.0000   0.0000   0.0000   0.0000   0.0000   0.0000   0.0000
     0.0000   0.0000   0.0000   0.0000   0.0000   0.0000   0.0000   0.0000

          k = 0.0000 0.4619-0.3099 (  6002 PWs)   bands (ev):

  -114.0842-114.0842 -68.7224 -68.7224 -68.7209 -68.7209 -68.7201 -68.7201
    -8.1375  -8.1375   2.6226   2.6226   3.3428   3.3428   3.3921   3.3921
     4.1106   4.1106   4.1528   4.1528   5.0714   5.0714   7.1940   7.1940
     7.2050   7.2050  13.8856  13.8856  16.7746  16.7746  19.5466  19.5466
    21.7732  21.7732  24.2001  24.2001  29.6170  29.6170  30.2476  30.2476

     occupation numbers 
     1.0000   1.0000   1.0000   1.0000   1.0000   1.0000   1.0000   1.0000
     1.0000   1.0000   1.0000   1.0000   1.0000   1.0000   1.0000   1.0000
     1.0000   1.0000   1.0000   1.0000   1.0000   1.0000   1.0000   1.0000
     1.0000   1.0000   0.0000   0.0000   0.0000   0.0000   0.0000   0.0000
     0.0000   0.0000   0.0000   0.0000   0.0000   0.0000   0.0000   0.0000

          k = 0.0000-0.5774 0.0000 (  6020 PWs)   bands (ev):

  -114.0842-114.0842 -68.7225 -68.7217 -68.7216 -68.7213 -68.7205 -68.7199
    -8.2089  -7.9943   2.7613   2.9982   3.1633   3.5262   3.5818   3.6535
     3.9953   4.1076   4.1853   4.2632   4.7673   5.0678   5.7882   6.3936
     7.2813   7.7322  14.0389  15.2127  15.9139  16.6038  18.7381  20.5733
    21.3577  22.2599  23.8343  26.4369  26.9939  28.4545  30.9178  32.7033

     occupation numbers 
     1.0000   1.0000   1.0000   1.0000   1.0000   1.0000   1.0000   1.0000
     1.0000   1.0000   1.0000   1.0000   1.0000   1.0000   1.0000   1.0000
     1.0000   1.0000   1.0000   1.0000   1.0000   1.0000   1.0000   1.0000
     1.0000   1.0000   0.0000   0.0000   0.0000   0.0000   0.0000   0.0000
     0.0000   0.0000   0.0000   0.0000   0.0000   0.0000   0.0000   0.0000

          k = 0.0000-0.5774 0.1033 (  6010 PWs)   bands (ev):

  -114.0842-114.0842 -68.7226 -68.7219 -68.7215 -68.7211 -68.7204 -68.7199
    -8.1925  -8.0065   2.7221   2.9014   3.1891   3.5094   3.5404   3.6125
     4.0563   4.1099   4.1727   4.2631   4.7244   5.0021   6.0761   6.4957
     7.3733   7.6490  13.8928  15.0439  16.0827  16.6518  18.6867  20.7394
    21.4120  22.1934  23.0708  26.5333  28.0322  28.7327  29.5194  32.5395

     occupation numbers 
     1.0000   1.0000   1.0000   1.0000   1.0000   1.0000   1.0000   1.0000
     1.0000   1.0000   1.0000   1.0000   1.0000   1.0000   1.0000   1.0000
     1.0000   1.0000   1.0000   1.0000   1.0000   1.0000   1.0000   1.0000
     1.0000   1.0000   0.0000   0.0000   0.0000   0.0000   0.0000   0.0000
     0.0000   0.0000   0.0000   0.0000   0.0000   0.0000   0.0000   0.0000

          k = 0.0000-0.5774 0.2066 (  6014 PWs)   bands (ev):

  -114.0842-114.0842 -68.7226 -68.7223 -68.7212 -68.7210 -68.7203 -68.7200
    -8.1491  -8.0415   2.6457   2.7233   3.2639   3.4803   3.4898   3.5067
     4.1169   4.1489   4.1546   4.2552   4.7045   4.8721   6.6713   6.7600
     7.4195   7.4472  13.7845  14.5839  16.3669  16.6856  18.8265  20.4421
    21.5651  22.0163  22.9070  25.8090  28.9107  29.4041  29.5434  32.4259

     occupation numbers 
     1.0000   1.0000   1.0000   1.0000   1.0000   1.0000   1.0000   1.0000
     1.0000   1.0000   1.0000   1.0000   1.0000   1.0000   1.0000   1.0000
     1.0000   1.0000   1.0000   1.0000   1.0000   1.0000   1.0000   1.0000
     1.0000   1.0000   0.0000   0.0000   0.0000   0.0000   0.0000   0.0000
     0.0000   0.0000   0.0000   0.0000   0.0000   0.0000   0.0000   0.0000

          k = 0.0000-0.5774-0.3099 (  6008 PWs)   bands (ev):

  -114.0842-114.0842 -68.7225 -68.7225 -68.7210 -68.7210 -68.7202 -68.7202
    -8.0933  -8.0932   2.6249   2.6249   3.3774   3.3774   3.4696   3.4696
     4.1295   4.1295   4.2236   4.2236   4.7599   4.7599   7.0978   7.0978
     7.2118   7.2118  14.0508  14.0508  16.5821  16.5821  19.4806  19.4806
    21.7847  21.7847  24.1843  24.1843  29.4711  29.4711  30.8196  30.8196

     occupation numbers 
     1.0000   1.0000   1.0000   1.0000   1.0000   1.0000   1.0000   1.0000
     1.0000   1.0000   1.0000   1.0000   1.0000   1.0000   1.0000   1.0000
     1.0000   1.0000   1.0000   1.0000   1.0000   1.0000   1.0000   1.0000
     1.0000   1.0000   0.0000   0.0000   0.0000   0.0000   0.0000   0.0000
     0.0000   0.0000   0.0000   0.0000   0.0000   0.0000   0.0000   0.0000

          k = 0.1000 0.1732 0.0000 (  5990 PWs)   bands (ev):

  -114.0843-114.0842 -68.7233 -68.7211 -68.7204 -68.7201 -68.7199 -68.7196
    -8.7227  -8.1107   2.8225   2.9807   3.0498   3.1046   3.2334   3.3756
     3.9001   3.9462   4.1527   4.3065   4.3962   6.9044   7.1240   7.5401
     8.2548   8.2890  10.7728  14.5430  16.4588  19.0109  20.4439  21.3561
    21.7211  22.7949  23.9998  24.2560  28.1707  28.3849  29.5605  29.9731

     occupation numbers 
     1.0000   1.0000   1.0000   1.0000   1.0000   1.0000   1.0000   1.0000
     1.0000   1.0000   1.0000   1.0000   1.0000   1.0000   1.0000   1.0000
     1.0000   1.0000   1.0000   1.0000   1.0000   1.0000   1.0000   1.0000
     1.0000   1.0000   0.0000   0.0000   0.0000   0.0000   0.0000   0.0000
     0.0000   0.0000   0.0000   0.0000   0.0000   0.0000   0.0000   0.0000

          k = 0.1000 0.1732 0.1033 (  5991 PWs)   bands (ev):

  -114.0843-114.0842 -68.7232 -68.7213 -68.7203 -68.7201 -68.7199 -68.7196
    -8.6830  -8.1529   2.7956   2.9534   3.0417   3.0586   3.2133   3.2465
     3.9273   3.9654   4.1423   4.2008   4.8394   6.9795   7.0427   7.5134
     8.1842   8.2286  11.0323  14.2354  16.6749  19.0567  20.4562  21.0249
    21.2663  22.4001  24.6294  24.6653  28.0360  28.4427  30.0354  30.1763

     occupation numbers 
     1.0000   1.0000   1.0000   1.0000   1.0000   1.0000   1.0000   1.0000
     1.0000   1.0000   1.0000   1.0000   1.0000   1.0000   1.0000   1.0000
     1.0000   1.0000   1.0000   1.0000   1.0000   1.0000   1.0000   1.0000
     1.0000   1.0000   0.0000   0.0000   0.0000   0.0000   0.0000   0.0000
     0.0000   0.0000   0.0000   0.0000   0.0000   0.0000   0.0000   0.0000

          k = 0.1000 0.1732 0.2066 (  5995 PWs)   bands (ev):

  -114.0843-114.0842 -68.7228 -68.7217 -68.7202 -68.7200 -68.7199 -68.7197
    -8.5735  -8.2674   2.7337   2.7980   3.0417   3.0488   3.1475   3.1648
     3.9938   4.0096   4.1113   4.1409   5.5313   6.7119   7.2012   7.6143
     7.9325   8.0638  11.7096  13.5023  17.2398  18.9447  20.0379  20.3328
    21.2403  21.8899  25.5205  25.5347  27.4924  28.8227  29.6534  30.5486

     occupation numbers 
     1.0000   1.0000   1.0000   1.0000   1.0000   1.0000   1.0000   1.0000
     1.0000   1.0000   1.0000   1.0000   1.0000   1.0000   1.0000   1.0000
     1.0000   1.0000   1.0000   1.0000   1.0000   1.0000   1.0000   1.0000
     1.0000   1.0000   0.0000   0.0000   0.0000   0.0000   0.0000   0.0000
     0.0000   0.0000   0.0000   0.0000   0.0000   0.0000   0.0000   0.0000

          k = 0.1000 0.1732-0.3099 (  5998 PWs)   bands (ev):

  -114.0843-114.0843 -68.7222 -68.7222 -68.7201 -68.7201 -68.7198 -68.7198
    -8.4217  -8.4217   2.7093   2.7093   3.0606   3.0606   3.1201   3.1201
     4.0628   4.0628   4.0724   4.0724   6.1918   6.1918   7.5424   7.5424
     7.8430   7.8431  12.5974  12.5974  18.0889  18.0889  20.0384  20.0385
    21.4748  21.4748  26.0428  26.0428  27.7434  27.7434  30.2538  30.2538

     occupation numbers 
     1.0000   1.0000   1.0000   1.0000   1.0000   1.0000   1.0000   1.0000
     1.0000   1.0000   1.0000   1.0000   1.0000   1.0000   1.0000   1.0000
     1.0000   1.0000   1.0000   1.0000   1.0000   1.0000   1.0000   1.0000
     1.0000   1.0000   0.0000   0.0000   0.0000   0.0000   0.0000   0.0000
     0.0000   0.0000   0.0000   0.0000   0.0000   0.0000   0.0000   0.0000

          k = 0.1000 0.2887 0.0000 (  6004 PWs)   bands (ev):

  -114.0843-114.0842 -68.7231 -68.7212 -68.7208 -68.7205 -68.7202 -68.7197
    -8.5504  -8.0482   2.7604   2.9972   3.0928   3.1928   3.3824   3.5706
     3.8566   3.9673   4.1621   4.3706   4.5285   6.0945   6.5479   7.0328
     8.0042   8.0237  11.8644  15.3975  16.4990  17.8211  19.5374  20.7382
    21.2285  22.8283  23.6178  24.8267  27.9036  29.1209  30.2174  31.3925

     occupation numbers 
     1.0000   1.0000   1.0000   1.0000   1.0000   1.0000   1.0000   1.0000
     1.0000   1.0000   1.0000   1.0000   1.0000   1.0000   1.0000   1.0000
     1.0000   1.0000   1.0000   1.0000   1.0000   1.0000   1.0000   1.0000
     1.0000   1.0000   0.0000   0.0000   0.0000   0.0000   0.0000   0.0000
     0.0000   0.0000   0.0000   0.0000   0.0000   0.0000   0.0000   0.0000

          k = 0.1000 0.2887 0.1033 (  6004 PWs)   bands (ev):

  -114.0843-114.0842 -68.7230 -68.7214 -68.7207 -68.7205 -68.7202 -68.7198
    -8.5169  -8.0817   2.7319   2.9450   3.0903   3.1709   3.3570   3.4040
     3.8973   3.9895   4.1502   4.2595   4.9446   6.1807   6.5191   7.0564
     7.9427   7.9844  12.0178  14.9966  16.7042  17.8814  19.6123  20.5125
    21.0405  22.6922  23.6544  25.2150  27.7465  29.6048  30.2623  30.9802

     occupation numbers 
     1.0000   1.0000   1.0000   1.0000   1.0000   1.0000   1.0000   1.0000
     1.0000   1.0000   1.0000   1.0000   1.0000   1.0000   1.0000   1.0000
     1.0000   1.0000   1.0000   1.0000   1.0000   1.0000   1.0000   1.0000
     1.0000   1.0000   0.0000   0.0000   0.0000   0.0000   0.0000   0.0000
     0.0000   0.0000   0.0000   0.0000   0.0000   0.0000   0.0000   0.0000

          k = 0.1000 0.2887 0.2066 (  5989 PWs)   bands (ev):

  -114.0843-114.0842 -68.7227 -68.7218 -68.7206 -68.7204 -68.7201 -68.7199
    -8.4251  -8.1736   2.6754   2.7816   3.1098   3.1498   3.2611   3.2986
     3.9862   4.0276   4.1183   4.1789   5.4941   6.1719   6.7071   7.2100
     7.7266   7.7861  12.5014  14.1724  17.1263  17.9328  19.4901  19.9939
    21.1136  22.1364  24.3141  25.7876  27.3720  29.2389  30.4472  30.6968

     occupation numbers 
     1.0000   1.0000   1.0000   1.0000   1.0000   1.0000   1.0000   1.0000
     1.0000   1.0000   1.0000   1.0000   1.0000   1.0000   1.0000   1.0000
     1.0000   1.0000   1.0000   1.0000   1.0000   1.0000   1.0000   1.0000
     1.0000   1.0000   0.0000   0.0000   0.0000   0.0000   0.0000   0.0000
     0.0000   0.0000   0.0000   0.0000   0.0000   0.0000   0.0000   0.0000

          k = 0.1000 0.2887-0.3099 (  6002 PWs)   bands (ev):

  -114.0842-114.0842 -68.7223 -68.7223 -68.7205 -68.7205 -68.7200 -68.7200
    -8.2993  -8.2993   2.6708   2.6708   3.1396   3.1396   3.2411   3.2411
     4.0693   4.0693   4.0921   4.0921   5.8959   5.8959   7.2431   7.2431
     7.5003   7.5003  13.2721  13.2721  17.6359  17.6359  19.5366  19.5366
    21.5672  21.5672  25.3117  25.3117  27.9077  27.9077  30.8573  30.8573

     occupation numbers 
     1.0000   1.0000   1.0000   1.0000   1.0000   1.0000   1.0000   1.0000
     1.0000   1.0000   1.0000   1.0000   1.0000   1.0000   1.0000   1.0000
     1.0000   1.0000   1.0000   1.0000   1.0000   1.0000   1.0000   1.0000
     1.0000   1.0000   0.0000   0.0000   0.0000   0.0000   0.0000   0.0000
     0.0000   0.0000   0.0000   0.0000   0.0000   0.0000   0.0000   0.0000

          k = 0.1000 0.4041 0.0000 (  6010 PWs)   bands (ev):

  -114.0843-114.0842 -68.7228 -68.7215 -68.7212 -68.7209 -68.7204 -68.7199
    -8.3570  -8.0005   2.7524   3.0238   3.1295   3.3486   3.5442   3.6526
     3.8917   4.0166   4.1768   4.3989   4.7135   5.3947   6.0986   6.4777
     7.6354   7.7615  13.0270  15.8629  16.3926  16.9157  19.0590  20.1810
    20.8973  22.3894  23.8899  25.9147  27.8425  28.3641  31.0143  32.5280

     occupation numbers 
     1.0000   1.0000   1.0000   1.0000   1.0000   1.0000   1.0000   1.0000
     1.0000   1.0000   1.0000   1.0000   1.0000   1.0000   1.0000   1.0000
     1.0000   1.0000   1.0000   1.0000   1.0000   1.0000   1.0000   1.0000
     1.0000   1.0000   0.0000   0.0000   0.0000   0.0000   0.0000   0.0000
     0.0000   0.0000   0.0000   0.0000   0.0000   0.0000   0.0000   0.0000

          k = 0.1000 0.4041 0.1033 (  6011 PWs)   bands (ev):

  -114.0843-114.0842 -68.7227 -68.7217 -68.7211 -68.7208 -68.7204 -68.7199
    -8.3319  -8.0229   2.7212   2.9537   3.1424   3.3260   3.5081   3.5221
     3.9165   4.0465   4.1659   4.3276   4.8998   5.5355   6.1325   6.5643
     7.6363   7.7128  13.0803  15.4304  16.6082  16.9722  19.0270  20.2791
    20.7560  22.4630  23.6379  26.0166  27.6693  29.2216  30.1529  31.9729

     occupation numbers 
     1.0000   1.0000   1.0000   1.0000   1.0000   1.0000   1.0000   1.0000
     1.0000   1.0000   1.0000   1.0000   1.0000   1.0000   1.0000   1.0000
     1.0000   1.0000   1.0000   1.0000   1.0000   1.0000   1.0000   1.0000
     1.0000   1.0000   0.0000   0.0000   0.0000   0.0000   0.0000   0.0000
     0.0000   0.0000   0.0000   0.0000   0.0000   0.0000   0.0000   0.0000

          k = 0.1000 0.4041 0.2066 (  6010 PWs)   bands (ev):

  -114.0842-114.0842 -68.7226 -68.7220 -68.7210 -68.7208 -68.7203 -68.7200
    -8.2642  -8.0855   2.6626   2.7823   3.1916   3.2940   3.3783   3.4271
     4.0072   4.0751   4.1427   4.2351   5.1355   5.5414   6.5467   6.8204
     7.4217   7.6290  13.3340  14.6666  16.8562  17.0805  18.9506  19.8768
    21.1615  22.3086  23.7057  25.7366  27.8396  29.4126  30.2990  30.9428

     occupation numbers 
     1.0000   1.0000   1.0000   1.0000   1.0000   1.0000   1.0000   1.0000
     1.0000   1.0000   1.0000   1.0000   1.0000   1.0000   1.0000   1.0000
     1.0000   1.0000   1.0000   1.0000   1.0000   1.0000   1.0000   1.0000
     1.0000   1.0000   0.0000   0.0000   0.0000   0.0000   0.0000   0.0000
     0.0000   0.0000   0.0000   0.0000   0.0000   0.0000   0.0000   0.0000

          k = 0.1000 0.4041-0.3099 (  6006 PWs)   bands (ev):

  -114.0842-114.0842 -68.7224 -68.7224 -68.7208 -68.7208 -68.7201 -68.7201
    -8.1737  -8.1736   2.6638   2.6638   3.2603   3.2603   3.3513   3.3513
     4.0859   4.0859   4.1470   4.1470   5.3531   5.3532   7.0367   7.0368
     7.2889   7.2890  13.8949  13.8949  17.0435  17.0435  19.2369  19.2369
    21.8072  21.8072  24.6149  24.6149  28.6926  28.6926  30.5628  30.5628

     occupation numbers 
     1.0000   1.0000   1.0000   1.0000   1.0000   1.0000   1.0000   1.0000
     1.0000   1.0000   1.0000   1.0000   1.0000   1.0000   1.0000   1.0000
     1.0000   1.0000   1.0000   1.0000   1.0000   1.0000   1.0000   1.0000
     1.0000   1.0000   0.0000   0.0000   0.0000   0.0000   0.0000   0.0000
     0.0000   0.0000   0.0000   0.0000   0.0000   0.0000   0.0000   0.0000

          k = 0.1000 0.5196 0.0000 (  6015 PWs)   bands (ev):

  -114.0842-114.0842 -68.7225 -68.7217 -68.7215 -68.7212 -68.7205 -68.7200
    -8.2125  -7.9924   2.7923   3.0809   3.1503   3.4921   3.5741   3.6725
     3.9755   4.0618   4.1959   4.3265   4.7229   5.1680   5.7834   6.2540
     7.2687   7.5967  14.0631  15.6620  15.9466  16.6493  18.7956  20.4809
    20.7243  21.9832  23.9205  26.7615  27.7310  28.3115  30.8286  32.6583

     occupation numbers 
     1.0000   1.0000   1.0000   1.0000   1.0000   1.0000   1.0000   1.0000
     1.0000   1.0000   1.0000   1.0000   1.0000   1.0000   1.0000   1.0000
     1.0000   1.0000   1.0000   1.0000   1.0000   1.0000   1.0000   1.0000
     1.0000   1.0000   0.0000   0.0000   0.0000   0.0000   0.0000   0.0000
     0.0000   0.0000   0.0000   0.0000   0.0000   0.0000   0.0000   0.0000

          k = 0.1000 0.5196 0.1033 (  6013 PWs)   bands (ev):

  -114.0842-114.0842 -68.7226 -68.7219 -68.7214 -68.7211 -68.7205 -68.7200
    -8.1958  -8.0050   2.7583   2.9787   3.1679   3.4690   3.5419   3.6166
     4.0118   4.0797   4.1913   4.3254   4.6976   5.1434   5.9992   6.3932
     7.3389   7.5266  13.9860  15.3740  16.1795  16.6976  18.6532  20.3782
    20.8809  22.0853  23.6527  26.6629  27.7485  29.1686  29.7548  32.5002

     occupation numbers 
     1.0000   1.0000   1.0000   1.0000   1.0000   1.0000   1.0000   1.0000
     1.0000   1.0000   1.0000   1.0000   1.0000   1.0000   1.0000   1.0000
     1.0000   1.0000   1.0000   1.0000   1.0000   1.0000   1.0000   1.0000
     1.0000   1.0000   0.0000   0.0000   0.0000   0.0000   0.0000   0.0000
     0.0000   0.0000   0.0000   0.0000   0.0000   0.0000   0.0000   0.0000

          k = 0.1000 0.5196 0.2066 (  6014 PWs)   bands (ev):

  -114.0842-114.0842 -68.7226 -68.7222 -68.7212 -68.7209 -68.7204 -68.7201
    -8.1515  -8.0411   2.6897   2.7879   3.2302   3.4301   3.4910   3.5034
     4.0688   4.1002   4.2002   4.2968   4.7422   5.0168   6.4336   6.8021
     7.2032   7.4921  13.9715  14.8488  16.4578  16.7443  18.5953  19.7515
    21.5459  22.1916  23.5198  25.7494  28.3809  29.3333  30.0891  31.2355

     occupation numbers 
     1.0000   1.0000   1.0000   1.0000   1.0000   1.0000   1.0000   1.0000
     1.0000   1.0000   1.0000   1.0000   1.0000   1.0000   1.0000   1.0000
     1.0000   1.0000   1.0000   1.0000   1.0000   1.0000   1.0000   1.0000
     1.0000   1.0000   0.0000   0.0000   0.0000   0.0000   0.0000   0.0000
     0.0000   0.0000   0.0000   0.0000   0.0000   0.0000   0.0000   0.0000

          k = 0.1000 0.5196-0.3099 (  6016 PWs)   bands (ev):

  -114.0842-114.0842 -68.7225 -68.7225 -68.7210 -68.7210 -68.7202 -68.7202
    -8.0942  -8.0942   2.6777   2.6777   3.3353   3.3353   3.4634   3.4634
     4.0974   4.0974   4.2448   4.2448   4.8652   4.8652   6.8412   6.8412
     7.2811   7.2811  14.2857  14.2857  16.6558  16.6558  19.0168  19.0168
    22.0522  22.0522  24.3261  24.3261  29.3980  29.3980  30.1395  30.1395

     occupation numbers 
     1.0000   1.0000   1.0000   1.0000   1.0000   1.0000   1.0000   1.0000
     1.0000   1.0000   1.0000   1.0000   1.0000   1.0000   1.0000   1.0000
     1.0000   1.0000   1.0000   1.0000   1.0000   1.0000   1.0000   1.0000
     1.0000   1.0000   0.0000   0.0000   0.0000   0.0000   0.0000   0.0000
     0.0000   0.0000   0.0000   0.0000   0.0000   0.0000   0.0000   0.0000

          k = 0.2000 0.3464 0.0000 (  6042 PWs)   bands (ev):

  -114.0843-114.0842 -68.7228 -68.7214 -68.7210 -68.7209 -68.7204 -68.7200
    -8.3805  -8.0038   2.8492   2.9400   3.1849   3.2696   3.5346   3.6777
     3.8409   3.9926   4.1762   4.4027   4.7165   5.8105   5.8605   6.4439
     7.6418   7.7150  12.9638  15.8563  16.7635  17.1990  19.0400  20.0252
    20.1719  23.1022  23.4527  25.3371  29.3639  29.8468  29.8504  31.3232

     occupation numbers 
     1.0000   1.0000   1.0000   1.0000   1.0000   1.0000   1.0000   1.0000
     1.0000   1.0000   1.0000   1.0000   1.0000   1.0000   1.0000   1.0000
     1.0000   1.0000   1.0000   1.0000   1.0000   1.0000   1.0000   1.0000
     1.0000   1.0000   0.0000   0.0000   0.0000   0.0000   0.0000   0.0000
     0.0000   0.0000   0.0000   0.0000   0.0000   0.0000   0.0000   0.0000

          k = 0.2000 0.3464 0.1033 (  6009 PWs)   bands (ev):

  -114.0843-114.0842 -68.7228 -68.7216 -68.7210 -68.7208 -68.7203 -68.7200
    -8.3542  -8.0278   2.8069   2.9143   3.1775   3.2432   3.4935   3.5005
     3.8882   4.0376   4.1664   4.3310   4.9616   5.8436   6.0224   6.4600
     7.5506   7.7439  13.0486  15.5190  16.8149  17.2486  19.2391  19.7074
    20.1699  23.3756  23.4345  25.2675  28.6404  30.1134  30.4974  30.6978

     occupation numbers 
     1.0000   1.0000   1.0000   1.0000   1.0000   1.0000   1.0000   1.0000
     1.0000   1.0000   1.0000   1.0000   1.0000   1.0000   1.0000   1.0000
     1.0000   1.0000   1.0000   1.0000   1.0000   1.0000   1.0000   1.0000
     1.0000   1.0000   0.0000   0.0000   0.0000   0.0000   0.0000   0.0000
     0.0000   0.0000   0.0000   0.0000   0.0000   0.0000   0.0000   0.0000

          k = 0.2000 0.3464 0.2066 (  6003 PWs)   bands (ev):

  -114.0842-114.0842 -68.7226 -68.7220 -68.7208 -68.7207 -68.7203 -68.7201
    -8.2832  -8.0944   2.7271   2.8051   3.1777   3.2035   3.3464   3.4182
     3.9922   4.0716   4.1463   4.2390   5.2696   5.7211   6.5855   6.6264
     7.3122   7.6593  13.3657  14.7691  17.0169  17.3381  19.0966  19.1352
    20.8042  22.7474  24.2413  25.4763  28.0082  28.5124  30.8368  31.4069

     occupation numbers 
     1.0000   1.0000   1.0000   1.0000   1.0000   1.0000   1.0000   1.0000
     1.0000   1.0000   1.0000   1.0000   1.0000   1.0000   1.0000   1.0000
     1.0000   1.0000   1.0000   1.0000   1.0000   1.0000   1.0000   1.0000
     1.0000   1.0000   0.0000   0.0000   0.0000   0.0000   0.0000   0.0000
     0.0000   0.0000   0.0000   0.0000   0.0000   0.0000   0.0000   0.0000

          k = 0.2000 0.3464-0.3099 (  6000 PWs)   bands (ev):

  -114.0842-114.0842 -68.7224 -68.7224 -68.7207 -68.7207 -68.7202 -68.7202
    -8.1877  -8.1876   2.7097   2.7097   3.1932   3.1932   3.3413   3.3413
     4.0791   4.0791   4.1513   4.1513   5.5142   5.5142   6.9088   6.9088
     7.2902   7.2902  13.9737  13.9737  17.2723  17.2723  18.8870  18.8870
    21.7938  21.7938  25.1872  25.1872  27.7482  27.7482  31.2538  31.2538

     occupation numbers 
     1.0000   1.0000   1.0000   1.0000   1.0000   1.0000   1.0000   1.0000
     1.0000   1.0000   1.0000   1.0000   1.0000   1.0000   1.0000   1.0000
     1.0000   1.0000   1.0000   1.0000   1.0000   1.0000   1.0000   1.0000
     1.0000   1.0000   0.0000   0.0000   0.0000   0.0000   0.0000   0.0000
     0.0000   0.0000   0.0000   0.0000   0.0000   0.0000   0.0000   0.0000

          k = 0.2000 0.4619 0.0000 (  6019 PWs)   bands (ev):

  -114.0842-114.0842 -68.7225 -68.7217 -68.7213 -68.7211 -68.7206 -68.7202
    -8.2182  -7.9894   2.8848   3.0688   3.2530   3.3718   3.6512   3.7300
     3.8996   3.9853   4.2012   4.4371   4.6735   5.3404   5.7556   5.9933
     7.2631   7.3776  14.1359  15.9598  16.5401  16.7394  19.0297  19.6952
    19.9324  22.2816  23.3888  26.6462  29.1951  29.7411  30.6784  31.4287

     occupation numbers 
     1.0000   1.0000   1.0000   1.0000   1.0000   1.0000   1.0000   1.0000
     1.0000   1.0000   1.0000   1.0000   1.0000   1.0000   1.0000   1.0000
     1.0000   1.0000   1.0000   1.0000   1.0000   1.0000   1.0000   1.0000
     1.0000   1.0000   0.0000   0.0000   0.0000   0.0000   0.0000   0.0000
     0.0000   0.0000   0.0000   0.0000   0.0000   0.0000   0.0000   0.0000

          k = 0.2000 0.4619 0.1033 (  6023 PWs)   bands (ev):

  -114.0842-114.0842 -68.7225 -68.7219 -68.7212 -68.7210 -68.7206 -68.7202
    -8.2010  -8.0026   2.8671   3.0098   3.2205   3.3494   3.5907   3.6123
     3.9189   4.0568   4.1996   4.4173   4.7370   5.3540   5.8156   6.2233
     7.1926   7.4333  14.1535  15.7518  16.6174  16.7932  18.6445  19.3508
    20.3971  22.6041  23.6191  26.2110  28.5907  29.8596  30.7335  31.0071

     occupation numbers 
     1.0000   1.0000   1.0000   1.0000   1.0000   1.0000   1.0000   1.0000
     1.0000   1.0000   1.0000   1.0000   1.0000   1.0000   1.0000   1.0000
     1.0000   1.0000   1.0000   1.0000   1.0000   1.0000   1.0000   1.0000
     1.0000   1.0000   0.0000   0.0000   0.0000   0.0000   0.0000   0.0000
     0.0000   0.0000   0.0000   0.0000   0.0000   0.0000   0.0000   0.0000

          k = 0.2000 0.4619 0.2066 (  6025 PWs)   bands (ev):

  -114.0842-114.0842 -68.7225 -68.7222 -68.7210 -68.7209 -68.7205 -68.7203
    -8.1552  -8.0404   2.8039   2.8777   3.1931   3.3109   3.4791   3.5021
     4.0072   4.0842   4.2140   4.3469   4.8934   5.2452   6.0893   6.6929
     6.9820   7.5056  14.2929  15.2549  16.7593  16.8988  18.1904  18.7174
    21.3202  23.0159  23.9276  25.5348  27.8750  28.9810  30.7050  31.3129

     occupation numbers 
     1.0000   1.0000   1.0000   1.0000   1.0000   1.0000   1.0000   1.0000
     1.0000   1.0000   1.0000   1.0000   1.0000   1.0000   1.0000   1.0000
     1.0000   1.0000   1.0000   1.0000   1.0000   1.0000   1.0000   1.0000
     1.0000   1.0000   0.0000   0.0000   0.0000   0.0000   0.0000   0.0000
     0.0000   0.0000   0.0000   0.0000   0.0000   0.0000   0.0000   0.0000

          k = 0.2000 0.4619-0.3099 (  6004 PWs)   bands (ev):

  -114.0842-114.0842 -68.7224 -68.7224 -68.7209 -68.7209 -68.7204 -68.7204
    -8.0958  -8.0957   2.7829   2.7829   3.2498   3.2498   3.4479   3.4479
     4.0683   4.0683   4.2670   4.2670   5.0723   5.0723   6.4742   6.4743
     7.3095   7.3096  14.6838  14.6838  16.8908  16.8908  18.2227  18.2227
    22.3870  22.3870  24.6741  24.6741  28.1532  28.1532  30.9536  30.9536

     occupation numbers 
     1.0000   1.0000   1.0000   1.0000   1.0000   1.0000   1.0000   1.0000
     1.0000   1.0000   1.0000   1.0000   1.0000   1.0000   1.0000   1.0000
     1.0000   1.0000   1.0000   1.0000   1.0000   1.0000   1.0000   1.0000
     1.0000   1.0000   0.0000   0.0000   0.0000   0.0000   0.0000   0.0000
     0.0000   0.0000   0.0000   0.0000   0.0000   0.0000   0.0000   0.0000

          k = 0.2000 0.5774 0.0000 (  6022 PWs)   bands (ev):

  -114.0842-114.0842 -68.7223 -68.7218 -68.7214 -68.7211 -68.7208 -68.7202
    -8.1371  -8.0023   2.8755   3.1642   3.3618   3.4287   3.6500   3.7271
     3.9519   4.0176   4.2203   4.2337   4.8369   5.1530   5.3374   6.2767
     6.9688   7.2502  14.9181  15.8959  16.0071  16.6425  18.7985  19.6242
    20.8521  21.3595  23.2887  27.8316  28.3732  29.7843  30.5107  31.5663

     occupation numbers 
     1.0000   1.0000   1.0000   1.0000   1.0000   1.0000   1.0000   1.0000
     1.0000   1.0000   1.0000   1.0000   1.0000   1.0000   1.0000   1.0000
     1.0000   1.0000   1.0000   1.0000   1.0000   1.0000   1.0000   1.0000
     1.0000   1.0000   0.0000   0.0000   0.0000   0.0000   0.0000   0.0000
     0.0000   0.0000   0.0000   0.0000   0.0000   0.0000   0.0000   0.0000

          k = 0.2000 0.5774 0.1033 (  6028 PWs)   bands (ev):

  -114.0842-114.0842 -68.7224 -68.7220 -68.7213 -68.7210 -68.7207 -68.7203
    -8.1258  -8.0089   2.8676   3.1453   3.1784   3.4599   3.6117   3.6634
     3.9924   4.0343   4.2499   4.2686   4.7853   5.0848   5.5113   6.4909
     6.9706   7.2611  14.8417  15.7981  16.1387  16.7068  18.3523  19.2581
    21.1635  21.8188  23.5997  27.2104  27.7740  29.9675  30.5563  31.1928

     occupation numbers 
     1.0000   1.0000   1.0000   1.0000   1.0000   1.0000   1.0000   1.0000
     1.0000   1.0000   1.0000   1.0000   1.0000   1.0000   1.0000   1.0000
     1.0000   1.0000   1.0000   1.0000   1.0000   1.0000   1.0000   1.0000
     1.0000   1.0000   0.0000   0.0000   0.0000   0.0000   0.0000   0.0000
     0.0000   0.0000   0.0000   0.0000   0.0000   0.0000   0.0000   0.0000

          k = 0.2000 0.5774 0.2066 (  6019 PWs)   bands (ev):

  -114.0842-114.0842 -68.7225 -68.7223 -68.7211 -68.7209 -68.7206 -68.7204
    -8.0965  -8.0288   2.8276   2.9434   3.1595   3.3924   3.5623   3.5700
     4.0266   4.0459   4.3143   4.3466   4.7530   4.9470   5.8772   6.7154
     6.9531   7.3954  14.8145  15.4869  16.3894  16.7905  17.8144  18.5589
    21.9718  22.5434  24.0316  25.6817  27.5330  29.3565  30.5544  31.0194

     occupation numbers 
     1.0000   1.0000   1.0000   1.0000   1.0000   1.0000   1.0000   1.0000
     1.0000   1.0000   1.0000   1.0000   1.0000   1.0000   1.0000   1.0000
     1.0000   1.0000   1.0000   1.0000   1.0000   1.0000   1.0000   1.0000
     1.0000   1.0000   0.0000   0.0000   0.0000   0.0000   0.0000   0.0000
     0.0000   0.0000   0.0000   0.0000   0.0000   0.0000   0.0000   0.0000

          k = 0.2000 0.5774-0.3099 (  6038 PWs)   bands (ev):

  -114.0842-114.0842 -68.7225 -68.7225 -68.7209 -68.7209 -68.7205 -68.7205
    -8.0603  -8.0603   2.8210   2.8210   3.2579   3.2579   3.5455   3.5455
     4.0412   4.0412   4.3629   4.3629   4.8179   4.8179   6.3077   6.3077
     7.3269   7.3270  15.0594  15.0594  16.6387  16.6387  17.9612  17.9612
    22.7729  22.7729  24.3871  24.3871  28.2605  28.2605  30.7414  30.7414

     occupation numbers 
     1.0000   1.0000   1.0000   1.0000   1.0000   1.0000   1.0000   1.0000
     1.0000   1.0000   1.0000   1.0000   1.0000   1.0000   1.0000   1.0000
     1.0000   1.0000   1.0000   1.0000   1.0000   1.0000   1.0000   1.0000
     1.0000   1.0000   0.0000   0.0000   0.0000   0.0000   0.0000   0.0000
     0.0000   0.0000   0.0000   0.0000   0.0000   0.0000   0.0000   0.0000

          k = 0.3000 0.5196 0.0000 (  6040 PWs)   bands (ev):

  -114.0842-114.0842 -68.7222 -68.7219 -68.7212 -68.7211 -68.7209 -68.7204
    -8.1006  -8.0142   2.9034   3.2213   3.3359   3.5507   3.7292   3.8752
     3.9160   3.9439   4.1823   4.2012   4.8514   4.9806   5.2133   6.3826
     6.9368   6.9556  15.2785  16.0116  16.2777  16.5046  18.9288  19.0601
    20.7136  21.8614  22.3450  28.0770  29.5836  29.7584  30.5396  32.0365

     occupation numbers 
     1.0000   1.0000   1.0000   1.0000   1.0000   1.0000   1.0000   1.0000
     1.0000   1.0000   1.0000   1.0000   1.0000   1.0000   1.0000   1.0000
     1.0000   1.0000   1.0000   1.0000   1.0000   1.0000   1.0000   1.0000
     1.0000   1.0000   0.0000   0.0000   0.0000   0.0000   0.0000   0.0000
     0.0000   0.0000   0.0000   0.0000   0.0000   0.0000   0.0000   0.0000

          k = 0.3000 0.5196 0.1033 (  6027 PWs)   bands (ev):

  -114.0842-114.0842 -68.7223 -68.7220 -68.7212 -68.7210 -68.7208 -68.7205
    -8.0925  -8.0175   2.9252   3.1415   3.2547   3.4834   3.6731   3.7389
     3.9187   4.0189   4.2217   4.3097   4.8194   5.0699   5.2211   6.5721
     6.8499   7.0806  15.3005  15.9614  16.3951  16.5153  18.3078  18.6073
    21.1807  22.3447  22.8403  27.2590  28.7213  29.1713  30.9100  32.0359

     occupation numbers 
     1.0000   1.0000   1.0000   1.0000   1.0000   1.0000   1.0000   1.0000
     1.0000   1.0000   1.0000   1.0000   1.0000   1.0000   1.0000   1.0000
     1.0000   1.0000   1.0000   1.0000   1.0000   1.0000   1.0000   1.0000
     1.0000   1.0000   0.0000   0.0000   0.0000   0.0000   0.0000   0.0000
     0.0000   0.0000   0.0000   0.0000   0.0000   0.0000   0.0000   0.0000

          k = 0.3000 0.5196 0.2066 (  6020 PWs)   bands (ev):

  -114.0842-114.0842 -68.7224 -68.7223 -68.7210 -68.7208 -68.7207 -68.7206
    -8.0718  -8.0284   2.9590   2.9925   3.1193   3.3414   3.6068   3.6344
     3.9643   4.0162   4.3198   4.4218   4.7995   4.9874   5.5566   6.4607
     7.0518   7.3200  15.4028  15.8522  16.5603  16.6410  17.4108  17.8186
    22.1176  23.3366  23.5884  25.6015  27.6816  28.3083  31.1360  31.7643

     occupation numbers 
     1.0000   1.0000   1.0000   1.0000   1.0000   1.0000   1.0000   1.0000
     1.0000   1.0000   1.0000   1.0000   1.0000   1.0000   1.0000   1.0000
     1.0000   1.0000   1.0000   1.0000   1.0000   1.0000   1.0000   1.0000
     1.0000   1.0000   0.0000   0.0000   0.0000   0.0000   0.0000   0.0000
     0.0000   0.0000   0.0000   0.0000   0.0000   0.0000   0.0000   0.0000

          k = 0.3000 0.5196-0.3099 (  6018 PWs)   bands (ev):

  -114.0842-114.0842 -68.7224 -68.7224 -68.7209 -68.7209 -68.7206 -68.7206
    -8.0477  -8.0476   2.9267   2.9267   3.1856   3.1857   3.5979   3.5979
     3.9947   3.9947   4.4079   4.4079   4.8697   4.8697   6.0173   6.0174
     7.3428   7.3429  15.6314  15.6315  16.6960  16.6960  17.2241  17.2241
    23.3002  23.3002  24.2850  24.2850  27.5729  27.5729  31.3853  31.3853

     occupation numbers 
     1.0000   1.0000   1.0000   1.0000   1.0000   1.0000   1.0000   1.0000
     1.0000   1.0000   1.0000   1.0000   1.0000   1.0000   1.0000   1.0000
     1.0000   1.0000   1.0000   1.0000   1.0000   1.0000   1.0000   1.0000
     1.0000   1.0000   0.0000   0.0000   0.0000   0.0000   0.0000   0.0000
     0.0000   0.0000   0.0000   0.0000   0.0000   0.0000   0.0000   0.0000

          k = 0.0000-0.1155 0.1033 (  6001 PWs)   bands (ev):

  -114.0843-114.0842 -68.7233 -68.7212 -68.7201 -68.7199 -68.7197 -68.7195
    -8.7797  -8.1997   2.8570   2.9675   2.9825   3.0262   3.1290   3.1419
     3.9524   3.9663   4.1383   4.1590   4.7867   7.4457   7.6156   7.6987
     8.3148   8.3953  10.3535  13.6444  16.6566  20.1066  21.1438  21.1489
    21.4663  22.1510  24.8178  26.1170  26.6662  27.9519  28.9626  29.2881

     occupation numbers 
     1.0000   1.0000   1.0000   1.0000   1.0000   1.0000   1.0000   1.0000
     1.0000   1.0000   1.0000   1.0000   1.0000   1.0000   1.0000   1.0000
     1.0000   1.0000   1.0000   1.0000   1.0000   1.0000   1.0000   1.0000
     1.0000   1.0000   0.0000   0.0000   0.0000   0.0000   0.0000   0.0000
     0.0000   0.0000   0.0000   0.0000   0.0000   0.0000   0.0000   0.0000

          k = 0.0000-0.1155 0.2066 (  6004 PWs)   bands (ev):

  -114.0843-114.0843 -68.7228 -68.7216 -68.7200 -68.7199 -68.7197 -68.7196
    -8.6612  -8.3263   2.7905   2.8228   2.9907   2.9980   3.0783   3.0832
     4.0049   4.0109   4.1106   4.1202   5.4929   6.9688   7.6504   7.8486
     8.1292   8.2507  11.1819  12.9962  17.2531  19.5197  20.4338  21.0778
    21.2122  21.7574  25.6176  26.8877  27.0712  27.8543  29.0431  29.1806

     occupation numbers 
     1.0000   1.0000   1.0000   1.0000   1.0000   1.0000   1.0000   1.0000
     1.0000   1.0000   1.0000   1.0000   1.0000   1.0000   1.0000   1.0000
     1.0000   1.0000   1.0000   1.0000   1.0000   1.0000   1.0000   1.0000
     1.0000   1.0000   0.0000   0.0000   0.0000   0.0000   0.0000   0.0000
     0.0000   0.0000   0.0000   0.0000   0.0000   0.0000   0.0000   0.0000

          k = 0.0000-0.2309 0.1033 (  5995 PWs)   bands (ev):

  -114.0843-114.0842 -68.7231 -68.7213 -68.7205 -68.7201 -68.7201 -68.7196
    -8.6383  -8.1325   2.7490   2.9700   3.0433   3.1123   3.2439   3.2922
     3.9138   3.9714   4.1453   4.2157   4.8659   6.6066   7.0336   7.3788
     8.1183   8.2016  11.2894  14.4506  16.6686  18.5988  20.1338  21.2953
    21.3610  22.2054  23.6482  26.0404  26.6465  29.1841  29.9678  31.0851

     occupation numbers 
     1.0000   1.0000   1.0000   1.0000   1.0000   1.0000   1.0000   1.0000
     1.0000   1.0000   1.0000   1.0000   1.0000   1.0000   1.0000   1.0000
     1.0000   1.0000   1.0000   1.0000   1.0000   1.0000   1.0000   1.0000
     1.0000   1.0000   0.0000   0.0000   0.0000   0.0000   0.0000   0.0000
     0.0000   0.0000   0.0000   0.0000   0.0000   0.0000   0.0000   0.0000

          k = 0.0000-0.2309 0.2066 (  5983 PWs)   bands (ev):

  -114.0843-114.0842 -68.7228 -68.7217 -68.7204 -68.7201 -68.7200 -68.7197
    -8.5333  -8.2411   2.6952   2.7916   3.0753   3.0924   3.1765   3.1901
     3.9884   4.0126   4.1131   4.1486   5.5351   6.5406   7.0248   7.5574
     7.8455   8.0318  11.9108  13.6841  17.2053  18.5749  19.7755  20.4402
    21.4151  21.8696  24.3842  26.3810  27.1132  29.5036  30.0569  30.2767

     occupation numbers 
     1.0000   1.0000   1.0000   1.0000   1.0000   1.0000   1.0000   1.0000
     1.0000   1.0000   1.0000   1.0000   1.0000   1.0000   1.0000   1.0000
     1.0000   1.0000   1.0000   1.0000   1.0000   1.0000   1.0000   1.0000
     1.0000   1.0000   0.0000   0.0000   0.0000   0.0000   0.0000   0.0000
     0.0000   0.0000   0.0000   0.0000   0.0000   0.0000   0.0000   0.0000

          k = 0.0000-0.3464 0.1033 (  6010 PWs)   bands (ev):

  -114.0843-114.0842 -68.7229 -68.7215 -68.7210 -68.7206 -68.7202 -68.7198
    -8.4485  -8.0572   2.6744   2.9428   3.1238   3.2538   3.4045   3.4687
     3.8997   4.0085   4.1547   4.2732   4.9596   5.7650   6.4046   6.9770
     7.8587   7.9496  12.3364  15.1274  16.6060  17.3781  19.2912  20.8690
    21.5487  22.0919  23.2057  26.4569  26.8600  28.5793  30.3197  32.6107

     occupation numbers 
     1.0000   1.0000   1.0000   1.0000   1.0000   1.0000   1.0000   1.0000
     1.0000   1.0000   1.0000   1.0000   1.0000   1.0000   1.0000   1.0000
     1.0000   1.0000   1.0000   1.0000   1.0000   1.0000   1.0000   1.0000
     1.0000   1.0000   0.0000   0.0000   0.0000   0.0000   0.0000   0.0000
     0.0000   0.0000   0.0000   0.0000   0.0000   0.0000   0.0000   0.0000

          k = 0.0000-0.3464 0.2066 (  6010 PWs)   bands (ev):

  -114.0843-114.0842 -68.7227 -68.7219 -68.7208 -68.7206 -68.7201 -68.7199
    -8.3650  -8.1387   2.6267   2.7609   3.1727   3.2269   3.3169   3.3335
     3.9925   4.0384   4.1219   4.1897   5.3706   5.8644   6.5924   7.1919
     7.6788   7.7512  12.7266  14.2940  16.9734  17.4663  19.2588  20.4210
    21.5933  21.9050  23.3554  25.8736  27.8302  29.5800  29.8476  30.9604

     occupation numbers 
     1.0000   1.0000   1.0000   1.0000   1.0000   1.0000   1.0000   1.0000
     1.0000   1.0000   1.0000   1.0000   1.0000   1.0000   1.0000   1.0000
     1.0000   1.0000   1.0000   1.0000   1.0000   1.0000   1.0000   1.0000
     1.0000   1.0000   0.0000   0.0000   0.0000   0.0000   0.0000   0.0000
     0.0000   0.0000   0.0000   0.0000   0.0000   0.0000   0.0000   0.0000

          k = 0.0000-0.4619 0.1033 (  6008 PWs)   bands (ev):

  -114.0842-114.0842 -68.7227 -68.7218 -68.7213 -68.7210 -68.7204 -68.7199
    -8.2726  -8.0123   2.6848   2.9183   3.1740   3.4260   3.5287   3.5521
     3.9863   4.0731   4.1666   4.3327   4.7489   5.2923   6.0582   6.6343
     7.5461   7.7344  13.3314  15.2630  16.2975  16.7566  18.8501  20.6765
    21.4847  22.1348  23.1139  26.4986  28.0736  28.1211  29.7628  32.7459

     occupation numbers 
     1.0000   1.0000   1.0000   1.0000   1.0000   1.0000   1.0000   1.0000
     1.0000   1.0000   1.0000   1.0000   1.0000   1.0000   1.0000   1.0000
     1.0000   1.0000   1.0000   1.0000   1.0000   1.0000   1.0000   1.0000
     1.0000   1.0000   0.0000   0.0000   0.0000   0.0000   0.0000   0.0000
     0.0000   0.0000   0.0000   0.0000   0.0000   0.0000   0.0000   0.0000

          k = 0.0000-0.4619 0.2066 (  6012 PWs)   bands (ev):

  -114.0842-114.0842 -68.7226 -68.7221 -68.7211 -68.7209 -68.7203 -68.7200
    -8.2144  -8.0639   2.6236   2.7385   3.2411   3.3874   3.4411   3.4580
     4.0625   4.0877   4.1390   4.2423   4.8941   5.2429   6.5907   6.8833
     7.5136   7.5323  13.4435  14.5709  16.6071  16.8142  18.9610  20.4380
    21.5968  21.9737  22.9529  25.7577  28.9250  29.1982  29.4307  31.9148

     occupation numbers 
     1.0000   1.0000   1.0000   1.0000   1.0000   1.0000   1.0000   1.0000
     1.0000   1.0000   1.0000   1.0000   1.0000   1.0000   1.0000   1.0000
     1.0000   1.0000   1.0000   1.0000   1.0000   1.0000   1.0000   1.0000
     1.0000   1.0000   0.0000   0.0000   0.0000   0.0000   0.0000   0.0000
     0.0000   0.0000   0.0000   0.0000   0.0000   0.0000   0.0000   0.0000

          k =-0.1000-0.2887 0.1033 (  6004 PWs)   bands (ev):

  -114.0843-114.0842 -68.7230 -68.7214 -68.7207 -68.7205 -68.7202 -68.7198
    -8.5169  -8.0817   2.7319   2.9450   3.0903   3.1709   3.3570   3.4040
     3.8973   3.9895   4.1502   4.2595   4.9446   6.1807   6.5191   7.0564
     7.9427   7.9844  12.0178  14.9966  16.7042  17.8814  19.6123  20.5125
    21.0405  22.6922  23.6544  25.2150  27.7465  29.6048  30.2623  30.9802

     occupation numbers 
     1.0000   1.0000   1.0000   1.0000   1.0000   1.0000   1.0000   1.0000
     1.0000   1.0000   1.0000   1.0000   1.0000   1.0000   1.0000   1.0000
     1.0000   1.0000   1.0000   1.0000   1.0000   1.0000   1.0000   1.0000
     1.0000   1.0000   0.0000   0.0000   0.0000   0.0000   0.0000   0.0000
     0.0000   0.0000   0.0000   0.0000   0.0000   0.0000   0.0000   0.0000

          k =-0.1000-0.2887 0.2066 (  5989 PWs)   bands (ev):

  -114.0843-114.0842 -68.7227 -68.7218 -68.7206 -68.7204 -68.7201 -68.7199
    -8.4251  -8.1736   2.6754   2.7816   3.1098   3.1498   3.2611   3.2986
     3.9862   4.0276   4.1183   4.1789   5.4941   6.1719   6.7070   7.2100
     7.7266   7.7861  12.5014  14.1724  17.1263  17.9328  19.4901  19.9939
    21.1136  22.1364  24.3141  25.7876  27.3720  29.2389  30.4472  30.6968

     occupation numbers 
     1.0000   1.0000   1.0000   1.0000   1.0000   1.0000   1.0000   1.0000
     1.0000   1.0000   1.0000   1.0000   1.0000   1.0000   1.0000   1.0000
     1.0000   1.0000   1.0000   1.0000   1.0000   1.0000   1.0000   1.0000
     1.0000   1.0000   0.0000   0.0000   0.0000   0.0000   0.0000   0.0000
     0.0000   0.0000   0.0000   0.0000   0.0000   0.0000   0.0000   0.0000

          k =-0.1000-0.4041 0.1033 (  6011 PWs)   bands (ev):

  -114.0843-114.0842 -68.7227 -68.7217 -68.7211 -68.7208 -68.7204 -68.7199
    -8.3319  -8.0229   2.7212   2.9537   3.1424   3.3260   3.5081   3.5221
     3.9165   4.0465   4.1659   4.3276   4.8998   5.5355   6.1325   6.5643
     7.6363   7.7128  13.0803  15.4305  16.6082  16.9722  19.0270  20.2791
    20.7560  22.4630  23.6379  26.0166  27.6693  29.2216  30.1529  31.9729

     occupation numbers 
     1.0000   1.0000   1.0000   1.0000   1.0000   1.0000   1.0000   1.0000
     1.0000   1.0000   1.0000   1.0000   1.0000   1.0000   1.0000   1.0000
     1.0000   1.0000   1.0000   1.0000   1.0000   1.0000   1.0000   1.0000
     1.0000   1.0000   0.0000   0.0000   0.0000   0.0000   0.0000   0.0000
     0.0000   0.0000   0.0000   0.0000   0.0000   0.0000   0.0000   0.0000

          k =-0.1000-0.4041 0.2066 (  6010 PWs)   bands (ev):

  -114.0842-114.0842 -68.7226 -68.7220 -68.7210 -68.7208 -68.7203 -68.7200
    -8.2642  -8.0855   2.6626   2.7823   3.1916   3.2940   3.3783   3.4271
     4.0072   4.0751   4.1427   4.2351   5.1355   5.5415   6.5467   6.8204
     7.4217   7.6290  13.3340  14.6666  16.8562  17.0805  18.9506  19.8768
    21.1615  22.3086  23.7057  25.7366  27.8396  29.4126  30.2990  30.9428

     occupation numbers 
     1.0000   1.0000   1.0000   1.0000   1.0000   1.0000   1.0000   1.0000
     1.0000   1.0000   1.0000   1.0000   1.0000   1.0000   1.0000   1.0000
     1.0000   1.0000   1.0000   1.0000   1.0000   1.0000   1.0000   1.0000
     1.0000   1.0000   0.0000   0.0000   0.0000   0.0000   0.0000   0.0000
     0.0000   0.0000   0.0000   0.0000   0.0000   0.0000   0.0000   0.0000

          k =-0.1000-0.5196 0.1033 (  6013 PWs)   bands (ev):

  -114.0842-114.0842 -68.7226 -68.7219 -68.7214 -68.7211 -68.7205 -68.7200
    -8.1958  -8.0050   2.7583   2.9787   3.1679   3.4690   3.5419   3.6166
     4.0118   4.0797   4.1913   4.3254   4.6976   5.1434   5.9992   6.3932
     7.3389   7.5266  13.9860  15.3740  16.1795  16.6976  18.6532  20.3782
    20.8809  22.0853  23.6527  26.6629  27.7485  29.1686  29.7548  32.5002

     occupation numbers 
     1.0000   1.0000   1.0000   1.0000   1.0000   1.0000   1.0000   1.0000
     1.0000   1.0000   1.0000   1.0000   1.0000   1.0000   1.0000   1.0000
     1.0000   1.0000   1.0000   1.0000   1.0000   1.0000   1.0000   1.0000
     1.0000   1.0000   0.0000   0.0000   0.0000   0.0000   0.0000   0.0000
     0.0000   0.0000   0.0000   0.0000   0.0000   0.0000   0.0000   0.0000

          k =-0.1000-0.5196 0.2066 (  6014 PWs)   bands (ev):

  -114.0842-114.0842 -68.7226 -68.7222 -68.7212 -68.7209 -68.7204 -68.7201
    -8.1515  -8.0411   2.6897   2.7879   3.2302   3.4301   3.4910   3.5034
     4.0688   4.1002   4.2002   4.2968   4.7422   5.0168   6.4336   6.8021
     7.2032   7.4921  13.9715  14.8488  16.4578  16.7443  18.5953  19.7515
    21.5459  22.1916  23.5198  25.7494  28.3809  29.3333  30.0891  31.2355

     occupation numbers 
     1.0000   1.0000   1.0000   1.0000   1.0000   1.0000   1.0000   1.0000
     1.0000   1.0000   1.0000   1.0000   1.0000   1.0000   1.0000   1.0000
     1.0000   1.0000   1.0000   1.0000   1.0000   1.0000   1.0000   1.0000
     1.0000   1.0000   0.0000   0.0000   0.0000   0.0000   0.0000   0.0000
     0.0000   0.0000   0.0000   0.0000   0.0000   0.0000   0.0000   0.0000

          k =-0.2000-0.4619 0.1033 (  6023 PWs)   bands (ev):

  -114.0842-114.0842 -68.7225 -68.7219 -68.7212 -68.7210 -68.7206 -68.7202
    -8.2010  -8.0026   2.8671   3.0098   3.2205   3.3493   3.5907   3.6123
     3.9189   4.0568   4.1996   4.4173   4.7370   5.3540   5.8156   6.2233
     7.1926   7.4333  14.1535  15.7518  16.6174  16.7932  18.6445  19.3508
    20.3971  22.6041  23.6191  26.2110  28.5907  29.8596  30.7335  31.0071

     occupation numbers 
     1.0000   1.0000   1.0000   1.0000   1.0000   1.0000   1.0000   1.0000
     1.0000   1.0000   1.0000   1.0000   1.0000   1.0000   1.0000   1.0000
     1.0000   1.0000   1.0000   1.0000   1.0000   1.0000   1.0000   1.0000
     1.0000   1.0000   0.0000   0.0000   0.0000   0.0000   0.0000   0.0000
     0.0000   0.0000   0.0000   0.0000   0.0000   0.0000   0.0000   0.0000

          k =-0.2000-0.4619 0.2066 (  6025 PWs)   bands (ev):

  -114.0842-114.0842 -68.7225 -68.7222 -68.7210 -68.7209 -68.7205 -68.7203
    -8.1552  -8.0404   2.8039   2.8777   3.1931   3.3109   3.4791   3.5021
     4.0072   4.0842   4.2140   4.3469   4.8934   5.2452   6.0893   6.6929
     6.9820   7.5056  14.2929  15.2549  16.7593  16.8988  18.1904  18.7174
    21.3202  23.0159  23.9277  25.5348  27.8750  28.9810  30.7050  31.3129

     occupation numbers 
     1.0000   1.0000   1.0000   1.0000   1.0000   1.0000   1.0000   1.0000
     1.0000   1.0000   1.0000   1.0000   1.0000   1.0000   1.0000   1.0000
     1.0000   1.0000   1.0000   1.0000   1.0000   1.0000   1.0000   1.0000
     1.0000   1.0000   0.0000   0.0000   0.0000   0.0000   0.0000   0.0000
     0.0000   0.0000   0.0000   0.0000   0.0000   0.0000   0.0000   0.0000

     highest occupied, lowest unoccupied level (ev):     8.5153    9.2230

!    total energy              =    -901.82266417 Ry
     estimated scf accuracy    <          4.7E-09 Ry

     The total energy is the sum of the following terms:
     one-electron contribution =    -626.69349997 Ry
     hartree contribution      =     330.08068042 Ry
     xc contribution           =    -105.07467291 Ry
     ewald contribution        =    -500.13517170 Ry

     convergence has been achieved in   9 iterations

     Writing output data file ./out/aiida.save/
 
     init_run     :      2.02s CPU      4.20s WALL (       1 calls)
     electrons    :     63.45s CPU     65.16s WALL (       1 calls)

     Called by init_run:
     wfcinit      :      1.91s CPU      4.07s WALL (       1 calls)
                                        4.07s GPU  (       1 calls)
     wfcinit:atom :      0.08s CPU      0.10s WALL (      72 calls)
                                        0.06s GPU  (      72 calls)
     wfcinit:wfcr :      1.68s CPU      3.86s WALL (      72 calls)
                                        3.83s GPU  (      72 calls)
     potinit      :      0.03s CPU      0.03s WALL (       1 calls)
     hinit0       :      0.03s CPU      0.03s WALL (       1 calls)

     Called by electrons:
     c_bands      :     59.22s CPU     60.83s WALL (       9 calls)
     sum_band     :      4.18s CPU      4.24s WALL (       9 calls)
     v_of_rho     :      0.02s CPU      0.02s WALL (      10 calls)
     v_h          :      0.00s CPU      0.00s WALL (      10 calls)
     v_xc         :      0.02s CPU      0.02s WALL (      10 calls)
     mix_rho      :      0.01s CPU      0.02s WALL (       9 calls)

     Called by c_bands:
     init_us_2_gp :      0.65s CPU      0.67s WALL (    1368 calls)
     cegterg      :     57.70s CPU     59.17s WALL (     648 calls)

     Called by sum_band:
     sum_band:wei :      0.00s CPU      0.00s WALL (       9 calls)
                                        0.00s GPU  (       9 calls)
     sum_band:loo :      4.16s CPU      4.22s WALL (       9 calls)
                                        4.22s GPU  (       9 calls)
     sum_band:buf :      0.24s CPU      0.26s WALL (     648 calls)
                                        0.03s GPU  (     648 calls)
     sum_band:ini :      0.29s CPU      0.62s WALL (     648 calls)
                                        0.61s GPU  (     648 calls)

     Called by *egterg:
     cdiaghg      :      7.84s CPU      9.02s WALL (    3182 calls)
                                        8.19s GPU  (    3182 calls)
     cegterg:over :      2.96s CPU      3.05s WALL (    2534 calls)
     cegterg:upda :      2.18s CPU      2.19s WALL (    2534 calls)
     cegterg:last :      0.65s CPU      0.66s WALL (    1569 calls)
     h_psi        :     25.43s CPU     27.79s WALL (    3254 calls)
                                       26.88s GPU  (    3254 calls)
     g_psi        :      0.01s CPU      0.81s WALL (    2534 calls)
                                        0.02s GPU  (    2534 calls)

     Called by h_psi:
     h_psi:calbec :      2.82s CPU      4.80s WALL (    3254 calls)
                                        3.78s GPU  (    3254 calls)
     vloc_psi     :     18.39s CPU     19.79s WALL (    3254 calls)
                                       18.87s GPU  (    3254 calls)
     add_vuspsi   :      0.15s CPU      1.17s WALL (    3254 calls)
                                        0.14s GPU  (    3254 calls)

     General routines
     calbec       :      2.82s CPU      3.84s WALL (    3254 calls)
     fft          :      0.01s CPU      0.01s WALL (      30 calls)
     ffts         :      0.01s CPU      0.01s WALL (       9 calls)
     fftw         :     15.90s CPU     21.83s WALL (   14940 calls)
                                       15.58s GPU  (   14940 calls)
 
     Parallel routines
 
     PWSCF        :   1m 6.14s CPU   1m10.50s WALL

 
   This run was terminated on:  14:55:18  16Mar2022            

=------------------------------------------------------------------------------=
   JOB DONE.
=------------------------------------------------------------------------------=
