
     Program PWSCF v.7.1 starts on  5Apr2024 at 13:46:32 

     This program is part of the open-source Quantum ESPRESSO suite
     for quantum simulation of materials; please cite
         "P. Giannozzi et al., J. Phys.:Condens. Matter 21 395502 (2009);
         "P. Giannozzi et al., J. Phys.:Condens. Matter 29 465901 (2017);
         "P. Giannozzi et al., J. Chem. Phys. 152 154105 (2020);
          URL http://www.quantum-espresso.org", 
     in publications or presentations arising from this work. More details at
     http://www.quantum-espresso.org/quote

     Parallel version (MPI), running on    16 processors

     MPI processes distributed on     1 nodes
     237191 MiB available memory on the printing compute node when the environment starts
 
     Reading input from pw_mp-10182_nscf_k1030_E67.in
Warning: card &IONS ignored
Warning: card / ignored
Warning: card &CELL ignored
Warning: card / ignored

     Current dimensions of program PWSCF are:
     Max number of different atomic species (ntypx) = 10
     Max number of k-points (npk) =  40000
     Max angular momentum in pseudopotentials (lmaxx) =  4

     Atomic positions and unit cell read from directory:
     out/mp-10182.save/
     Atomic positions from file used, from input discarded
 
 
     R & G space division:  proc/nbgrp/npool/nimage =      16
     Subspace diagonalization in iterative solution of the eigenvalue problem:
     one sub-group per band group will be used
     scalapack distributed-memory algorithm (size of sub-group:  4*  4 procs)

 
     Parallelization info
     --------------------
     sticks:   dense  smooth     PW     G-vecs:    dense   smooth      PW
     Min          66      66     19                 1446     1446     231
     Max          67      67     20                 1449     1449     234
     Sum        1069    1069    313                23169    23169    3719
 
     Using Slab Decomposition
 


     bravais-lattice index     =            2
     lattice parameter (alat)  =      10.7715  a.u.
     unit-cell volume          =     312.4400 (a.u.)^3
     number of atoms/cell      =            3
     number of atomic types    =            3
     number of electrons       =        28.00
     number of Kohn-Sham states=         1200
     kinetic-energy cutoff     =      67.0000  Ry
     charge density cutoff     =     268.0000  Ry
     Exchange-correlation= PBE
                           (   1   4   3   4   0   0   0)

     celldm(1)=  10.771484  celldm(2)=   0.000000  celldm(3)=   0.000000
     celldm(4)=   0.000000  celldm(5)=   0.000000  celldm(6)=   0.000000

     crystal axes: (cart. coord. in units of alat)
               a(1) = (  -0.500000   0.000000   0.500000 )  
               a(2) = (   0.000000   0.500000   0.500000 )  
               a(3) = (  -0.500000   0.500000   0.000000 )  

     reciprocal axes: (cart. coord. in units 2 pi/alat)
               b(1) = ( -1.000000 -1.000000  1.000000 )  
               b(2) = (  1.000000  1.000000  1.000000 )  
               b(3) = ( -1.000000  1.000000 -1.000000 )  


     PseudoPot. # 1 for Li read from file:
     /usr/scratch4/magr4985/FGWC/FGWC/pseudo/SG15/Li.upf
     MD5 check sum: c91dd4cee9943b136ac3b62641658f95
     Pseudo is Norm-conserving, Zval =  3.0
     Generated using ONCVPSP code by D. R. Hamann
     Using radial grid of  602 points,  4 beta functions with: 
                l(1) =   0
                l(2) =   0
                l(3) =   1
                l(4) =   1

     PseudoPot. # 2 for P  read from file:
     /usr/scratch4/magr4985/FGWC/FGWC/pseudo/SG15/P.upf
     MD5 check sum: 0688a67b2b263c6b42d3d97c42745426
     Pseudo is Norm-conserving, Zval =  5.0
     Generated using ONCVPSP code by D. R. Hamann
     Using radial grid of  602 points,  4 beta functions with: 
                l(1) =   0
                l(2) =   0
                l(3) =   1
                l(4) =   1

     PseudoPot. # 3 for Zn read from file:
     /usr/scratch4/magr4985/FGWC/FGWC/pseudo/SG15/Zn.upf
     MD5 check sum: 732f41c0cd6489a4b50a33b4ec99a2d3
     Pseudo is Norm-conserving, Zval = 20.0
     Generated using ONCVPSP code by D. R. Hamann
     Using radial grid of  602 points,  6 beta functions with: 
                l(1) =   0
                l(2) =   0
                l(3) =   1
                l(4) =   1
                l(5) =   2
                l(6) =   2

     atomic species   valence    mass     pseudopotential
        Li             3.00     6.94100     Li( 1.00)
        P              5.00    30.97380     P ( 1.00)
        Zn            20.00    65.40900     Zn( 1.00)

     24 Sym. Ops. (no inversion) found



   Cartesian axes

     site n.     atom                  positions (alat units)
         1           Li  tau(   1) = (  -0.7500000   0.7500000   0.7500000  )
         2           Zn  tau(   2) = (  -0.2500000   0.2500000   0.2500001  )
         3           P   tau(   3) = (   0.0000000   0.0000000   0.0000000  )

     number of k points=    29  Gaussian smearing, width (Ry)=  0.0005
                       cart. coord. in units 2pi/alat
        k(    1) = (   0.0000000   0.0000000   0.0000000), wk =   0.0039062
        k(    2) = (  -0.1250000   0.1250000  -0.1250000), wk =   0.0312500
        k(    3) = (  -0.2500000   0.2500000  -0.2500000), wk =   0.0312500
        k(    4) = (  -0.3750000   0.3750000  -0.3750000), wk =   0.0312500
        k(    5) = (   0.5000000  -0.5000000   0.5000000), wk =   0.0156250
        k(    6) = (   0.0000000   0.2500000   0.0000000), wk =   0.0234375
        k(    7) = (  -0.1250000   0.3750000  -0.1250000), wk =   0.0937500
        k(    8) = (  -0.2500000   0.5000000  -0.2500000), wk =   0.0937500
        k(    9) = (   0.6250000  -0.3750000   0.6250000), wk =   0.0937500
        k(   10) = (   0.5000000  -0.2500000   0.5000000), wk =   0.0937500
        k(   11) = (   0.3750000  -0.1250000   0.3750000), wk =   0.0937500
        k(   12) = (   0.2500000   0.0000000   0.2500000), wk =   0.0468750
        k(   13) = (   0.0000000   0.5000000   0.0000000), wk =   0.0234375
        k(   14) = (  -0.1250000   0.6250000  -0.1250000), wk =   0.0937500
        k(   15) = (   0.7500000  -0.2500000   0.7500000), wk =   0.0937500
        k(   16) = (   0.6250000  -0.1250000   0.6250000), wk =   0.0937500
        k(   17) = (   0.5000000   0.0000000   0.5000000), wk =   0.0468750
        k(   18) = (   0.0000000   0.7500000   0.0000000), wk =   0.0234375
        k(   19) = (   0.8750000  -0.1250000   0.8750000), wk =   0.0937500
        k(   20) = (   0.7500000   0.0000000   0.7500000), wk =   0.0468750
        k(   21) = (   0.0000000  -1.0000000   0.0000000), wk =   0.0117188
        k(   22) = (  -0.2500000   0.5000000   0.0000000), wk =   0.0937500
        k(   23) = (   0.6250000  -0.3750000   0.8750000), wk =   0.1875000
        k(   24) = (   0.5000000  -0.2500000   0.7500000), wk =   0.0937500
        k(   25) = (   0.7500000  -0.2500000   1.0000000), wk =   0.0937500
        k(   26) = (   0.6250000  -0.1250000   0.8750000), wk =   0.1875000
        k(   27) = (   0.5000000   0.0000000   0.7500000), wk =   0.0937500
        k(   28) = (  -0.2500000  -1.0000000   0.0000000), wk =   0.0468750
        k(   29) = (  -0.5000000  -1.0000000   0.0000000), wk =   0.0234375

     Dense  grid:    23169 G-vectors     FFT dimensions: (  40,  40,  40)

     Estimated max dynamical RAM per process >     143.08 MB

     Estimated total dynamical RAM >       2.24 GB

     The potential is recalculated from file :
     out/mp-10182.save/charge-density

     Starting wfcs are random

     Band Structure Calculation
     Davidson diagonalization with overlap

     ethr =  5.00E-06,  avg # of iterations =  7.5

     total cpu time spent up to now is      561.0 secs

     End of band structure calculation

          k = 0.0000 0.0000 0.0000 (  2891 PWs)   bands (ev):

  -117.5714 -71.7284 -71.7284 -71.7284 -37.3602  -3.1623   1.2546   1.2546
     1.2546   1.5019   1.5019   8.4379   8.4379   8.4379  10.0764  11.6553
    11.6553  11.6553  17.4551  17.4551  18.1134  18.2497  18.2497  18.2497
    24.7418  30.2295  30.2295  30.2295  30.7762  30.7762  30.7762  33.2324
    33.2324  35.5970  35.5970  35.5970  43.3742  43.3742  43.3742  44.0741
    44.0741  45.3883  45.3883  45.3883  46.7987  48.5902  48.5902  48.5902
    49.1190  49.1190  49.1190  49.7514  49.7514  49.7514  50.0140  50.0140
    50.0797  50.5355  50.5355  50.5355  54.0987  54.0987  54.0987  54.2424
    55.8109  55.8109  55.8109  62.6105  65.5369  68.2455  68.2455  68.5716
    68.5717  68.5717  72.6767  72.6767  72.6767  77.3526  77.7056  77.7056
    79.3859  79.3859  79.3859  81.7513  81.7513  81.7513  83.0378  83.0378
    83.0378  83.8981  83.8981  83.8981  85.6131  85.6131  86.2130  86.2130
    86.2130  88.4524  88.4524  88.4524  88.6907  88.6907  88.7656  90.4491
    90.4491  90.4491  91.1059  91.1059  91.1059  92.0036  92.0036  92.0036
    92.9245  92.9245  92.9575  92.9575  92.9575  93.0388  93.0388  93.0388
    93.2446  96.8272  99.9897 101.2280 101.2280 101.2280 103.9168 103.9168
   103.9168 104.0409 104.0409 105.0884 106.8798 106.8798 106.8798 107.9552
   107.9552 107.9552 108.5748 108.5748 108.5748 108.7189 108.7189 108.7189
   109.4606 109.4606 111.6266 117.1104 117.1104 117.9595 118.6375 118.6375
   118.6375 119.9432 119.9432 119.9432 120.7924 121.6128 121.6128 121.6128
   122.1933 122.1933 122.7415 122.7415 122.7415 122.8155 122.8155 122.8155
   123.4038 123.4038 123.4038 124.0380 124.0380 124.0380 126.9342 126.9342
   126.9342 132.0133 133.8229 134.8015 134.8015 134.8015 137.7830 137.7830
   138.3048 138.3049 138.3049 141.3169 145.5605 145.5605 145.5605 148.8668
   148.8668 149.2664 149.2664 149.2664 150.0365 150.0365 150.0365 151.0597
   151.6358 151.6358 151.6358 153.7545 153.7545 153.7545 154.1825 154.1825
   154.1825 155.7549 155.7549 156.7514 156.7514 156.7514 157.3178 158.2430
   158.2430 158.4000 158.4000 158.4000 158.7194 158.7194 158.7194 158.9692
   158.9692 158.9692 159.4917 159.4917 159.4917 159.9294 159.9294 160.4279
   160.5728 160.5728 160.5728 161.0505 161.0505 161.0505 161.1112 161.2591
   161.2591 161.2591 161.5596 162.6608 162.6608 162.6608 163.5256 163.5256
   165.1593 165.1593 165.1593 165.1668 165.1668 165.1668 165.3357 165.3357
   165.7347 165.7347 165.7347 166.7607 166.7607 166.7607 166.8813 167.0239
   167.0239 171.7588 171.7588 171.7588 176.5167 176.5167 176.5617 176.5617
   176.5617 179.9081 180.6917 180.6917 180.6917 181.0232 181.0232 181.0232
   181.0426 181.0426 181.0426 181.7483 182.1659 182.1659 182.1659 184.4818
   184.4818 184.5663 184.5663 184.5663 184.6928 188.6310 188.6310 188.6310
   191.3300 191.3300 191.3300 191.4018 192.0537 192.0537 192.5326 192.5326
   192.5326 193.2405 193.2405 193.2405 193.7681 193.7681 193.7681 195.0378
   195.0378 195.0378 196.7489 196.7489 199.1845 199.1845 199.1845 199.9705
   199.9705 200.2690 200.2690 200.2690 200.3249 200.4712 200.4712 200.4712
   201.3296 201.3296 201.3296 201.9681 201.9681 201.9681 202.7792 202.7792
   206.1777 207.3686 207.3687 207.3687 212.9101 214.1902 214.1902 214.1902
   215.2610 215.2610 215.2610 216.4344 218.0485 218.0485 219.5153 220.9147
   220.9148 220.9148 220.9376 220.9376 220.9376 221.5314 221.5314 221.5314
   225.8008 225.8008 226.1545 226.1545 226.1546 227.1394 227.1394 227.1394
   227.5499 227.9237 227.9237 227.9237 228.3426 228.3426 229.4229 231.6779
   232.3826 232.3826 232.3826 232.9619 232.9619 232.9619 233.0007 233.0007
   233.0007 233.1431 233.1431 233.1431 233.6200 233.6200 233.6200 234.3207
   234.3207 234.5173 234.5173 234.5173 237.5220 237.5220 237.5220 237.6020
   237.6020 237.6020 237.6557 237.6557 237.6557 237.6845 237.6845 237.7507
   237.7507 237.7507 237.8733 239.2623 239.2623 239.2623 240.7381 240.9504
   240.9504 240.9504 241.0626 241.0626 243.1511 246.2752 246.2752 246.2752
   247.3604 247.3604 247.3604 248.2311 248.2311 248.2311 249.8533 249.8533
   249.8533 249.8686 249.8686 249.8686 251.1877 251.1877 251.6937 251.6937
   253.2487 253.2487 253.2487 253.3760 254.6826 254.6826 255.4881 255.4881
   255.4881 255.5937 255.5937 255.5937 255.9900 255.9900 255.9900 256.8204
   256.8204 256.8204 257.3648 257.3648 257.4990 258.2584 258.2584 258.2584
   258.6637 258.6637 258.6637 258.9482 259.6499 261.8637 262.5199 262.5199
   262.5199 263.6495 263.6495 263.6495 264.1329 264.1329 264.3417 264.3417
   264.3417 265.0779 265.0779 265.0779 265.1582 265.1808 265.1808 265.1808
   265.3579 265.3579 265.3579 269.6322 269.6322 269.7237 269.7237 269.7237
   269.7661 269.7661 269.7661 270.4071 270.4071 270.4071 270.6066 270.6066
   270.6066 270.6125 270.6125 270.6885 270.6999 270.6999 270.6999 270.9431
   270.9431 270.9431 271.0629 271.0629 271.0629 271.3530 271.3530 271.5354
   271.5354 271.5354 271.5484 271.5484 271.5484 271.6987 271.8077 271.8077
   271.8673 271.8673 271.8673 275.8131 275.8131 278.2694 278.2694 278.2694
   284.7410 284.7410 284.7410 284.8313 288.7449 288.7449 288.7449 289.6693
   290.0821 290.0821 295.3122 296.5555 296.5555 296.5555 297.9111 297.9111
   297.9111 298.8211 298.8211 300.0325 300.0325 300.0325 300.4057 300.4057
   300.4057 300.7012 301.5111 301.5111 301.5111 302.4166 302.8025 302.8025
   302.8025 303.9539 303.9539 303.9539 304.2305 304.2305 305.4102 309.2156
   309.2156 309.2156 309.6488 309.6488 310.2749 310.2749 310.2749 310.2970
   310.2970 310.2970 310.4373 310.4373 310.4373 311.7447 311.7447 311.7447
   312.4308 312.4308 312.4308 312.5976 312.5976 312.6771 312.6771 312.6771
   312.8524 312.8524 312.8524 313.4748 313.4748 313.4748 313.8860 313.8860
   313.9230 313.9230 313.9230 313.9951 314.8700 314.8700 315.1255 315.2760
   315.2760 315.2760 319.9053 319.9053 319.9054 322.9443 322.9443 322.9443
   323.2362 323.2362 324.2159 324.2159 324.2159 325.4147 326.6150 326.6150
   327.0891 327.0891 327.0891 327.1515 327.1515 327.1515 327.8337 327.8337
   327.8337 327.8971 327.8971 327.8971 328.2742 328.2742 328.2742 329.2831
   329.8745 329.8745 329.8745 330.0046 330.0046 331.0738 331.9172 331.9172
   331.9172 332.0192 335.2919 335.2919 335.2919 335.9402 335.9402 335.9402
   337.1449 338.0770 338.0770 338.0770 338.2173 338.2173 338.6814 338.6814
   338.6814 338.7357 338.7357 338.7357 339.0819 341.2064 341.2064 343.2132
   343.2132 343.2132 343.2646 343.2646 343.4040 343.4040 343.4040 343.4941
   343.4941 343.4941 343.5517 343.6331 343.6331 343.6332 343.9662 343.9662
   343.9662 344.1716 344.1716 344.1716 344.3586 346.1312 346.1312 346.1312
   346.1748 346.6804 346.6804 347.2718 347.2718 347.2718 347.3997 347.3997
   347.3997 348.1720 348.1720 348.1720 348.1967 348.1967 348.2063 348.2063
   348.2063 348.3487 349.0651 349.0651 349.0651 352.8046 352.8046 356.8464
   356.8464 356.8464 359.2325 360.4093 360.4093 360.4093 361.5168 361.5168
   362.9790 362.9790 362.9790 363.5144 364.1546 364.1546 364.1546 364.5240
   364.5240 364.5240 364.9401 364.9401 364.9401 365.2835 365.2835 365.2835
   365.3569 365.3569 365.5923 365.5923 365.5923 365.7721 366.6629 368.0170
   368.0170 368.0170 369.9948 369.9948 369.9948 370.3413 370.3413 370.5210
   371.0747 371.0747 371.0747 371.8138 371.8138 371.8138 372.2922 372.2922
   372.2922 372.8245 374.0364 374.0364 375.0580 375.0580 375.0580 375.2136
   375.2136 375.2136 375.5894 375.5894 377.9329 377.9330 377.9330 378.6825
   378.6825 378.6825 379.1780 379.1780 379.1780 379.2448 379.2945 379.2945
   379.4515 379.4515 379.4515 379.8873 379.8873 379.8873 379.9071 379.9071
   381.4899 381.4899 381.4899 381.6790 381.6790 381.6790 381.7258 381.7258
   381.7722 381.7722 381.7722 381.8638 381.9273 381.9273 381.9273 381.9890
   382.1672 382.1672 382.1672 382.4130 382.4130 382.4130 382.6864 382.9502
   382.9502 382.9502 383.1345 383.1345 383.1345 383.5396 383.5396 383.5396
   383.5893 383.5893 383.5893 383.7605 383.7605 386.2509 386.2509 386.5027
   386.5027 386.5027 387.0425 387.0577 387.0577 387.0577 387.3180 387.3180
   387.3180 387.4814 387.4814 387.4814 387.7102 387.7102 387.7102 387.9293
   387.9293 388.1264 388.1265 388.1265 388.2765 388.6872 388.6872 388.6872
   390.0966 391.8908 391.8908 391.8908 392.8835 400.7268 400.7268 404.1415
   404.1415 404.1415 404.3249 404.3249 404.3249 404.4771 404.4771 404.4771
   404.5263 404.5263 404.6605 404.6605 404.6605 405.4295 405.4295 408.4100
   408.4100 408.4100 408.7451 409.1019 409.1019 409.1019 410.0398 410.0398
   410.4346 410.7976 410.7976 410.7976 411.8538 411.8538 411.8538 411.9921
   411.9921 411.9921 412.1490 412.1490 412.1490 417.5477 417.5477 417.5477
   418.0366 418.0366 418.0366 418.1926 418.1926 418.1926 418.2263 418.2263
   418.3006 418.3006 418.3006 418.3223 418.3992 418.3992 418.3992 419.0506
   419.0506 419.1688 419.1688 419.1688 419.3018 424.4865 424.4865 424.4865
   429.5439 429.5439 430.3940 431.2729 431.2729 431.2729 432.4010 433.1642
   433.1642 433.1642 434.7821 434.7821 434.7821 435.5311 435.5312 435.5312
   436.0239 436.0239 436.0239 436.0270 436.0271 436.1685 436.1685 436.1685
   438.0510 438.0510 438.1472 439.3776 439.3776 439.3776 441.3050 441.5687
   441.5688 441.5688 443.2833 443.2833 443.2833 444.4051 444.4051 444.4051
   444.4834 444.4834 445.1210 446.9085 446.9085 446.9085 447.4097 447.7468
   447.7468 447.7468 448.7793 448.7793 448.7793 449.4996 449.4996 450.5192
   450.5192 450.5192 451.4286 451.4286 451.8527 451.8527 451.8527 451.9304
   452.0924 452.0924 452.0924 452.2234 452.2518 452.2518 452.2518 452.7909
   452.7909 452.7909 452.8955 452.8955 452.8955 454.2075 454.2075 454.4528
   454.4528 454.4528 454.6723 455.7101 455.7101 455.7326 455.7326 455.7326
   455.8259 455.8259 455.8259 455.8288 455.8288 455.8288 455.8371 455.8371
   455.9168 455.9168 455.9168 458.0916 458.0916 458.0916 458.1669 458.4010
   458.4010 458.4010 458.7284 458.7284 459.1926 459.1927 459.1927 459.4483
   459.4616 459.4616 459.4616 459.4786 459.4786 459.4786 459.5478 459.5478
   459.5590 459.5590 459.5590 462.5699 462.5699 464.1395 464.9726 464.9726
   464.9726 466.6961 466.6961 466.6961 468.7706 468.7706 468.7706 469.3434
   469.3434 469.4973 469.4973 469.4973 470.0170 472.2996 472.3644 472.3644
   472.3644 472.7800 472.7800 472.7800 472.9912 472.9912 473.0340 473.0340
   473.0340 474.8030 474.8030 474.8030 475.3909 475.3909 475.3909 475.4713
   475.4713 475.4713 476.2787 476.2787 476.3178 476.7190 476.7190 476.7190
   477.5581 477.5581 477.5581 477.5875 477.5875 477.5875 477.9291 477.9291
   477.9291 478.7346 478.7346 478.7786 478.7786 478.7786 478.8838 478.8838
   478.8838 478.9566 478.9566 478.9566 479.0314 479.6492 479.6492 479.6492
   480.5350 480.5350 480.6630 480.6630 480.6630 480.7024 480.7024 480.7382
   482.2956 485.1627 485.1627 485.1627 485.2582 486.7491 486.8462 486.8462
   486.8462 487.0350 487.0350 487.0350 487.5504 487.5504 487.5504 487.8146
   487.8146 487.8146 487.8895 487.8895 488.6465 488.9215 488.9215 488.9215
   489.3409 489.3409 489.3409 489.3584 489.3584 489.4176 489.4176 489.4176
   489.8067 489.8067 489.8067 489.8445 489.8445 489.8917 489.8917 489.8917
   489.9096 490.1468 490.1468 490.1468 490.2668 490.2668 490.2668 490.5610
   490.5610 490.5610 490.7800 490.7800 490.7801 491.1326 491.1326 491.3550

          k =-0.1250 0.1250-0.1250 (  2848 PWs)   bands (ev):

  -117.5714 -71.7284 -71.7284 -71.7284 -37.3601  -3.0342   1.2576   1.2675
     1.2675   1.4989   1.4989   7.0555   8.2072   8.2072  10.5514  12.0127
    12.0127  12.5030  16.3325  16.3325  17.4085  19.6282  19.9954  19.9954
    24.9029  27.9333  28.2756  28.2756  31.3071  31.3071  32.8162  32.8162
    33.0938  35.7812  37.4906  37.4906  40.9472  42.1999  42.1999  42.9180
    42.9180  44.6990  44.6990  45.5135  46.5183  46.7599  46.7599  46.9581
    48.0249  48.4504  48.4504  49.4586  50.4979  50.6075  50.6075  51.6686
    51.6686  52.2541  53.2646  53.2646  53.7873  55.1716  55.1716  55.5015
    57.6920  57.6920  59.0818  63.2779  65.0390  65.4958  65.4958  68.6803
    68.6803  69.2499  70.8552  72.6048  72.6048  76.7759  76.7759  78.2061
    78.3038  78.3038  79.0358  80.6951  80.9857  80.9857  81.7273  81.7273
    82.3838  83.2126  83.2126  84.2613  84.6460  84.6460  85.2793  85.8883
    85.8883  86.0784  86.9092  86.9092  87.8817  89.4395  89.4395  89.9067
    90.1190  90.1190  90.6299  91.0816  91.0967  91.0967  93.3694  93.3694
    93.7624  94.5592  94.7231  94.7231  96.4753  96.4753  97.8378  98.6209
    98.6209  98.9558  99.1186  99.1186  99.3326 100.2733 100.2733 100.6753
   103.0730 103.1251 103.1251 103.8107 104.4187 104.4187 105.7454 107.3866
   107.3866 108.8433 109.1614 109.1614 111.3259 111.6346 111.6346 111.9858
   112.2054 112.5106 113.6942 113.6942 115.3811 115.9735 115.9735 116.6137
   116.6137 117.3100 117.7797 117.7797 118.2194 118.6289 118.6289 120.5116
   120.5116 120.9051 122.9159 123.5905 123.5905 124.0044 125.0153 125.0153
   127.9345 127.9410 127.9410 128.6654 128.9076 128.9076 130.1860 130.1975
   130.1975 131.0118 131.0118 133.0129 133.6256 135.2979 136.1950 136.1950
   138.3688 140.6135 141.3693 141.3693 142.9148 142.9148 144.2976 145.3862
   145.3862 147.1000 147.3225 147.3225 147.4384 148.3610 148.3610 149.8868
   149.8868 150.0487 150.9477 151.2466 151.2466 151.9489 152.5299 152.7613
   153.2351 153.2351 153.5591 153.5591 154.4041 154.4041 155.1402 155.1540
   155.1540 155.8810 156.0780 156.0780 156.6247 157.2087 157.2087 157.3760
   158.5485 158.5485 158.7725 159.8010 159.8010 160.3489 160.4620 160.4620
   160.7600 161.0030 161.0030 161.5937 162.5191 162.5191 163.1099 163.1099
   163.1687 163.5944 163.5944 163.9023 164.5402 164.9416 164.9416 166.2789
   166.2789 166.3280 167.6447 167.6695 167.6695 167.6781 168.2552 168.3974
   168.3974 169.4422 169.4422 170.8580 171.5617 171.5617 171.7690 171.7690
   171.8083 172.7256 173.2125 173.7017 173.7017 174.2209 174.2209 174.6497
   175.9348 176.0515 176.0515 177.4365 177.4365 178.6658 178.6658 178.9578
   179.3873 179.3873 181.0785 181.6396 182.3292 182.3292 185.1961 186.3849
   186.3849 186.6270 187.1139 187.3856 187.3856 188.1702 188.1702 188.3366
   188.8066 188.8066 189.7861 189.7861 190.3551 191.7259 191.7259 192.5200
   192.5603 192.5603 192.9424 193.7777 193.7777 193.9564 194.1521 194.7188
   194.7188 195.3612 196.1142 196.1142 197.2248 197.2248 198.2362 199.1570
   199.8039 200.0231 200.0231 201.2874 201.6671 201.6671 202.3821 202.9380
   202.9380 206.1297 206.1297 206.1705 207.0720 207.4855 207.4855 207.7982
   208.4387 208.4387 209.6881 210.0536 210.0536 211.1472 212.4515 212.4515
   213.5903 213.5903 215.1086 215.4204 215.4204 216.9395 217.7811 217.7811
   219.3934 219.3934 219.4268 219.9897 220.5850 220.5850 220.7099 221.8863
   222.1186 222.1186 224.5661 224.5661 224.7148 224.9985 225.4788 225.4789
   226.0676 226.3390 226.3390 226.5591 226.6193 226.7708 226.7708 227.6194
   227.6194 227.9914 228.4485 230.0323 230.0323 230.6093 231.6911 231.6911
   232.6694 232.9345 232.9345 233.6509 233.9143 233.9143 235.3318 235.3318
   236.1178 236.1178 236.1258 236.1677 237.0197 237.1100 237.1100 237.8539
   238.2518 238.2518 238.8195 238.8195 239.1907 239.9835 240.4442 240.4442
   241.4640 241.4640 241.5015 241.8570 241.8570 242.3372 242.3372 242.4210
   242.7306 243.2509 243.2509 243.3993 244.3853 244.5538 244.5538 244.9318
   245.1650 245.1650 246.3941 247.1580 247.1580 248.6989 248.6989 249.2641
   249.3534 249.3534 249.3701 249.5963 250.1730 250.1730 250.6673 251.1716
   251.3688 251.3688 252.8538 252.8538 253.2435 253.3931 253.3931 253.6144
   253.6144 253.7817 254.7102 255.5758 255.5758 255.9323 256.1593 256.5263
   256.5263 256.8345 256.9392 256.9392 257.2686 257.3429 257.3430 258.0870
   258.0870 258.5237 258.5237 258.7284 258.7578 259.4901 259.4901 261.2967
   261.2967 261.3546 262.3566 262.3566 262.7099 263.5450 263.5450 263.5915
   263.5915 263.7660 263.8401 264.3377 264.3728 264.3728 265.7677 265.7677
   265.8016 265.9885 266.1820 266.1820 267.2115 267.2980 267.2980 267.8062
   267.8836 267.8836 268.1202 268.4402 268.4402 269.8705 270.0328 270.0328
   271.1030 271.1030 272.1056 272.4240 272.6496 272.6496 273.4728 274.4392
   274.4803 274.4803 274.8417 274.8417 275.0736 276.2345 276.4543 276.4543
   277.7051 277.7051 278.0068 278.4710 278.4710 278.5016 279.8343 279.8343
   279.9928 280.2354 280.2354 280.2371 281.2977 281.3554 281.3554 283.6257
   283.6257 284.0545 285.8812 285.8812 286.2220 286.3159 286.3159 288.6519
   288.6519 290.9285 291.4870 291.4870 292.5856 293.2892 293.4972 294.1361
   294.1361 295.6747 295.6747 296.4759 296.9222 296.9222 297.6102 298.5587
   298.5587 299.6285 299.6285 300.4141 300.5783 300.5783 300.8309 302.0814
   302.0814 302.4516 302.6778 303.3299 303.3299 304.1582 304.2301 304.2301
   305.6027 305.6827 305.6827 306.1077 306.1077 306.2571 307.1015 307.1015
   308.2201 308.8788 308.9139 308.9139 309.5745 310.1513 310.1764 310.1764
   311.3871 311.3871 312.5124 312.7232 312.7232 313.3818 314.5259 314.7752
   314.7752 315.5639 315.5639 316.3003 316.3003 316.3943 317.2081 317.2325
   317.2325 317.4160 318.3608 318.3608 318.6307 319.1175 319.1175 319.7093
   320.0465 320.1234 320.1234 320.2671 320.5809 320.5809 320.7002 320.9485
   320.9485 321.6278 323.2684 323.7331 323.7331 323.9727 323.9727 323.9732
   324.3458 324.3458 324.5661 324.5760 324.5760 325.2334 326.3386 326.3386
   327.5787 327.5787 328.8349 328.8529 328.8529 329.0949 329.2519 329.2519
   330.7126 330.7709 330.7709 331.1573 331.3064 331.3064 331.6080 331.7045
   332.1023 332.1023 332.8377 333.0147 333.0147 335.2965 335.3557 335.3557
   336.0542 336.0542 336.6512 337.0302 337.0844 337.0844 337.6710 337.8627
   337.8627 338.1103 338.1103 338.4788 338.6879 338.6879 339.9328 341.3810
   341.3810 341.4074 342.0668 342.0668 342.4263 342.7981 342.9232 342.9232
   343.0855 343.0855 343.1493 344.4887 344.7213 344.7213 345.2645 345.3371
   345.3371 345.4412 346.0909 346.0909 346.6526 346.6724 346.6724 346.6825
   347.6511 347.6511 348.6630 349.4912 349.4912 350.3127 350.3127 350.4474
   350.6776 350.6776 350.8642 351.1667 351.2120 351.2120 351.7648 352.6588
   352.6588 353.0434 355.0887 355.0887 355.1370 356.1227 356.1227 356.6057
   356.6057 356.6191 357.8292 358.1136 358.1136 358.6729 358.6729 359.1415
   359.1465 359.4793 359.4793 360.1443 360.4201 360.6736 360.6736 361.0932
   361.6376 361.6376 362.8158 362.9884 362.9884 363.4152 363.5530 363.5530
   363.9912 364.1833 364.1833 365.5579 365.9521 365.9521 366.3935 366.4554
   366.4554 367.1034 367.1034 367.7461 367.7901 367.7901 368.8067 368.8067
   368.9016 369.6271 369.6271 369.6443 370.8922 371.0279 371.0279 371.0497
   371.4756 371.4756 371.6169 371.7231 371.7231 372.2878 372.4806 372.4806
   372.7444 372.7444 372.7767 372.7894 373.7924 373.7924 373.8145 374.1158
   374.7659 374.7659 375.3133 375.3799 375.3799 375.5085 376.6194 376.6194
   377.5124 377.8898 378.2248 378.2248 378.5843 378.5843 378.6159 379.2599
   379.2599 379.6119 379.6168 379.6168 379.8171 380.0642 380.0642 380.5919
   380.8911 381.0426 381.0426 381.4955 381.4955 382.1659 382.2596 382.6142
   382.6142 383.0279 383.7524 383.7524 384.7450 385.5080 385.5080 385.9278
   386.1777 386.1777 386.3196 386.3381 386.3381 387.1301 387.1301 387.7449
   387.9331 387.9331 388.7031 388.7031 388.7823 389.7695 389.7801 389.7801
   390.0720 390.4661 390.4661 391.7430 391.9161 391.9161 392.1260 392.3819
   392.3819 392.5884 393.2394 393.2394 393.6937 394.2568 394.2568 394.5631
   395.2290 395.2290 396.3154 396.3154 396.7169 397.0368 397.0368 397.4609
   397.5473 397.6146 397.6146 398.0095 398.0301 398.0301 398.1739 398.1739
   399.4746 399.7527 399.8233 399.8936 399.8936 400.2199 400.2199 400.8400
   400.8400 401.4751 403.5852 403.5852 403.7916 403.7916 403.8561 404.4431
   404.5087 404.7405 404.7405 407.6279 408.5575 408.5575 408.9765 408.9765
   409.0770 409.2104 409.2618 409.2618 409.4214 412.1378 412.1378 412.1929
   412.6869 412.6869 412.8004 412.9598 413.8514 413.8514 415.7960 415.8186
   415.8186 418.2555 418.2555 418.2763 419.0357 419.0357 419.7958 421.7888
   422.0097 422.0097 422.8206 422.8206 423.3108 423.3108 423.5168 424.3374
   424.3374 424.4288 424.8343 425.3712 425.3712 426.5186 426.5186 426.5430
   426.8459 428.9029 428.9029 429.2147 429.6288 429.6288 430.0996 430.0996
   430.1046 430.7147 431.2629 431.2629 432.3717 433.5250 433.6041 433.6041
   433.8534 433.8534 433.8689 434.4812 434.4812 434.8288 434.8288 435.3890
   435.9379 436.5724 436.5724 437.2288 437.2288 437.8301 439.4399 440.0055
   440.0055 440.6365 440.7024 440.7024 441.5442 441.5442 441.9435 441.9435
   442.2128 442.2431 442.8848 442.8848 443.3791 443.4357 443.4357 443.7673
   443.9045 443.9045 444.2370 444.5221 444.5221 445.2654 445.8354 446.0341
   446.0341 447.7563 447.8252 447.8252 448.2984 448.2984 448.6050 448.9367
   448.9367 449.5553 449.8272 449.9948 449.9948 450.6154 450.9073 450.9073
   451.0770 451.1357 451.1357 451.2307 453.1189 453.1189 453.1989 453.9477
   453.9477 455.1272 455.1272 455.2555 455.6209 455.8680 455.8680 457.2373
   457.3635 457.3635 457.5368 457.5368 457.8544 457.9562 457.9562 458.1443
   458.9994 459.1680 459.1680 459.2172 459.4867 459.4867 460.6438 460.6438
   460.7304 460.9334 460.9334 461.0010 461.7952 461.8030 461.8030 462.3627
   462.6190 462.6190 463.1082 463.3876 463.7202 463.7202 464.0555 464.0555
   464.3421 464.3470 464.3470 464.5706 464.5706 464.6281 465.0161 465.0260
   465.1717 465.1717 465.2741 465.7841 465.7841 466.6117 467.1756 467.1756
   467.4715 467.7212 468.0891 468.0891 468.9317 468.9317 469.4272 469.4272
   469.4829 470.3603 470.3603 470.3963 470.4406 471.1362 471.1362 472.1477
   472.1477 472.7673 472.8679 472.8679 472.9205 473.1849 473.1849 473.2532
   473.6597 473.6755 473.7048 473.7048 474.1448 474.1448 474.2273 474.6402
   474.6402 475.0003 475.2160 475.2160 475.5441 475.5441 475.6739 475.7980
   475.8852 475.8852 475.9834 476.0149 476.0149 476.1385 476.6195 476.6195
   477.2273 477.2273 477.6378 477.8685 477.8685 478.1218 479.4855 479.4855
   479.9398 480.7498 480.7498 480.9050 480.9932 480.9932 481.1154 481.2278
   481.2278 481.8556 482.6190 482.8648 482.8648 482.9985 483.6497 483.6497
   483.7280 483.7280 484.3960 484.3960 484.4377 484.6726 485.9659 486.1106
   486.1106 486.9861 487.0741 487.0741 487.2824 487.3457 487.3457 487.5988
   487.5988 487.8023 487.9095 487.9202 487.9202 488.2966 488.2966 488.3872
   488.7678 488.7678 488.8696 490.1809 490.1809 490.2445 490.6786 490.9107
   490.9107 491.0103 491.4431 491.4431 491.6326 491.6326 492.9937 493.0674
   493.5067 493.5068 493.6724 493.7552 493.7552 494.2087 494.2087 494.2374

          k =-0.2500 0.2500-0.2500 (  2884 PWs)   bands (ev):

  -117.5714 -71.7284 -71.7284 -71.7284 -37.3598  -2.6891   1.2917   1.2917
     1.3006   1.4997   1.4997   5.1397   7.7882   7.7882  10.6148  12.4856
    12.4856  14.1140  16.0006  16.0006  17.3871  21.5061  22.3866  22.3867
    24.2759  25.3839  25.3839  27.1148  31.6709  31.6709  33.0236  33.0236
    34.4356  36.3089  37.2354  37.2354  38.4687  39.8771  39.8771  42.2850
    42.6376  42.6377  43.9781  43.9781  44.3069  45.4925  46.2408  46.2408
    47.4337  48.5879  48.5879  50.3424  51.2170  51.8389  51.8389  53.3765
    53.3765  53.7157  56.0407  56.0407  57.8364  58.4600  59.9748  59.9749
    60.5674  61.1796  61.1796  62.7548  62.7548  62.7894  65.4230  65.4230
    67.0187  68.4812  70.1736  70.1736  70.8129  73.5659  73.5659  77.0461
    77.0461  77.2265  77.4520  78.4061  78.5389  78.5389  80.6147  80.6573
    80.6573  81.8575  81.8575  82.9555  84.5947  84.6213  84.6213  84.9905
    85.2793  85.2793  86.9918  86.9918  87.2326  89.1243  89.1243  89.9401
    89.9404  90.9596  90.9597  92.7050  92.7050  93.1841  93.8204  93.8204
    94.2639  96.4853  96.4853  96.5056  97.5221  97.5221  98.2998  99.2935
    99.5066  99.5066  99.9686 100.3778 100.3778 101.2635 103.5595 103.5702
   103.5702 104.2992 104.2992 105.0646 105.7983 105.7983 106.7537 106.8537
   106.8891 106.8891 108.7283 108.7283 108.9024 110.5716 110.5716 112.0961
   112.2635 112.3538 112.3538 112.9242 114.6181 114.6181 115.2041 115.8430
   115.8430 117.1696 117.1696 117.3498 117.3776 118.7337 118.7337 119.7994
   122.7109 122.7109 123.5107 125.6595 125.6595 127.4525 127.6002 127.6002
   128.2117 129.5603 130.1618 130.1619 132.4124 132.4124 133.7173 133.7173
   134.5461 134.8192 134.9142 134.9142 136.0789 136.0789 136.2306 137.2039
   137.2039 138.3257 138.8998 138.8998 139.4722 139.5774 140.3405 140.3405
   141.2658 142.1463 142.8315 143.1934 143.1934 143.8062 143.8062 145.1477
   145.6000 145.6000 147.1663 148.1104 148.1104 148.5916 148.5916 149.3200
   149.5198 151.1778 151.1778 152.1024 152.8710 152.8710 153.4748 153.4748
   153.5643 154.7911 154.7911 155.2430 155.7541 157.0293 157.5123 157.5123
   159.1627 159.1627 159.7824 159.9826 159.9826 160.0933 160.5579 160.5579
   161.3758 161.5994 161.5994 162.9708 163.1492 163.3246 163.3246 164.1077
   164.1077 164.1593 165.0491 165.1472 165.1472 166.2995 166.2995 168.2679
   168.4579 168.4579 169.0838 169.6899 169.6899 170.1594 170.7894 170.7894
   170.8791 171.3489 171.3489 172.2932 172.7236 172.7236 174.3373 174.6377
   174.6377 174.7766 174.9916 174.9916 175.6924 176.1368 176.1368 176.4356
   177.0493 177.0493 178.1147 178.1147 178.1488 179.3864 180.0017 180.0017
   180.5729 180.5729 181.4111 181.4589 181.4589 182.6419 182.8233 183.5786
   183.5786 183.8886 187.6630 187.6630 188.1014 188.4579 188.8960 188.8960
   189.3612 189.3612 189.6332 189.6766 189.6766 191.7515 191.7515 191.9935
   192.2952 192.6885 193.6955 193.6955 194.7450 194.7450 195.1873 197.1088
   197.1088 198.0688 198.6515 198.6515 199.8887 200.5338 200.5338 201.6918
   202.0247 202.0247 202.3315 202.4719 203.6909 203.6909 204.5576 205.1845
   205.1845 205.7505 206.1981 206.1981 206.9535 208.0621 208.0621 208.7431
   208.7431 209.9426 210.1148 210.1148 210.6220 211.5772 213.5171 213.7158
   213.7158 214.1625 214.4753 214.4753 215.0616 215.4382 215.4382 216.1395
   216.1395 216.3513 217.1831 217.1831 217.5447 217.7929 218.0399 218.0399
   219.0327 219.0327 220.2537 220.2537 220.7970 221.1238 221.4225 221.4225
   221.7879 222.3175 222.3175 224.1558 224.1558 224.3082 225.7649 225.7649
   226.2460 226.9689 226.9689 227.9223 228.0656 228.6670 228.6670 230.7643
   230.7643 231.2106 231.3888 233.2407 233.5068 233.5068 234.3242 234.3242
   235.2449 235.5805 235.5805 236.1543 236.1543 236.4707 236.5787 237.7246
   238.3281 238.3281 238.3871 238.7852 238.7852 240.0477 240.8115 240.8115
   241.3487 241.4320 241.4320 241.9066 241.9066 242.0463 242.7677 242.7677
   243.2431 243.2431 244.0037 244.1290 244.1290 244.9449 244.9468 245.2847
   245.2847 245.9378 245.9378 246.2223 246.4562 246.7555 246.7555 247.7981
   248.1070 248.1070 248.2075 249.1089 249.1854 249.1854 250.0087 250.0374
   250.0374 250.9506 251.0507 251.0507 251.9581 251.9795 251.9795 252.7281
   252.7281 253.1771 255.1873 255.1975 255.1975 256.0729 256.0729 256.3970
   256.7801 257.1546 257.1546 257.7337 257.7337 258.2861 258.6517 258.9098
   258.9098 259.4075 259.5731 259.5731 260.4271 261.0776 261.0776 261.5097
   261.6096 261.6111 261.6111 261.9244 261.9244 262.4280 263.0534 263.0534
   264.2390 264.2390 264.6045 264.9003 265.0099 265.0100 265.4302 265.4302
   265.5351 266.2858 268.5150 268.5150 269.2301 269.7938 269.8268 269.8268
   270.4935 270.4935 272.0449 272.9367 273.5463 273.5463 274.5995 274.5995
   275.1937 275.6603 275.8075 275.8075 277.1804 277.1804 277.4987 277.4987
   277.5365 277.5380 278.6467 278.6467 278.9129 278.9129 278.9145 279.0261
   280.2132 280.2132 280.3233 281.3468 281.3468 282.7447 282.7447 283.5931
   284.2765 284.2766 285.4777 285.4989 285.4989 285.7634 285.7634 285.8031
   286.6503 286.7657 288.1552 288.1552 289.3197 289.7083 289.7083 289.9166
   290.0711 290.0711 290.1330 290.7688 290.7688 290.7956 291.0608 291.0608
   291.9896 292.0872 293.0668 293.0668 294.9361 294.9578 294.9578 296.5740
   296.5740 297.4080 297.7764 297.7764 299.0680 299.1019 299.2932 299.2932
   299.5846 299.5846 299.8217 299.8217 299.8535 300.2626 300.2626 300.6602
   301.3314 301.6500 301.6500 302.4014 302.4014 303.1739 303.7674 303.7674
   304.7566 307.1613 307.3708 307.3708 307.8174 308.2839 308.2839 308.8561
   309.1658 309.4504 309.4504 310.8214 310.8214 310.8279 311.4822 311.4822
   312.0377 313.4817 313.4817 314.4189 314.4189 314.8423 315.5937 316.5266
   316.8620 316.8620 317.0032 317.2729 317.2729 317.8176 317.8176 318.0461
   318.8272 318.8272 319.2704 319.4298 319.4298 319.5382 321.0169 321.0169
   321.0336 321.6862 322.0350 322.0350 323.3770 323.6811 323.6811 324.1515
   324.3813 324.3813 325.6999 326.5080 326.5447 326.5447 326.7178 326.7178
   327.8406 327.8921 327.8921 328.2583 328.2583 328.6949 330.0854 330.0936
   330.0936 330.9767 331.5464 331.5464 332.2146 333.1821 333.7905 334.4878
   334.4878 335.2709 335.2709 335.9691 336.0012 336.0012 336.4492 336.4492
   336.4818 336.8902 336.8902 337.4593 337.4593 337.5254 337.9970 338.1915
   338.1915 338.6314 340.1372 340.1372 340.9307 341.3040 341.3040 341.4690
   342.2282 342.2282 342.3614 342.6474 342.6552 342.6552 344.0925 344.0925
   345.1876 345.3010 345.3010 345.7885 345.7885 345.8274 346.0863 346.0863
   346.6062 346.6062 347.0444 347.0444 347.0724 347.1017 347.8875 348.3662
   348.3662 348.4797 348.5347 348.8779 348.9185 348.9185 349.1964 349.1964
   349.4799 349.7934 349.7934 350.2373 350.2373 350.5621 351.8039 352.2182
   352.2182 353.1202 353.1202 353.7012 353.8111 353.8111 353.8526 354.0534
   354.6516 354.6516 355.2917 355.6124 355.6124 356.0893 356.1641 356.1641
   356.2929 356.2929 356.3027 356.6636 356.9869 356.9869 357.2151 357.2151
   357.3113 357.3366 359.4242 359.4242 360.4871 361.4888 361.4888 361.8353
   361.8422 361.8422 362.5932 363.4071 363.4071 363.7132 363.7424 363.9282
   363.9282 364.3866 365.9997 365.9997 366.3418 366.5978 366.5978 368.2034
   368.2034 368.3836 368.3836 368.4339 369.4299 369.4299 369.8889 369.8889
   369.9803 370.1067 371.0894 371.6176 371.6176 372.2937 372.2937 372.4141
   372.5690 372.8251 372.8251 373.1976 373.1976 373.5457 374.0932 374.0932
   374.4182 374.6182 374.6362 374.6362 375.0639 376.1491 376.1491 377.0335
   377.3929 377.3929 378.6634 378.6926 378.6926 379.4422 379.8392 379.9114
   379.9114 380.2855 380.2855 380.3992 380.5938 381.0957 381.0957 382.3139
   382.3139 383.1698 384.6167 384.6606 384.6606 385.1230 385.1230 386.4439
   386.6592 386.6592 387.8226 388.0992 388.0992 388.4822 388.5213 388.5213
   389.1632 389.1761 389.1761 389.5802 389.6767 389.6767 390.1265 390.4632
   390.9856 390.9856 391.6187 391.8948 391.8948 392.0212 392.2936 392.2936
   392.8783 392.8783 393.4407 394.0045 394.2021 394.5087 394.5087 395.4865
   395.4865 396.1671 396.2021 396.3069 396.3069 397.1840 397.1840 397.7538
   397.8127 398.0495 398.0495 398.5181 399.0039 399.0039 399.6403 399.6403
   400.2004 400.5966 400.6490 400.6490 400.9561 400.9561 401.2046 401.8521
   401.8521 401.9247 402.1743 402.6750 402.6750 403.3430 403.3430 403.5572
   403.6471 403.6471 404.7300 405.4720 407.0653 407.0653 407.6112 407.6112
   407.7872 407.8474 408.0618 408.0618 408.6577 408.6577 408.8962 409.2502
   409.4481 409.4481 410.8763 410.8763 411.8946 413.7446 413.7446 414.1623
   414.3951 414.3951 414.7058 415.8051 415.8051 416.7633 416.7633 416.9385
   417.1308 417.3541 417.3541 417.7156 417.7156 418.2978 418.8671 418.8671
   419.3331 420.5330 420.5330 420.5847 420.8895 420.8895 421.7029 421.7029
   421.7227 421.9930 424.8429 424.9460 424.9460 425.3939 425.3939 426.1847
   427.6827 427.7593 427.7593 428.2283 428.2283 428.2643 429.4514 429.4514
   429.6121 430.5790 430.5790 430.7355 430.8483 431.0329 431.0662 431.0662
   431.9089 431.9089 432.1974 432.3914 432.3914 432.7558 433.1769 434.1718
   434.1718 434.6167 434.6167 434.6350 435.9903 435.9903 436.2132 438.0488
   438.0488 438.2882 439.2152 439.2152 439.6535 440.1748 440.1748 440.6489
   440.6668 440.6668 441.5283 441.5520 441.5520 441.6282 441.6805 442.0357
   442.0357 442.4710 442.4710 442.5887 442.6604 442.6604 442.8150 443.0437
   443.0437 443.6992 443.6992 444.0111 445.0365 445.0365 445.2156 446.5022
   446.7657 446.7657 447.8386 448.1176 448.1176 448.9132 448.9481 448.9481
   449.1505 449.4043 449.4043 449.6064 450.0184 450.0871 450.0871 450.5790
   450.5790 450.7969 451.5140 451.5140 451.7012 451.7012 451.9772 452.0230
   453.6606 453.6606 454.4220 454.7849 454.7850 455.3248 455.3248 455.3350
   455.7945 455.7945 455.8111 456.0635 456.4585 456.4585 456.7111 457.1620
   457.1620 457.6275 457.7582 457.7582 457.8711 458.9010 458.9010 458.9976
   459.1624 459.1624 459.3289 460.5380 460.5380 460.9383 460.9383 461.0338
   461.4812 462.1719 462.3747 462.3747 462.3751 462.7762 462.7762 462.9282
   462.9282 463.3719 464.6020 464.6020 464.8249 465.5176 465.5176 465.5556
   465.5618 465.7101 465.7101 467.0059 467.0059 467.7290 468.1308 469.0555
   469.0555 470.0120 470.3517 470.3517 470.9673 471.0790 471.0790 471.2519
   471.6169 471.6169 471.9684 472.2251 472.2252 472.8108 472.9673 472.9673
   473.7166 473.7792 473.7792 473.8068 474.4419 474.4419 474.6896 474.6896
   474.8975 474.9998 475.3529 475.3529 475.7788 476.0019 476.0019 476.2451
   476.2451 476.2548 476.8791 477.5285 477.5285 478.2453 478.8278 478.8338
   478.8338 479.3597 479.3597 479.7773 479.9124 479.9124 479.9826 480.2679
   480.2679 480.4244 481.1968 481.1968 482.8006 483.2851 483.2851 483.5930
   483.5930 483.6844 483.6944 484.8714 484.8714 484.9186 484.9368 484.9368
   484.9639 485.1154 485.5988 485.5988 486.1112 486.1686 486.1686 486.2250
   486.8438 486.8438 487.5745 487.8632 487.8632 488.5364 488.5364 488.9154
   490.1243 490.8777 490.8777 491.6768 491.6935 491.6935 492.6156 492.6217
   492.6217 494.1040 494.1040 494.8716 494.9679 494.9679 495.1852 495.1852
   495.7213 495.7213 495.8803 496.1313 496.1313 496.6272 496.7852 496.8011
   496.8011 497.0375 497.0375 497.1526 497.3688 497.6428 497.9761 497.9761

          k =-0.3750 0.3750-0.3750 (  2890 PWs)   bands (ev):

  -117.5714 -71.7285 -71.7284 -71.7284 -37.3595  -2.2736   1.3027   1.3027
     1.4853   1.5154   1.5154   3.5229   7.4716   7.4716  10.5517  12.4307
    12.4307  15.2720  17.1831  17.1831  18.0837  21.8619  21.8619  21.8738
    24.0536  25.8535  25.8535  28.3956  31.6054  31.6054  33.2845  33.5884
    33.5884  34.2224  34.2224  37.0517  37.9304  38.1266  38.1266  38.5291
    41.3992  41.3992  42.2844  44.8381  46.1506  46.1506  47.4387  47.4387
    48.0589  48.0652  48.0652  50.7089  51.9231  53.6740  53.6740  55.4977
    56.0212  56.0212  58.8455  58.8455  59.1642  60.2499  60.2499  61.1984
    61.2757  61.2757  62.3148  63.9592  63.9592  64.6393  65.2418  66.0902
    66.0902  67.6893  67.6893  68.7522  69.7545  69.7545  72.4195  73.3359
    73.3359  73.8869  75.1937  75.4942  75.4942  77.6526  79.3820  80.4923
    80.4923  81.0510  81.8522  81.8522  84.4782  84.4782  85.4092  85.5223
    85.5223  85.8651  86.6741  86.6741  87.3287  88.1414  88.1414  89.4562
    89.7818  89.7818  90.6185  93.2371  93.9727  93.9727  94.4851  94.9210
    94.9210  95.8545  96.4818  97.5401  97.5401  98.5574  98.5574  99.6349
    99.6349  99.7519  99.8835 101.0963 101.1534 101.1534 103.3545 103.7456
   103.7456 105.9162 106.3095 106.3095 106.3693 107.4169 107.4169 107.6761
   108.0927 108.0927 108.4986 110.5195 110.5195 111.6104 111.6104 112.1694
   113.4480 113.4480 113.5656 114.1283 114.1283 114.3045 114.6996 115.5357
   115.5357 116.7628 116.7628 118.4367 120.3969 120.3969 121.2115 122.9285
   122.9986 123.2115 123.2115 125.0979 125.0979 125.6260 128.9603 129.1505
   129.1505 129.8685 129.8685 131.2722 131.2722 131.7927 131.9531 133.5671
   133.5671 133.8534 134.5106 134.5106 134.6801 135.6355 135.8936 135.8936
   136.6651 136.6651 138.2635 138.2635 139.0414 139.5561 139.5561 139.8448
   140.2972 141.9891 141.9891 142.3105 142.4616 143.8545 143.8545 144.8794
   144.8794 145.4854 145.8688 145.8688 146.8303 147.1481 147.1481 147.5912
   149.2822 149.2993 149.2993 150.6266 150.6266 151.4059 152.6348 152.6348
   153.0902 154.2697 154.2862 154.2862 155.5673 156.1833 156.1833 157.0908
   157.1177 157.1177 157.4948 158.0434 158.0434 158.9964 158.9964 159.3392
   159.5182 160.1517 160.1517 162.0101 162.3338 162.3338 164.2337 164.3046
   164.3046 165.5474 165.5474 165.6702 166.5333 166.5333 167.0186 167.0992
   167.6889 167.6889 168.1537 168.8462 168.8462 170.0161 170.0161 171.0088
   171.1856 171.4200 171.6496 171.6496 173.3823 173.3823 174.2183 174.2183
   174.5243 175.8646 175.8646 175.9314 176.2598 177.6153 177.6153 178.3336
   179.2369 180.7810 180.7810 181.6067 181.6067 182.8347 183.2970 183.4281
   183.4281 184.4054 184.6599 184.6599 185.4238 185.6382 185.7453 185.7453
   186.6350 186.6350 187.6702 188.5496 188.5496 188.9796 188.9796 189.9425
   190.8013 190.8661 190.8661 191.8535 192.2736 192.2736 192.8477 192.8477
   194.2422 194.2802 196.1569 196.1569 197.3651 197.8291 197.8291 198.1038
   198.3834 198.3835 198.8059 199.8657 199.8657 200.1620 200.9819 200.9819
   202.8531 202.8778 202.8778 203.8403 203.8403 204.1055 204.8289 205.1040
   205.4325 205.4325 205.6273 205.6273 206.3021 206.7118 206.7118 207.6741
   208.3962 208.3962 209.1479 209.5883 209.5883 210.3769 210.3769 210.6194
   211.2703 211.2703 211.9464 212.6149 212.6149 213.3463 213.4772 213.5440
   213.5440 215.0384 215.0384 215.3499 216.2742 216.2742 217.5504 217.6713
   217.6713 218.4788 219.5710 219.6693 219.6693 219.9189 221.2828 221.2828
   221.9112 222.3432 222.3432 222.6850 222.7640 223.2411 223.2411 225.3219
   225.3219 225.4273 227.1246 227.7291 227.7291 228.1704 228.4758 228.4758
   229.8943 229.8943 229.9789 230.2910 230.2910 230.5345 231.8778 231.8778
   233.0152 233.0152 233.4723 234.3159 234.3159 234.7491 235.1345 235.1345
   235.1633 236.0271 236.7188 236.7188 237.2760 237.6693 237.6693 238.4976
   238.4976 238.9323 239.1564 239.1564 239.2812 240.5514 240.5514 240.5571
   241.3240 241.3240 241.4918 243.2044 243.2044 243.2772 244.3035 244.3035
   245.1434 245.5983 246.4438 246.4438 246.6341 247.3446 247.3447 248.0460
   248.4791 249.2366 249.2366 249.6952 249.6952 251.4170 251.6030 251.6030
   252.7088 253.0697 253.0697 253.2253 253.9438 253.9438 254.3300 255.5396
   255.5396 256.1040 256.1944 256.1945 256.2595 256.9889 256.9889 257.0048
   257.5703 257.5703 257.9058 258.1622 258.1623 258.2661 259.3524 259.6875
   259.6875 260.6850 261.2576 261.2576 262.2983 262.3690 262.5377 262.5377
   262.8551 262.8551 263.2308 263.2308 263.4822 264.1210 265.4340 265.7735
   265.7735 266.3600 266.5644 266.5644 266.7119 266.7119 267.2447 267.2447
   267.8885 268.2645 268.2645 269.0308 270.8540 270.8540 271.5663 273.3470
   273.3470 273.9120 273.9120 274.0338 274.1926 274.4753 274.4753 275.5263
   275.5263 275.9456 277.0377 277.7500 278.8565 278.8565 278.9469 279.5169
   279.5169 279.9003 279.9050 279.9050 281.0137 281.3672 281.3672 282.3822
   282.4181 282.7329 282.7329 283.4505 283.4505 283.5049 283.6556 283.6556
   284.3469 284.9087 284.9190 284.9190 285.5206 285.5206 285.5324 286.8121
   286.8121 287.0847 287.0847 287.1924 287.4987 288.3903 288.7155 288.7155
   289.5447 291.2799 291.2799 292.0771 292.0771 292.7230 293.0613 293.4314
   293.4314 293.6596 293.6596 293.9514 294.7556 294.7556 294.9493 296.8821
   297.1686 297.1686 298.4077 298.4077 298.6405 299.1031 299.1031 299.8065
   299.8065 300.1281 300.2279 300.2804 300.2804 300.7036 300.7036 301.0952
   301.0952 301.2306 301.2322 301.6965 301.8166 301.8166 301.9314 302.4290
   303.3869 303.3869 303.5868 303.8189 303.8189 304.8869 304.8869 305.6205
   307.0807 307.1189 307.1189 307.7472 308.0013 308.0013 309.6094 310.2668
   310.2668 310.8406 310.8406 311.2147 312.5619 312.5619 312.8798 313.6359
   314.4530 314.4752 314.4752 316.0618 316.4832 316.4832 317.6513 317.6513
   318.2805 318.3091 318.3091 319.9274 320.1116 320.1116 320.3803 320.7548
   320.7548 321.6400 321.6400 322.1280 322.5737 322.5737 324.2738 324.5117
   324.5117 325.4760 325.4760 325.8273 325.8728 326.4734 326.9308 326.9308
   327.4150 327.6937 327.6937 329.1842 329.1842 329.3382 329.9638 329.9639
   330.4915 330.6406 330.6406 330.8310 332.8020 333.0751 333.0751 333.3971
   334.3315 334.3315 334.7538 334.8941 334.8941 335.9283 335.9283 336.0219
   336.5610 336.5610 336.7862 337.4641 337.4641 337.8411 338.3370 339.0618
   339.2531 339.2531 340.0999 340.0999 340.1639 340.2246 340.2246 340.2922
   341.0646 341.1551 341.1551 341.4256 341.4256 341.6629 341.6770 341.6770
   341.7542 342.6559 342.6559 344.6671 344.6671 344.6901 345.2393 345.4593
   346.0274 346.5679 346.5679 347.2813 347.4524 347.4524 348.1448 348.1448
   348.5481 348.7133 348.7133 349.0047 349.1637 349.1637 349.4266 349.4266
   350.1315 350.9344 350.9344 351.0819 351.0819 351.1057 351.1787 351.4002
   351.4002 351.9359 351.9950 351.9950 352.2720 352.5200 352.5200 353.3344
   353.3344 353.4647 353.6532 354.2013 354.2013 354.5574 354.7079 355.0406
   355.0406 355.6565 355.6565 356.4379 356.4958 356.8947 356.8947 357.9261
   357.9261 358.3988 358.8216 358.8216 359.0797 359.3996 359.6033 359.6033
   360.6336 360.6336 360.9133 361.6191 361.6191 361.7553 363.0727 363.0727
   364.1126 364.1709 364.1709 365.2448 365.2448 365.8679 366.6093 366.6093
   366.9020 368.5622 368.5622 369.2968 369.8398 369.9036 369.9036 371.0281
   371.0281 371.0792 371.0792 371.2440 371.6486 371.6486 371.9666 372.5432
   374.7022 374.7022 374.8287 375.1800 375.1800 375.4497 376.7864 377.4719
   377.4719 378.4728 378.4908 378.4908 378.6175 378.9402 378.9402 379.1104
   379.4372 379.4372 380.1375 380.1493 380.1655 380.1655 380.9865 381.2710
   381.2710 381.3635 381.8822 381.8822 382.8059 382.8059 382.8954 383.2214
   383.2214 383.7829 384.4873 384.4873 385.9098 386.3950 386.3950 386.4087
   386.7148 386.7148 386.8595 387.8615 387.8615 388.4830 389.2688 389.7377
   389.7377 390.7409 390.7409 390.7525 391.2982 391.2982 392.1468 392.3321
   392.8214 392.8214 393.2538 393.2730 393.2730 393.6179 393.6179 393.6292
   393.9456 394.1968 394.1968 394.3974 394.8873 394.9556 394.9556 395.2839
   395.2839 396.1217 396.1217 396.1722 397.3699 397.8796 397.8796 398.7602
   398.7602 398.9701 398.9701 399.4748 400.6745 401.9266 401.9266 402.6577
   402.7198 402.7198 403.0754 403.1830 403.1830 403.2967 403.5069 403.5069
   404.7756 405.6132 405.6132 405.7712 406.6238 406.6238 406.9933 407.4727
   407.4795 407.4795 408.3303 408.7456 408.7456 408.7879 409.1956 409.1956
   409.5100 409.5100 410.1218 410.3336 410.5289 410.5289 410.8323 412.1803
   412.1803 412.6931 412.6931 412.7351 413.4294 413.5492 413.5492 414.6600
   414.7500 414.7500 415.0337 415.9432 415.9432 416.7319 417.2658 417.2658
   417.7685 417.7685 418.7773 418.7773 418.8035 420.2615 420.3276 420.3276
   420.3950 420.5731 420.5731 420.8438 420.9669 421.5836 421.6856 421.6856
   421.9853 421.9853 422.8433 423.7017 423.7633 423.7633 424.0150 424.0150
   424.3404 424.6158 425.1401 425.1401 427.1516 427.1516 427.8521 429.2954
   429.6135 429.6135 430.1873 430.1873 430.3424 431.5085 431.5085 431.8197
   432.0814 432.0814 432.2033 432.8153 432.8153 433.0064 433.0159 433.0159
   433.0329 434.0652 434.0652 434.7253 434.8918 434.9695 434.9695 435.3885
   435.3885 436.2643 436.8111 436.8111 436.9992 437.5558 437.5913 437.5913
   437.7496 437.9945 437.9946 438.2515 438.2515 438.5906 438.5907 438.7832
   438.7832 439.0848 439.2932 439.3629 439.3629 439.4780 439.6200 440.2558
   440.4063 440.4063 440.7005 441.4493 441.4493 441.8367 441.8367 442.4227
   443.8366 444.1384 444.1384 444.4127 444.4127 444.7079 445.3965 445.3965
   445.4930 446.3700 446.3700 446.5265 446.8714 446.8714 447.6534 447.7383
   447.9609 447.9609 448.1444 448.4353 448.4353 449.6661 449.6731 449.6731
   449.7982 452.5478 452.5478 453.0012 453.0012 453.0076 453.2052 454.0666
   454.0666 454.2495 455.4221 455.4221 455.4449 456.2060 456.2235 456.2235
   456.7117 456.7117 456.8480 457.2988 457.4146 457.4146 458.1273 458.2801
   458.2801 458.6582 459.5443 459.5443 460.0514 460.4787 460.4787 460.6399
   461.1191 461.1191 461.4738 461.4738 461.5168 462.0167 462.0167 462.1885
   462.1885 462.4535 463.3575 463.5222 463.5222 464.1447 464.1447 465.0061
   465.0263 465.0276 465.0276 465.9820 465.9820 466.2818 466.3239 467.0539
   467.0539 467.2038 467.2895 467.2970 467.2970 468.6539 468.6539 469.6489
   469.6489 470.5367 471.3859 471.7071 471.7071 472.6205 472.8341 472.8341
   473.3700 473.3700 474.0209 474.0466 474.1472 474.1472 474.5814 474.9093
   474.9093 475.2087 475.2087 475.3491 475.5873 475.5873 475.7052 475.7052
   476.2769 476.5690 476.5690 476.6187 476.9152 476.9152 476.9472 477.0945
   480.1446 480.1446 480.3721 480.7073 480.7073 481.3767 481.6323 481.6323
   481.9825 482.2802 482.2802 483.0586 483.1932 483.1932 483.3299 483.4065
   483.4065 483.4579 483.6939 484.0463 484.0463 484.1592 484.1592 484.5484
   484.5484 484.6283 485.1706 485.6799 486.5797 486.5797 487.0676 487.3628
   487.3628 488.0809 488.7358 488.7358 489.1957 490.1627 490.2784 490.2784
   490.7548 490.7548 490.7907 491.0876 491.3220 491.3220 491.3613 491.5103
   491.5103 492.7256 492.7256 492.7916 494.3641 494.3641 495.1459 496.9991
   497.4298 497.4298 497.8442 498.2365 498.2365 498.9889 498.9889 499.1309
   499.7239 499.7239 499.8121 500.7486 500.7486 501.0242 501.2111 501.2111

          k = 0.5000-0.5000 0.5000 (  2914 PWs)   bands (ev):

  -117.5714 -71.7285 -71.7284 -71.7284 -37.3593  -2.0717   1.3032   1.3032
     1.5265   1.5265   1.7691   2.6845   7.3586   7.3586  10.5179  12.3196
    12.3196  15.6536  18.8815  19.1497  19.1497  19.4656  19.4656  20.7258
    25.1937  28.2018  28.2018  28.8190  30.0777  30.0777  33.0385  33.0385
    33.5865  34.1291  34.1291  34.9990  37.3298  37.3298  37.5057  38.7734
    40.9282  40.9282  41.4032  44.6029  46.3230  46.3230  47.2997  47.2997
    48.7866  49.9768  49.9768  50.4592  52.4736  55.6838  55.8978  55.8978
    56.3958  56.3958  57.0361  57.0361  59.5974  60.8534  60.8534  60.8953
    61.5800  61.5800  64.2971  64.5490  64.5490  65.2580  65.2580  66.7416
    66.8838  67.5377  68.5070  68.5070  69.1592  69.1592  70.0752  71.4318
    73.3733  73.3733  74.6236  75.1488  75.1488  75.7315  75.7315  78.4811
    79.1621  80.7609  80.7609  83.2227  84.3138  84.7785  84.7786  85.4826
    86.0554  86.0554  87.1985  87.1985  87.6234  89.8205  89.8205  89.9599
    90.4524  90.4524  90.6252  91.8097  92.4907  92.4907  93.8956  94.6280
    94.6280  94.6959  95.9272  96.1032  96.1032  99.5314  99.8602  99.8602
   100.7686 100.7686 101.5208 102.3689 102.3689 102.9407 103.4558 103.6219
   104.0708 104.0708 105.2589 105.3272 105.3272 106.5684 106.5684 107.3101
   108.0833 108.0833 110.5451 110.5553 110.5553 111.9483 112.5432 113.2389
   113.2389 113.7854 113.7854 115.1092 116.3803 116.3803 118.2158 118.2158
   118.8640 119.8074 120.5291 120.5291 120.8108 120.8108 123.0942 123.1192
   123.1392 123.1392 123.1914 124.0954 124.0954 124.4611 124.4612 126.0048
   127.1422 127.1422 127.5363 127.6055 127.6055 128.3546 129.3002 130.6561
   130.6561 133.5710 135.0055 135.0055 135.5265 135.9134 136.4070 136.4070
   137.7634 138.6567 138.6567 138.7972 139.8887 140.4742 140.4742 141.4344
   141.4344 142.0065 142.5442 142.5442 144.2580 144.3549 144.3549 146.4096
   146.4096 146.9270 147.1535 147.1535 147.1548 148.3887 148.4769 148.4769
   148.7918 148.7918 149.0998 149.4492 149.9371 149.9371 150.5467 150.5467
   152.0642 152.0642 152.7764 153.1539 153.9184 153.9184 155.5691 155.5691
   155.9022 156.8189 157.0311 157.0311 157.5640 157.5640 157.6972 158.6596
   158.6596 159.1831 159.5930 159.5930 160.7273 163.0880 163.8327 163.9732
   163.9732 165.1714 165.1857 165.1857 165.9683 167.4048 167.4048 167.8805
   168.2778 168.3937 168.3937 168.6648 168.6648 169.3199 170.0949 170.0949
   171.0755 171.8382 172.3936 172.3936 172.7218 173.4371 173.4371 175.2120
   175.8798 177.4978 177.4978 178.0478 178.0478 178.4314 178.4737 178.4737
   178.8852 179.3649 179.3649 180.1310 180.1310 181.4540 181.4540 182.6694
   183.2557 187.0356 187.0356 187.0447 188.4146 188.7122 188.7122 188.8137
   188.8137 189.2871 190.7649 191.1866 191.1866 191.6581 192.2177 192.2177
   193.1694 193.5998 193.5998 194.4745 194.4745 194.5750 194.8997 194.9151
   195.1931 195.4018 195.4018 196.1384 196.1384 196.2448 196.4360 196.4360
   197.4658 198.1584 198.1584 199.3357 199.3357 199.5811 199.5811 199.9313
   200.6187 202.6490 202.6490 203.1849 203.5155 203.5155 203.7201 203.7201
   203.9141 204.2380 204.3212 204.3212 204.7398 204.7398 206.1250 206.1250
   206.3083 206.3152 207.7519 207.7519 207.7943 209.2247 211.2588 211.7435
   211.7435 212.8312 212.8312 213.5683 213.5683 213.9144 214.1380 214.3958
   214.3958 215.5030 215.5973 215.5973 216.9711 216.9711 217.3643 217.8063
   217.8063 217.9079 219.0393 219.0393 219.8595 219.8595 219.9321 220.1878
   221.6003 221.6003 222.5007 223.2659 223.2659 223.6048 223.6048 223.6803
   223.8346 223.8446 223.8446 224.4729 225.0970 225.0970 226.6524 228.4804
   228.7702 228.7702 229.2924 229.6260 229.6260 229.8325 229.8325 230.2850
   230.6888 230.8128 232.1924 232.1924 232.4708 232.4709 232.9903 233.3516
   233.3516 234.3210 235.7713 235.7713 236.6702 237.3906 238.0867 238.0867
   238.6847 239.2649 239.2649 239.6847 239.6847 239.8815 241.3315 242.8418
   242.8418 243.4751 243.4751 243.6861 244.9455 244.9455 245.6262 246.2413
   246.2413 246.9942 247.0379 247.0379 248.0628 248.0628 248.2969 249.0547
   249.0547 249.0548 249.2465 249.6090 249.7421 249.7421 249.8543 252.0523
   252.0523 252.4016 252.4016 252.8467 252.8467 253.1675 253.1693 253.1693
   254.8401 255.0945 255.0945 256.4534 256.7694 256.8439 256.8439 257.2667
   257.2668 257.5084 257.9862 257.9862 258.2017 259.6294 260.4943 260.4943
   260.7816 260.7816 260.9079 261.4481 261.8510 261.8510 261.9561 262.4995
   262.4995 262.6803 264.2246 264.2246 265.0272 265.0273 266.0518 267.1977
   267.1977 267.9471 268.4929 268.6905 269.0941 269.0941 270.2864 270.2864
   270.4864 270.9073 270.9073 271.6570 272.9827 272.9827 273.6709 273.9876
   273.9876 273.9953 274.1575 274.3300 274.3300 274.5226 275.2316 275.5121
   275.5121 275.8190 275.8190 276.3820 276.8929 276.8929 276.9177 278.3958
   278.3958 279.4538 280.5758 280.5758 281.5129 282.1180 282.1180 282.6401
   284.5242 284.6332 284.6332 284.7003 285.5980 285.5980 286.6447 286.6447
   286.9634 287.0394 287.0394 287.0887 287.3227 287.3227 287.4414 287.8287
   287.9607 287.9607 288.0862 288.0862 288.2750 288.2750 288.4173 288.6512
   289.1900 289.3524 289.3524 290.1965 290.1965 290.2355 290.4760 290.4760
   291.0554 291.3109 291.3109 292.1179 292.5065 292.5065 293.3419 293.4556
   293.4556 293.6486 294.1625 295.4846 295.4846 296.3805 296.3805 296.8267
   296.8854 297.9222 297.9222 298.4542 299.7098 299.7098 299.7350 300.1470
   300.1470 300.8667 302.4446 302.4446 303.0822 303.6820 303.6820 303.7250
   305.4248 305.9195 305.9195 306.2408 306.2408 308.8656 308.8656 309.2318
   309.3104 309.3104 310.5558 312.1264 312.1636 312.1636 312.7779 312.7779
   313.0285 313.0285 313.0734 313.4570 313.4570 313.5691 313.5876 314.5507
   314.5507 314.6577 314.9683 314.9683 315.2181 315.2181 315.5528 316.0877
   316.0877 317.1258 317.1369 317.1746 318.2807 318.2807 319.0758 319.0758
   319.7557 320.2763 320.7627 320.7627 321.4931 321.4931 321.7411 322.9644
   324.0262 324.0262 324.6167 324.8900 324.8900 325.2893 325.2893 325.4745
   325.5200 326.2915 326.2915 327.4821 328.4469 328.9589 329.1826 329.1826
   329.7485 329.7485 330.2520 331.4152 331.8623 331.8623 332.4785 332.4785
   333.6873 333.6873 333.9483 333.9483 334.2275 334.2275 335.1924 335.2494
   335.7915 335.9662 336.6624 336.6624 337.0351 337.4297 337.4297 337.4605
   337.4605 338.2516 338.2516 338.7401 338.7401 338.9684 339.2774 340.4597
   340.4597 340.8047 341.1519 341.1519 341.2181 341.2181 341.2708 341.3056
   342.5145 342.5145 343.3789 343.3789 343.4295 343.5225 343.5225 343.5261
   343.5634 344.7302 344.7302 344.8157 344.9037 345.7390 345.7390 346.5005
   346.5005 346.8921 348.3090 348.9382 348.9382 349.9869 349.9869 350.0095
   350.5120 350.5120 350.5745 350.6976 350.7264 350.7264 351.3777 351.3777
   351.8897 352.2932 353.8089 353.8089 354.5290 354.5290 354.6982 355.0279
   355.0279 355.5297 355.6185 355.9377 355.9377 356.3319 356.3319 356.5293
   356.5293 356.6339 357.2985 358.6556 358.6556 359.2104 359.8866 359.8866
   360.4388 361.0704 361.4441 361.5415 361.6694 361.6694 361.7816 361.7816
   361.8774 361.8774 361.9636 362.0297 362.3903 362.5359 362.5359 363.0922
   363.0922 363.1584 364.0544 364.0544 364.4813 365.3951 365.3951 366.5268
   366.8717 366.8717 367.3138 367.3138 367.4751 367.4751 367.7610 367.7698
   367.8086 367.8801 367.8801 369.3660 370.4195 370.4195 371.3590 371.4650
   371.4650 371.8659 374.6369 374.6369 375.8714 377.5854 378.0698 378.0698
   378.1011 378.1011 379.3609 379.4668 379.4668 379.7033 379.7033 379.7978
   380.1268 380.1268 380.5574 380.5574 380.9249 381.5131 381.5131 381.9703
   381.9703 383.2382 384.3739 385.0387 385.4079 385.4079 385.9984 385.9984
   386.3294 386.3294 386.5940 386.7092 386.7092 386.7993 386.8851 386.8851
   386.8993 387.0656 387.1115 387.1115 387.2848 387.2848 387.2856 387.3546
   388.9857 388.9857 389.5564 389.5564 389.5962 389.6839 390.0658 390.2633
   390.2633 391.2276 391.3441 391.3441 393.9702 394.4376 394.4376 394.9662
   396.5399 396.5399 397.2425 397.2425 397.8561 397.8561 397.8607 397.9364
   398.5131 398.5131 398.6221 398.6727 398.6727 398.9813 399.7524 399.7524
   399.8865 400.7843 400.8212 400.8212 401.2836 401.2836 401.6209 401.8144
   401.9293 401.9293 402.0186 402.0186 402.2794 402.2794 402.4346 402.6695
   404.3210 405.6192 405.6192 406.7222 406.7222 407.0661 407.0661 407.4052
   407.4076 407.4581 407.4581 407.4651 409.7826 410.2863 410.2863 410.7680
   411.4089 412.2941 412.2941 412.6892 413.0262 413.0262 413.6542 413.6542
   414.0921 414.2308 414.2683 414.6563 414.6563 414.9637 415.1257 415.1257
   415.5051 415.5567 415.5567 415.9391 415.9391 416.2707 416.7138 416.7138
   417.3894 417.6795 417.6795 418.2254 419.3415 419.3415 419.9945 420.1631
   420.1631 420.7064 422.1534 422.6181 422.6181 422.8590 423.4980 423.5044
   423.5044 423.5247 423.7717 423.7717 424.0687 424.0687 425.5353 425.5353
   425.6442 425.6442 425.7300 425.7527 426.3203 426.3203 426.4970 426.5650
   426.5650 426.6420 426.7085 426.7085 426.8356 426.8356 427.0619 427.1548
   428.5198 429.5182 429.5182 430.5118 430.7484 430.7484 431.1533 431.1533
   431.7881 433.0104 433.0104 433.2923 433.2923 433.7373 433.9751 434.2619
   434.2619 434.3374 434.3555 434.5323 434.7387 434.7387 434.8235 434.8235
   435.3358 436.6191 436.6191 438.5316 439.4734 439.5832 439.5832 439.9094
   439.9094 439.9394 439.9672 440.8613 441.1702 441.1702 441.7432 441.7432
   442.0630 442.1662 442.1662 442.5470 442.6941 442.6942 443.1378 443.1379
   443.4553 443.4553 443.9278 444.5057 444.5057 444.9385 445.0035 445.0035
   445.0625 445.1776 445.1776 445.2332 446.1175 447.3769 447.3769 448.1274
   448.1274 448.2930 448.5089 449.3501 449.3501 449.5115 450.0121 450.0121
   450.0125 450.0785 450.0785 450.5599 450.5599 450.6698 450.6724 450.8391
   450.8391 451.0346 451.0346 451.3181 453.0102 453.0117 453.1134 453.1134
   453.4795 453.4795 456.7089 456.7089 456.8405 456.8501 456.8501 456.9263
   456.9263 457.3653 457.3653 457.6987 458.0776 458.0786 460.1704 460.1704
   460.6539 461.0979 461.0979 461.1960 461.5105 461.5105 462.6530 463.1807
   464.5072 464.5072 465.5662 465.6622 465.6622 467.8099 468.1460 468.1460
   468.3865 468.5612 468.5612 469.0570 469.1439 469.3900 469.3900 469.4461
   469.8008 469.8008 470.0640 470.0640 470.1124 470.1221 470.1221 470.1907
   470.2403 470.2403 470.4025 470.5343 470.5943 470.5943 470.5963 470.7328
   470.7328 470.9192 472.2306 472.2306 473.3706 473.3706 473.8062 474.2863
   474.2863 474.4217 474.5588 475.0363 475.0814 475.0814 475.5846 475.5846
   475.7465 475.7465 475.8967 476.0314 476.2062 476.2062 476.4783 476.5016
   476.5016 476.7298 476.8619 477.1873 477.1873 477.5032 477.5032 477.5583
   480.8366 481.0466 481.0466 481.3592 481.3592 481.6633 481.6633 481.8617
   481.8617 481.9013 482.1412 482.1412 482.2606 482.2917 482.3438 482.3438
   482.6025 482.6164 482.6164 482.7585 482.7585 482.8352 484.0683 484.0683
   485.1713 485.4912 485.4912 485.5103 490.5697 490.5697 491.2847 491.2847
   491.2886 491.3475 493.2604 493.2604 494.4771 494.4771 494.6913 495.1814
   495.4812 495.4887 495.4887 495.6162 495.6162 495.7424 496.5994 496.5994
   496.9077 496.9156 496.9156 497.3724 497.4986 497.4986 498.0112 498.0112
   498.1620 498.2938 500.0189 500.0189 500.3148 503.0673 503.0673 503.0682

          k = 0.0000 0.2500 0.0000 (  2858 PWs)   bands (ev):

  -117.5714 -71.7284 -71.7284 -71.7284 -37.3601  -2.9911   1.2454   1.2790
     1.2790   1.4851   1.5102   7.2347   7.7709   7.7709  10.9055  11.8270
    12.5351  12.5351  15.1749  17.6712  18.6323  18.8150  18.8150  21.1606
    25.0827  27.3906  27.3906  29.3546  30.5816  30.5830  32.4860  32.4860
    34.5448  36.8008  36.8008  38.1726  40.8470  41.3303  41.3303  41.9370
    44.2451  44.4382  44.6276  44.6276  46.5224  46.5224  46.5577  47.1362
    48.1843  48.8776  48.8776  49.1176  50.4246  50.4246  51.2222  51.2533
    52.2675  52.2675  52.4227  52.7458  55.1913  55.5425  55.5425  56.3820
    57.4258  59.7785  59.7785  61.7012  64.6682  65.4643  67.4455  67.4455
    67.8498  70.8384  71.8830  71.8830  72.5101  74.4771  76.0605  77.6474
    77.6475  77.8168  79.3683  79.8351  79.8351  81.1869  82.2740  82.4130
    82.4130  82.7874  83.3050  83.3050  84.1645  84.1645  84.4518  84.5819
    85.9737  86.1722  87.5319  87.9164  87.9164  90.0713  90.0713  90.2668
    90.4164  90.4911  90.9254  90.9254  91.3059  92.5667  92.6270  93.4142
    94.3448  94.3448  95.0622  96.2505  96.2505  97.0669  97.3398  97.3398
    97.8448  98.7660  99.8234 100.1395 100.1395 101.1457 101.8004 101.8804
   101.8804 102.1006 102.2004 103.1785 103.1785 103.8294 104.3593 107.4330
   108.3094 108.3094 108.4928 109.3270 111.7237 111.7237 112.0254 112.4091
   112.6306 112.6306 113.6017 114.3146 114.9557 114.9557 115.9286 115.9286
   116.2521 116.9127 117.4089 117.7111 119.8597 119.8597 120.7144 121.5217
   121.5217 123.3118 123.4277 123.9737 124.0008 124.0008 124.6014 124.9397
   124.9397 125.3911 126.1338 128.0195 129.2988 129.2988 129.7417 130.4510
   131.6344 131.6344 133.0477 134.2425 134.5934 134.5934 135.1572 137.1929
   140.2261 140.2261 141.1847 141.7988 142.3337 142.4265 142.4265 144.4968
   144.4968 146.2525 146.7182 147.0370 147.5146 147.5146 147.8760 148.8673
   149.3587 149.6379 149.6379 149.6974 151.0434 151.1184 152.0754 152.0754
   152.6518 152.6518 152.8139 153.5665 154.7786 154.7786 155.1596 155.1680
   155.9450 156.2277 156.3965 156.3965 157.1387 157.2066 157.2066 157.7334
   158.0450 158.0450 158.3290 159.1036 159.1036 159.4209 159.9096 160.3812
   160.5675 160.5675 160.7131 160.9125 161.4426 161.4426 162.4882 162.8917
   163.9413 163.9413 164.6133 165.0380 165.4026 165.4026 165.4825 165.6603
   166.6278 167.1881 167.1881 168.0448 168.1445 168.1445 169.3946 169.6869
   170.5545 170.5545 170.9318 171.0469 171.4431 171.5670 171.5670 171.7764
   172.8015 172.8015 173.0506 174.6301 174.9159 174.9615 174.9615 175.3029
   176.2736 176.5171 176.8059 176.8059 179.9241 180.0376 180.0376 180.3595
   180.7241 181.0617 181.0617 181.3160 182.7307 183.1293 183.1293 184.1471
   184.8152 185.8094 185.8094 186.7020 186.7672 186.8810 187.1191 187.1191
   187.2375 187.6170 187.7046 187.7047 188.5427 189.4150 190.4360 190.4360
   192.9494 193.6939 193.6939 193.8481 194.9448 195.2227 195.2227 195.3134
   196.4534 196.5536 196.5536 197.9429 197.9429 198.2550 198.4001 198.9702
   201.1436 201.3806 201.4905 201.4905 201.7554 203.0846 203.6527 203.6527
   205.7377 205.8094 205.9677 205.9677 206.1248 206.6887 206.6887 207.2895
   207.7894 208.7996 209.7607 209.8020 209.8020 211.3643 211.6384 211.6384
   212.5814 214.2148 214.2148 214.9498 215.4316 216.6208 217.4165 217.6754
   217.6754 217.7753 219.1424 219.7733 219.7733 221.2113 221.2113 221.3628
   222.4932 222.8730 222.8730 223.6913 224.7391 224.7391 225.0185 225.2506
   225.5329 225.5329 226.6632 227.6736 227.6736 227.9842 228.3007 228.6425
   228.6425 229.1477 229.6402 230.2686 230.4143 230.4143 230.6676 231.9626
   232.0986 232.8049 232.8049 233.4824 234.2427 234.5328 234.5328 234.7668
   235.3176 235.3537 235.3537 235.4755 236.0536 236.3055 236.3055 237.6302
   237.9448 238.0248 238.0249 238.5476 238.7993 239.0616 239.0616 239.1990
   239.6976 239.6976 240.3114 241.2864 241.3050 241.9976 242.5951 242.5951
   242.7621 243.2345 244.2041 244.7820 244.7820 245.4685 245.5567 245.5567
   245.7971 247.1315 247.6900 247.6900 248.0380 248.2214 248.2738 248.3132
   248.3133 248.7945 249.5214 249.5214 249.7061 250.5626 250.5627 250.5627
   251.3172 251.3322 251.5587 251.5587 251.8816 251.9121 251.9121 252.3738
   253.4771 254.6106 254.6328 254.8443 254.8443 255.6044 255.8541 256.0798
   256.0798 256.6304 256.6304 257.2144 257.2144 257.9491 258.0331 259.0427
   259.0427 259.2379 259.8257 259.9817 260.1848 260.1848 260.3277 260.4444
   260.4444 260.5623 261.4012 262.8028 262.8028 263.0198 263.0657 263.3546
   263.8379 264.1624 264.1624 264.4202 264.8993 265.6102 265.6102 266.1323
   266.9714 266.9714 267.1111 267.3285 267.3285 267.3462 267.3922 267.6120
   268.0563 268.8098 268.8973 268.8973 268.9610 269.5579 269.5579 269.7367
   270.2148 271.1922 271.1922 271.8092 272.5880 272.7618 272.7618 274.2406
   274.3312 276.1262 276.1508 276.1508 276.9461 277.0200 277.0200 277.0217
   277.5569 277.8427 279.3344 279.3344 279.4316 279.8029 280.7646 281.4093
   281.4093 281.8435 282.4718 282.7511 282.7624 282.7624 284.3711 284.3711
   284.8575 286.5705 286.6824 286.6824 287.0147 287.3148 287.3148 287.3680
   287.9464 289.0338 289.2825 289.2825 289.7941 292.4028 292.4028 292.4656
   293.1314 293.1314 294.0071 294.1330 295.7282 296.0062 296.0062 296.7790
   297.2600 297.7176 298.9173 298.9173 300.5416 301.2462 301.2462 301.5982
   302.0659 302.6555 303.2746 303.2746 304.0327 304.1791 304.3802 304.3802
   304.7441 305.5435 306.1993 306.1993 306.8909 307.6601 307.9470 308.3127
   308.3127 309.2826 309.8034 310.1942 310.1942 310.3437 310.3437 310.6660
   310.7904 311.1755 311.1976 311.1976 311.2068 311.8268 312.3328 312.3328
   314.0568 314.1777 315.0653 315.8476 315.8476 316.2370 316.4178 316.4178
   316.5147 316.5291 317.4196 317.4196 317.7677 318.2102 319.5413 321.0265
   321.3267 321.3267 321.6931 321.6931 321.8824 321.9876 322.1380 322.5782
   322.5782 323.3555 323.6560 324.0408 324.3743 324.3743 324.6207 325.1288
   325.1288 325.2502 325.5789 325.5789 325.8112 326.1050 327.0506 327.2628
   327.4857 327.4857 328.0785 328.9504 328.9504 329.2483 329.7854 329.7854
   329.8104 330.1076 330.2278 330.2278 330.3641 330.7246 330.7246 330.7714
   332.5674 332.8351 332.9143 332.9143 333.2442 333.5367 333.6646 333.7664
   333.8292 333.8292 334.2706 334.2706 334.6998 335.3783 335.3783 335.5236
   335.7812 337.2631 337.5202 337.5202 338.0051 338.0726 339.4111 339.4111
   340.5230 341.6322 341.6322 341.6432 341.8260 342.2877 342.5599 343.2598
   344.0633 344.3822 344.3822 344.6232 345.2934 345.2934 345.7359 345.9442
   345.9442 346.0466 346.2214 346.2214 346.3027 347.3611 347.4108 348.1791
   348.1791 348.9953 349.8256 350.1690 350.1690 350.4916 350.6344 351.7118
   351.7118 351.9330 352.7299 352.7457 352.8963 352.8963 353.2082 353.6328
   354.1156 354.1156 355.2555 355.8216 356.5222 357.1866 357.1866 357.2714
   357.9125 357.9125 358.0685 358.2959 358.3757 358.3757 358.4671 359.6422
   359.7892 359.7892 360.3518 360.6342 360.9756 360.9756 361.4481 361.4938
   361.4938 361.5756 362.5515 362.5515 362.6128 362.6599 362.8642 363.3096
   363.5095 363.5095 363.7446 363.8130 363.9518 363.9518 364.7286 364.7286
   365.1184 365.2586 365.6287 365.6287 366.2258 366.8248 367.4154 368.0394
   368.5636 368.5636 369.1092 369.1946 369.1946 369.9119 369.9119 370.0823
   370.1425 370.7381 370.7743 370.9160 370.9160 371.0512 371.8924 371.8924
   372.7463 373.0128 373.0128 373.2069 373.6175 373.8844 373.8844 374.6124
   374.8514 375.2530 375.2530 375.5377 375.7073 375.8223 376.0109 376.3733
   376.3733 377.2896 378.2736 378.2736 378.6268 378.6990 379.2496 379.2496
   379.5659 379.8010 380.0235 380.2457 380.2457 380.6545 381.4967 381.5779
   381.5779 381.5850 382.0706 382.1192 382.1192 382.6032 382.7410 382.7410
   382.7643 383.5197 383.6306 383.6937 383.6937 384.2036 384.8793 385.3331
   385.3331 386.0695 386.3492 386.3492 386.8151 388.4272 388.8212 388.9365
   389.2971 389.2971 389.4016 389.7107 390.0340 390.5680 390.5680 390.7722
   390.7722 390.7894 390.9017 391.0536 391.0536 391.1297 391.1759 391.4907
   391.4907 392.8285 393.2229 394.0422 394.0650 394.0650 394.4135 394.4813
   394.4813 394.7037 395.4760 395.4760 395.8582 396.1762 396.4747 397.5138
   397.5138 397.6178 397.7860 397.9452 397.9452 398.1714 398.3571 398.6446
   398.7693 398.7693 399.7641 400.9361 401.7818 402.0885 402.0885 403.2023
   403.2023 404.1824 404.4529 404.5572 404.5572 404.7927 405.4525 405.7884
   405.9155 405.9155 406.2783 406.2783 406.5946 411.3749 412.1863 412.2906
   413.1223 413.1223 414.3334 414.3334 414.6255 414.9116 414.9116 414.9367
   415.0448 415.0987 415.2164 415.3415 415.3415 415.5058 415.5297 415.5297
   415.9641 416.0949 416.1306 416.1306 416.9884 418.3500 418.3500 418.5990
   418.9244 419.0266 419.0266 420.0556 422.7494 422.9356 423.1119 423.3242
   423.3242 423.4152 423.6738 423.9801 423.9801 424.4032 424.4732 424.7218
   424.7218 425.2864 425.5181 426.3076 426.3076 426.4157 427.6043 428.4263
   429.1938 429.1938 430.7678 431.4931 432.1075 432.1480 432.1480 432.2211
   432.3343 432.3343 432.6941 433.3411 433.3411 433.7938 435.9716 437.9644
   438.9825 439.0148 439.0148 439.1342 439.4605 439.7094 439.8630 439.8630
   440.1826 440.8108 440.8108 441.5170 441.5650 441.7344 441.7344 441.9138
   441.9448 441.9448 442.0785 442.8544 443.1734 443.1734 443.4021 444.0161
   444.1202 444.1202 444.6365 444.7070 445.1637 445.2351 445.2351 445.5521
   445.6231 445.6231 445.6866 445.9815 446.0601 446.1553 446.1553 447.5671
   448.1389 448.1540 448.1540 449.8282 449.9186 449.9186 450.3571 451.6045
   451.6045 452.0370 452.9251 453.0010 453.0010 453.0835 453.4035 454.2322
   454.2322 454.6683 454.8277 454.8277 455.5855 456.0174 456.2965 456.2965
   456.4918 456.6660 457.2794 457.3756 457.6914 457.6914 457.8236 458.2564
   458.5093 458.5093 458.9556 459.2940 459.5302 459.5302 459.5947 460.1128
   460.1702 460.1702 460.2893 460.4193 460.4193 460.4647 460.7548 460.7548
   460.8325 460.8429 462.3753 463.0765 463.0765 463.3626 463.4852 463.7218
   463.9134 463.9134 463.9228 465.0015 465.0015 465.1122 465.4261 465.5526
   466.6082 466.6082 466.8931 466.8931 467.0676 467.3654 467.4864 467.5885
   467.5885 467.6490 468.8605 469.3385 469.3385 469.4803 470.0412 470.4538
   470.4538 470.4898 470.8860 471.3335 471.3335 471.6821 471.8917 472.3774
   472.5242 472.6481 472.6481 472.7098 472.9441 472.9441 472.9674 472.9795
   472.9795 473.2287 473.4237 473.6845 473.6845 473.7629 474.1517 474.2371
   474.2371 474.2634 474.7253 475.1884 475.2506 475.2506 475.6454 475.6927
   476.1949 476.1949 476.3285 476.8292 476.8421 476.8421 477.0272 477.3847
   477.3847 477.3850 477.4728 477.4728 477.5826 477.6381 477.6787 478.4183
   478.5221 478.5221 478.9749 478.9935 479.4385 479.4385 479.6990 481.9362
   482.2584 482.2584 482.3151 482.3287 482.4802 482.5574 482.5593 482.5593
   482.5677 483.0825 483.0825 483.8672 484.7353 484.7598 484.7598 485.1242
   485.1782 486.1511 486.1511 486.4336 487.2867 487.2867 487.4169 487.5548
   488.0763 488.4082 488.4444 488.4444 488.7134 488.8390 488.8390 489.0651
   490.0138 490.3759 490.4113 490.4113 491.7135 491.7681 491.7681 492.3780
   492.9138 492.9230 492.9230 493.2769 493.3046 493.3046 493.4938 493.9585
   494.6660 494.6660 494.7994 495.5329 495.6106 496.0046 496.0046 496.1870

          k =-0.1250 0.3750-0.1250 (  2881 PWs)   bands (ev):

  -117.5714 -71.7284 -71.7284 -71.7284 -37.3598  -2.7162   1.2551   1.3073
     1.3114   1.4780   1.5173   5.6988   7.2852   7.4662  11.1055  12.0969
    13.1981  13.2740  15.2875  17.3074  18.2461  20.7015  20.8713  22.6862
    24.4590  25.0042  26.6929  28.2051  29.8984  30.0514  33.0535  33.7853
    34.8422  36.4976  36.9297  38.4072  39.3759  39.8388  40.6970  41.2323
    42.2046  42.5359  43.9755  44.0939  44.4942  45.9099  46.1552  47.7003
    48.2790  48.8146  49.1610  49.4297  50.1610  50.8282  51.0364  52.7752
    53.4189  54.0809  54.6797  56.6180  57.3235  57.5722  58.7355  58.8810
    59.7003  60.8626  62.5211  62.5272  63.3785  64.8358  66.0059  66.3249
    67.8351  69.7405  70.3171  70.9189  71.4806  72.5866  74.6457  75.3487
    75.7107  76.5589  76.7770  78.0825  78.5735  79.3712  79.8925  80.6644
    80.8614  81.9628  82.1364  82.7767  82.9201  84.3386  84.5657  85.7515
    85.8106  86.2992  87.0665  87.3468  87.8496  88.8956  89.5091  90.2499
    90.8524  91.2076  92.3879  92.7426  93.0455  93.7270  94.3646  94.5262
    94.5663  95.4614  95.7428  96.1292  96.4434  96.9614  97.5958  98.2412
    98.8911  98.9663 100.1800 100.3696 101.5446 102.0452 102.4529 102.9794
   103.1481 103.3966 103.6212 104.5832 104.6579 105.5956 106.1295 106.4168
   107.2321 107.4551 107.8112 108.2286 108.7222 109.5371 110.4483 111.4673
   111.7481 112.5520 112.6985 114.1080 115.3051 115.6250 116.0332 116.9628
   117.5358 118.2847 119.0225 119.6011 119.7441 120.1046 120.9165 121.6143
   121.7250 122.3200 123.0784 124.3772 124.4421 125.4648 126.0044 126.2601
   127.6317 128.7952 129.1269 129.6790 130.4956 131.0815 131.4430 132.2509
   132.9384 133.7326 134.0908 135.0501 135.5617 136.1182 136.9607 137.2627
   137.8648 138.9013 139.4901 139.8228 140.0033 141.3432 141.3696 141.8368
   142.2882 142.4676 142.9228 143.1130 143.5436 145.1268 145.4049 145.4121
   145.8086 146.0111 147.1402 147.8312 148.1546 148.6199 149.3130 149.9010
   150.7607 150.8305 151.5091 151.6159 152.0527 152.3301 153.2648 153.5808
   154.5199 154.8414 155.0411 155.3095 155.3405 156.2613 156.4551 156.8560
   157.4544 158.1899 158.8141 159.3551 159.3645 159.9340 160.0586 160.6452
   160.7419 161.4160 161.5663 162.2881 162.6006 162.9611 163.7408 164.3306
   164.5605 165.1483 165.5224 165.7534 166.1927 166.5355 166.8708 167.7686
   168.2893 168.7855 169.7765 170.0488 170.2405 170.5881 170.9630 171.1937
   171.5636 171.9381 172.0264 172.7838 172.9004 173.2199 173.7799 174.4329
   174.6016 174.8376 175.7492 175.9057 176.1577 176.3109 176.7593 176.9723
   177.5031 178.0001 178.3194 178.4758 178.9173 179.7948 179.8944 180.4366
   181.4960 181.6251 181.6357 182.1010 182.4431 182.7806 183.2293 183.2366
   183.8709 183.9673 184.2847 185.2722 185.5990 186.0918 186.5304 186.8787
   186.9307 188.5487 188.7234 189.1336 189.7455 190.0823 191.1722 191.3502
   192.1795 193.4341 193.5170 194.4187 195.0936 195.5497 196.1851 196.3810
   197.0569 197.6473 198.5915 198.7555 199.6880 199.9091 200.6132 200.6644
   201.3819 201.6075 202.3548 202.4756 202.8049 203.1808 203.7264 204.5700
   205.1780 205.3086 206.5570 206.9899 207.7889 208.2431 208.2501 208.6626
   209.3331 209.8625 210.2910 210.6920 211.1178 211.5414 211.7718 212.0317
   212.5492 213.1820 213.4619 214.4697 214.5567 214.7816 215.2826 215.6564
   216.1529 216.6792 217.6353 217.9241 218.8728 218.9459 219.1730 219.8769
   220.2798 220.5372 220.9518 221.1838 221.7784 222.2953 222.9924 223.7137
   224.4117 224.6246 225.3332 226.0406 226.1660 226.3201 226.9717 227.0926
   227.5398 227.6883 228.2272 228.3275 228.9072 229.3183 229.3261 230.0366
   230.1252 231.2323 231.2789 231.8875 232.0671 232.9713 233.1294 233.3226
   233.9620 234.5024 234.5350 235.0179 235.3274 235.7097 235.9684 236.5534
   237.2409 237.2589 238.0084 238.3148 238.7032 238.8826 239.2419 240.3863
   240.5158 241.2654 241.3637 241.5358 241.7771 241.8816 242.6254 242.6423
   242.8655 243.2299 243.7684 243.8027 244.3626 244.5994 244.8395 244.8777
   245.0975 245.7435 245.8079 246.2774 246.7796 247.2541 247.6171 247.9490
   248.1859 248.4205 248.4592 248.8757 248.8915 249.4663 249.7529 249.8385
   249.9077 250.2858 250.9874 251.0586 251.5131 251.5698 252.0186 252.2851
[...]
   267.2428 267.4748 268.2931 268.4969 268.5404 269.3186 269.7174 270.4801
   270.5172 271.0614 271.4797 271.8540 272.0606 273.0662 273.4339 273.4438
   273.9339 274.8262 276.0477 276.4639 277.0058 277.5409 278.1680 278.5159
   278.7226 279.0212 279.4302 279.4482 279.8507 280.3438 280.6163 280.7137
   281.0899 281.5076 282.0694 282.1729 282.6109 282.9861 283.2986 283.5370
   284.6683 285.5356 285.5478 286.3793 286.4586 286.5110 286.6740 287.0169
   287.0673 287.3671 287.7245 288.2017 288.6052 288.6166 288.9765 289.3202
   289.7049 290.6262 291.1123 291.3288 291.4058 291.7112 291.7452 291.8850
   292.7116 292.7927 293.2299 293.2433 293.9173 294.2350 294.4503 294.5297
   295.5957 295.6682 295.9675 296.0601 296.3482 296.4962 296.7394 297.2614
   297.6927 297.7355 298.0019 298.2169 298.3322 298.6303 298.8548 299.2606
   299.4421 299.7611 299.9318 299.9565 300.3244 301.3010 301.4617 302.1149
   302.1829 302.4092 303.0700 303.3937 303.6775 303.7201 304.1785 304.2066
   305.0780 305.0896 305.3874 305.6955 305.8818 306.2183 306.3879 306.5330
   306.5333 307.2461 307.3664 308.0212 308.1279 308.6778 309.0108 309.0509
   309.3357 309.5335 309.5493 310.1006 310.4733 310.7268 311.2345 311.9093
   312.8914 313.2634 313.2872 313.7701 313.8872 313.9575 314.3945 314.4784
   314.4847 315.3074 315.4480 315.9991 316.3378 316.5362 317.3883 317.4952
   317.8535 317.9201 318.0865 318.2057 318.8663 319.2175 319.3978 320.7518
   321.2888 322.0520 322.1073 323.0031 323.0198 323.3452 323.4322 323.5717
   324.6377 324.6861 325.0391 325.0428 325.5028 325.9105 325.9855 326.9806
   327.1635 327.5588 328.1707 328.1801 328.6524 328.6817 328.9088 329.7566
   330.5077 330.5133 330.9117 331.5461 331.6584 331.8430 332.0142 332.2507
   332.6535 332.9000 332.9994 333.1460 333.4507 333.7734 333.9218 334.2683
   334.8413 335.1161 335.5339 335.5997 335.6781 336.0265 336.4234 336.5589
   336.6701 336.8568 337.1256 337.8783 338.7857 339.1679 339.1918 340.1950
   340.3400 341.6540 342.0451 342.1598 342.4349 342.6302 342.8334 342.8730
   343.3801 343.6942 343.9509 344.7208 344.9611 345.6824 345.7916 345.8502
   345.9893 346.0933 346.0950 346.4561 347.3973 347.7268 347.9180 348.4558
   349.2363 349.9694 350.2306 350.4087 350.4452 351.4616 352.1580 352.4020
   352.4800 352.7895 352.9337 353.5868 353.6968 354.2811 354.3524 354.6005
   355.2905 355.5030 355.6059 355.6396 355.7551 356.0477 356.3168 356.3583
   356.6565 356.7564 357.9798 358.3228 359.7218 360.2218 360.8308 361.0978
   361.2688 361.8002 362.3555 363.0126 363.5936 363.8606 364.9365 365.2394
   365.5202 365.8225 365.8810 366.2929 366.4166 366.6279 366.7704 366.9323
   367.1803 367.7266 368.1513 368.4876 368.9403 369.4943 369.4968 370.0114
   370.9093 371.2440 371.4541 371.4970 371.9382 372.0867 372.5958 372.7616
   372.7702 373.2453 373.3760 373.6944 373.9137 374.1010 374.6954 375.5053
   375.7754 376.6852 377.1371 377.4043 377.4823 377.6127 377.7446 378.7887
   378.8283 378.8737 380.0688 380.1434 380.5684 380.7951 381.1940 381.5118
   382.0247 383.0142 383.1782 383.4742 383.5487 383.5938 383.9129 384.1296
   384.2310 384.5641 385.3662 385.8983 386.3136 386.4834 387.4504 387.5930
   387.7136 387.7274 388.0495 388.1805 388.2667 388.7422 388.9771 389.0709
   389.1259 389.9453 389.9777 390.1297 390.1347 390.3403 390.8095 390.8478
   391.0567 391.5808 392.2083 392.3446 392.5820 392.6655 392.6655 392.8480
   392.9513 393.2904 393.5612 393.7305 394.0771 394.1507 394.2768 394.5996
   394.8021 394.8677 395.2317 395.3402 395.6106 395.6527 396.2682 396.4002
   397.1757 397.8758 398.7741 399.0833 399.1619 399.3967 400.0485 400.3869
   400.4299 400.5328 400.7712 401.2516 401.5705 401.6934 401.8183 401.9317
   402.1806 402.3395 402.5103 402.6475 403.2678 403.4686 404.5901 404.8236
   405.0798 405.5753 405.6860 406.4147 406.4339 406.7492 406.8602 407.0813
   407.4144 407.4343 407.9646 408.3875 408.6340 408.7265 408.8899 408.9642
   409.2242 409.3895 409.6255 409.6274 409.8367 409.8944 410.1865 410.2708
   410.8562 411.0199 411.2143 411.7043 412.2936 412.3205 412.7766 413.0258
   413.0773 413.7149 413.7706 414.1547 415.1259 415.3052 415.7925 415.9093
   415.9420 415.9754 416.4607 417.0287 417.5450 417.5852 417.7269 417.7481
   418.3350 418.3403 418.7097 419.0872 419.2931 419.3591 419.6292 419.9841
   420.8336 421.1274 421.3104 421.5400 422.2739 422.5925 422.6497 422.8421
   423.2908 423.6897 423.7148 423.9328 424.8126 424.8579 425.0074 425.2797
   425.4630 425.9126 426.0596 426.4193 426.4368 426.9477 427.2834 427.3777
   427.6391 428.2660 428.3374 428.5213 428.6019 428.7683 428.9729 429.4010
   429.4840 429.6884 429.8219 430.8184 430.9194 431.0892 431.5647 431.6097
   432.5297 432.8022 432.8431 433.5300 434.0756 435.1853 435.2255 435.4095
   435.9355 436.4422 436.8226 437.4318 437.5795 437.6562 439.2704 439.3208
   440.2724 440.8784 440.9434 441.0919 441.2307 441.4179 441.5672 441.6746
   442.2818 442.6386 442.7731 443.3547 443.4357 443.5236 444.1902 444.3031
   444.7209 445.2296 445.2567 445.6406 445.7075 445.9594 446.0769 446.1770
   447.0145 447.3068 447.4186 447.4842 447.5187 447.8832 448.2391 448.3904
   448.6117 449.1528 450.0026 450.2570 450.2621 450.6253 450.6837 450.7012
   450.7777 450.9793 451.1905 451.3692 451.6816 451.8834 451.9528 452.1618
   452.3794 452.6529 453.1755 453.2622 453.3162 453.3811 453.6801 453.6930
   453.8178 453.8782 454.2746 454.2847 455.1440 456.1413 456.4079 457.0869
   457.4975 457.6382 458.1564 458.2568 458.4734 458.4836 458.7809 458.9241
   459.1126 459.2387 459.3704 459.9516 460.0433 460.0854 460.1510 460.7020
   460.8127 460.8645 461.9097 462.0746 462.2687 463.0841 464.1675 464.3863
   464.7907 464.9562 465.3133 465.4939 465.6897 465.9625 466.2577 466.3104
   466.6383 466.8049 466.8860 467.0781 468.2246 468.2810 469.1039 469.1765
   469.7200 469.9230 469.9705 470.0912 470.2853 470.3584 470.6032 470.6509
   471.8071 472.2975 472.4959 472.6667 473.3658 473.7923 474.0143 474.1207
   474.2435 474.2528 474.9766 475.1795 475.7399 475.8219 476.0312 476.3490
   476.6644 476.8717 476.9161 477.1854 477.2475 477.3081 477.9291 477.9678
   478.1560 478.4314 479.1234 479.5283 479.6884 479.7213 480.1492 480.3261
   480.3630 480.6994 480.9105 481.7329 482.0467 482.1942 482.5239 483.2279
   483.5733 483.7903 484.4154 484.4857 484.5403 484.6102 485.4014 485.4034
   485.9423 485.9623 486.4832 486.7357 486.7430 486.9424 487.3720 487.4849
   488.4926 488.5888 490.7838 490.8709 491.1214 491.8964 491.9926 492.2421
   492.4813 492.5967 492.7575 492.9974 493.1223 493.2833 493.4102 493.5395
   494.0079 494.3306 494.5281 494.6030 494.7657 494.8592 494.9713 495.0564
   495.3193 495.3482 496.9251 497.0197 497.3843 498.4918 498.7008 499.5396
   499.5638 499.9692 500.2224 500.6333 500.7720 501.0759 501.8046 501.8832

          k =-0.5000-1.0000 0.0000 (  2872 PWs)   bands (ev):

  -117.5714 -71.7284 -71.7284 -71.7284 -37.3590  -1.6633   1.3317   1.4090
     1.4705   1.5035   1.9887   3.1893   4.9503   5.4250  12.4832  12.5676
    13.6646  15.0977  18.8378  19.0926  19.3293  21.0653  22.6450  23.2748
    25.1957  25.6805  27.4802  27.5094  27.8056  29.3490  31.0049  31.0971
    32.8133  33.2302  33.6871  33.9479  36.1360  37.4832  39.1153  40.4358
    42.0575  42.8690  42.9898  44.1097  44.3679  46.4933  46.9380  49.3806
    49.5635  50.9398  50.9752  51.8242  52.0384  53.5140  55.4527  55.8694
    56.0943  56.8042  58.0542  59.0124  59.1945  59.4585  59.4760  61.3722
    62.3372  63.2869  63.6141  63.9567  64.5043  64.6215  65.9207  66.0234
    67.5231  68.2809  68.6655  69.4873  71.0037  71.4444  73.1356  73.8851
    74.0149  75.5908  75.9988  76.1380  76.7523  77.2963  77.4588  77.6618
    77.9387  78.1370  78.4949  80.4618  81.1980  81.2209  81.5105  82.9205
    83.1867  83.2007  84.2380  85.5153  86.3420  86.9287  86.9506  87.0145
    87.9095  88.9843  89.7101  90.1100  90.7696  90.7733  93.3644  93.5022
    93.8248  94.9046  95.6792  95.6860  95.9963  98.2526  98.5384 100.6125
   101.5314 102.2217 102.9490 104.4267 105.0954 105.6486 106.0685 106.3565
   107.2944 107.7266 109.0070 109.3748 109.4678 110.0360 110.1789 110.3783
   111.1816 112.0024 112.3248 112.4817 112.9291 113.4463 113.5719 114.1318
   114.5896 114.6136 115.3801 115.5603 115.6384 115.9990 116.2106 118.4541
   118.4699 118.9021 119.4713 120.1717 120.5355 121.0825 121.7951 121.9050
   122.7009 122.7166 124.4274 124.8201 125.0767 125.2923 126.2632 127.1188
   127.3894 127.5180 129.4133 129.7121 130.7284 130.8162 130.8830 131.5451
   131.6627 132.0655 132.8555 133.0860 133.4092 133.6965 133.8415 134.5968
   135.1534 135.4569 135.8329 136.5684 136.6179 136.9621 137.6301 138.3182
   139.1213 139.1713 140.0873 140.3049 140.9544 141.3495 141.5455 141.7626
   142.0147 142.4960 142.5656 143.2893 143.6536 144.9977 145.2254 146.5074
   146.7227 148.0101 148.2784 148.5100 148.7645 149.2721 150.0040 151.0214
   152.3751 153.4230 154.9292 155.1285 155.4814 156.2190 156.8320 156.8918
   158.2992 158.5117 158.6281 158.7632 158.8479 159.4504 159.6418 160.0151
   160.9015 161.2293 161.4522 162.3849 163.2087 163.4597 164.1827 164.4084
   164.4358 165.4763 165.9696 166.2506 166.3049 166.4259 166.9483 168.1949
   168.6932 168.8465 169.2540 170.4492 170.5436 170.7794 171.1462 171.9062
   172.1889 172.7610 172.9856 174.9885 175.1300 175.2682 176.1590 176.2466
   177.0739 177.4155 177.7220 177.8134 178.2185 178.2535 178.6957 179.0725
   179.0731 179.2837 179.8556 181.3410 181.5396 183.2098 183.2440 183.5289
   183.9704 184.6145 185.4542 185.8880 186.1966 186.2798 189.0882 189.4088
   189.8812 190.1094 191.3317 191.4917 192.0897 192.3344 192.4733 192.6669
   192.8021 193.0723 194.1184 194.2231 194.3800 194.5095 195.0851 195.3183
   195.6635 195.6935 196.1432 196.3105 196.3135 196.4411 196.5300 196.7101
   197.5701 198.4591 198.6984 199.0256 199.1865 199.4243 199.6333 200.6598
   200.6690 201.3414 202.2809 203.0515 204.5656 204.6260 204.8581 205.3586
   205.4479 205.5894 205.7512 206.3026 206.8162 207.2244 207.2975 207.6561
   208.3576 209.1669 209.2381 209.6223 209.9146 210.1313 210.3196 210.9805
   211.1620 211.6306 211.9170 212.4994 213.0162 213.1453 213.3392 213.4224
   213.8013 213.9982 214.3448 214.4447 214.5155 214.6409 214.8980 215.7868
   215.9323 217.1333 217.4321 217.5957 218.3743 218.5997 218.7090 220.3224
   220.7599 221.4382 221.5138 222.0585 222.0945 222.2848 222.3758 222.4568
   222.7278 222.9361 222.9520 223.7978 224.4502 224.9174 225.5529 225.6061
   225.8481 227.1139 227.1628 227.1892 227.2944 228.5993 228.8224 228.9388
   230.2509 230.8868 231.0275 231.1142 231.2368 231.5355 231.8332 232.7203
   233.2357 233.4128 235.2272 235.9147 236.4077 237.3563 237.5840 238.0978
   238.9139 239.2716 239.3850 239.7811 240.1686 241.3852 241.7985 241.8541
   242.0668 242.0989 242.1141 242.5445 243.4856 243.8691 244.6253 245.4480
   245.9392 246.3243 246.8427 246.8666 248.0039 248.1019 248.4704 249.2254
   249.9875 250.2415 250.2458 250.3822 250.5124 250.8063 251.0865 251.1157
   251.7032 251.7311 251.9959 252.1998 252.3452 252.5967 253.1131 253.4338
   253.5040 254.4233 254.4710 255.4890 255.6305 256.3584 256.8918 257.3379
   257.5577 257.9258 258.2081 258.2289 258.4937 258.6189 258.8229 259.2596
   259.3423 260.3052 261.5647 261.6313 262.3456 263.3632 264.6287 265.0232
   265.7653 266.0042 266.1458 266.2317 266.3401 266.3731 266.7216 267.4877
   267.6021 267.6688 267.8639 268.2860 268.6269 269.5057 270.0799 270.2293
   270.2921 270.4185 270.7850 271.2597 271.2987 271.6962 271.7741 271.9109
   272.1176 272.9711 273.1767 273.7399 274.6366 274.8457 274.8996 274.9382
   275.3486 276.3536 276.5142 276.6672 277.3969 277.8984 277.9447 278.2749
   278.3476 278.4529 278.6778 279.2780 279.3984 281.4708 281.7566 282.0408
   282.5109 283.2672 284.0687 286.1008 286.6175 286.7038 286.9005 287.0349
   287.8152 288.1089 288.2773 288.9129 289.1732 289.3989 289.6278 290.1995
   290.9876 291.3549 292.1031 292.1715 292.7469 292.8089 293.2917 293.3489
   294.0319 294.4457 294.7662 294.8236 294.9022 295.2937 296.1075 296.1970
   296.2991 296.4109 296.7578 297.0108 297.0118 297.2670 297.6079 297.8870
   297.9971 298.2813 298.3124 298.8113 298.8377 298.9796 299.1677 299.3713
   301.6654 301.9804 302.0472 302.1130 302.6379 302.6940 303.0220 303.1429
   303.3668 303.3686 303.8170 303.9155 303.9699 303.9846 304.1531 304.3316
   304.5230 305.1209 305.1299 305.5646 305.5733 305.8071 305.8851 306.0247
   306.8747 307.1470 307.2258 307.7557 308.0579 308.1588 308.2175 308.8270
   308.8848 309.1674 309.1989 309.2661 310.1424 310.4048 310.8624 310.9648
   311.6015 312.6977 313.2084 313.4638 315.0682 315.3455 315.3869 315.6149
   315.8869 315.9634 316.1443 316.6749 316.7043 316.9641 317.0216 317.1085
   317.8367 318.1240 318.4968 318.7695 319.7112 320.5191 321.2160 321.2439
   321.4319 321.9007 322.0421 322.1051 322.4001 322.8574 322.8982 323.0172
   323.4064 323.5484 323.7811 323.8529 324.8896 324.9207 324.9601 324.9781
   325.4582 328.0023 329.0453 329.5958 329.8279 329.8383 330.6211 330.7250
   331.5371 331.8679 332.0022 332.0426 332.1029 332.2542 332.3654 332.9474
   333.2216 333.5683 333.6167 333.6445 333.7490 334.0431 334.2488 334.2748
   334.4369 334.7003 334.7217 334.7338 334.7375 335.0225 335.0385 335.0728
   335.2155 335.3436 336.0836 336.2067 336.4869 338.4903 338.6170 338.7036
   339.6972 340.0798 340.4332 340.8619 340.8954 341.0839 342.5522 343.2048
   343.2581 343.2993 343.4164 343.5108 343.9706 344.2054 344.8367 344.9873
   345.4587 345.4669 345.7042 345.7196 346.3331 347.5149 348.5876 348.8462
   349.1631 349.2252 349.3613 350.4310 351.3177 351.6620 352.0187 352.0718
   352.1760 352.4685 352.4902 352.9524 352.9857 353.0184 353.0412 353.3251
   353.5908 354.2491 355.1698 355.5540 355.8310 357.0792 358.5228 358.6238
   359.3122 359.8275 359.9562 360.0971 360.2846 361.7557 361.9945 362.1342
   362.7932 363.0465 363.1140 363.4481 363.5053 363.9728 364.1598 364.2157
   365.0080 365.0188 366.8238 366.8681 367.0844 367.4178 367.6497 367.8112
   368.1829 368.4285 368.6236 368.7250 369.8437 370.2098 370.5031 370.7650
   371.2520 371.3567 371.5428 371.6355 372.0337 372.9950 373.0253 373.2326
   373.4817 375.3548 375.5286 376.2658 376.5221 376.9632 377.1403 377.2866
   377.9322 378.2330 378.5017 378.5966 378.7092 379.1942 379.1976 379.3139
   379.3972 379.5238 379.6295 379.6459 379.9816 381.1919 381.2001 381.3529
   382.0449 382.6001 382.8280 383.2802 384.4510 384.5957 384.6833 384.9477
   385.2740 385.5257 385.6999 386.0117 386.4125 386.4684 387.3458 387.4316
   387.4934 387.5070 387.5144 388.0615 388.2340 388.6577 388.6736 388.7719
   389.1699 389.2351 389.3059 389.7313 389.8906 390.0613 390.1191 390.1302
   390.2589 390.2966 390.3520 390.5329 390.5927 390.6159 390.6250 390.6265
   391.0212 391.0419 391.1541 391.3386 391.6500 391.6940 391.8618 391.9294
   393.6696 394.5953 394.8723 395.0772 395.1469 395.5055 395.5915 395.7755
   396.3160 396.9280 397.3289 397.6560 397.8404 398.1129 398.1607 398.4645
   398.5658 398.6193 398.8567 399.0089 399.0425 399.0906 399.2034 399.2156
   399.3136 399.4041 399.4249 399.4785 402.9521 403.1537 403.2800 403.2842
   404.5969 406.1518 406.5206 406.5323 406.6439 407.2068 407.4585 407.4808
   407.4927 407.6730 407.7219 407.9526 407.9718 407.9989 408.0683 408.2512
   408.7665 408.9934 409.3175 410.1901 410.6718 411.8149 411.8265 411.9603
   412.0348 412.2195 412.5704 412.5704 412.7222 413.1296 413.5571 413.7550
   413.8134 414.2199 414.4396 414.4474 414.9991 415.1588 415.4731 415.6809
   415.9416 416.6070 416.6684 417.1348 417.2614 417.4150 417.6588 418.4155
   418.7674 418.8631 419.0432 419.3903 420.3683 420.3931 420.4602 420.5293
   420.8922 421.2676 421.4935 421.8078 421.9904 422.0770 422.2043 422.6545
   424.3058 424.8003 425.0003 425.1815 426.1757 426.6064 426.6461 426.6699
   428.3089 429.4308 429.8294 429.9248 430.4051 431.0268 431.6232 432.0473
   432.1499 432.2351 432.3742 432.7221 432.7367 432.9480 433.2378 433.3614
   433.5709 433.6389 433.6645 434.0228 434.1406 434.3418 434.4704 434.5329
   434.6018 434.7077 434.7212 434.8883 435.0100 435.2968 435.3585 435.6670
   436.2950 436.4808 436.4952 436.8800 437.3401 438.0007 438.1872 438.3265
   438.7561 439.5813 439.6463 439.6898 439.7946 440.3494 440.3600 440.4563
   440.8088 441.0533 441.1067 441.1735 441.4252 442.8951 442.9644 443.1527
   443.3462 443.5987 443.7982 443.8695 444.1158 444.2189 444.3216 444.5069
   444.5280 444.5887 444.8062 444.8423 445.0880 445.2982 445.5198 445.5400
   445.5592 445.8338 445.8459 445.9318 446.3976 446.6645 446.8443 446.9948
   447.0920 447.1927 447.3292 447.3592 449.6527 452.4993 452.8351 453.2013
   453.3608 453.8845 453.9012 453.9962 454.0713 454.0863 454.2678 454.3528
   454.4254 455.0553 455.7834 456.2208 456.3227 456.4695 456.5271 456.5891
   457.4612 457.5095 457.9065 458.2931 458.8869 459.1369 459.2460 459.2692
   459.9077 460.5172 460.9041 461.0558 461.1325 461.1470 461.1958 461.4095
   461.5875 461.6776 461.6837 463.1016 463.1249 463.5260 463.7473 464.4136
   464.5895 464.6007 465.0588 465.5254 465.8101 465.9679 466.2592 466.5428
   467.0707 467.2063 467.2481 467.7744 468.3079 469.0858 469.1755 469.2744
   469.7672 469.8953 469.9378 470.1886 471.0578 471.1006 471.1528 471.2203
   472.1269 472.5659 472.6343 472.7684 472.8969 472.9775 473.0054 473.0137
   473.0819 473.1559 473.1725 473.1894 473.2472 473.2863 473.3046 473.3494
   473.6392 473.7522 473.8177 473.8656 474.3769 474.4238 474.5547 474.7859
   478.5034 479.5423 479.8530 480.0034 480.8015 481.0286 481.0455 481.0910
   481.1230 481.3381 481.3763 481.8278 481.8354 482.0087 482.1386 483.4935
   483.9588 484.0305 484.0512 484.0624 486.3199 486.3230 487.4759 487.5420
   488.0964 488.1168 488.4549 488.4701 488.9666 489.6482 489.6679 489.7921
   490.0360 490.0658 490.1003 490.2847 490.4047 490.4397 490.4843 490.8519
   491.4801 491.4989 491.5473 491.5725 491.5788 491.7266 491.9214 491.9584
   493.2404 494.1936 494.3634 494.5755 494.8236 494.9747 495.0092 495.1672
   496.5151 496.7509 496.7852 496.9442 497.3793 498.2711 498.5767 498.7255
   498.9637 499.4269 500.0900 500.3238 500.5090 500.7688 500.7866 500.7894

     the Fermi energy is     9.6714 ev
     (compare with:     9.6251 eV, computed in scf)

     Writing all to output data dir out/mp-10182.save/
 
     init_run     :      0.05s CPU      0.09s WALL (       1 calls)
     electrons    :    523.53s CPU    560.65s WALL (       1 calls)

     Called by init_run:
     wfcinit      :      0.00s CPU      0.00s WALL (       1 calls)
     potinit      :      0.02s CPU      0.02s WALL (       1 calls)
     hinit0       :      0.02s CPU      0.05s WALL (       1 calls)

     Called by electrons:
     c_bands      :    523.53s CPU    560.65s WALL (       1 calls)
     v_of_rho     :      0.00s CPU      0.00s WALL (       1 calls)

     Called by c_bands:
     init_us_2    :      0.00s CPU      0.00s WALL (      29 calls)
     init_us_2:cp :      0.00s CPU      0.00s WALL (      29 calls)
     cegterg      :    508.41s CPU    544.51s WALL (      29 calls)

     Called by *egterg:
     cdiaghg      :    470.48s CPU    504.54s WALL (     247 calls)
     h_psi        :     16.36s CPU     16.89s WALL (     276 calls)
     g_psi        :      0.05s CPU      0.05s WALL (     218 calls)

     Called by h_psi:
     h_psi:calbec :      0.23s CPU      0.25s WALL (     276 calls)
     vloc_psi     :     15.89s CPU     16.39s WALL (     276 calls)
     add_vuspsi   :      0.16s CPU      0.16s WALL (     276 calls)

     General routines
     calbec       :      0.23s CPU      0.25s WALL (     276 calls)
     fft          :      0.01s CPU      0.04s WALL (      10 calls)
     fftw         :     14.94s CPU     15.40s WALL (  393978 calls)
 
     Parallel routines
 
     PWSCF        :   8m46.02s CPU   9m24.10s WALL

 
   This run was terminated on:  13:55:56   5Apr2024            

=------------------------------------------------------------------------------=
   JOB DONE.
=------------------------------------------------------------------------------=
