
     Program PWSCF v.7.1 starts on 16Nov2023 at  2:58:18 

     This program is part of the open-source Quantum ESPRESSO suite
     for quantum simulation of materials; please cite
         "P. Giannozzi et al., J. Phys.:Condens. Matter 21 395502 (2009);
         "P. Giannozzi et al., J. Phys.:Condens. Matter 29 465901 (2017);
         "P. Giannozzi et al., J. Chem. Phys. 152 154105 (2020);
          URL http://www.quantum-espresso.org", 
     in publications or presentations arising from this work. More details at
     http://www.quantum-espresso.org/quote

     Parallel version (MPI), running on    24 processors

     MPI processes distributed on     1 nodes
     123358 MiB available memory on the printing compute node when the environment starts
 
     Reading input from pw_mp-149_nscf_k690_E80.in
Warning: card &IONS ignored
Warning: card / ignored
Warning: card &CELL ignored
Warning: card / ignored

     Current dimensions of program PWSCF are:
     Max number of different atomic species (ntypx) = 10
     Max number of k-points (npk) =  40000
     Max angular momentum in pseudopotentials (lmaxx) =  4

     Atomic positions and unit cell read from directory:
     out/mp-149.save/
     Atomic positions from file used, from input discarded
 
 
     K-points division:     npool     =       2
     R & G space division:  proc/nbgrp/npool/nimage =      12
     Subspace diagonalization in iterative solution of the eigenvalue problem:
     one sub-group per band group will be used
     scalapack distributed-memory algorithm (size of sub-group:  3*  3 procs)

 
     Parallelization info
     --------------------
     sticks:   dense  smooth     PW     G-vecs:    dense   smooth      PW
     Min          96      96     29                 2190     2190     356
     Max          97      97     30                 2194     2194     359
     Sum        1159    1159    349                26301    26301    4279
 
     Using Slab Decomposition
 


     bravais-lattice index     =            2
     lattice parameter (alat)  =      10.2871  a.u.
     unit-cell volume          =     272.1571 (a.u.)^3
     number of atoms/cell      =            2
     number of atomic types    =            1
     number of electrons       =         8.00
     number of Kohn-Sham states=         1200
     kinetic-energy cutoff     =      80.0000  Ry
     charge density cutoff     =     320.0000  Ry
     Exchange-correlation= PBE
                           (   1   4   3   4   0   0   0)

     celldm(1)=  10.287106  celldm(2)=   0.000000  celldm(3)=   0.000000
     celldm(4)=   0.000000  celldm(5)=   0.000000  celldm(6)=   0.000000

     crystal axes: (cart. coord. in units of alat)
               a(1) = (  -0.500000   0.000000   0.500000 )  
               a(2) = (   0.000000   0.500000   0.500000 )  
               a(3) = (  -0.500000   0.500000   0.000000 )  

     reciprocal axes: (cart. coord. in units 2 pi/alat)
               b(1) = ( -1.000000 -1.000000  1.000000 )  
               b(2) = (  1.000000  1.000000  1.000000 )  
               b(3) = ( -1.000000  1.000000 -1.000000 )  


     PseudoPot. # 1 for Si read from file:
     /usr/scratch4/magr4985/MG/HTDF/pseudo/SG15/Si.upf
     MD5 check sum: 7f029a58b69e3aa87b46a36c608bf45e
     Pseudo is Norm-conserving, Zval =  4.0
     Generated using ONCVPSP code by D. R. Hamann
     Using radial grid of  602 points,  4 beta functions with: 
                l(1) =   0
                l(2) =   0
                l(3) =   1
                l(4) =   1

     atomic species   valence    mass     pseudopotential
        Si             4.00    28.08550     Si( 1.00)

     24 Sym. Ops. (no inversion) found



   Cartesian axes

     site n.     atom                  positions (alat units)
         1           Si  tau(   1) = (  -0.2500000   0.2500001   0.2500000  )
         2           Si  tau(   2) = (  -0.5000000   0.5000000   0.5000000  )

     number of k points=    29  Gaussian smearing, width (Ry)=  0.0005
                       cart. coord. in units 2pi/alat
        k(    1) = (   0.0000000   0.0000000   0.0000000), wk =   0.0039062
        k(    2) = (  -0.1250000   0.1250000  -0.1250000), wk =   0.0312500
        k(    3) = (  -0.2500000   0.2500000  -0.2500000), wk =   0.0312500
        k(    4) = (  -0.3750000   0.3750000  -0.3750000), wk =   0.0312500
        k(    5) = (   0.5000000  -0.5000000   0.5000000), wk =   0.0156250
        k(    6) = (   0.0000000   0.2500000   0.0000000), wk =   0.0234375
        k(    7) = (  -0.1250000   0.3750000  -0.1250000), wk =   0.0937500
        k(    8) = (  -0.2500000   0.5000000  -0.2500000), wk =   0.0937500
        k(    9) = (   0.6250000  -0.3750000   0.6250000), wk =   0.0937500
        k(   10) = (   0.5000000  -0.2500000   0.5000000), wk =   0.0937500
        k(   11) = (   0.3750000  -0.1250000   0.3750000), wk =   0.0937500
        k(   12) = (   0.2500000   0.0000000   0.2500000), wk =   0.0468750
        k(   13) = (   0.0000000   0.5000000   0.0000000), wk =   0.0234375
        k(   14) = (  -0.1250000   0.6250000  -0.1250000), wk =   0.0937500
        k(   15) = (   0.7500000  -0.2500000   0.7500000), wk =   0.0937500
        k(   16) = (   0.6250000  -0.1250000   0.6250000), wk =   0.0937500
        k(   17) = (   0.5000000   0.0000000   0.5000000), wk =   0.0468750
        k(   18) = (   0.0000000   0.7500000   0.0000000), wk =   0.0234375
        k(   19) = (   0.8750000  -0.1250000   0.8750000), wk =   0.0937500
        k(   20) = (   0.7500000   0.0000000   0.7500000), wk =   0.0468750
        k(   21) = (   0.0000000  -1.0000000   0.0000000), wk =   0.0117188
        k(   22) = (  -0.2500000   0.5000000   0.0000000), wk =   0.0937500
        k(   23) = (   0.6250000  -0.3750000   0.8750000), wk =   0.1875000
        k(   24) = (   0.5000000  -0.2500000   0.7500000), wk =   0.0937500
        k(   25) = (   0.7500000  -0.2500000   1.0000000), wk =   0.0937500
        k(   26) = (   0.6250000  -0.1250000   0.8750000), wk =   0.1875000
        k(   27) = (   0.5000000   0.0000000   0.7500000), wk =   0.0937500
        k(   28) = (  -0.2500000  -1.0000000   0.0000000), wk =   0.0468750
        k(   29) = (  -0.5000000  -1.0000000   0.0000000), wk =   0.0234375

     Dense  grid:    26301 G-vectors     FFT dimensions: (  45,  45,  45)

     Estimated max dynamical RAM per process >     131.25 MB

     Estimated total dynamical RAM >       3.08 GB

     The potential is recalculated from file :
     out/mp-149.save/charge-density

     Starting wfcs are random

     Band Structure Calculation
     Davidson diagonalization with overlap

     ethr =  5.00E-06,  avg # of iterations = 10.4

     total cpu time spent up to now is     1176.0 secs

     End of band structure calculation

          k = 0.0000 0.0000 0.0000 (  3287 PWs)   bands (ev):

    -5.7616   6.1463   6.1463   6.1463   8.7037   8.7037   8.7037   9.4001
    13.8119  13.8119  14.0582  17.3491  17.3491  17.3491  21.4893  28.9501
    28.9501  28.9501  29.9643  29.9643  31.6634  31.6634  31.6634  35.2758
    35.2758  35.2758  40.4003  40.4003  40.4003  44.1548  44.1548  44.2853
    46.3266  46.3266  48.1969  48.1969  48.1969  49.9468  49.9468  49.9468
    50.5198  50.9863  50.9863  50.9863  51.0027  51.0027  51.0027  52.3892
    52.3892  52.3892  56.3136  57.3199  57.3199  57.3199  57.6939  57.6939
    57.6939  62.5564  63.3983  71.4569  71.4569  75.0490  75.0490  75.0490
    75.6112  75.8039  75.8039  76.0475  76.0475  76.0475  76.0475  76.8505
    76.8505  76.8505  79.1526  83.0959  83.0959  83.0959  87.4547  87.4548
    87.4548  88.1522  88.1522  88.8538  88.8538  88.8538  88.9429  88.9429
    88.9429  91.9342  91.9342  92.0242  92.7913  92.7913  92.7913  96.0041
    96.0041  96.0041  97.0612  97.0612  97.0612  97.1856  97.1856  97.1856
    97.7916  97.7916  97.7916  98.6027  99.6751  99.6751  99.6751  99.7474
    99.7474  99.9326 104.9218 104.9218 104.9218 106.4315 106.4315 106.9847
   106.9847 106.9847 108.0660 112.3126 112.3126 112.3127 114.2488 114.2488
   114.2489 115.2246 115.2246 115.2246 115.8923 115.8923 115.8923 116.6526
   116.6526 118.9343 123.4374 123.4374 123.4749 123.4749 123.4749 124.8584
   124.8584 124.8584 125.6592 126.9648 126.9648 127.8199 127.8199 127.8199
   128.8881 128.8881 128.8881 129.4888 131.2033 132.0135 132.0135 132.0135
   132.1241 132.1241 132.1241 132.2645 132.2645 132.2645 132.4998 132.4998
   132.4998 144.4860 144.6737 144.6737 144.6737 144.9161 144.9161 144.9161
   146.1394 147.0402 147.0402 147.5238 147.5238 147.5238 147.8865 147.8865
   147.8865 149.3370 149.3370 149.3370 155.1245 155.1245 159.5053 159.5053
   159.5053 160.7899 163.9571 163.9571 164.4187 164.4187 164.4187 165.1535
   165.1535 165.1535 167.5925 167.5925 167.5925 169.0402 169.7078 169.7078
   169.8341 169.8341 169.8341 170.3756 170.3756 170.3756 170.5491 170.5491
   170.5491 170.6075 170.6075 170.6075 171.7025 171.7025 172.2165 172.2165
   172.2165 172.5046 172.5046 172.5046 172.9690 173.1110 173.1110 173.1110
   173.4686 173.4686 173.4686 173.5148 173.8321 175.3380 175.4797 175.4797
   175.4797 175.6842 175.6842 178.1652 178.1652 178.6277 178.6277 178.6277
   179.1709 179.1709 179.1709 179.2996 179.2996 179.2996 179.7485 179.7485
   179.7485 179.7816 179.7816 186.7319 186.7319 187.0584 187.0584 187.0584
   188.0905 193.1463 193.1463 193.1463 194.1961 194.1961 194.1961 195.8004
   195.8004 195.8004 196.2615 196.2615 196.2615 196.7330 198.3538 198.3538
   198.3538 199.2771 199.2771 199.3321 199.3321 199.3321 199.4264 199.4659
   199.4659 199.4659 200.5686 202.8578 202.8578 205.0203 205.0203 205.0203
   207.6691 207.6691 207.6691 208.6092 208.6092 208.6092 208.6930 208.6930
   208.6930 209.8350 209.8350 211.2265 212.9192 212.9192 212.9192 214.6285
   214.6285 214.6285 215.8227 215.8227 216.5908 216.5908 216.5908 216.8914
   217.6939 217.6939 217.6939 217.7609 217.7609 217.7609 218.6458 218.6458
   218.6458 218.8798 218.8798 230.1245 230.1245 230.1245 231.2699 231.2699
   231.2699 231.2990 233.2726 236.1279 236.1279 236.1279 237.0568 237.0568
   237.0568 237.3189 237.4712 237.4712 238.1366 238.1366 238.1366 239.1520
   239.1520 240.4974 240.4974 240.4974 241.8332 243.2536 243.2536 243.2536
   243.5540 243.5540 243.5540 245.6432 245.6432 246.0035 246.0035 246.0035
   247.2975 247.2975 247.2976 247.8984 247.8984 247.9689 248.9854 252.6785
   252.6785 252.6785 252.6799 252.6799 252.6799 252.8894 252.8894 252.8894
   252.8927 252.8927 252.8927 257.3735 257.3735 257.3735 257.3947 257.3947
   257.3947 257.4914 257.4914 257.5403 257.5403 257.5403 257.7246 258.0892
   258.6845 258.6845 258.6845 259.2846 259.2846 259.2846 260.1601 260.1601
   260.1601 260.1982 260.1982 262.8927 263.0964 263.0964 263.0964 263.8448
   263.8448 263.8448 265.4077 267.2735 267.2735 268.5181 268.5181 268.5181
   269.2331 269.2331 269.2331 271.1582 271.1582 271.1582 271.2310 271.2310
   271.2310 273.2516 273.2516 275.9689 275.9689 276.8391 276.8391 276.8391
   277.2052 277.2052 277.2052 277.4905 277.4905 277.4905 278.1864 278.1864
   278.1864 278.4760 278.4760 278.8844 279.6338 279.6338 279.6338 280.0305
   280.0305 280.0305 280.3127 280.6470 280.6470 280.6470 280.9375 280.9375
   280.9375 281.1531 281.5998 285.2851 285.2851 286.7371 286.7371 286.7371
   288.5466 288.5466 288.5466 288.5879 288.5879 288.5879 288.7536 288.7536
   289.3447 289.3447 289.3447 290.6230 290.7777 291.3010 291.3010 291.3010
   291.5225 291.5225 291.5225 293.3475 293.3475 293.3475 293.3524 293.3524
   293.3835 293.3835 293.3835 293.6648 293.6648 293.6648 293.9688 293.9688
   293.9688 293.9818 293.9818 294.4487 294.4487 294.4487 294.4799 294.4799
   294.4799 294.5958 294.8254 295.2609 295.2609 295.2609 295.2784 295.2784
   295.2784 295.3265 295.3265 295.4700 295.4700 295.4700 295.6176 295.6176
   295.6391 295.6391 295.6391 314.4357 314.4357 314.4750 314.4750 314.4750
   314.7294 318.4618 318.4618 318.4618 318.8684 319.4751 319.4751 319.4751
   320.6870 321.3766 321.3766 323.2627 323.2627 323.2627 326.1269 326.1269
   326.1269 326.6752 326.6752 326.6752 327.1845 327.1845 327.1845 327.6231
   327.6231 329.0405 330.8841 330.8841 330.8841 331.6359 331.6687 331.6687
   331.6687 332.4284 332.4284 333.3340 333.3340 333.3340 334.3264 337.8823
   337.8823 337.8823 337.9709 337.9709 337.9709 337.9948 337.9948 337.9948
   338.0704 338.0704 338.0704 339.9636 339.9636 340.1806 340.1806 340.1806
   340.3077 340.3077 340.3077 340.3193 340.3193 340.3193 340.4918 340.4918
   340.5884 340.5884 340.5884 341.1034 341.1034 341.1034 341.1083 341.1083
   341.1733 346.2131 346.2131 346.2131 346.3854 346.4525 346.4525 346.4525
   346.6077 346.6077 346.7637 346.7637 346.7637 352.5668 352.5668 352.7697
   352.7697 352.7697 355.0395 356.3758 356.3758 356.3758 357.2943 357.2943
   357.2943 357.2950 357.2950 357.2950 357.5044 357.5044 357.5044 357.5083
   357.5083 357.5083 357.6905 357.6905 357.6905 357.8241 357.8241 357.9149
   357.9149 357.9149 358.1748 358.8549 359.1671 359.1671 359.1671 359.3143
   359.3143 367.3874 368.2264 368.2264 368.2264 368.6525 368.6525 368.6525
   368.7112 370.6564 370.6564 370.6564 370.6706 370.6706 370.6706 370.7780
   370.8490 370.8490 370.8490 370.9421 370.9421 372.9569 372.9569 372.9569
   372.9969 372.9969 372.9969 373.0208 373.0208 373.2113 373.2113 373.2113
   373.4366 373.6102 373.6102 373.6126 373.6126 373.6126 373.9997 373.9997
   373.9997 374.3783 374.3783 374.3783 374.6909 379.0304 379.0304 379.0304
   379.0749 379.0749 379.0806 379.0806 379.0806 379.1622 379.1622 379.1622
   379.2151 381.1293 381.1775 381.1775 381.1775 381.2215 381.2215 381.2215
   381.2616 381.2616 381.2616 381.2686 381.2686 394.1322 394.2508 394.2508
   394.2508 394.4243 394.4243 395.4284 395.4284 395.4284 395.6847 396.1443
   396.1443 396.1443 396.8592 396.8592 396.8592 397.3442 397.3442 397.3442
   397.4416 397.4416 397.4416 397.8955 397.8955 398.4592 398.4592 398.7704
   398.7704 398.7704 399.0441 400.3921 400.3921 400.3921 401.0959 401.2292
   401.2292 401.2292 403.6630 403.6630 403.6630 404.4468 404.4468 404.4468
   405.0739 405.4453 405.4453 405.4453 406.6172 406.6172 408.6566 408.6566
   408.6566 409.0937 409.0937 409.1343 409.2546 409.2546 409.2546 409.4046
   409.4046 411.5289 411.5289 411.5289 412.2399 412.2399 412.2399 412.7761
   412.7761 412.7761 413.0989 413.0989 413.2107 413.2107 413.2107 413.5301
   413.5301 413.7646 413.7646 413.7646 414.4758 414.4758 414.4758 414.9685
   415.0681 415.1690 415.1690 415.1690 415.4984 415.4984 415.4984 415.6999
   415.6999 415.6999 415.7926 415.8129 415.8927 415.8927 415.8927 416.2725
   416.2725 416.2725 416.4289 416.4289 416.4289 418.0647 418.0647 418.0647
   418.1661 418.1661 418.5836 418.5836 418.5836 418.6781 418.6781 418.6781
   418.7857 418.7857 418.7857 419.3394 419.3394 421.2715 421.2715 421.5043
   421.5043 421.5043 421.9778 421.9778 421.9778 422.0086 422.1673 422.1673
   422.1673 422.2326 422.2326 422.2326 422.5547 422.5547 422.5547 422.5987
   422.5987 422.8610 422.8610 422.8610 423.0079 430.8758 431.0047 431.0047
   431.0047 431.1047 431.1047 431.1047 431.1335 440.8373 440.8373 440.8474
   440.8474 440.8474 440.9669 440.9669 440.9669 441.0659 441.0659 441.0659
   441.1855 441.1855 441.1855 441.2104 441.2104 447.2781 447.2781 447.3440
   447.3440 447.3440 447.4346 448.8193 448.8193 448.8495 448.8495 448.8495
   448.8778 449.8675 449.8675 449.8675 449.8865 449.8865 449.8865 449.9215
   449.9215 449.9215 449.9568 449.9568 449.9568 455.6701 455.6701 455.6701
   455.6820 455.6820 455.6820 455.7590 455.7590 455.7590 455.7742 455.7742
   455.7742 456.2006 456.2006 456.2299 456.2299 456.3120 456.3120 456.3120
   456.3473 456.3473 456.3473 456.4527 456.4951 469.8049 470.1273 470.1273
   470.1273 470.5056 470.5056 470.5056 471.1222 473.8958 473.8958 473.9332
   473.9332 473.9333 474.5721 474.5721 474.5721 474.6832 474.6832 474.6832
   474.7625 474.7625 474.7625 475.3196 475.3196 476.2850 476.8280 476.8280
   476.8280 477.6327 477.6327 477.6327 479.1506 479.1506 479.1909 479.1909
   479.1909 483.4828 485.4896 485.4896 485.4896 486.4489 486.4489 486.5778
   486.5778 486.5778 486.5995 486.5995 486.5995 487.9661 487.9661 487.9661
   488.0849 488.0849 488.0849 488.4203 488.4949 490.9260 490.9260 491.1667
   491.1667 491.1667 492.4539 492.4539 492.4539 492.4792 492.4792 492.8714
   492.8714 492.8714 493.0210 493.0210 493.0210 493.1870 494.6353 494.6353
   494.6353 494.7283 495.0087 495.0087 495.0087 497.2973 497.2973 497.3964
   497.3964 497.3964 497.4085 497.4085 497.4320 497.4320 497.4320 497.4873
   497.4873 497.4873 497.5998 497.5998 497.5998 498.5074 498.6208 498.6208
   498.6208 498.6636 498.6636 500.5840 500.5840 500.5840 500.5857 500.5857
   500.5857 500.6040 500.7248 500.7248 500.7248 500.7912 500.7912 503.2453
   503.2453 503.2453 503.2497 503.2497 503.2497 503.2706 503.2853 503.2853
   503.2853 503.2934 503.2934 508.4533 508.6129 508.6129 508.6129 508.6730
   508.6730 511.3940 511.3940 511.3940 511.4955 511.4955 511.4955 512.0208
   512.0208 512.2126 512.2126 512.2126 513.0919 515.0980 515.4008 515.4008
   515.4008 515.7453 515.7453 515.7453 515.8332 515.8332 515.8332 516.0980
   516.0980 517.3782 517.3782 517.3782 517.9259 517.9259 517.9259 518.2049
   518.2049 518.2049 519.0504 519.1685 519.1685 520.5014 520.5014 520.5014
   521.0415 521.0415 521.0415 521.0507 521.0507 521.0507 521.3473 521.3473
   521.3473 521.6161 521.6161 521.6465 521.6465 521.6465 521.8063 521.8063
   521.8063 521.8971 521.8971 521.8971 521.9810 523.7977 523.7977 523.8234
   523.8234 523.8234 523.8706 526.5842 527.1972 527.1972 527.1972 528.1830
   528.1830 528.1830 528.7069 528.7069 529.0545 530.2391 530.2391 530.2391
   530.9293 530.9293 530.9293 532.1656 532.1656 532.1656 532.4742 532.4742
   532.4742 533.0548 533.0548 533.2938 533.9454 533.9454 533.9454 534.0572
   534.0572 534.5692 534.5692 534.5692 534.6669 534.6669 534.6669 535.3395
   535.3395 535.3395 535.6101 535.9599 535.9599 535.9599 536.0510 536.0510
   536.1928 536.1928 536.1928 536.2076 536.2076 536.2076 536.3680 536.3680
   536.3680 536.4400 536.5385 537.2418 537.2418 537.2418 537.4160 537.4160

          k =-0.1250 0.1250-0.1250 (  3305 PWs)   bands (ev):

    -5.5589   4.5506   5.8615   5.8616   8.6148   9.1230   9.1230  10.7707
    13.3395  13.3395  14.8428  16.7918  18.4943  18.4943  22.7089  27.0038
    27.0038  27.3211  29.6532  29.6532  32.1613  32.1613  32.9755  35.4602
    37.3189  37.3189  38.2183  39.9603  39.9603  42.4654  42.4654  44.5187
    44.5187  44.8417  47.7985  47.7985  47.8299  48.1962  49.2559  49.8058
    49.8058  50.4585  50.5890  50.5890  52.1958  53.0407  53.1932  53.1932
    55.4997  55.4997  55.6994  57.0166  57.0166  57.1832  60.1025  60.1025
    61.1489  64.1662  65.4645  68.8824  68.8824  71.5583  72.9032  72.9032
    73.6088  74.5960  74.5960  75.9284  76.3570  76.3570  76.6489  77.6037
    78.5688  78.5688  81.8577  82.7920  83.5119  83.5119  84.3618  84.3618
    86.4726  87.3586  87.3586  88.6235  88.6235  89.1808  89.1808  89.1854
    89.5495  90.1365  90.7724  91.7108  91.7108  93.2506  93.9057  93.9057
    94.2988  94.2988  95.5266  95.8513  95.8513  96.5600  97.8818  98.1904
    98.1904  99.8686  99.8686 100.6164 100.7233 101.8877 101.8877 102.7374
   102.7374 103.6204 103.7465 103.7465 105.3934 106.4390 106.4390 107.7306
   107.7306 108.4045 109.9843 110.0920 110.0920 111.7727 111.7727 111.9003
   113.7139 114.2563 116.1620 116.1620 117.9347 118.1230 118.1230 118.5263
   118.5263 118.8151 119.9803 121.0291 121.1144 121.1144 122.6085 122.6085
   124.6626 124.6626 124.7847 126.0964 126.2299 126.2299 126.5179 126.8365
   126.8365 128.6478 129.4232 129.4232 131.9358 131.9358 132.1851 133.2133
   133.2133 134.2030 135.1694 136.0860 137.1475 137.1475 138.0805 138.3601
   138.3601 138.4947 139.4355 139.4355 141.5794 142.9128 142.9128 144.9317
   145.5708 145.5708 146.7171 146.7171 146.9383 147.9580 150.0778 150.0778
   152.1674 152.1674 154.7172 155.5909 156.0861 156.0861 157.0494 157.0494
   158.0694 158.1612 159.6929 159.6929 160.0256 160.5700 160.5700 161.9152
   162.9670 163.3380 163.3380 163.7820 165.9986 165.9986 166.0243 166.2852
   166.2852 167.0257 167.3329 167.3329 168.1725 168.1725 168.3465 168.3465
   168.6819 168.7839 168.7839 169.1000 170.4582 171.4913 171.4913 172.6513
   172.7015 172.7015 173.1876 173.1931 173.1931 173.2181 174.2318 174.2318
   175.2890 175.2890 176.3385 177.4709 177.6120 177.6646 177.6646 177.8251
   177.8251 178.9298 179.5256 179.5256 179.7502 179.7502 180.7791 181.8185
   181.8185 181.9658 182.0343 182.1997 182.1997 183.0148 184.1150 184.1150
   184.6208 184.9366 185.9664 185.9664 186.5275 186.5275 186.8119 187.5180
   189.3016 189.3016 189.7853 191.2369 191.2369 191.6587 191.6587 192.6428
   193.3371 193.4109 193.4109 193.7813 193.7813 194.7176 195.1170 195.1170
   198.9118 198.9118 199.8232 200.4932 200.4932 201.6560 202.1157 202.3269
   203.3790 203.5548 203.5548 203.8567 203.8567 204.7318 204.7318 205.4965
   205.9573 205.9573 207.8405 207.8405 208.4170 208.4170 208.4866 208.6383
   209.6607 209.6607 210.1824 210.8847 211.4970 211.4970 212.4069 213.2213
   213.2213 215.0419 215.7179 215.8182 215.8182 216.8980 217.7982 218.3987
   218.3987 220.4159 220.4159 222.3791 223.3124 223.3124 224.5316 224.5426
   224.5426 225.0320 225.2116 225.2116 226.1476 226.1476 226.4495 227.5823
   230.4901 230.9702 230.9702 231.2403 231.2403 233.7280 233.7280 234.2839
   234.2839 235.5628 235.9809 236.9721 236.9721 237.6297 237.6297 237.9892
   238.4454 239.3200 239.3200 239.3219 241.6669 241.6669 242.4286 243.7085
   244.3822 244.3822 244.5905 244.5905 244.6812 245.3695 245.3695 245.4758
   245.5697 246.2659 246.5267 246.6291 246.6291 247.7865 247.7865 249.0308
   249.4901 249.4901 249.6779 251.5486 251.5486 252.5534 253.3651 253.3651
   254.0359 254.3841 254.3841 256.2033 256.2261 256.2261 256.6872 256.6872
   256.8121 256.8883 256.8883 257.7022 257.7022 257.7670 258.6717 260.3396
   260.3626 260.3626 261.3603 261.4395 261.4395 261.8158 261.8158 262.4790
   262.6609 262.6609 263.0021 263.0021 263.1997 263.3602 263.9148 263.9148
   265.2143 265.4104 266.1795 266.2848 266.2848 267.2870 267.2870 267.7531
   270.1240 270.1240 270.2676 270.5696 271.1469 271.1469 271.3183 272.1177
   272.1177 272.5072 272.9128 272.9128 273.3986 273.3986 274.5874 274.5874
   274.8110 274.8878 275.2793 275.2793 275.8101 276.0942 276.0942 277.0218
   277.7675 277.7675 277.9443 278.4999 278.4999 278.8066 279.1036 279.1036
   279.9789 279.9789 279.9949 280.3559 280.9164 280.9164 280.9649 281.5572
   282.2298 282.2298 282.9389 282.9389 283.5651 283.9150 283.9150 284.7945
   285.6652 285.6652 286.3921 286.3921 286.4076 286.6464 286.6464 286.6630
   287.9038 288.0685 288.0735 288.0735 288.4201 288.4201 289.5865 289.6389
   289.6389 290.5941 290.7843 290.7843 291.2587 291.2587 291.3778 292.6404
   292.6404 293.0080 293.0080 293.0890 295.0334 295.3490 295.3490 296.0545
   296.1319 297.1626 297.7938 297.7938 298.3885 298.4156 298.4156 299.3189
   299.3189 299.5671 301.4068 301.4068 301.8293 302.4906 302.5926 302.5926
   304.4441 304.4441 304.5994 304.5994 304.8089 304.8437 305.1476 305.1476
   305.1540 306.2539 308.1694 308.1694 308.7309 309.1575 309.1575 311.5585
   311.5585 312.1891 312.7172 312.7172 315.1863 315.1864 315.4685 318.0640
   318.4024 320.9213 320.9213 322.1681 322.1681 322.6243 323.2044 323.2044
   323.5873 323.5873 323.8400 324.6817 324.6817 325.1264 326.5845 326.5845
   326.9447 327.7290 327.7703 327.7703 328.9637 328.9637 329.1320 330.8181
   330.8181 330.9339 331.9919 332.3182 332.4098 332.4098 332.5122 332.5122
   332.9355 332.9355 332.9574 333.3119 333.3119 335.1203 335.2219 337.2943
   337.2943 337.4803 337.5209 337.5209 337.7531 339.7367 339.7367 340.0064
   340.0064 340.5047 341.5674 342.5791 342.9762 342.9762 343.5630 343.5630
   344.6622 344.6692 344.7807 344.7807 345.2139 345.2139 345.5350 345.5809
   345.5809 346.8072 346.8496 346.8496 348.0384 348.0384 348.0615 348.6361
   348.9260 349.0595 349.0595 349.4128 349.4128 349.6883 349.7754 349.7754
   349.7980 350.7331 352.7143 352.7143 352.7880 352.9330 353.0268 353.0268
   355.4829 355.7204 355.7204 357.1584 357.1584 357.2498 357.3042 357.3042
   357.4581 357.4937 357.4937 357.6840 357.8206 357.8206 359.7265 359.8573
   359.8573 359.9967 359.9967 360.1909 361.3524 361.3524 361.5783 362.1394
   362.1394 362.2565 363.2896 363.5162 363.5162 366.1939 366.1939 366.7547
   367.8867 368.0722 368.0722 368.2365 368.2455 368.2455 369.5094 369.5962
   369.5962 370.0781 370.0781 370.1113 371.8328 371.8328 372.1171 372.5122
   372.5122 372.6016 372.7717 372.7717 373.0165 373.2613 373.2613 373.4625
   374.7399 374.7723 374.7723 375.5546 375.5546 375.5595 376.0678 376.0678
   376.0802 378.0798 378.1120 378.1120 378.3054 378.3256 378.5458 378.5458
   380.6300 380.6300 382.6061 382.8079 382.8079 383.0699 383.0699 383.0779
   383.3652 383.3892 383.3994 383.3994 384.6663 384.6663 385.2226 386.3352
   386.3352 387.5624 387.5624 387.6469 387.7017 388.7846 389.9901 389.9901
   390.0406 390.0406 390.6625 390.8359 390.9256 390.9257 391.2140 391.2140
   392.7365 392.9565 392.9565 393.1365 393.6454 393.8283 393.8283 395.0122
   395.0122 395.2910 397.2257 397.2460 397.8062 397.8062 397.9460 397.9460
   398.0207 398.1501 398.1501 398.1625 399.2986 399.3604 399.3604 400.1406
   400.1406 401.5531 402.0195 402.0195 402.5553 402.5553 402.8674 402.8952
   402.8952 403.2149 403.4086 403.4086 404.3223 404.3809 404.3809 404.7074
   404.9395 405.4631 405.4631 405.5387 405.6455 405.6455 405.9325 405.9325
   405.9469 406.6671 406.6671 406.7706 407.9644 408.1903 408.1903 409.7800
   409.7800 409.8889 410.1486 410.1486 410.7245 411.1528 411.2532 411.2532
   411.4642 412.4570 412.4812 412.6911 412.6911 413.1239 413.1239 413.6034
   413.6034 413.8526 414.0649 414.0649 414.5070 414.5070 414.5831 414.9935
   415.6737 416.3735 416.3735 416.9718 417.5579 417.5579 417.9498 419.1723
   419.1723 420.1956 420.4545 420.4545 420.7484 420.8717 421.0502 421.0502
   421.0636 421.0636 421.8445 421.8445 422.2392 423.4650 423.4650 423.6029
   423.6029 423.7912 424.4828 424.6437 424.7006 424.7006 424.9263 424.9263
   425.7529 425.7529 425.9052 426.9641 427.3678 427.3678 427.8717 427.9476
   427.9477 428.0939 428.6464 428.6464 431.6156 431.6156 431.8419 432.5036
   432.5036 432.5652 432.6225 432.6225 433.3973 433.6202 433.6202 433.6309
   433.6635 433.9857 433.9857 434.6943 435.6901 435.6901 435.9646 436.2656
   436.7103 436.7103 436.9208 436.9208 437.6038 437.6445 437.6445 437.9987
   437.9987 438.2173 439.7288 439.7288 439.9521 440.2638 440.2638 440.8927
   443.1890 443.2242 443.2242 445.3912 445.4441 445.4441 445.9851 445.9851
   446.0100 446.4202 446.4202 446.4203 449.9517 449.9618 449.9618 450.2322
   450.2365 450.2365 450.4377 451.1501 454.7014 454.7014 455.0608 455.0677
   455.0677 458.7067 458.8320 458.8320 458.9261 460.4055 460.5231 460.5231
   461.2229 461.2229 461.4069 461.4069 461.4490 461.4490 461.5188 462.5425
   462.5498 462.5498 464.7069 464.8383 464.8383 465.7300 465.7300 465.8420
   466.7071 468.0801 468.1726 468.1726 468.7427 468.7427 468.9317 469.4046
   469.4046 469.9287 472.6280 472.6280 472.8217 472.8572 472.8619 472.8619
   473.0942 473.0942 473.4614 473.4614 473.4710 475.5017 475.6331 475.6331
   475.8301 476.7284 476.7284 477.5216 477.5216 478.2085 480.4918 480.7315
   480.7315 481.5486 481.5486 481.8668 482.3059 482.3059 482.3075 482.4824
   483.0740 483.2491 483.2491 483.5605 483.5605 484.1123 484.1365 484.1365
   485.2451 485.2451 485.2608 485.9062 485.9062 486.0052 487.0098 487.0098
   487.5228 487.7795 488.3914 488.3914 489.0141 489.0141 489.2517 490.4188
   490.6585 490.6585 490.9698 491.8935 491.8935 491.9866 492.4115 492.5577
   492.5577 492.7926 493.1205 493.1205 494.6458 494.6458 495.9837 495.9837
   496.2755 497.0271 497.2049 497.2049 497.3485 497.4790 497.4790 499.3681
   499.3681 499.6120 499.7841 499.7919 499.7919 499.9685 500.0455 500.0725
   500.0725 500.5300 500.5300 502.6382 502.7528 502.7528 503.1963 503.2327
   503.2327 503.9404 503.9404 503.9748 504.4434 504.5902 504.5902 504.7588
   504.8878 504.8878 505.1302 505.4307 505.4307 506.3416 506.6178 506.6178
   506.7022 506.7022 507.0071 507.0742 507.0742 507.1222 507.1999 507.7333
   507.7333 507.7757 508.2817 509.8073 509.8073 509.8807 509.9168 509.9168
   510.5387 510.8100 510.8100 510.8202 511.8059 511.8059 512.8235 512.8235
   512.9096 512.9208 512.9208 514.2314 514.5846 514.6264 514.6264 516.0574
   516.1146 516.1146 516.1577 516.1577 516.6558 516.6740 516.6740 516.7459
   517.2204 517.3369 517.3369 517.5313 517.9782 518.0478 518.0478 518.4304
   518.4304 518.4351 518.5523 518.5523 518.5722 518.8427 518.8427 518.9661
   518.9661 519.2664 520.8555 521.2654 521.3376 521.3376 521.6801 521.6801
   521.8278 521.9169 521.9169 522.2752 522.2752 522.3625 523.5353 523.5353
   523.8732 523.8848 524.2299 524.2299 524.5578 524.5578 524.6556 525.2735
   525.2735 525.5363 526.9415 527.3728 527.3728 528.2999 528.2999 528.4973
   529.5347 529.5347 529.6927 529.7083 529.9902 529.9902 530.6391 530.6391
   530.8691 531.5037 531.7495 531.7495 532.2420 532.2605 532.2605 532.5968
   532.5968 532.7850 532.7850 532.8415 533.3392 533.6686 533.7601 533.7601
   534.0566 534.0566 534.0698 535.0061 535.0507 535.0507 535.1161 536.0049
   536.0138 536.0138 536.1926 536.1926 537.1867 537.1867 538.1335 538.1748
   538.1748 538.2094 538.2331 539.1905 539.1905 539.9178 539.9178 540.1463

          k =-0.2500 0.2500-0.2500 (  3305 PWs)   bands (ev):

    -4.9676   2.2352   5.3965   5.3965   8.1322   9.6369   9.6369  12.9845
    13.2976  13.2976  15.0985  17.9175  20.6787  20.6787  23.8686  23.8686
    23.9813  26.1282  29.8227  29.8227  32.4914  32.4914  33.5711  35.3281
    35.9778  37.7629  37.7629  39.2176  39.2176  40.1902  40.1902  44.1210
    44.1210  44.3576  44.8543  45.3848  47.1440  47.1440  49.4253  49.7828
    49.7828  50.0725  50.5363  52.5840  52.5840  55.4707  55.4707  56.5681
    56.6833  56.6833  58.4354  60.1042  62.6715  62.6715  63.3707  63.3707
    63.4602  65.6135  65.6135  66.2551  67.1728  68.1946  68.1946  71.0179
    71.3640  71.6353  71.6353  74.8545  74.8545  75.5764  76.6856  77.2299
    79.9446  79.9446  81.1927  81.5721  81.5721  82.2978  83.7661  83.7661
    84.5807  85.2704  85.2704  85.6826  86.7033  86.7033  88.2101  89.7970
    89.7970  90.0331  90.4451  90.4451  91.0034  93.3842  94.3960  94.3960
    94.8901  94.8901  95.9554  96.5535  97.0008  97.0008  98.1915  98.1915
    98.7215  99.9061 101.2963 101.2963 101.9987 101.9987 103.4301 103.4301
   103.5495 104.3152 104.3152 105.8373 106.1578 108.9239 110.3057 110.3057
   110.4958 110.4958 110.9466 111.4504 111.6123 111.6123 111.9387 111.9387
   112.6362 113.5472 115.2028 115.2028 115.4572 115.8273 115.8273 118.5789
   118.5789 118.8650 119.5562 119.5562 120.5901 122.0091 122.4915 122.4915
   123.8574 123.9188 123.9188 124.1833 124.1833 125.6238 125.6661 126.1127
   128.5788 128.5788 129.3256 132.9241 133.8972 133.8972 134.0107 134.0107
   135.9465 135.9465 136.6944 136.6944 137.0196 139.2064 139.2064 139.8019
   142.4781 143.4675 143.4675 144.8455 144.8455 145.0872 145.3064 146.4047
   146.5413 146.5413 147.5318 147.5318 148.1205 148.4783 148.4783 148.5004
   148.5004 148.6080 150.0080 150.0080 151.4003 152.1526 152.9399 152.9399
   152.9962 153.5113 155.6383 155.6383 155.7696 155.7696 158.6387 159.8391
   160.6553 160.6553 160.8205 161.6268 161.6268 163.4001 163.6859 163.6859
   165.0541 165.8853 165.8853 166.6768 166.6768 166.9594 167.4043 168.2968
   168.2968 168.5123 168.9115 169.6851 169.6851 171.3173 171.3173 172.3641
   172.3641 172.4435 172.6440 172.7534 172.7534 173.8742 174.3991 174.3991
   175.5352 175.9355 177.3850 177.3850 177.4396 178.0857 178.0857 178.5861
   179.5814 179.9928 179.9929 180.2359 180.2359 181.5372 181.5372 184.6572
   184.6572 184.7959 185.0410 185.0410 185.1321 186.3368 186.6889 186.6889
   186.9368 187.5267 187.5267 188.5184 188.5184 188.9374 189.4585 189.4585
   189.9193 190.1723 190.9048 191.1983 191.1983 192.1380 192.1380 192.6026
   194.0863 194.0863 195.0848 195.0848 195.1748 195.1748 195.6526 196.9831
   197.1019 198.6398 198.6398 198.7770 201.0288 201.0288 201.0966 202.6284
   202.6284 203.1845 204.1491 204.6222 204.7974 204.7974 205.0615 205.0615
   206.8212 206.8212 207.3391 208.0681 208.0681 208.2479 211.9842 211.9842
   212.0549 212.6449 213.4682 213.4682 213.9544 214.4097 214.4097 216.2386
   216.4466 216.4466 218.0770 218.0770 218.4557 218.5868 218.5868 219.0872
   220.3460 220.3460 220.6825 222.3102 223.0749 223.0749 224.4828 224.6824
   224.6824 225.4496 225.7450 225.7450 226.6912 226.6912 227.8303 229.0045
   229.3007 229.3007 230.3843 231.6270 231.6270 232.3659 232.8185 233.1164
   233.3807 233.3807 234.8522 234.8522 235.1816 235.1816 235.9899 236.3051
   236.3051 236.3626 236.8583 236.8583 236.9529 238.1396 238.1396 238.4057
   239.8434 240.1712 240.1712 240.8815 241.2389 241.2389 241.5641 241.5641
   241.7745 242.9530 242.9530 244.8081 244.8081 244.8538 245.7969 247.1444
   247.1444 247.6407 247.6407 249.6602 250.0306 250.0660 250.0660 251.5488
   255.3399 255.4665 255.4665 255.6101 255.6101 255.8776 256.2868 256.2868
   256.5502 258.2858 259.0434 259.0434 259.7050 260.0591 260.0591 260.3117
   260.3117 260.7120 262.0092 262.0092 262.9066 262.9322 262.9322 263.4968
   263.5202 263.5202 263.6864 263.9703 264.0425 264.0425 264.6532 264.6532
   265.5924 265.6425 265.8673 265.8673 266.2272 266.2272 266.9721 267.5030
   267.5222 267.5222 267.7675 267.7675 268.5974 269.1573 269.1573 269.9606
   269.9606 270.1907 271.4783 271.5774 272.0572 272.0572 272.2417 272.9243
   272.9243 273.8866 273.8866 274.2667 274.3886 274.3886 275.1026 276.8750
   277.2392 277.2392 278.1033 278.1033 278.3053 278.5990 278.5990 278.7871
   280.4972 280.7461 280.7461 280.9416 280.9416 281.0718 283.3090 283.3090
   283.5000 283.7472 283.7624 283.7624 284.5176 284.5176 284.5219 284.5515
   284.8018 284.8018 285.9131 286.5493 286.5820 286.5820 287.8786 288.0807
   288.0807 288.4017 288.4017 288.5289 291.9867 292.6749 292.6749 293.4493
   293.4493 294.1346 294.5876 294.5876 295.5178 295.9326 296.3698 296.3698
   296.6266 296.6266 296.9855 297.4931 297.4931 298.4260 299.8347 301.6712
   301.6712 301.7255 301.7816 301.7816 302.7716 302.7716 302.9491 303.3446
   303.8513 303.8513 304.0295 304.4403 304.4403 305.3258 305.3258 305.6443
   305.9762 305.9762 306.7205 306.7205 308.5088 308.5088 309.7627 309.9283
   310.6331 310.8282 310.8507 310.8507 312.1784 312.2855 312.2855 314.4819
   314.4819 315.0057 315.1669 315.1669 315.3292 315.3292 315.5511 316.1933
   316.5126 316.5581 316.5581 317.5936 317.5936 318.8350 318.9435 318.9435
   319.4343 320.1419 320.1419 321.9957 322.9042 322.9042 323.4143 324.8598
   324.8598 325.2799 325.5188 325.5188 325.9656 326.0634 326.2590 326.4953
   326.4953 326.5906 326.5906 326.7369 326.7369 327.4377 328.2246 328.4995
   328.4995 328.9424 328.9424 333.3285 334.4430 334.4430 334.5803 334.8989
   334.8989 335.3334 336.6283 336.7001 336.7001 337.0796 337.0796 337.1160
   337.8160 337.8160 337.9573 341.5244 341.5244 341.7995 341.9714 341.9714
   342.0962 342.1074 342.1074 342.8214 343.4316 343.4316 343.5440 346.0558
   346.3534 346.3534 346.7795 346.7795 346.8022 346.8331 347.1711 347.1712
   347.6949 347.6949 347.9734 348.5702 349.4667 349.4667 349.5698 349.6975
   349.6975 352.8963 352.8963 352.9036 353.3227 353.7422 353.7422 354.2457
   354.9731 355.0897 355.0897 356.2717 356.2717 356.7958 356.9541 357.0516
   357.0516 357.7205 357.7205 358.0482 358.4906 358.4906 359.8067 360.1450
   360.1450 360.9057 362.3422 363.9065 363.9065 365.3917 365.3918 365.6323
   365.8427 365.8427 365.9728 365.9728 366.0753 366.6338 368.0314 368.2880
   368.2880 368.7174 368.7755 368.7755 368.9884 369.1587 369.1587 369.4136
   369.4136 369.4497 371.6942 372.0380 372.0380 372.6472 372.6472 372.8969
   373.9337 373.9337 374.9630 375.6573 375.7250 375.7250 375.8873 375.8873
   376.6192 376.8685 376.8685 376.9786 376.9786 377.0393 377.5383 377.5383
   377.9789 378.2267 378.4355 378.4355 378.8523 379.2494 379.2494 379.2845
   379.2845 379.7181 380.3993 380.9104 380.9104 381.2240 381.5664 381.5664
   381.9199 381.9199 381.9392 383.5416 383.5416 383.5442 384.6878 384.6878
   384.7894 385.7562 386.2277 386.2277 386.2891 386.9219 386.9219 387.0034
   387.0034 387.2068 387.7426 388.0877 388.0877 388.4887 388.4887 388.5640
   388.6674 388.6674 389.3519 389.5652 389.6078 389.6078 389.7023 389.7561
   389.7561 392.4742 392.7024 392.7024 393.9243 393.9789 394.6197 394.6197
   395.1391 395.3662 395.3662 396.5479 396.5479 397.0395 397.0467 397.2129
   397.2129 398.3390 398.5375 398.5375 401.5796 401.5796 401.7069 402.1431
   402.1431 402.2321 402.3702 402.4320 402.4320 402.7173 402.7173 403.9216
   403.9216 404.3212 405.8485 406.1298 406.4111 406.4111 406.6010 406.6010
   406.6880 406.8268 406.8268 407.1433 407.1433 407.6025 407.6256 408.5227
   408.5227 408.7239 408.7970 408.8583 408.8583 412.9483 413.1049 413.1049
   413.6239 413.6239 413.8109 413.8352 414.0413 414.0413 414.6397 414.6397
   414.6592 415.8338 415.8338 416.4537 416.8487 416.8896 416.8896 418.2555
   418.2555 418.8759 419.3271 420.1588 420.1588 421.1838 421.1838 421.8492
   422.6260 423.1458 423.1458 423.7186 423.7186 423.7629 423.9631 423.9631
   424.1503 425.3893 425.3893 425.4375 426.2466 426.2466 426.4079 426.9139
   426.9139 427.1400 427.9133 427.9794 427.9794 429.0834 429.0834 429.4570
   429.4906 429.4906 429.7558 431.0066 431.5106 431.9643 431.9643 432.0054
   432.0137 432.0137 432.4254 432.8350 432.8350 432.9900 432.9900 433.7144
   434.9382 435.4220 435.4220 435.7265 435.7265 436.3045 436.3954 436.3954
   437.1574 437.3401 437.3500 437.3500 437.5928 437.5928 437.6758 437.6801
   437.6801 437.7621 439.6074 439.6074 439.7473 439.8915 439.8915 440.3811
   441.9906 442.9810 442.9810 443.1222 444.1859 444.1859 444.3129 444.4863
   444.4863 444.6334 444.6334 446.3614 446.3614 446.4205 446.5700 446.8935
   446.8935 447.9753 449.2424 449.2424 450.0246 451.2262 451.2262 451.4855
   452.2274 452.2283 452.2283 453.6090 453.9642 453.9642 455.3157 455.3781
   455.3781 455.4067 455.4094 455.4094 455.7541 455.7541 457.2567 457.2567
   457.6209 459.0670 459.0670 459.8265 460.4611 460.4768 460.4768 461.6882
   461.6956 461.6956 465.3792 465.3792 465.5622 466.6496 466.9336 466.9336
   468.6810 468.6810 468.7349 469.1011 469.1920 469.1920 469.4608 469.4608
   469.4781 469.9602 469.9602 470.3092 470.6174 470.6174 471.3368 471.4251
   471.7505 472.5412 472.5412 472.5490 472.7969 472.7969 473.5695 474.0904
   474.0904 474.6612 474.6612 474.8803 476.0904 476.2197 476.2197 478.6647
   478.6647 479.3681 479.4080 479.7471 479.7471 480.0046 480.0046 480.5996
   480.5996 480.6761 480.9539 481.3806 481.3806 481.7627 482.4546 482.4546
   482.6661 482.6661 482.6895 482.8894 483.2174 483.4521 483.4521 483.4797
   483.4797 484.9030 484.9030 485.2391 485.9769 486.3357 486.3357 486.6564
   486.9490 486.9490 487.0074 488.3953 488.3953 488.5019 489.0902 489.0902
   489.3700 489.8255 489.8255 489.9764 490.0833 490.7847 490.7847 492.2466
   492.2466 492.6675 492.6675 492.7203 493.0272 493.1098 493.1098 495.8208
   496.5149 496.5592 496.5592 496.6039 496.6039 497.3581 497.6975 497.6975
   497.7496 498.6460 498.6690 498.6690 499.0872 499.2000 499.2000 499.5173
   499.5173 499.7457 500.0780 500.1159 500.1159 501.5408 501.7578 501.7578
   501.8054 501.8632 501.8632 502.6691 502.6691 502.6724 502.7582 502.7582
   503.6201 504.9735 505.5611 505.5611 506.1561 506.1569 506.1569 506.1861
   506.1861 506.2127 507.8541 507.8962 507.8962 508.0676 508.0676 508.1184
   508.6562 508.6706 508.6706 509.8761 509.9314 509.9314 511.4281 512.9586
   512.9586 512.9703 514.2413 514.3239 514.3239 514.4645 514.4645 514.7066
   514.7231 514.9750 514.9750 515.2064 515.2064 516.4850 516.4850 516.7279
   516.7442 516.8009 516.8009 516.8943 517.3326 517.3326 518.0009 518.0810
   518.0810 518.2990 518.3630 518.3630 518.8074 519.0321 519.0321 519.0763
   520.8560 520.8591 520.8591 522.4931 522.4931 522.7303 522.9242 523.2233
   523.2233 523.3583 523.3583 523.7715 523.7715 523.9110 524.3053 524.3322
   524.3322 525.2949 525.2949 525.5192 527.8748 527.8748 527.8908 528.0865
   528.0865 528.1103 529.1766 529.8080 529.8080 529.8403 530.1593 530.1593
   530.1682 530.3272 530.3272 530.4290 530.5255 530.5978 530.5978 531.1509
   531.6049 531.6049 531.9939 531.9939 533.1967 533.8925 534.3218 534.3218
   535.3382 536.5556 536.5556 536.8597 537.1471 537.1471 539.6363 539.6363
   539.7324 539.8416 539.8416 539.8915 540.4124 540.4124 541.0407 541.0407
   541.0931 541.3885 541.3885 541.6622 541.8725 541.8725 541.9244 542.1316
   542.1316 542.1667 542.1680 542.1680 542.6593 543.1732 543.7723 543.7723

          k =-0.3750 0.3750-0.3750 (  3284 PWs)   bands (ev):

    -4.0811   0.2286   5.0730   5.0730   7.7656   9.5842   9.5842  14.0009
    14.6680  14.6680  15.7402  19.7848  19.7848  20.1427  22.6509  24.5654
    24.5655  29.0372  29.6685  29.6685  29.7540  32.6423  32.6423  34.3113
    34.3113  35.6773  36.6655  38.4146  38.4146  39.3912  39.3912  40.6857
    43.3076  43.5484  46.5721  46.5721  47.5665  47.5665  48.9395  49.7094
    49.9664  49.9664  52.7537  54.2539  54.2539  56.9801  56.9801  58.8609
    60.0615  60.2849  60.2849  62.0536  62.0536  63.5099  63.5099  64.6547
    65.0018  66.2158  66.6856  66.6856  66.9515  68.4368  68.4368  70.0206
    70.0206  71.1496  71.8911  71.8911  73.2365  74.4652  76.0725  76.4064
    77.4253  77.4253  78.2145  79.1866  79.1866  80.2093  81.7851  81.7851
    82.2529  83.0938  85.3171  85.3171  86.1744  86.1744  89.7639  89.7639
    90.2103  90.2103  90.5792  90.5981  92.3792  92.3792  92.5493  94.5784
    94.9668  94.9668  95.8619  96.5974  97.3421  97.3421  99.3465  99.9488
    99.9488 101.1901 101.1901 102.1523 102.7728 103.8400 104.4549 104.4549
   105.0861 105.0861 105.9915 106.0186 106.0186 107.1072 108.4045 108.6874
   108.6874 110.4925 110.5041 110.5041 112.4116 112.4116 113.7083 113.7083
   113.8638 115.0343 115.0343 115.5958 117.2102 118.1963 118.2464 118.2464
   119.0221 119.0221 120.3139 120.6412 120.7826 120.7826 121.5120 121.5120
   122.2653 122.3981 124.4792 124.4792 125.9053 126.3009 126.3009 128.6671
   128.6671 129.5868 129.5868 131.7641 135.2048 135.7739 136.4419 136.4419
   138.3901 138.3901 138.6422 139.1009 139.7309 139.7309 140.2619 140.2619
   141.1624 141.1965 141.1965 141.9385 143.7295 143.7295 144.2342 144.4576
   144.4576 144.5892 146.2938 146.2938 147.9238 147.9238 148.4593 149.2610
   149.2610 149.6689 149.6982 150.3560 150.3560 151.3095 151.3095 152.8483
   153.1264 153.1264 153.3052 155.1209 156.9092 156.9273 156.9273 157.5307
   157.5307 157.7335 158.2024 158.6551 158.6551 160.6076 160.6076 162.3160
   164.3130 164.8338 164.8338 165.1536 165.2326 165.2326 166.2048 167.9013
   168.9289 168.9289 169.4536 169.4536 169.9797 170.0056 170.0056 171.5989
   171.5989 171.8083 171.9116 171.9116 172.0344 173.2649 173.2649 173.8643
   176.1723 176.5290 176.5290 176.8180 178.5237 178.5237 179.0654 179.3366
   179.3366 179.8367 179.8367 180.1035 180.1221 180.7330 180.7330 182.9044
   182.9044 183.0488 184.7292 184.9877 185.1133 185.4825 185.4825 185.7591
   185.7591 188.2274 188.2274 188.8925 188.8925 189.2643 189.3756 189.3756
   189.4937 190.0952 193.4105 193.4105 193.4115 196.5102 196.5102 197.1161
   198.2283 198.2283 198.3670 198.3670 198.9382 199.2901 200.0611 200.6408
   201.6815 201.9069 201.9069 202.3309 202.3309 202.9121 202.9121 203.9697
   204.2791 204.2791 205.0944 205.2145 205.2145 205.4938 207.2472 207.2472
   207.4746 207.4746 208.6399 209.4093 209.4093 209.4989 210.5353 212.4650
   212.4650 214.2999 214.5349 215.1807 215.1807 216.3598 216.3598 217.6641
   217.6641 217.7071 218.1352 218.3214 218.3214 218.4438 218.4438 220.8542
   221.3576 221.6280 222.8553 222.8553 223.4484 223.4484 223.8851 224.5555
   224.5555 225.0253 225.3699 225.3699 225.6068 225.6068 225.8873 226.9515
   227.9141 227.9141 227.9858 228.7101 228.7101 229.1606 229.8978 229.8978
   230.5390 230.5390 231.1447 231.1447 231.1479 231.8582 233.9294 233.9294
   235.9597 236.5628 236.7287 236.7287 236.8796 236.8796 237.0444 237.2702
   238.6787 238.9862 238.9862 239.6779 240.0230 240.0230 241.4978 241.4978
   241.6392 242.1349 242.8547 242.8547 244.1651 244.4992 245.2889 245.2889
   246.5026 246.5026 247.7649 247.7649 248.9582 249.7967 249.7967 249.9049
   249.9049 249.9112 251.0780 251.5140 251.5140 254.4616 254.4778 254.4778
   254.8111 255.7572 256.0822 256.0822 256.4416 256.4416 256.6146 256.7430
   256.8511 256.8511 259.0196 259.0196 259.2953 259.2953 259.7441 260.0298
   260.0420 260.0420 262.1400 262.1400 262.3113 264.0032 264.7240 264.7240
   266.1417 266.1417 266.2196 266.2196 266.2291 266.9297 266.9297 267.0714
   267.1237 269.6203 270.0416 270.0416 270.7164 272.2593 272.5956 272.5956
   273.4831 273.9858 273.9858 274.3064 274.3064 274.8644 275.3761 275.4089
   275.7320 275.7320 275.8824 275.8824 277.1228 277.1228 277.5616 278.5737
   278.5737 278.8934 278.8934 279.4441 279.4441 279.4627 279.4805 279.5755
   280.9413 280.9413 281.5916 281.5916 281.6043 281.7028 283.5660 284.5330
   284.5330 285.2698 285.5844 285.6731 285.6731 286.0761 286.0761 286.2884
   286.2884 286.4433 287.0801 287.0801 287.4614 287.7793 289.9649 290.2086
   290.2086 290.4853 290.4853 290.4927 290.8506 290.8506 293.8651 294.0145
   294.0145 297.0642 297.0642 297.4312 297.9216 297.9216 298.7704 298.7704
   298.8572 300.1828 300.4723 301.0691 301.0691 301.2934 301.2934 301.3774
   301.4669 301.9317 301.9317 303.1297 304.1776 304.1776 304.4445 304.4445
   304.4860 304.9443 304.9443 305.2780 307.0835 307.1230 307.1230 307.7098
   307.7098 307.9391 308.6856 308.6856 309.3313 310.2509 310.4268 311.2567
   311.6741 311.6741 311.8835 311.8835 312.1075 312.1560 312.1560 312.7420
   312.7420 313.1545 313.1856 313.1856 313.2228 313.9740 314.3915 314.3915
   317.0779 317.1260 317.1260 318.7297 318.9573 318.9573 319.3478 319.3478
   319.4592 320.7236 320.7236 320.7983 324.5788 324.5788 324.7288 324.7288
   324.9731 326.0107 326.0107 326.0806 326.8029 326.8029 326.8046 326.9206
   327.0494 327.5222 327.5222 327.6464 327.6464 327.8445 328.4531 328.4531
   328.6897 328.8758 328.8758 328.9978 329.0472 329.2577 329.5565 329.5565
   330.2479 330.9166 330.9166 332.5477 332.5477 333.9845 333.9845 334.2613
   337.1779 337.1779 337.2651 338.0103 338.0103 338.2935 338.5802 339.4281
   339.4281 339.8400 342.2815 342.2815 342.2848 343.6644 344.4011 344.4011
   344.4519 345.9234 345.9234 346.4383 346.4383 347.1760 347.3816 348.1734
   348.1734 348.8747 348.8747 349.1464 349.5298 349.5298 350.5349 350.5349
   351.4555 351.5551 352.2105 352.2105 352.3594 352.7823 352.7823 354.1556
   354.1556 354.2458 354.8283 354.8283 355.0036 356.4404 356.4404 356.9377
   357.9576 358.0757 358.0757 358.2429 358.7714 358.7714 359.0417 359.0417
   360.2694 361.2611 362.4521 362.4521 362.7219 363.9654 363.9654 364.4384
   364.5078 364.5078 366.1514 366.1514 366.2687 367.8555 368.0374 368.0374
   368.5617 368.5617 368.8085 369.3686 369.3686 369.5557 370.2190 370.3422
   370.7109 370.9271 370.9271 371.1853 371.1853 371.9332 371.9332 372.0168
   372.0321 372.0321 372.1574 372.1574 372.2805 372.4435 372.8197 372.8197
   373.6389 373.6389 374.1249 375.3089 376.1950 377.0556 378.2608 378.2608
   379.3111 379.3111 379.5984 379.6254 379.6254 379.6948 380.0392 380.0392
   380.0984 380.3357 380.3357 381.1831 381.1831 381.1958 381.9743 382.0178
   382.0178 382.3051 382.3051 382.5933 382.5933 382.6486 383.2778 383.3899
   383.5086 383.5086 383.9307 383.9307 384.5942 385.4643 385.4963 385.4963
   386.2528 386.2528 386.7346 386.7762 386.7762 386.8744 387.7889 387.7889
   388.5392 388.5733 388.6652 388.6652 389.9014 389.9105 389.9105 391.3135
   391.3135 391.4612 391.4612 391.5628 391.6267 392.4062 392.6026 392.6026
   392.9926 393.0162 393.0162 394.5809 394.5809 395.9741 396.3101 396.3101
   397.7503 397.7620 397.7620 400.1397 400.1397 400.2700 401.2883 401.6475
   401.6475 403.1041 403.1041 403.6817 404.2600 404.3228 404.3228 404.4900
   404.4900 404.6650 404.6650 404.7440 405.4375 407.4188 407.4188 407.6093
   408.8073 408.8073 408.9170 410.7090 411.1819 411.1819 412.3073 412.3073
   412.3248 412.7415 412.8476 412.8476 412.8563 413.3068 413.3068 413.4526
   413.9040 414.2009 414.2009 414.9881 414.9881 415.5927 416.0733 416.5254
   416.5254 416.9673 416.9673 417.3074 417.3074 417.5130 418.7741 419.7059
   419.7059 420.2893 420.2893 420.3218 421.3292 421.4293 421.4293 421.9268
   421.9565 422.0259 422.0259 424.3746 424.3746 425.1922 425.5981 425.7841
   425.7841 426.1327 427.3860 427.3860 427.4565 427.5272 427.5272 428.4117
   428.4117 428.5314 428.9262 428.9262 429.1642 429.2689 429.5285 429.5285
   429.6533 429.8339 430.1367 430.1367 431.2521 431.2521 431.5139 432.6246
   432.6473 432.6473 433.5671 433.5671 434.2952 434.2952 434.8889 434.8889
   435.1850 435.3973 438.2117 438.2745 438.2745 438.8066 438.8066 439.1477
   439.2471 439.2471 439.5837 440.6535 440.7288 440.7288 441.4218 441.4218
   442.4372 442.6109 442.9052 442.9052 444.5100 444.5100 445.1647 445.2154
   445.2154 445.3733 445.7623 446.3088 446.3142 446.3142 446.5936 446.6884
   446.6884 446.8897 446.8897 449.1591 449.1591 449.2329 450.1204 450.1204
   450.1378 450.5927 450.6372 450.6372 452.1676 452.1676 452.3003 452.6112
   452.8013 452.8013 454.6202 454.9182 455.1729 455.1729 455.5118 455.5118
   457.7695 458.2192 458.2192 458.3413 458.3899 458.3899 458.5245 459.0192
   459.0192 459.5316 459.5316 459.5618 460.0907 460.3660 460.3660 461.0287
   461.0287 461.0595 461.3726 462.2125 462.8654 462.8654 463.3485 463.3485
   463.9850 464.1336 464.1336 466.0752 468.3174 468.4606 468.4607 469.3174
   469.3174 469.5135 470.5241 470.7209 470.7209 471.0883 471.0883 471.4071
   471.5335 471.5335 471.5825 472.2527 472.4222 472.4222 472.9154 472.9154
   473.1291 473.8131 473.8131 474.1060 475.1721 475.1721 475.3392 475.4430
   475.4592 475.4592 475.8031 476.6791 476.6791 476.8799 476.9220 476.9220
   478.0789 478.0789 478.3596 478.3726 478.3726 478.4949 478.4999 478.4999
   478.6723 478.6985 478.6985 479.1827 479.1827 479.3886 479.6140 480.9462
   480.9851 480.9851 481.1361 481.1594 481.1594 481.9084 481.9084 481.9585
   485.3005 485.3415 485.3415 486.0455 486.3183 486.3183 486.6079 487.0041
   487.0041 487.0297 487.1630 487.1630 487.4622 487.4622 488.5468 488.6007
   488.6007 488.9186 489.0148 489.3888 489.3888 489.5948 489.7139 489.7139
   492.8160 493.9525 493.9525 493.9632 495.5634 495.6272 495.6272 496.3686
   496.4605 496.4605 497.2024 497.2024 497.6181 498.1005 499.0371 499.1241
   499.1241 499.4444 499.4444 499.5633 500.2866 500.2866 500.6848 501.4039
   501.4039 501.4470 502.1255 502.1255 502.1705 502.6679 502.6679 502.9752
   503.1198 503.1198 504.0704 504.0704 504.3462 504.3462 504.3506 504.3682
   504.3682 504.3734 506.0409 506.0409 506.1033 506.9085 506.9085 506.9386
   508.0371 508.0371 508.2783 508.3953 508.6694 508.6694 510.2297 510.2538
   510.2538 510.3802 510.3931 510.3931 510.4977 511.1921 511.1921 513.2820
   513.8310 513.8449 513.8449 515.5974 515.5974 516.4895 516.4895 516.7538
   517.1287 517.1287 517.1487 517.3722 517.6360 517.6360 518.1666 518.2190
   518.2190 518.2819 518.3390 518.3390 519.1903 519.1903 519.7381 519.7504
   519.7504 520.1609 520.1609 520.3263 520.3487 520.7813 520.8057 520.8057
   525.1807 525.1807 525.2424 526.2690 526.3493 526.3493 526.3907 526.3953
   526.3953 527.2766 527.4709 527.4709 527.9124 527.9124 527.9898 528.0709
   528.0709 528.1323 528.3262 528.3262 528.5353 528.6948 528.8312 528.8312
   529.4336 529.4336 529.7928 530.9459 531.3447 531.3447 532.3037 532.3037
   532.4775 532.5162 534.0734 534.5498 534.5498 535.0480 535.0480 535.1768
   535.2899 535.4251 535.4251 535.6295 535.6968 535.6968 537.2601 537.2601
   537.4881 537.7959 537.7959 538.6386 540.9564 540.9564 541.3693 542.4647
   542.4672 542.4672 544.3633 544.3939 544.3939 544.4252 544.4252 544.4511
   546.3922 546.4478 546.4478 546.8639 546.8663 546.8663 547.5767 547.5767

          k = 0.5000-0.5000 0.5000 (  3274 PWs)   bands (ev):

    -3.4504  -0.7845   4.9623   4.9623   7.6367   9.4745   9.4745  13.8516
    16.6046  16.6046  17.4007  17.4119  17.4119  19.0475  25.3151  25.9758
    27.6104  27.6104  27.7202  27.7202  31.6322  32.3382  32.3382  33.2625
    33.2625  34.3816  37.0466  38.2602  38.2602  38.7625  38.7625  39.6621
    42.4621  42.7579  46.5973  46.5973  48.5015  48.5015  48.8653  49.5023
    51.8842  51.8842  53.9979  53.9979  54.7031  58.3444  58.3444  58.4973
    59.8378  59.8378  60.1367  61.6452  61.6452  64.2078  64.2078  64.8757
    64.8757  64.9934  67.0740  67.7371  68.2277  68.2277  70.0608  70.6648
    71.6159  71.6159  72.4894  72.5179  73.4638  73.4638  74.5610  74.8434
    76.9212  77.1850  77.1850  77.7212  77.7212  78.4284  79.6851  79.6851
    81.4214  81.4215  82.8598  86.3582  86.3582  87.0579  89.0232  89.6152
    89.6152  90.7462  91.6267  91.6267  91.6816  94.1689  94.1689  95.1095
    95.1095  95.3374  97.6138  97.7697  97.7697  97.7985  98.0139  98.9310
    98.9310  99.5412  99.5412  99.7438 100.0347 104.7529 104.7529 106.1790
   106.1790 106.5234 107.5719 107.7682 107.7682 109.4696 110.0519 110.0519
   110.6350 110.6350 110.7987 111.0783 111.3769 112.0124 112.5550 112.5550
   113.2526 113.3563 113.3563 113.4455 113.4455 114.3790 118.0802 118.0802
   118.3795 118.3795 119.0927 121.2032 121.6141 121.6141 122.2691 122.2691
   127.9150 127.9150 127.9355 127.9355 128.6468 129.1297 131.0378 131.3273
   131.4785 131.4797 132.0646 132.0646 132.2372 132.2372 133.8621 133.8621
   134.1038 134.1038 135.1194 135.1194 136.2279 136.2279 137.6703 138.8341
   140.5965 141.9439 141.9439 143.8990 143.8990 144.1282 145.0772 145.8482
   145.8482 145.8756 146.7560 146.8911 146.8911 146.9013 146.9013 148.1801
   148.3636 148.3636 149.1457 149.4721 153.1762 153.1762 154.1046 154.1046
   155.0026 155.3614 155.9309 155.9309 156.4915 156.4915 156.8484 157.5554
   158.4766 158.4766 158.5659 158.5659 160.5160 160.5160 160.7704 160.7704
   160.8989 161.2252 164.0444 164.5731 164.5731 164.7570 164.8317 164.8317
   165.5111 165.7727 168.3730 168.3730 168.5452 168.8208 168.8208 169.9000
   169.9000 171.2516 171.2516 171.7270 173.2254 173.2254 173.4025 174.3399
   174.3399 176.0013 176.5409 176.6836 179.5179 179.5179 179.8164 179.8164
   179.8604 180.2748 181.0223 181.3980 181.3980 182.1910 182.1910 182.3443
   182.7342 182.7342 184.0724 184.0724 184.2382 185.4872 186.1292 186.4225
   186.4225 186.8396 187.0242 187.0242 190.4283 191.7945 192.2990 192.2990
   192.6792 192.6792 193.3202 193.3202 193.5259 193.5259 193.5891 193.6670
   193.8493 193.9699 197.7148 197.7148 197.7888 197.7888 203.4901 203.4901
   203.5589 203.5589 203.9071 204.4120 206.1279 206.1279 206.4277 206.4277
   207.8090 208.0129 208.6662 208.6662 208.9544 208.9544 208.9578 209.8532
   210.4272 210.4726 210.4818 211.7891 211.7891 211.8384 212.0803 212.0803
   214.1513 214.1513 214.2633 214.2633 215.9402 215.9402 216.1787 216.1787
   216.2719 216.3017 217.1498 217.1498 217.4586 217.6617 217.6617 217.8403
   220.5199 220.5199 220.5537 220.5537 220.6940 221.2976 221.6777 221.6777
   221.7850 221.7850 222.7522 222.7656 223.0157 223.0670 226.6564 226.6564
   227.2520 227.4207 227.4207 228.2633 231.3942 231.3942 231.4384 231.4384
   232.1924 232.3785 232.3785 232.4527 232.4527 232.7381 234.8330 235.5590
   235.5590 236.0717 236.0717 236.6051 236.9635 236.9635 237.1460 237.1460
   237.4102 237.4882 238.2506 238.8872 238.8872 239.5598 239.5598 240.2357
   242.4099 242.4099 242.5430 242.5430 242.6444 242.8269 243.7783 243.9357
   243.9357 245.7647 245.7647 246.9629 247.1466 247.6550 247.6550 247.9816
   248.5236 248.5236 249.4650 249.4650 250.1552 250.1552 250.5249 250.9597
   254.9614 255.0104 255.2455 255.2455 255.4853 255.5596 255.5596 256.1053
   257.5953 258.1006 258.1006 259.0539 259.0539 259.7860 260.4720 260.8978
   260.8978 261.2644 261.2644 261.4240 263.9967 263.9967 264.0359 264.0359
   265.8265 266.8611 266.8611 268.3940 268.5319 268.5319 268.7853 269.8338
   269.8338 269.9682 270.2020 270.3491 270.3491 270.8574 271.1269 271.5320
   271.5320 271.7464 271.7850 271.7850 274.3047 274.3047 274.3428 274.3428
   277.0431 277.2422 277.2422 277.9997 277.9997 278.1174 278.6240 278.6240
   278.6461 279.3608 279.3608 279.7142 280.6005 280.6363 280.6363 280.7162
   280.7162 281.0346 283.2622 283.6721 283.6721 284.6286 284.6286 284.6597
   284.6775 285.0049 285.0049 285.5558 285.5558 285.6421 287.8113 288.1416
   288.5219 288.5219 288.5299 288.5299 289.5598 289.5598 289.8665 289.8665
   291.6201 291.7506 293.8889 294.4825 294.7924 294.7924 294.9252 294.9252
   295.4142 295.4895 296.5376 296.5376 296.6376 296.6376 296.9657 297.3964
   299.3612 299.3612 299.3622 299.3622 300.4055 300.4277 300.5789 300.5789
   300.7318 300.7318 301.5600 301.7723 304.5487 304.5487 304.5922 304.6285
   304.6285 304.8342 307.4335 307.5984 307.5984 307.7413 307.7413 307.8600
   311.1379 311.1379 311.1956 311.1956 311.2518 311.4866 312.6028 312.7484
   312.7484 313.1539 313.1539 313.1930 313.4074 313.4074 313.4881 313.4881
   313.5658 313.6059 314.6591 314.7196 315.3385 315.3385 315.3394 315.3394
   315.7253 315.8890 315.8890 316.0476 316.0476 316.1629 318.0487 318.0487
   318.2059 318.2059 318.8395 319.3409 319.4603 319.5325 320.3100 320.3100
   320.4963 320.4963 322.1135 322.1135 322.2197 322.2197 322.5320 322.6186
   326.4581 326.5935 326.5935 326.5990 326.6330 326.6330 326.7058 326.9573
   331.1637 331.1637 331.2145 331.2145 331.3901 331.3932 333.2000 333.2000
   333.2622 333.2622 338.5633 338.5633 338.6063 339.0655 339.0655 339.5325
   340.3809 340.3809 340.4727 340.4727 340.6335 340.6350 340.6350 340.6524
   340.6934 340.6934 341.4303 341.4358 342.4090 342.4090 342.4139 342.4139
   344.1581 344.1623 344.1723 344.2237 346.4154 346.4154 346.6055 346.8074
   346.8074 347.2458 347.6519 347.9358 347.9358 348.1308 348.1308 348.5736
   348.5736 349.7007 349.7007 350.0006 352.8406 353.4607 353.4607 353.6970
   353.6970 354.2498 354.5328 354.5328 354.6755 355.0457 355.3246 355.3246
   355.3813 356.3614 358.9604 359.0537 359.0537 359.3577 359.3577 359.5092
   360.8379 360.8945 360.8945 361.8114 361.8114 362.3355 363.2446 363.2446
   364.0484 364.0484 364.0733 364.0733 364.1316 364.1316 364.4467 365.6549
   366.0042 366.0606 367.7701 367.7701 367.8617 367.8617 368.7321 368.7514
   368.7514 368.9383 368.9592 368.9592 371.3671 371.5167 371.5167 371.6358
   371.6358 372.0110 372.2142 372.2142 372.3063 372.3063 372.5909 372.6262
   373.8208 373.8889 373.9524 373.9524 373.9753 373.9753 375.7711 375.7711
   375.8936 375.8936 375.9499 376.1271 377.6442 377.9648 377.9648 378.0519
   378.1259 378.1259 381.4220 381.6657 381.6657 382.1784 382.1784 382.4823
   383.3549 383.6523 383.6523 384.0380 384.0380 384.1926 385.8490 385.9855
   386.1841 386.1941 386.1941 386.4630 386.4630 386.6350 386.8482 386.8482
   386.8841 386.8841 387.6778 387.7276 387.7846 387.7846 387.8207 387.8207
   391.6692 391.8081 391.8081 392.1185 392.1185 392.2978 393.7572 393.7598
   393.8844 393.8844 393.9101 393.9101 394.1380 394.1456 394.5327 394.5480
   394.5480 394.8721 394.8721 395.1262 397.2106 397.2106 397.3136 397.3136
   398.6619 398.7858 399.4899 399.4899 399.5864 399.5864 399.7894 400.1591
   400.7186 400.7186 400.7280 400.7280 401.1452 401.1452 401.2319 401.2340
   401.2340 401.3408 403.8349 403.9696 404.5229 404.5229 404.5938 404.5955
   404.5955 404.7747 410.9585 410.9585 410.9708 410.9708 412.4347 412.4548
   412.6825 412.7345 412.7345 412.8467 412.8467 412.9083 414.6716 414.6716
   414.6746 414.6747 417.5173 417.6580 417.6580 417.9536 417.9536 418.2129
   418.7336 418.7336 418.7659 418.7659 419.4050 419.5017 420.8091 420.8091
   420.8331 420.8331 421.1501 421.4598 421.5750 421.5750 421.6488 421.8427
   421.8427 422.1207 422.1569 422.1569 422.3258 422.3992 422.3992 422.4929
   424.7323 424.7371 424.7371 424.8881 424.8881 425.0223 428.3212 428.3212
   428.3218 428.4201 428.4201 428.5547 432.9424 432.9424 432.9453 432.9453
   432.9783 432.9859 434.1864 434.1864 434.2793 434.3348 434.3348 434.6217
   434.9892 435.0454 435.3520 435.3520 435.3734 435.3734 436.4545 436.4738
   437.2308 437.2308 437.2409 437.2409 437.8533 437.8533 437.9049 437.9049
   437.9383 438.0287 438.5313 438.5943 438.6391 438.6391 438.6771 438.6771
   442.8189 442.8189 442.8420 442.8420 443.5431 443.5642 445.8693 445.8790
   447.9098 448.2833 448.3155 448.3155 448.6033 448.6033 450.1497 450.1497
   450.3521 450.3521 451.1214 451.4954 451.6958 451.8563 452.0839 452.0839
   452.0928 452.0928 453.2584 453.2584 453.2616 453.2616 453.6272 453.6838
   454.6300 454.6300 454.6416 454.6416 455.2689 455.2823 456.7267 456.7267
   456.7543 456.7543 457.4606 457.5359 458.8790 458.8923 458.8923 459.1347
   459.1347 459.4788 461.2207 461.2644 462.0226 462.0226 462.0235 462.0235
   462.5324 462.5689 462.6844 462.6844 462.6859 462.6859 463.7121 463.7121
   463.7335 463.7335 464.1838 464.1969 465.2580 465.2774 465.2774 465.3228
   465.3228 465.3700 465.3700 465.3987 465.4082 465.4082 465.4885 465.5142
   470.4090 470.5045 470.5770 470.5770 470.6235 470.6235 472.1987 472.3881
   472.3881 472.8030 472.8030 472.9723 472.9723 473.0765 473.0765 473.2638
   473.8347 473.8424 473.9681 473.9762 474.6460 474.6460 474.6509 474.6509
   477.4595 477.7722 477.8650 477.8650 477.9509 478.4278 478.4278 478.8644
   480.6946 480.7044 480.7286 480.7286 480.7431 480.7431 482.6509 482.6509
   482.7173 482.7173 483.1256 483.2252 483.2252 483.3222 483.3222 483.3638
   483.7135 484.2800 484.2800 485.0957 485.0957 485.3206 485.3333 485.7476
   485.7476 486.5768 486.5768 487.0154 487.7402 488.0116 488.0116 488.6499
   488.6499 488.9873 490.1214 490.1638 490.6387 490.6387 490.6712 490.6712
   491.0617 491.0800 491.0800 491.1538 491.1538 491.2571 491.9594 492.0624
   492.2264 492.2264 492.2946 492.2946 493.1168 493.1262 495.1494 495.1494
   495.1548 495.1548 498.5436 498.5436 498.5439 498.5439 499.5638 499.5638
   500.1047 500.1272 500.1272 500.1948 500.1948 500.2470 503.0018 503.0162
   503.0162 503.0624 503.0624 503.0757 507.1747 507.2083 507.2083 507.2963
   507.3097 507.3097 510.8770 510.8864 510.8864 511.2388 511.2388 511.6330
   511.7249 511.9763 511.9763 512.1636 512.1636 512.1701 512.3250 512.6550
   512.7378 512.7378 512.8326 512.8326 512.9076 512.9076 513.1391 513.4751
   513.4752 513.6090 514.4558 514.4750 514.8488 515.0235 515.0235 515.3923
   515.3924 515.5349 517.3288 517.3288 517.3658 517.3658 517.4876 517.5216
   517.6810 517.8200 517.8200 518.2716 518.2716 518.4095 518.5944 518.5944
   518.9283 518.9283 519.0501 519.1132 519.2717 519.2717 519.5474 519.5474
   519.8380 520.0044 520.2109 520.5120 520.5120 520.5732 520.7947 520.7947
   525.5060 525.5060 525.5087 525.5087 525.9911 525.9914 526.1649 526.1649
   526.1681 526.1681 526.6525 526.6994 526.6994 526.7868 526.7868 526.8563
   527.1030 527.2149 527.2149 527.4313 527.4313 527.5437 530.2021 530.2953
   530.2953 530.3423 530.3508 530.3508 536.0810 536.0817 536.0817 536.1203
   536.1203 536.1611 539.9245 539.9245 539.9282 539.9358 539.9370 539.9370
   540.2213 540.2213 540.2227 540.2280 540.2392 540.2392 542.9709 542.9848
   543.1293 543.1293 543.1526 543.1526 543.4856 543.4856 543.5288 543.5288
   543.7105 543.7719 549.7064 549.8410 549.8410 549.9289 549.9806 549.9806

          k = 0.0000 0.2500 0.0000 (  3295 PWs)   bands (ev):

    -5.4906   4.8031   5.3504   5.3504   8.1528   9.8297   9.8297  10.4588
    12.6040  14.1120  15.1414  17.8160  17.8160  18.2893  23.2849  26.5440
    26.5440  27.7116  28.5506  29.3149  32.2661  32.7330  32.7330  37.1471
    37.1471  37.5887  38.8566  38.8566  38.8716  41.1591  43.0760  43.6217
    45.6636  46.2052  46.4769  46.4769  47.7288  48.1516  48.1516  49.4663
    49.4663  50.5874  52.0907  52.3915  53.3085  53.3085  53.6335  54.1485
    54.1485  54.4852  54.4854  56.9286  57.3696  57.3696  60.7179  62.5266
    62.5266  64.7952  64.9110  65.6310  71.5937  71.9231  71.9231  72.9425
    74.4692  74.7299  75.1233  75.6989  75.8079  75.8079  76.3849  76.3849
    76.8716  77.5753  81.9307  83.7727  83.7727  83.9457  84.0791  85.4470
    85.7891  85.8166  85.8166  87.5349  87.5349  89.5212  89.5338  89.9500
    89.9500  90.3134  91.4517  91.4517  92.0570  92.1623  92.9575  92.9575
    95.2528  95.9696  95.9696  96.4496  96.6049  96.6974  97.5653  98.9542
    98.9542  99.1656  99.4787 100.3379 100.3379 100.9511 102.0679 103.0850
   103.0850 103.5399 103.7887 104.8338 106.4321 106.4321 107.0819 107.0819
   107.7808 109.3744 109.6939 109.6939 110.0287 111.2252 111.8601 111.9990
   111.9990 113.4473 115.6800 116.2548 117.7246 117.9401 117.9401 118.5620
   119.5293 119.5293 120.6605 121.2093 121.2984 121.2984 123.0538 123.1342
   123.1342 124.8212 125.2924 125.2924 125.8639 126.2836 126.4167 126.7907
   126.7907 130.6943 131.0882 131.0882 131.1183 133.0755 133.4562 133.4562
   133.6516 134.4844 135.2796 136.3257 136.3257 136.3917 136.3917 136.4720
   137.8420 138.5142 139.3459 139.3850 140.8492 140.8492 144.5733 144.5733
   145.4259 145.6949 146.6824 146.6824 147.7514 149.3935 150.2761 152.3150
   152.3150 153.1514 155.5537 155.5912 155.5912 156.3303 156.5585 157.2873
   157.2873 158.5429 158.5429 159.4329 160.2095 160.7096 160.7356 160.8609
   160.8609 160.9495 162.4828 162.9478 162.9478 163.7539 164.4783 164.4783
   164.6097 165.5305 167.3000 167.7621 168.4899 168.4899 169.0116 169.0369
   169.3639 169.3639 169.5050 169.9650 169.9650 170.3929 171.5770 171.5770
   171.7887 171.9897 173.6441 173.8382 173.8382 173.8844 174.8586 174.9843
   175.1732 175.5511 175.5511 176.2315 178.0457 178.3673 178.3673 178.5160
   178.5160 178.5658 178.7637 179.2990 180.0021 180.6885 180.6885 180.7589
   180.7589 183.8924 183.8924 184.0935 184.2577 184.5027 185.2393 185.3970
   185.3970 185.6154 186.0083 186.1013 186.7183 186.7183 187.7653 188.7559
   188.7559 189.4140 190.1292 190.1292 190.4309 190.4435 190.7689 192.4758
   195.0345 195.0345 195.1055 195.2697 195.8174 195.8174 196.4405 196.5948
   197.6506 197.6506 198.8376 199.1417 200.2076 200.2076 201.5218 201.7520
   201.9861 202.0450 202.0450 202.3049 202.8139 203.2446 203.2446 203.8958
   205.2592 205.4034 205.4034 207.9261 208.5193 208.8246 208.8246 209.2685
   211.0654 211.5671 211.5671 211.8187 211.8187 212.7831 213.3711 214.7409
   214.7409 214.7704 216.1921 216.4703 218.9144 218.9144 219.5924 219.7515
   220.3826 221.0657 221.0657 222.1672 222.1672 222.9196 223.5666 223.5840
   223.6000 224.1537 224.1538 224.5316 225.0705 225.0705 226.3270 226.4188
   228.6152 230.6266 231.1501 231.1501 231.2493 231.3830 231.3830 233.2232
   233.8568 235.8905 235.8905 236.5744 236.5744 236.7481 237.3038 238.7114
   238.7114 239.2484 239.6390 242.5328 242.5731 243.0150 243.1635 243.1635
   243.6198 243.6198 243.6393 244.4106 244.5615 244.5615 245.0078 246.9763
   246.9763 247.2773 248.0252 248.0252 248.2627 248.3205 248.7309 250.2406
   250.3284 250.3297 250.3297 250.9773 251.6947 251.6947 252.4127 253.1365
   253.1365 253.4923 254.0748 254.4910 254.4910 254.5386 254.5809 255.1415
   256.7332 256.7332 256.7908 258.0057 258.0439 258.0439 258.2340 258.4516
   258.6041 259.7621 259.7621 260.3402 260.3402 260.4045 260.8348 261.0991
   261.0991 261.9839 262.0120 262.6835 263.5632 263.8539 264.9946 264.9946
   266.0406 267.2558 268.5100 268.7071 268.7071 268.7071 269.0132 269.0132
   269.3834 269.3834 269.5542 269.7261 269.9410 269.9410 270.0800 271.5483
   272.0850 272.2397 272.2397 272.5888 272.6886 272.6886 272.7661 274.1302
   274.1639 274.2336 274.4667 274.4667 275.1206 275.1206 275.1383 276.6492
   276.7913 276.7913 277.1438 277.3173 278.5302 278.5302 279.8564 280.0464
   280.4375 280.6608 280.6608 281.3550 281.3550 281.6896 282.6561 283.0534
   283.0534 283.4767 283.5202 283.8240 284.0226 284.0226 284.0382 285.2708
   285.7006 285.9167 285.9167 286.1064 286.1065 286.1375 286.2317 287.2208
   287.8676 287.8676 288.7185 289.4627 289.4627 289.5314 290.2631 290.4544
   290.5342 290.5342 290.5962 290.9984 291.1282 291.1282 291.4915 292.3021
   292.7991 293.0344 293.0344 294.0683 294.1594 294.1594 294.6546 294.8783
   296.9823 297.0106 297.0106 297.0559 300.0508 300.3268 300.3268 300.6005
   301.0884 301.0979 301.0979 301.1179 302.3595 302.5603 303.8134 303.8134
   304.1432 306.0748 306.0748 306.9516 307.3817 307.4098 307.4618 307.4618
   307.4985 307.5936 308.3929 308.3929 310.5477 312.1896 312.1896 312.5038
   312.6427 313.0832 313.2661 313.2661 314.3932 314.6626 314.6626 315.2559
   315.4185 316.7902 318.1271 318.1271 318.7963 318.7963 320.0100 320.9165
   320.9165 321.0076 321.1209 321.3146 326.3118 326.3766 326.3766 326.7567
   327.9465 328.0947 328.0947 328.3792 329.6841 329.8440 330.2421 330.4090
   330.4090 330.6672 330.6672 331.0772 331.2547 332.1457 332.1457 333.3135
   333.8102 334.1515 334.1515 334.5203 334.7465 335.9356 336.9971 337.5960
   337.5960 338.0248 338.0248 338.3720 338.7582 338.8482 338.8482 338.9096
   339.1108 339.3230 339.7704 339.7704 339.9733 342.5707 342.7590 342.7590
   343.1565 343.2198 343.9825 344.0515 344.0515 344.2038 344.4658 344.4658
   345.3553 346.5298 346.8066 346.8066 347.1292 348.2168 349.3002 349.3002
   350.4743 350.6310 350.8061 350.8061 351.1200 351.2360 352.9388 353.4820
   353.4820 353.6422 353.7918 354.5471 354.5471 354.6090 354.8593 354.8593
   355.1122 355.3620 355.4196 355.4842 355.4842 355.9091 358.1432 358.1432
   358.2451 358.3036 358.5182 358.5182 358.5604 358.7832 358.7832 358.9893
   359.1288 359.1325 359.1325 359.2668 359.4578 359.6758 359.6758 359.8181
   361.5646 363.4211 363.5635 363.5635 363.7081 363.9667 364.1255 364.1255
   364.4679 364.5502 364.7598 364.7598 364.9456 366.7000 366.7256 366.7256
   366.7636 371.3061 371.3526 371.3526 371.3891 371.3905 371.4076 371.4076
   371.4912 372.3353 372.6339 372.6339 372.7756 373.0945 374.7295 375.8968
   375.8968 375.9115 375.9430 376.3160 376.3240 376.3240 376.3515 377.1537
   377.1537 377.3574 377.3574 377.6473 378.9199 379.2524 380.3804 380.7547
   380.7547 381.1139 383.3792 383.3792 384.5719 384.8961 385.0347 385.0347
   385.1932 385.6823 385.9194 385.9194 385.9726 386.1107 386.5593 386.6804
   386.6804 386.9315 388.1092 389.0368 389.0863 389.0863 389.3243 389.6565
   389.6842 389.6842 389.8859 390.1981 390.1981 390.8247 391.5527 392.5375
   392.5375 393.1715 393.8912 393.8912 393.9204 394.5572 394.5572 394.5871
   394.6283 395.6150 396.3699 396.3699 396.7465 396.8378 396.8378 396.9237
   396.9247 397.1895 397.1998 397.4918 397.4918 397.6241 397.9508 397.9508
   398.1670 398.2196 398.2196 398.3104 399.1295 401.7361 402.2620 402.2620
   402.4795 403.1022 403.1594 403.1832 403.1832 403.3465 403.3594 403.3594
   403.4527 405.9446 406.1867 406.1867 406.3402 406.4166 406.4166 406.5113
   407.0463 407.4607 407.4850 407.9751 407.9751 408.8079 408.8079 409.0029
   409.0708 409.6610 409.6739 409.6739 409.9130 410.6234 410.8214 410.8864
   410.8864 413.2951 413.4652 413.4652 413.7605 414.1568 414.2952 414.4338
   414.4338 414.9223 415.8493 415.8493 416.0023 416.0806 416.4327 416.4327
   416.5154 417.0046 417.2541 417.2541 417.4411 417.8283 417.9627 417.9627
   418.1261 418.1675 418.1675 418.1749 418.1975 419.1113 420.6927 420.6927
   421.3322 422.3571 422.7215 422.7215 423.4147 423.4498 423.6104 424.1772
   424.1772 424.3517 425.0266 425.5937 425.5937 426.0835 426.1511 426.2166
   426.2166 426.4013 426.5041 426.5041 426.5685 426.5771 426.9906 427.6375
   427.6375 428.9669 430.1294 430.1353 430.1552 430.1552 430.6581 430.8607
   430.8607 431.2484 431.2484 431.4927 431.7706 431.9442 432.3210 432.7054
   433.2642 433.2642 433.3057 433.3057 433.5851 433.8208 433.8665 435.8258
   435.8258 437.6987 437.9505 439.3476 439.3476 441.4634 442.3814 442.3814
   442.5517 442.6239 442.6239 442.6946 442.9744 443.5953 443.6534 443.6534
   443.6806 444.2272 444.2926 444.2926 444.3337 451.8161 451.8512 451.8512
   451.8668 452.0202 452.0273 452.0273 452.0393 452.3645 452.8895 452.8895
   453.3956 453.4934 453.4934 453.6620 453.6770 453.7227 453.7418 453.7418
   453.8372 453.8764 453.9969 453.9969 454.1179 456.6049 456.7115 456.7115
   456.8213 459.1785 460.0062 460.0062 461.4163 461.7321 461.9487 461.9487
   462.0646 462.3062 462.3272 462.3765 462.3765 462.4947 462.7252 462.7252
   462.9390 463.2019 464.3530 464.3530 465.6429 467.5746 469.3629 469.5794
   469.5794 470.1327 470.5233 471.4502 471.5961 471.5961 471.7719 472.4538
   472.6021 472.7269 472.7269 472.8290 472.8290 474.5461 478.4747 478.5277
   478.5419 478.5419 478.7855 478.7855 479.3708 479.4028 480.9241 480.9919
   480.9919 481.0284 481.6828 481.6828 481.7569 481.7871 482.3669 482.5593
   482.5593 482.7577 483.5081 483.5081 483.5116 483.5124 484.4188 484.4304
   484.8188 484.8188 485.2688 485.7846 486.0770 486.0770 486.3107 486.6438
   486.6967 486.6967 486.7274 487.2226 487.2236 487.2236 487.2533 488.2608
   488.5060 488.5060 488.6096 492.5509 492.5509 493.0386 493.2324 493.3227
   493.3227 493.6873 494.0885 494.4395 494.4395 494.9489 495.1593 496.0292
   496.0292 497.1033 497.2642 497.2642 497.4649 497.6200 497.6689 497.6689
   497.7794 498.1208 498.7265 499.2310 499.2310 499.2667 500.7850 500.8639
   500.8639 501.4939 501.5641 501.6247 501.6247 501.9490 502.0922 502.6650
   502.6650 502.9880 503.0496 503.3599 503.3599 503.5558 503.8545 503.9843
   503.9843 504.1628 504.3499 504.3544 504.9322 504.9322 505.0212 505.4416
   505.4416 505.7559 506.1639 508.1193 508.2712 508.2712 508.7046 508.7657
   508.8335 508.8335 509.4838 509.4838 509.9315 510.1742 510.2932 510.2932
   510.3666 511.9495 512.1002 512.6598 513.0581 513.0834 513.0834 513.3654
   513.3654 513.4897 513.8307 514.8273 515.1191 515.1191 515.2816 515.2816
   515.4913 515.6845 515.6996 516.1819 516.1819 516.2081 516.6724 516.6724
   516.8207 516.9366 517.4876 517.7872 517.8621 517.8621 518.2983 518.3184
   518.3184 518.3812 518.5254 518.6696 518.6696 518.8505 519.1062 519.5345
   519.5345 520.0973 520.4431 520.9781 520.9781 521.2678 521.8742 522.0059
   522.0059 522.1209 522.1793 522.2065 522.2065 522.2249 522.7173 522.7201
   522.7300 522.7300 523.8007 523.8020 523.8020 523.8050 523.8439 525.7253
   525.7415 525.7415 525.7581 526.0359 526.0407 526.0407 526.0504 527.6993
   527.7695 527.7695 527.8217 529.4306 529.5044 529.5066 529.5066 529.9762
   530.3719 530.3719 530.9989 531.5624 532.1921 532.1921 532.5149 532.8408
   533.0033 533.0033 533.1819 533.5574 534.6513 534.6934 534.6934 534.7393
   535.9124 535.9950 535.9950 536.1479 536.3812 536.6889 536.6889 536.9686
   536.9686 537.0821 537.6693 538.0582 538.4170 538.4170 538.7093 538.8097
   540.0729 540.4455 540.4455 540.6892 541.6914 541.8185 541.8185 541.9492

          k =-0.1250 0.3750-0.1250 (  3293 PWs)   bands (ev):

    -5.0251   2.9289   4.8441   4.9128   8.2833   9.8121  10.5868  10.8680
    13.5641  14.2799  16.1253  17.6765  19.2067  20.4573  23.6003  24.0849
    25.2840  27.4629  27.5228  28.9411  32.0246  33.0912  33.9663  35.7063
    37.2873  37.6735  37.9550  38.7814  39.2880  39.9788  41.5459  41.7822
    44.2452  44.7318  46.0106  46.1934  46.5455  47.9704  49.1981  49.4550
    50.4974  50.6532  51.0730  51.5160  53.1962  53.7653  54.8861  55.1795
    56.1930  56.7575  58.7384  59.2633  60.8839  61.4688  61.9941  62.8475
    64.5673  65.5745  66.8584  67.8856  68.3958  69.4701  69.5415  70.9870
    71.5902  72.8190  73.3546  73.8640  74.2385  75.8586  76.5491  76.9215
    78.3261  79.3649  80.2501  80.7741  81.4157  82.6595  83.1340  84.1362
    84.2860  85.1118  85.5883  86.4306  87.1866  87.5641  88.5585  88.6652
    89.7633  90.8000  91.3466  91.6623  92.3798  92.6863  92.8936  94.0851
    94.5850  95.4445  96.2898  96.7395  97.0754  97.5048  97.6077  98.5204
    98.7319 100.1757 100.5906 100.7680 101.6018 102.1395 102.9142 102.9830
   103.9889 104.3875 104.6082 106.4936 106.8716 107.0624 107.5797 108.3761
   109.8360 109.9109 110.2716 110.5521 111.1192 111.5590 112.5376 113.2490
   113.3541 114.1790 114.9602 115.2870 115.6222 116.2493 116.7151 117.1094
   118.2563 118.4695 119.3487 119.9607 120.3137 121.6313 122.3282 123.6635
   123.9120 125.8674 126.7874 127.0862 127.2578 127.9526 128.5191 128.9061
   129.1398 129.8161 129.9053 130.0808 130.2558 131.8342 132.5803 132.6513
   134.0301 135.0482 136.3505 136.8297 137.3827 137.9728 138.4444 138.5441
   140.0950 140.4836 141.0502 142.3516 142.9777 143.5626 144.6097 145.0783
   145.3693 145.7541 146.4989 147.6397 148.4645 149.8157 150.0244 150.5894
   150.6639 151.1327 152.4040 152.5207 153.0805 153.7472 154.7578 155.1460
   155.5178 155.9047 156.2267 156.6776 156.7205 157.4206 158.0005 158.1608
   159.0138 159.0750 160.6729 161.3459 161.9609 162.3590 163.2174 163.5874
   164.6548 164.7560 165.4303 165.5568 165.8055 166.3706 166.4640 167.0281
   167.4883 167.5516 168.5569 168.8612 169.1026 171.1086 171.2113 171.3441
   172.5832 172.6204 172.8648 172.9952 173.0748 173.9472 174.7397 175.7354
   175.8065 176.6087 177.2634 177.9803 177.9842 178.1809 178.7425 178.8031
   179.1871 180.2880 180.9678 182.0664 182.4345 182.7448 182.9373 183.0811
   183.5856 184.0110 184.0770 184.9687 185.0187 185.5072 186.5711 186.8990
   187.8297 188.0151 188.4444 189.2083 189.3743 189.4518 190.0576 190.4498
   190.5468 190.8929 190.9229 191.6089 191.7919 192.1257 192.2690 192.3795
   192.9160 193.2451 195.4302 195.7493 196.2646 196.5362 196.9151 196.9667
   197.5848 197.6094 198.2942 198.6601 199.0008 200.0159 200.0797 200.2210
   201.4309 201.5067 201.7674 202.7133 203.7676 203.8605 204.9311 205.9137
   206.4328 207.1708 207.4476 207.7492 208.3702 209.7600 210.2538 211.4204
   212.2431 212.2612 212.5907 212.6705 212.9870 213.8731 214.5388 215.9736
   216.5377 216.8670 217.7120 217.7319 218.6350 218.8257 219.1926 219.4167
   219.8231 220.2928 221.1101 221.6794 221.7984 222.2749 222.8396 224.1307
   224.8394 225.0595 225.5118 226.1576 227.1011 227.2514 227.3601 228.0100
   228.3445 229.4020 230.0224 230.8773 231.4363 231.6446 231.9076 232.0518
   232.8752 233.0892 233.7279 234.0466 234.1153 235.3853 235.8296 236.5250
   237.0575 237.8595 238.0375 238.1154 238.4157 238.7031 239.1509 239.8188
   241.9852 242.5032 242.9996 243.3112 243.6088 244.3646 244.8360 244.9153
   245.5445 245.9797 246.1160 246.7015 246.8804 246.9710 248.1340 248.8229
   248.9826 249.1265 249.5500 249.6012 250.2752 250.8453 250.9062 251.2671
   251.7152 252.1652 253.7420 253.9524 254.2831 254.3396 254.6676 255.2021
   255.5938 255.7679 256.0293 257.2044 257.2184 257.7935 257.8289 258.4346
   259.1175 259.2705 259.8226 260.4913 261.1085 261.5537 262.0211 262.3369
   262.3733 262.7573 262.7988 263.5956 263.7817 263.8146 264.1959 265.0074
   265.5966 265.7489 265.7842 265.8270 265.9601 267.3894 267.5341 267.7452
   268.0801 268.5716 268.9162 269.0431 269.2256 269.6066 269.7750 269.9690
   270.4911 270.6659 270.7851 271.0329 271.1112 271.9869 272.0402 272.7926
   273.4883 273.5005 273.8758 273.9548 274.0753 274.3480 276.3849 276.5701
   276.8085 276.8199 277.0438 277.2343 277.3830 278.8640 279.4639 279.9617
   280.1404 280.5448 280.6790 281.8629 281.8903 282.3700 282.6206 282.9514
   283.0686 283.1100 283.3067 284.6935 284.8194 285.3876 285.4150 285.5140
   285.7312 286.1299 286.5559 287.2211 287.2253 287.4374 288.4599 288.8757
   288.8800 289.7465 289.9389 290.1889 290.5136 291.4668 292.3033 292.9248
   293.8733 294.5455 294.6347 294.6455 294.7665 294.8442 295.1476 295.8324
   296.5900 297.1977 297.6308 297.6485 297.9154 298.0549 298.1038 298.5144
   299.9275 301.5804 301.6315 301.9889 301.9951 302.1474 302.1688 302.4134
   302.8598 302.8636 303.7603 304.1702 304.4037 305.4566 305.6195 305.9404
   306.2208 307.1695 307.4676 307.5385 307.7400 308.8315 309.0789 309.6369
   310.7574 311.1615 311.4285 311.5824 311.6030 311.7470 311.8793 312.7614
   313.0469 314.1791 314.1812 314.9809 315.3397 315.5583 316.0304 316.1575
   316.2551 316.4858 316.7205 317.2618 317.9549 318.3812 318.7326 319.1306
   319.4603 321.2969 321.7013 322.2487 322.5459 322.9453 322.9518 323.2958
[...]
   291.2979 291.2979 292.4207 292.4207 294.2667 294.2667 295.4570 295.4570
   297.6264 297.6265 297.7376 297.7376 298.2847 298.2847 299.3561 299.3561
   300.8816 300.8816 303.1915 303.1915 303.4803 303.4803 303.7117 303.7117
   303.8668 303.8668 304.4116 304.4116 306.4467 306.4467 307.5699 307.5699
   308.1771 308.1771 308.9920 308.9920 309.1515 309.1515 309.8266 309.8266
   311.7758 311.7758 312.4502 312.4502 312.6962 312.6962 313.7147 313.7147
   314.6057 314.6057 315.2597 315.2597 315.6937 315.6937 315.7344 315.7344
   317.0415 317.0415 317.6542 317.6542 318.6739 318.6739 319.6387 319.6387
   319.7959 319.7959 320.0675 320.0675 321.5098 321.5098 321.9740 321.9740
   322.3142 322.3143 323.5608 323.5608 323.6221 323.6221 324.7462 324.7462
   325.0117 325.0117 325.5270 325.5270 325.6633 325.6633 326.0423 326.0423
   326.4960 326.4960 326.8451 326.8451 329.2270 329.2270 329.5930 329.5930
   331.0632 331.0632 331.2975 331.2975 332.5490 332.5490 332.7101 332.7101
   333.0652 333.0652 333.9989 333.9989 334.8554 334.8554 335.1846 335.1846
   335.4478 335.4478 335.8548 335.8548 336.2233 336.2233 337.3134 337.3134
   337.5406 337.5406 338.4406 338.4406 339.3347 339.3347 339.9298 339.9298
   341.6270 341.6270 341.8695 341.8695 342.2483 342.2483 342.8446 342.8446
   343.4078 343.4078 345.1865 345.1865 345.6788 345.6788 345.9545 345.9545
   346.5450 346.5450 347.5135 347.5135 347.8583 347.8583 350.8506 350.8506
   352.2758 352.2758 352.7685 352.7685 353.9457 353.9457 354.3967 354.3967
   354.4806 354.4806 354.7370 354.7370 357.0178 357.0178 357.6087 357.6087
   358.2285 358.2285 359.1891 359.1892 359.2752 359.2752 360.9297 360.9297
   361.5753 361.5753 361.9347 361.9347 362.1115 362.1115 362.7041 362.7041
   362.7846 362.7846 363.1615 363.1615 364.6912 364.6912 364.7793 364.7793
   366.0013 366.0013 366.1037 366.1037 367.2129 367.2129 367.3241 367.3241
   368.3311 368.3311 368.6355 368.6355 369.6356 369.6356 370.6406 370.6406
   372.5397 372.5397 372.7296 372.7296 373.1730 373.1731 373.7837 373.7837
   375.4572 375.4572 376.1235 376.1235 376.5549 376.5549 377.7405 377.7405
   377.9317 377.9317 379.0507 379.0507 379.9581 379.9581 380.7179 380.7179
   382.7983 382.7983 382.9105 382.9105 384.4680 384.4680 385.6617 385.6617
   385.9004 385.9004 386.3897 386.3897 386.9860 386.9861 387.6791 387.6791
   387.9321 387.9321 388.4985 388.4985 388.8586 388.8586 389.3965 389.3965
   390.3256 390.3256 393.2953 393.2953 393.4998 393.4998 393.8520 393.8520
   395.6491 395.6491 397.7769 397.7770 398.6087 398.6087 399.2304 399.2304
   399.3449 399.3449 399.7817 399.7817 400.2092 400.2092 400.7414 400.7414
   402.5287 402.5287 402.9328 402.9328 403.7000 403.7000 403.9144 403.9144
   404.7305 404.7305 405.4113 405.4113 406.5941 406.5941 406.6502 406.6502
   407.0220 407.0220 407.5736 407.5736 409.9058 409.9058 410.0489 410.0489
   411.7138 411.7138 411.8065 411.8065 412.3939 412.3940 413.1207 413.1207
   413.9013 413.9013 414.8899 414.8899 416.9674 416.9674 417.7856 417.7856
   417.8343 417.8343 418.0860 418.0860 418.7382 418.7382 418.9266 418.9266
   419.2024 419.2024 419.2771 419.2771 422.6003 422.6003 422.8879 422.8879
   423.0318 423.0318 423.7749 423.7749 424.0959 424.0959 424.3137 424.3138
   424.7806 424.7806 425.6788 425.6788 426.7245 426.7245 427.3455 427.3455
   427.7654 427.7654 427.8131 427.8131 428.3674 428.3674 428.4690 428.4690
   429.5191 429.5191 429.9306 429.9306 430.4480 430.4480 430.7246 430.7246
   431.3199 431.3199 431.4153 431.4153 431.8524 431.8524 432.6598 432.6599
   434.9928 434.9928 436.5700 436.5700 436.6294 436.6294 437.1771 437.1771
   437.2601 437.2601 437.6855 437.6855 438.3659 438.3659 438.5980 438.5980
   438.8406 438.8406 439.1316 439.1316 439.9778 439.9778 441.7308 441.7308
   442.4533 442.4533 443.5193 443.5193 443.5256 443.5256 443.9164 443.9164
   445.0970 445.0970 446.2904 446.2904 446.4890 446.4890 447.0901 447.0902
   447.1979 447.1979 447.3410 447.3410 447.6895 447.6895 447.9381 447.9381
   448.2201 448.2201 448.5627 448.5627 449.8686 449.8686 451.0710 451.0710
   451.9167 451.9167 451.9541 451.9541 454.2735 454.2735 454.4021 454.4021
   454.6082 454.6082 454.8845 454.8845 455.0348 455.0348 455.8062 455.8062
   456.5046 456.5046 457.1147 457.1147 457.4004 457.4004 457.9577 457.9577
   460.3352 460.3352 461.2335 461.2335 461.8424 461.8424 462.5539 462.5539
   462.6137 462.6137 462.6764 462.6764 463.6882 463.6882 465.2234 465.2234
   465.5434 465.5434 465.6220 465.6220 466.3964 466.3964 466.7307 466.7307
   466.8113 466.8113 467.2510 467.2510 467.6830 467.6831 468.8944 468.8944
   469.3933 469.3933 469.3971 469.3971 470.2608 470.2608 471.3551 471.3551
   471.9641 471.9641 473.0892 473.0893 475.3349 475.3349 475.8298 475.8298
   477.1730 477.1730 477.2414 477.2414 478.3602 478.3602 478.8268 478.8268
   480.6103 480.6103 480.6462 480.6462 481.3193 481.3193 483.6464 483.6464
   483.6737 483.6738 483.7475 483.7475 485.2239 485.2240 485.8448 485.8448
   485.9567 485.9567 486.3267 486.3267 486.7534 486.7534 486.9878 486.9878
   487.9349 487.9349 488.0189 488.0190 489.1417 489.1417 490.6083 490.6083
   491.4218 491.4218 491.5592 491.5592 491.8996 491.8996 492.1342 492.1342
   492.5300 492.5300 493.1952 493.1952 493.7233 493.7233 494.2938 494.2938
   494.7992 494.7992 495.2728 495.2728 495.5077 495.5077 495.7580 495.7580
   496.2435 496.2435 496.4643 496.4643 497.7856 497.7856 498.6986 498.6986
   500.0313 500.0313 500.1389 500.1389 500.8899 500.8899 501.0823 501.0823
   501.3783 501.3783 501.9582 501.9582 502.0698 502.0698 502.1379 502.1379
   504.0973 504.0973 504.1188 504.1188 505.9429 505.9429 507.1610 507.1610
   507.9316 507.9316 508.0127 508.0127 508.2624 508.2624 508.6218 508.6218
   509.1824 509.1824 509.6112 509.6112 511.2884 511.2884 512.1068 512.1068
   513.0043 513.0043 513.1602 513.1602 514.2347 514.2347 514.3732 514.3732
   515.8624 515.8624 515.9437 515.9437 517.1805 517.1805 517.6622 517.6622
   518.9638 518.9638 519.1451 519.1451 519.3715 519.3715 519.8957 519.8957
   521.0066 521.0066 521.0534 521.0534 521.1358 521.1358 522.4055 522.4055
   522.5631 522.5631 523.0713 523.0713 523.2014 523.2014 525.2545 525.2545
   525.7616 525.7616 525.8317 525.8317 526.5761 526.5761 527.6028 527.6028
   528.6305 528.6305 529.3054 529.3054 529.3959 529.3959 530.5876 530.5876
   530.6182 530.6182 530.8029 530.8029 531.5213 531.5213 532.0992 532.0992
   533.1204 533.1204 536.8546 536.8547 537.3238 537.3238 537.7426 537.7426
   538.0274 538.0274 538.2225 538.2225 538.5141 538.5141 538.8868 538.8868
   539.4076 539.4076 539.8465 539.8465 539.9127 539.9127 540.2987 540.2987
   540.8963 540.8963 543.1365 543.1365 543.2972 543.2972 545.2120 545.2120
   545.2546 545.2546 546.9058 546.9058 547.0151 547.0151 547.7292 547.7292

          k =-0.5000-1.0000 0.0000 (  3268 PWs)   bands (ev):

    -1.4853  -1.4853   2.3334   2.3334  10.3921  10.3921  11.1079  11.1079
    16.6329  16.6329  19.0729  19.0729  22.4822  22.4822  24.6453  24.6453
    24.8624  24.8624  25.6956  25.6956  29.6380  29.6380  33.4376  33.4376
    33.6431  33.6431  35.4611  35.4611  38.2985  38.2985  42.7434  42.7434
    43.7899  43.7899  45.9300  45.9300  48.8864  48.8864  49.9732  49.9732
    52.9393  52.9393  54.5292  54.5292  54.5327  54.5327  57.3043  57.3043
    60.9982  60.9982  61.7748  61.7748  62.5697  62.5697  64.9211  64.9211
    64.9350  64.9350  67.0621  67.0622  68.5094  68.5094  70.4687  70.4687
    71.2061  71.2061  72.7023  72.7025  74.5905  74.5905  75.9707  75.9719
    77.7845  77.7845  80.3611  80.3611  80.7311  80.7311  81.0086  81.0087
    82.2927  82.2927  82.6271  82.6271  85.7839  85.7839  86.4381  86.4381
    87.0513  87.0513  87.8243  87.8243  90.7320  90.7320  91.4807  91.4807
    93.5350  93.5350  93.8733  93.8733  94.8368  94.8369  96.5848  96.5848
    99.0740  99.0740 100.8652 100.8652 101.3697 101.3697 103.1529 103.1529
   106.6445 106.6445 107.7703 107.7703 111.0151 111.0151 111.4700 111.4700
   113.3695 113.3695 114.2033 114.2033 114.3745 114.3746 115.2807 115.2807
   117.1920 117.1920 117.7678 117.7678 118.8172 118.8172 120.4571 120.4571
   122.1399 122.1399 122.7350 122.7350 123.7416 123.7416 124.4617 124.4617
   124.6774 124.6774 125.6195 125.6195 128.4659 128.4659 129.5376 129.5376
   130.1624 130.1624 130.2766 130.2766 131.5017 131.5017 132.3282 132.3282
   134.8275 134.8275 135.4967 135.4967 138.6975 138.6975 139.0390 139.0390
   141.1705 141.1705 142.1807 142.1807 142.5601 142.5601 142.7524 142.7524
   143.8894 143.8894 144.0445 144.0445 145.4938 145.4938 146.4086 146.4086
   147.9943 147.9943 148.2051 148.2051 150.4016 150.4016 150.8545 150.8545
   152.2983 152.2983 152.7508 152.7508 153.6139 153.6139 153.8304 153.8304
   157.0389 157.0389 157.0959 157.0959 159.3120 159.3120 159.3463 159.3463
   163.4817 163.4817 163.9607 163.9607 166.8124 166.8124 166.9704 166.9704
   168.6304 168.6304 169.1094 169.1094 170.0588 170.0588 171.1593 171.1593
   171.4596 171.4596 172.0815 172.0815 173.0910 173.0910 173.1986 173.1986
   176.9797 176.9797 177.1974 177.1974 178.7417 178.7417 179.0662 179.0662
   179.9084 179.9084 180.7958 180.7958 181.4430 181.4430 181.6218 181.6218
   185.8830 185.8830 185.9024 185.9024 186.7923 186.7923 187.8071 187.8071
   190.5838 190.5838 190.7770 190.7770 192.0835 192.0835 192.2582 192.2582
   192.8139 192.8139 193.4464 193.4464 193.9413 193.9413 193.9834 193.9834
   195.8670 195.8670 198.0124 198.0124 200.3357 200.3357 201.6999 201.6999
   202.0979 202.0979 202.4041 202.4041 206.5344 206.5344 206.6630 206.6630
   208.7649 208.7649 208.7849 208.7849 209.5543 209.5543 210.4946 210.4946
   210.7260 210.7261 211.0240 211.0240 211.9034 211.9034 212.1285 212.1285
   212.6376 212.6376 212.7720 212.7720 213.0430 213.0430 213.4578 213.4578
   216.1223 216.1223 216.9552 216.9552 218.4053 218.4054 219.0043 219.0043
   222.4723 222.4723 222.5775 222.5775 222.8512 222.8512 223.0251 223.0251
   223.5378 223.5378 224.1380 224.1380 226.1484 226.1484 226.4526 226.4526
   227.5949 227.5949 228.2597 228.2597 228.9489 228.9489 229.0227 229.0227
   232.5884 232.5884 232.6197 232.6197 233.2413 233.2413 233.3070 233.3070
   233.5901 233.5901 233.8779 233.8779 234.4631 234.4631 234.8619 234.8619
   238.0197 238.0197 238.1531 238.1531 239.9845 239.9845 240.0163 240.0164
   241.2555 241.2555 241.2615 241.2615 243.3158 243.3158 243.4681 243.4681
   243.7913 243.7913 244.9714 244.9714 246.3569 246.3569 246.4761 246.4761
   247.6202 247.6202 247.7499 247.7500 251.7449 251.7449 251.8164 251.8164
   252.4664 252.4664 252.6586 252.6586 256.2701 256.2701 256.7530 256.7530
   257.4978 257.4978 258.2267 258.2268 260.2242 260.2242 260.3140 260.3140
   261.0825 261.0825 261.1502 261.1502 262.8926 262.8926 262.9649 262.9649
   264.6110 264.6110 264.6501 264.6501 267.6771 267.6771 267.7090 267.7090
   269.3949 269.3949 269.8569 269.8569 272.1259 272.1259 272.1812 272.1812
   272.8616 272.8616 273.1934 273.1934 273.6701 273.6701 273.8788 273.8788
   274.0694 274.0694 274.1827 274.1827 275.5419 275.5419 275.6079 275.6079
   278.5350 278.5350 278.7337 278.7337 280.0504 280.0504 280.1317 280.1317
   280.8933 280.8933 280.9145 280.9145 283.2089 283.2089 283.2168 283.2168
   287.6678 287.6678 287.8212 287.8212 289.3404 289.3404 289.4319 289.4319
   289.5308 289.5308 289.9690 289.9690 290.3246 290.3246 292.0920 292.0920
   292.7844 292.7844 292.8135 292.8135 294.2628 294.2628 294.8259 294.8259
   295.1295 295.1295 295.7587 295.7587 297.0392 297.0392 297.8042 297.8043
   300.3262 300.3262 300.5301 300.5301 300.9989 300.9989 301.0467 301.0467
   301.6375 301.6375 302.0741 302.0741 303.1206 303.1206 303.1914 303.1914
   303.4562 303.4562 303.6312 303.6312 309.8611 309.8611 309.8714 309.8715
   310.4919 310.4919 312.3939 312.3940 313.1139 313.1139 313.1494 313.1494
   315.6061 315.6062 316.4573 316.4573 317.8117 317.8117 318.0492 318.0493
   319.1126 319.1126 319.8899 319.8899 319.9837 319.9837 320.0160 320.0160
   321.3852 321.3853 321.8137 321.8137 322.3487 322.3487 322.6615 322.6615
   323.4447 323.4447 324.0992 324.0992 324.5801 324.5801 324.9803 324.9803
   325.1626 325.1626 325.7394 325.7394 326.0395 326.0395 326.0905 326.0905
   328.6816 328.6816 328.7456 328.7456 329.4942 329.4942 329.7178 329.7178
   330.0715 330.0715 330.2073 330.2073 331.1900 331.1900 331.3969 331.3969
   332.7761 332.7761 332.9784 332.9784 333.0305 333.0305 333.1630 333.1630
   335.7960 335.7960 336.1453 336.1453 336.5180 336.5180 336.6521 336.6521
   337.2321 337.2321 337.3556 337.3556 340.8258 340.8259 340.8469 340.8469
   343.5793 343.5793 343.8104 343.8104 344.3250 344.3250 344.4203 344.4203
   345.6534 345.6534 345.8619 345.8619 347.4243 347.4243 347.4669 347.4669
   350.0242 350.0242 350.0662 350.0662 350.2832 350.2832 350.6872 350.6872
   351.6833 351.6833 351.7494 351.7494 352.3543 352.3543 352.5593 352.5593
   352.7711 352.7711 352.9332 352.9332 353.8486 353.8486 353.8721 353.8721
   359.8049 359.8049 359.8104 359.8104 361.1845 361.1845 361.1954 361.1954
   362.2669 362.2669 362.2780 362.2780 362.5031 362.5031 362.9684 362.9684
   363.3395 363.3395 363.8370 363.8370 363.9742 363.9742 364.0371 364.0371
   364.3992 364.3992 364.5195 364.5195 364.5479 364.5479 364.6671 364.6671
   366.2330 366.2330 366.2388 366.2388 371.7033 371.7033 371.9633 371.9633
   372.2643 372.2643 372.4362 372.4362 374.8330 374.8330 374.8888 374.8888
   374.9469 374.9469 374.9788 374.9788 377.4680 377.4681 377.6627 377.6627
   377.6965 377.6966 377.7253 377.7253 379.7589 379.7589 379.7817 379.7817
   380.7651 380.7651 380.8010 380.8010 384.1098 384.1098 384.1276 384.1276
   384.1351 384.1351 384.1430 384.1430 384.6845 384.6845 384.7026 384.7026
   387.6576 387.6576 387.7443 387.7443 392.3795 392.3795 392.4065 392.4065
   392.5659 392.5659 392.5980 392.5980 396.7359 396.7359 396.7361 396.7361
   397.6760 397.6760 397.6766 397.6766 398.4726 398.4726 398.5406 398.5406
   401.4002 401.4002 401.5495 401.5495 401.8663 401.8663 401.9218 401.9219
   402.4590 402.4590 402.5402 402.5403 405.3187 405.3187 405.3272 405.3272
   405.6307 405.6307 405.6559 405.6559 407.8407 407.8407 408.2849 408.2849
   410.2219 410.2219 410.6211 410.6211 411.0815 411.0816 411.2074 411.2074
   413.0151 413.0151 413.0990 413.0990 413.4332 413.4332 413.4445 413.4445
   413.5439 413.5439 413.5642 413.5642 414.7395 414.7395 415.4606 415.4606
   417.1062 417.1062 417.2296 417.2296 419.7036 419.7036 419.7129 419.7129
   421.4993 421.4993 421.7133 421.7133 422.0005 422.0005 422.0433 422.0433
   422.8084 422.8084 422.8245 422.8245 423.5333 423.5333 423.5767 423.5767
   424.7763 424.7763 424.7834 424.7834 425.2550 425.2550 425.5601 425.5601
   425.8956 425.8956 425.9087 425.9087 426.5110 426.5110 426.5242 426.5242
   426.7964 426.7964 427.1623 427.1623 427.7105 427.7105 428.0191 428.0191
   431.5082 431.5082 431.7555 431.7555 432.3071 432.3071 432.6383 432.6383
   434.1071 434.1071 434.1847 434.1847 434.6784 434.6784 434.8919 434.8919
   435.1225 435.1225 435.1548 435.1548 435.3118 435.3118 435.3321 435.3321
   435.5424 435.5424 435.5964 435.5964 443.0542 443.0543 443.0999 443.0999
   443.9442 443.9442 443.9921 443.9921 444.0421 444.0421 444.1832 444.1832
   444.9877 444.9877 444.9894 444.9894 446.1582 446.1582 446.2118 446.2118
   448.3536 448.3536 448.6189 448.6189 449.8385 449.8385 449.9412 449.9412
   450.6163 450.6163 450.6727 450.6727 451.1514 451.1514 451.2419 451.2419
   452.4165 452.4165 452.4306 452.4306 453.2203 453.2203 453.2298 453.2298
   453.9987 453.9987 454.0552 454.0552 455.8071 455.8071 455.8602 455.8602
   457.6552 457.6552 457.8722 457.8722 458.8608 458.8608 459.1862 459.1862
   459.6225 459.6225 459.7475 459.7475 460.0792 460.0792 460.4565 460.4565
   465.2324 465.2324 465.2346 465.2346 465.8607 465.8607 465.8975 465.8975
   469.9419 469.9419 469.9591 469.9591 471.0807 471.0807 471.0996 471.0996
   471.4456 471.4456 471.4667 471.4667 472.6536 472.6536 472.6945 472.6945
   472.9918 472.9918 473.0544 473.0544 473.3387 473.3387 473.3578 473.3578
   473.6842 473.6842 473.7100 473.7100 474.9019 474.9019 474.9041 474.9041
   477.2021 477.2021 477.2267 477.2267 478.9966 478.9966 479.0645 479.0645
   479.4718 479.4718 479.5070 479.5070 480.6598 480.6598 480.6610 480.6610
   481.9237 481.9237 482.0581 482.0581 483.6166 483.6167 484.1999 484.1999
   484.4292 484.4292 484.5590 484.5590 485.2318 485.2318 485.5340 485.5340
   485.9138 485.9138 485.9184 485.9184 486.2600 486.2600 486.3943 486.3943
   487.0000 487.0000 487.0271 487.0271 488.0988 488.0988 488.1286 488.1286
   488.7698 488.7698 488.7841 488.7841 494.4744 494.4744 494.7193 494.7193
   495.4746 495.4746 495.5870 495.5870 495.5941 495.5941 495.6569 495.6569
   497.7564 497.7564 497.7636 497.7636 498.3408 498.3408 498.4058 498.4058
   500.1038 500.1038 500.1410 500.1410 501.9729 501.9729 501.9733 501.9733
   502.4772 502.4772 502.5720 502.5720 503.4227 503.4227 503.5294 503.5294
   505.7689 505.7689 505.7850 505.7850 506.6034 506.6034 506.6596 506.6596
   507.6882 507.6882 507.7794 507.7794 510.8646 510.8646 511.0344 511.0344
   511.5069 511.5069 511.6354 511.6354 512.0999 512.0999 512.1757 512.1757
   513.0948 513.0948 513.1500 513.1500 514.4193 514.4194 514.4539 514.4539
   515.6130 515.6130 515.6532 515.6532 515.8300 515.8300 515.8474 515.8474
   516.6467 516.6467 516.6468 516.6468 516.7326 516.7326 516.7474 516.7474
   517.2257 517.2257 517.2370 517.2370 517.6575 517.6575 517.6624 517.6624
   523.0853 523.0853 523.0912 523.0913 524.9015 524.9015 525.0204 525.0204
   525.3884 525.3885 525.5084 525.5084 526.6261 526.6261 526.7002 526.7002
   528.2696 528.2696 528.2956 528.2956 532.7465 532.7465 532.7746 532.7746
   533.0315 533.0315 533.0514 533.0514 534.7078 534.7078 534.7104 534.7104
   535.6452 535.6452 535.6467 535.6467 535.8969 535.8969 535.8981 535.8982
   536.7025 536.7025 536.7189 536.7189 536.9355 536.9355 536.9398 536.9398
   539.1472 539.1472 539.2505 539.2505 539.8648 539.8648 540.0472 540.0472
   542.1127 542.1127 542.1146 542.1146 543.3495 543.3495 543.4078 543.4078
   546.3241 546.3241 546.3568 546.3568 546.4196 546.4196 546.4267 546.4267

     the Fermi energy is     6.6612 ev
     (compare with:     6.5895 eV, computed in scf)

     Writing all to output data dir out/mp-149.save/
 
     init_run     :      0.02s CPU      0.06s WALL (       1 calls)
     electrons    :   1106.63s CPU   1175.78s WALL (       1 calls)

     Called by init_run:
     wfcinit      :      0.00s CPU      0.00s WALL (       1 calls)
     potinit      :      0.01s CPU      0.01s WALL (       1 calls)
     hinit0       :      0.01s CPU      0.04s WALL (       1 calls)

     Called by electrons:
     c_bands      :   1106.61s CPU   1175.75s WALL (       1 calls)
     v_of_rho     :      0.00s CPU      0.00s WALL (       1 calls)

     Called by c_bands:
     init_us_2    :      0.00s CPU      0.00s WALL (      15 calls)
     init_us_2:cp :      0.00s CPU      0.00s WALL (      15 calls)
     cegterg      :   1076.27s CPU   1143.36s WALL (      15 calls)

     Called by *egterg:
     cdiaghg      :   1001.67s CPU   1066.25s WALL (     177 calls)
     h_psi        :     22.23s CPU     23.04s WALL (     192 calls)
     g_psi        :      0.14s CPU      0.14s WALL (     162 calls)

     Called by h_psi:
     h_psi:calbec :      0.28s CPU      0.29s WALL (     192 calls)
     vloc_psi     :     21.44s CPU     22.23s WALL (     192 calls)
     add_vuspsi   :      0.21s CPU      0.21s WALL (     192 calls)

     General routines
     calbec       :      0.28s CPU      0.29s WALL (     192 calls)
     fft          :      0.00s CPU      0.03s WALL (      10 calls)
     fftw         :     19.58s CPU     20.30s WALL (  220258 calls)
 
     Parallel routines
 
     PWSCF        :  18m27.85s CPU  19m37.71s WALL

 
   This run was terminated on:   3:17:56  16Nov2023            

=------------------------------------------------------------------------------=
   JOB DONE.
=------------------------------------------------------------------------------=
