
     Program PWSCF v.7.1 starts on 16Nov2023 at  2:58:15 

     This program is part of the open-source Quantum ESPRESSO suite
     for quantum simulation of materials; please cite
         "P. Giannozzi et al., J. Phys.:Condens. Matter 21 395502 (2009);
         "P. Giannozzi et al., J. Phys.:Condens. Matter 29 465901 (2017);
         "P. Giannozzi et al., J. Chem. Phys. 152 154105 (2020);
          URL http://www.quantum-espresso.org", 
     in publications or presentations arising from this work. More details at
     http://www.quantum-espresso.org/quote

     Parallel version (MPI), running on    24 processors

     MPI processes distributed on     1 nodes
     123374 MiB available memory on the printing compute node when the environment starts
 
     Reading input from pw_mp-149_scf_k3000_E80.in
Warning: card &CELL ignored
Warning: card / ignored

     Current dimensions of program PWSCF are:
     Max number of different atomic species (ntypx) = 10
     Max number of k-points (npk) =  40000
     Max angular momentum in pseudopotentials (lmaxx) =  4
 
     K-points division:     npool     =       2
     R & G space division:  proc/nbgrp/npool/nimage =      12
     Subspace diagonalization in iterative solution of the eigenvalue problem:
     a serial algorithm will be used

 
     Parallelization info
     --------------------
     sticks:   dense  smooth     PW     G-vecs:    dense   smooth      PW
     Min          96      96     29                 2190     2190     356
     Max          97      97     30                 2194     2194     359
     Sum        1159    1159    349                26301    26301    4279
 
     Using Slab Decomposition
 


     bravais-lattice index     =            2
     lattice parameter (alat)  =      10.2871  a.u.
     unit-cell volume          =     272.1571 (a.u.)^3
     number of atoms/cell      =            2
     number of atomic types    =            1
     number of electrons       =         8.00
     number of Kohn-Sham states=            8
     kinetic-energy cutoff     =      80.0000  Ry
     charge density cutoff     =     320.0000  Ry
     scf convergence threshold =      1.0E-10
     mixing beta               =       0.7000
     number of iterations used =            8  plain     mixing
     Exchange-correlation= PBE
                           (   1   4   3   4   0   0   0)

     celldm(1)=  10.287106  celldm(2)=   0.000000  celldm(3)=   0.000000
     celldm(4)=   0.000000  celldm(5)=   0.000000  celldm(6)=   0.000000

     crystal axes: (cart. coord. in units of alat)
               a(1) = (  -0.500000   0.000000   0.500000 )  
               a(2) = (   0.000000   0.500000   0.500000 )  
               a(3) = (  -0.500000   0.500000   0.000000 )  

     reciprocal axes: (cart. coord. in units 2 pi/alat)
               b(1) = ( -1.000000 -1.000000  1.000000 )  
               b(2) = (  1.000000  1.000000  1.000000 )  
               b(3) = ( -1.000000  1.000000 -1.000000 )  


     PseudoPot. # 1 for Si read from file:
     /usr/scratch4/magr4985/MG/HTDF/pseudo/SG15/Si.upf
     MD5 check sum: 7f029a58b69e3aa87b46a36c608bf45e
     Pseudo is Norm-conserving, Zval =  4.0
     Generated using ONCVPSP code by D. R. Hamann
     Using radial grid of  602 points,  4 beta functions with: 
                l(1) =   0
                l(2) =   0
                l(3) =   1
                l(4) =   1

     atomic species   valence    mass     pseudopotential
        Si             4.00    28.08550     Si( 1.00)

     24 Sym. Ops. (no inversion) found



   Cartesian axes

     site n.     atom                  positions (alat units)
         1           Si  tau(   1) = (  -0.2500000   0.2500001   0.2500000  )
         2           Si  tau(   2) = (  -0.5000000   0.5000000   0.5000000  )

     number of k points=    72  Gaussian smearing, width (Ry)=  0.0005
                       cart. coord. in units 2pi/alat
        k(    1) = (   0.0000000   0.0000000   0.0000000), wk =   0.0011574
        k(    2) = (  -0.0833333   0.0833333  -0.0833333), wk =   0.0092593
        k(    3) = (  -0.1666667   0.1666667  -0.1666667), wk =   0.0092593
        k(    4) = (  -0.2500000   0.2500000  -0.2500000), wk =   0.0092593
        k(    5) = (  -0.3333333   0.3333333  -0.3333333), wk =   0.0092593
        k(    6) = (  -0.4166667   0.4166667  -0.4166667), wk =   0.0092593
        k(    7) = (   0.5000000  -0.5000000   0.5000000), wk =   0.0046296
        k(    8) = (   0.0000000   0.1666667   0.0000000), wk =   0.0069444
        k(    9) = (  -0.0833333   0.2500000  -0.0833333), wk =   0.0277778
        k(   10) = (  -0.1666667   0.3333333  -0.1666667), wk =   0.0277778
        k(   11) = (  -0.2500000   0.4166667  -0.2500000), wk =   0.0277778
        k(   12) = (  -0.3333333   0.5000000  -0.3333333), wk =   0.0277778
        k(   13) = (   0.5833333  -0.4166667   0.5833333), wk =   0.0277778
        k(   14) = (   0.5000000  -0.3333333   0.5000000), wk =   0.0277778
        k(   15) = (   0.4166667  -0.2500000   0.4166667), wk =   0.0277778
        k(   16) = (   0.3333333  -0.1666667   0.3333333), wk =   0.0277778
        k(   17) = (   0.2500000  -0.0833333   0.2500000), wk =   0.0277778
        k(   18) = (   0.1666667  -0.0000000   0.1666667), wk =   0.0138889
        k(   19) = (   0.0000000   0.3333333   0.0000000), wk =   0.0069444
        k(   20) = (  -0.0833333   0.4166667  -0.0833333), wk =   0.0277778
        k(   21) = (  -0.1666667   0.5000000  -0.1666667), wk =   0.0277778
        k(   22) = (  -0.2500000   0.5833333  -0.2500000), wk =   0.0277778
        k(   23) = (   0.6666667  -0.3333333   0.6666667), wk =   0.0277778
        k(   24) = (   0.5833333  -0.2500000   0.5833333), wk =   0.0277778
        k(   25) = (   0.5000000  -0.1666667   0.5000000), wk =   0.0277778
        k(   26) = (   0.4166667  -0.0833333   0.4166667), wk =   0.0277778
        k(   27) = (   0.3333333   0.0000000   0.3333333), wk =   0.0138889
        k(   28) = (   0.0000000   0.5000000   0.0000000), wk =   0.0069444
        k(   29) = (  -0.0833333   0.5833333  -0.0833333), wk =   0.0277778
        k(   30) = (  -0.1666667   0.6666667  -0.1666667), wk =   0.0277778
        k(   31) = (   0.7500000  -0.2500000   0.7500000), wk =   0.0277778
        k(   32) = (   0.6666667  -0.1666667   0.6666667), wk =   0.0277778
        k(   33) = (   0.5833333  -0.0833333   0.5833333), wk =   0.0277778
        k(   34) = (   0.5000000   0.0000000   0.5000000), wk =   0.0138889
        k(   35) = (   0.0000000   0.6666667   0.0000000), wk =   0.0069444
        k(   36) = (  -0.0833333   0.7500000  -0.0833333), wk =   0.0277778
        k(   37) = (   0.8333333  -0.1666667   0.8333333), wk =   0.0277778
        k(   38) = (   0.7500000  -0.0833333   0.7500000), wk =   0.0277778
        k(   39) = (   0.6666667  -0.0000000   0.6666667), wk =   0.0138889
        k(   40) = (   0.0000000   0.8333333   0.0000000), wk =   0.0069444
        k(   41) = (   0.9166667  -0.0833333   0.9166667), wk =   0.0277778
        k(   42) = (   0.8333333   0.0000000   0.8333333), wk =   0.0138889
        k(   43) = (   0.0000000  -1.0000000   0.0000000), wk =   0.0034722
        k(   44) = (  -0.1666667   0.3333333   0.0000000), wk =   0.0277778
        k(   45) = (  -0.2500000   0.4166667  -0.0833333), wk =   0.0555556
        k(   46) = (  -0.3333333   0.5000000  -0.1666667), wk =   0.0555556
        k(   47) = (   0.5833333  -0.4166667   0.7500000), wk =   0.0555556
        k(   48) = (   0.5000000  -0.3333333   0.6666667), wk =   0.0277778
        k(   49) = (  -0.1666667   0.5000000   0.0000000), wk =   0.0277778
        k(   50) = (  -0.2500000   0.5833333  -0.0833333), wk =   0.0555556
        k(   51) = (   0.6666667  -0.3333333   0.8333333), wk =   0.0555556
        k(   52) = (   0.5833333  -0.2500000   0.7500000), wk =   0.0555556
        k(   53) = (   0.5000000  -0.1666667   0.6666667), wk =   0.0555556
        k(   54) = (   0.4166667  -0.0833333   0.5833333), wk =   0.0555556
        k(   55) = (   0.3333333   0.0000000   0.5000000), wk =   0.0277778
        k(   56) = (  -0.1666667   0.6666667  -0.0000000), wk =   0.0277778
        k(   57) = (   0.7500000  -0.2500000   0.9166667), wk =   0.0555556
        k(   58) = (   0.6666667  -0.1666667   0.8333333), wk =   0.0555556
        k(   59) = (   0.5833333  -0.0833333   0.7500000), wk =   0.0555556
        k(   60) = (   0.5000000   0.0000000   0.6666667), wk =   0.0277778
        k(   61) = (   0.8333333  -0.1666667   1.0000000), wk =   0.0277778
        k(   62) = (   0.7500000  -0.0833333   0.9166667), wk =   0.0555556
        k(   63) = (   0.6666667   0.0000000   0.8333333), wk =   0.0277778
        k(   64) = (  -0.1666667  -1.0000000  -0.0000000), wk =   0.0138889
        k(   65) = (   0.6666667  -0.3333333   1.0000000), wk =   0.0277778
        k(   66) = (   0.5833333  -0.2500000   0.9166667), wk =   0.0555556
        k(   67) = (   0.5000000  -0.1666667   0.8333333), wk =   0.0277778
        k(   68) = (   0.6666667  -0.1666667   1.0000000), wk =   0.0277778
        k(   69) = (   0.5833333  -0.0833333   0.9166667), wk =   0.0555556
        k(   70) = (   0.5000000   0.0000000   0.8333333), wk =   0.0277778
        k(   71) = (  -0.3333333  -1.0000000   0.0000000), wk =   0.0138889
        k(   72) = (  -0.5000000  -1.0000000   0.0000000), wk =   0.0069444

     Dense  grid:    26301 G-vectors     FFT dimensions: (  45,  45,  45)

     Estimated max dynamical RAM per process >       2.13 MB

     Estimated total dynamical RAM >      44.60 MB

     Initial potential from superposition of free atoms

     starting charge       7.9075, renormalised to       8.0000
     Starting wfcs are random

     total cpu time spent up to now is        0.3 secs

     Self-consistent Calculation

     iteration #  1     ecut=    80.00 Ry     beta= 0.70
     Davidson diagonalization with overlap
     ethr =  1.00E-02,  avg # of iterations =  8.0

     Threshold (ethr) on eigenvalues was too large:
     Diagonalizing with lowered threshold

     Davidson diagonalization with overlap
     ethr =  6.31E-04,  avg # of iterations =  1.9

     total cpu time spent up to now is        1.1 secs

     total energy              =     -15.76363673 Ry
     estimated scf accuracy    <       0.05206514 Ry

     iteration #  2     ecut=    80.00 Ry     beta= 0.70
     Davidson diagonalization with overlap
     ethr =  6.51E-04,  avg # of iterations =  1.0

     total cpu time spent up to now is        1.3 secs

     total energy              =     -15.76620734 Ry
     estimated scf accuracy    <       0.00205668 Ry

     iteration #  3     ecut=    80.00 Ry     beta= 0.70
     Davidson diagonalization with overlap
     ethr =  2.57E-05,  avg # of iterations =  5.1

     total cpu time spent up to now is        1.6 secs

     total energy              =     -15.76637429 Ry
     estimated scf accuracy    <       0.00004248 Ry

     iteration #  4     ecut=    80.00 Ry     beta= 0.70
     Davidson diagonalization with overlap
     c_bands:  1 eigenvalues not converged
     ethr =  5.31E-07,  avg # of iterations =  4.5

     total cpu time spent up to now is        1.9 secs

     total energy              =     -15.76638650 Ry
     estimated scf accuracy    <       0.00000010 Ry

     iteration #  5     ecut=    80.00 Ry     beta= 0.70
     Davidson diagonalization with overlap
     ethr =  1.21E-09,  avg # of iterations =  4.0

     total cpu time spent up to now is        2.3 secs

     total energy              =     -15.76638692 Ry
     estimated scf accuracy    <          7.6E-09 Ry

     iteration #  6     ecut=    80.00 Ry     beta= 0.70
     Davidson diagonalization with overlap
     ethr =  9.55E-11,  avg # of iterations =  2.0

     total cpu time spent up to now is        2.5 secs

     total energy              =     -15.76638692 Ry
     estimated scf accuracy    <          5.8E-10 Ry

     iteration #  7     ecut=    80.00 Ry     beta= 0.70
     Davidson diagonalization with overlap
     ethr =  7.29E-12,  avg # of iterations =  2.1

     total cpu time spent up to now is        2.7 secs

     End of self-consistent calculation

          k = 0.0000 0.0000 0.0000 (  3287 PWs)   bands (ev):

    -5.7616   6.1463   6.1463   6.1463   8.7038   8.7038   8.7038   9.4001

          k =-0.0833 0.0833-0.0833 (  3293 PWs)   bands (ev):

    -5.6712   5.2878   6.0048   6.0048   8.7296   8.9125   8.9125  10.0813

          k =-0.1667 0.1667-0.1667 (  3296 PWs)   bands (ev):

    -5.4029   3.7723   5.7022   5.7022   8.4592   9.3438   9.3438  11.5146

          k =-0.2500 0.2500-0.2500 (  3305 PWs)   bands (ev):

    -4.9676   2.2352   5.3965   5.3965   8.1322   9.6369   9.6369  12.9846

          k =-0.3333 0.3333-0.3333 (  3293 PWs)   bands (ev):

    -4.3950   0.8371   5.1585   5.1585   7.8640   9.6391   9.6391  13.9732

          k =-0.4167 0.4167-0.4167 (  3281 PWs)   bands (ev):

    -3.7803  -0.2841   5.0116   5.0116   7.6943   9.5283   9.5283  13.9325

          k = 0.5000-0.5000 0.5000 (  3274 PWs)   bands (ev):

    -3.4504  -0.7845   4.9623   4.9623   7.6367   9.4745   9.4746  13.8517

          k = 0.0000 0.1667 0.0000 (  3287 PWs)   bands (ev):

    -5.6409   5.4449   5.7225   5.7225   8.4298   9.2750   9.2750  10.0504

          k =-0.0833 0.2500-0.0833 (  3302 PWs)   bands (ev):

    -5.4314   4.2201   5.3630   5.5472   8.4481   9.3382   9.8074  10.9780

          k =-0.1667 0.3333-0.1667 (  3302 PWs)   bands (ev):

    -5.0502   2.7278   5.0533   5.2261   8.5591   9.3346  10.1899  11.5051

          k =-0.2500 0.4167-0.2500 (  3295 PWs)   bands (ev):

    -4.5182   1.3008   4.8455   4.8758   8.4048   9.4256  10.2145  12.0757

          k =-0.3333 0.5000-0.3333 (  3282 PWs)   bands (ev):

    -3.8980   0.0795   4.5821   4.7566   8.2357   9.3957  10.0222  13.1197

          k = 0.5833-0.4167 0.5833 (  3281 PWs)   bands (ev):

    -3.4128  -0.6832   4.3791   4.7871   8.1536   9.3983   9.8249  14.0339

          k = 0.5000-0.3333 0.5000 (  3283 PWs)   bands (ev):

    -3.5321  -0.5073   4.2851   4.9287   8.1794   9.5142   9.7155  14.1441

          k = 0.4167-0.2500 0.4167 (  3295 PWs)   bands (ev):

    -4.1080   0.4568   4.3128   5.1657   8.3123   9.6840   9.7214  13.5842

          k = 0.3333-0.1667 0.3333 (  3307 PWs)   bands (ev):

    -4.7110   1.7621   4.4721   5.4723   8.5392   9.6034   9.8706  12.6101

          k = 0.2500-0.0833 0.2500 (  3301 PWs)   bands (ev):

    -5.1962   3.2111   4.7749   5.7976   8.8249   9.3058   9.6551  11.8215

          k = 0.1667-0.0000 0.1667 (  3301 PWs)   bands (ev):

    -5.5213   4.5564   5.2940   6.0299   8.9513   9.0443   9.0969  10.8913

          k = 0.0000 0.3333 0.0000 (  3303 PWs)   bands (ev):

    -5.2808   4.0996   4.9685   4.9685   7.8464  10.3952  10.4643  10.4643

          k =-0.0833 0.4167-0.0833 (  3290 PWs)   bands (ev):

    -4.9559   3.0221   4.6204   4.6375   7.8641  10.0067  10.7973  11.0219

          k =-0.1667 0.5000-0.1667 (  3292 PWs)   bands (ev):

    -4.4713   1.7224   4.1688   4.4209   8.1002  10.1763  10.6376  11.1893

          k =-0.2500 0.5833-0.2500 (  3291 PWs)   bands (ev):

    -3.8683   0.4976   3.7319   4.3378   8.1423  10.3635  11.0125  11.1643

          k = 0.6667-0.3333 0.6667 (  3293 PWs)   bands (ev):

    -3.2907  -0.4281   3.3899   4.3910   8.1711  10.2230  10.7436  12.5232

          k = 0.5833-0.2500 0.5833 (  3284 PWs)   bands (ev):

    -3.1778  -0.5861   3.1782   4.5731   8.3122  10.1775  10.5201  14.0692

          k = 0.5000-0.1667 0.5000 (  3291 PWs)   bands (ev):

    -3.6717   0.1655   3.1235   4.8650   8.5725  10.2338  10.3564  13.4190

          k = 0.4167-0.0833 0.4167 (  3301 PWs)   bands (ev):

    -4.2908   1.3027   3.2695   5.2291   8.8994  10.1305  10.2901  12.2280

          k = 0.3333 0.0000 0.3333 (  3293 PWs)   bands (ev):

    -4.8188   2.4363   3.7588   5.5889   9.1513   9.6909   9.9621  11.7620

          k = 0.0000 0.5000 0.0000 (  3327 PWs)   bands (ev):

    -4.6870   2.6266   4.2786   4.2786   7.2732   9.2595  11.8615  11.8616

          k =-0.0833 0.5833-0.0833 (  3295 PWs)   bands (ev):

    -4.2534   1.7232   3.8157   4.0344   7.3556   8.9095  12.1414  12.3400

          k =-0.1667 0.6667-0.1667 (  3286 PWs)   bands (ev):

    -3.6824   0.7029   3.1867   3.9282   7.5715   9.3775  12.0039  12.3007

          k = 0.7500-0.2500 0.7500 (  3283 PWs)   bands (ev):

    -3.0640  -0.2146   2.6431   3.9665   7.6579  10.5662  11.8358  12.0280

          k = 0.6667-0.1667 0.6667 (  3280 PWs)   bands (ev):

    -2.7442  -0.6242   2.2829   4.1448   7.8348  11.5549  11.7352  12.2674

          k = 0.5833-0.0833 0.5833 (  3274 PWs)   bands (ev):

    -3.1162  -0.1355   2.1658   4.4466   8.1555  11.4392  11.5359  13.2699

          k = 0.5000 0.0000 0.5000 (  3294 PWs)   bands (ev):

    -3.7328   0.6808   2.4294   4.8348   8.5758  10.9116  11.2336  12.2398

          k = 0.0000 0.6667 0.0000 (  3302 PWs)   bands (ev):

    -3.8703   1.1415   3.7558   3.7558   6.8712   8.1289  13.3536  13.3536

          k =-0.0833 0.7500-0.0833 (  3299 PWs)   bands (ev):

    -3.3393   0.3607   3.2736   3.6145   7.0322   7.9990  13.6709  13.7219

          k = 0.8333-0.1667 0.8333 (  3281 PWs)   bands (ev):

    -2.7153  -0.4024   2.5510   3.6206   7.2048   8.8476  13.5445  13.5606

          k = 0.7500-0.0833 0.7500 (  3273 PWs)   bands (ev):

    -2.2517  -0.8887   1.9771   3.7729   7.3799  10.2832  13.1990  13.3938

          k = 0.6667-0.0000 0.6667 (  3256 PWs)   bands (ev):

    -2.5229  -0.6038   1.7766   4.0588   7.7039  11.9064  12.5843  13.1608

          k = 0.0000 0.8333 0.0000 (  3302 PWs)   bands (ev):

    -2.8478  -0.3000   3.4337   3.4337   6.7162   7.3177  14.9026  14.9026

          k = 0.9167-0.0833 0.9167 (  3290 PWs)   bands (ev):

    -2.2386  -0.9835   3.0052   3.4003   6.9163   7.4820  15.1501  15.2437

          k = 0.8333 0.0000 0.8333 (  3288 PWs)   bands (ev):

    -1.7880  -1.3840   2.3400   3.5164   7.0750   8.6745  14.6141  15.1402

          k = 0.0000-1.0000 0.0000 (  3306 PWs)   bands (ev):

    -1.6455  -1.6455   3.3251   3.3251   6.8538   6.8538  16.1818  16.1820

          k =-0.1667 0.3333 0.0000 (  3302 PWs)   bands (ev):

    -5.1645   3.4209   4.5311   5.4471   8.4744   9.6529  10.2762  11.0190

          k =-0.2500 0.4167-0.0833 (  3300 PWs)   bands (ev):

    -4.7313   2.1884   4.0008   5.1756   8.7480   9.6256  10.6803  11.0106

          k =-0.3333 0.5000-0.1667 (  3297 PWs)   bands (ev):

    -4.1604   0.8966   3.7309   4.8522   8.7790   9.5149  10.7377  11.6540

          k = 0.5833-0.4167 0.7500 (  3287 PWs)   bands (ev):

    -3.5444  -0.1843   3.6028   4.6090   8.7170   9.3334  10.6566  12.8609

          k = 0.5000-0.3333 0.6667 (  3282 PWs)   bands (ev):

    -3.2101  -0.6775   3.5668   4.5186   8.6929   9.2515  10.6114  14.1763

          k =-0.1667 0.5000 0.0000 (  3290 PWs)   bands (ev):

    -4.5774   2.2297   3.8417   4.5372   7.9287   9.6493  10.9274  11.7424

          k =-0.2500 0.5833-0.0833 (  3295 PWs)   bands (ev):

    -4.0487   1.1872   3.3063   4.2521   8.2579   9.8697  10.6706  12.1240

          k = 0.6667-0.3333 0.8333 (  3280 PWs)   bands (ev):

    -3.4284   0.1420   2.9496   4.0442   8.3766  10.3256  10.9223  12.1049

          k = 0.5833-0.2500 0.7500 (  3277 PWs)   bands (ev):

    -2.9369  -0.5572   2.7047   4.0265   8.5023  10.0538  11.9974  12.3811

          k = 0.5000-0.1667 0.6667 (  3283 PWs)   bands (ev):

    -3.0711  -0.3720   2.5882   4.1972   8.7484   9.8677  11.9152  12.7620

          k = 0.4167-0.0833 0.5833 (  3288 PWs)   bands (ev):

    -3.6557   0.4966   2.6641   4.5108   9.1024   9.7299  11.4006  11.8698

          k = 0.3333 0.0000 0.5000 (  3301 PWs)   bands (ev):

    -4.2536   1.4686   3.0782   4.8884   9.3405   9.4750  10.7882  11.4444

          k =-0.1667 0.6667-0.0000 (  3285 PWs)   bands (ev):

    -3.7725   0.9681   3.3365   3.7617   7.5325   8.6117  12.1607  13.3024

          k = 0.7500-0.2500 0.9167 (  3291 PWs)   bands (ev):

    -3.1715   0.1383   2.7525   3.5467   7.8640   9.1374  11.8630  13.6675

          k = 0.6667-0.1667 0.8333 (  3284 PWs)   bands (ev):

    -2.5877  -0.5700   2.2350   3.5545   8.0162  10.4217  11.5711  13.6011

          k = 0.5833-0.0833 0.7500 (  3277 PWs)   bands (ev):

    -2.5181  -0.6396   1.9489   3.7511   8.2704  11.1685  12.1552  12.8323

          k = 0.5000 0.0000 0.6667 (  3281 PWs)   bands (ev):

    -3.0508  -0.0537   2.0354   4.0930   8.6584  10.7604  11.6092  12.9320

          k = 0.8333-0.1667 1.0000 (  3293 PWs)   bands (ev):

    -2.7713  -0.3367   3.0555   3.2514   7.3623   7.8717  13.5277  14.8983

          k = 0.7500-0.0833 0.9167 (  3289 PWs)   bands (ev):

    -2.1475  -0.9756   2.4324   3.2075   7.6523   8.7715  13.2114  14.6869

          k = 0.6667 0.0000 0.8333 (  3267 PWs)   bands (ev):

    -1.9959  -1.0869   1.9386   3.4029   7.8878  10.2900  12.7576  13.1433

          k =-0.1667-1.0000-0.0000 (  3300 PWs)   bands (ev):

    -1.6082  -1.6082   3.0210   3.0210   7.4637   7.4637  14.9901  14.9901

          k = 0.6667-0.3333 1.0000 (  3283 PWs)   bands (ev):

    -3.4887   0.5150   2.6116   3.8769   8.9827   9.8409  10.3437  13.1570

          k = 0.5833-0.2500 0.9167 (  3285 PWs)   bands (ev):

    -2.8698  -0.2492   2.2662   3.5433   9.3545   9.8867  10.8659  13.5799

          k = 0.5000-0.1667 0.8333 (  3288 PWs)   bands (ev):

    -2.5132  -0.6738   2.1730   3.4152   9.4865   9.6728  12.2027  12.6191

          k = 0.6667-0.1667 1.0000 (  3291 PWs)   bands (ev):

    -2.5599  -0.4803   2.4154   3.0307   8.8127   9.2140  11.4881  14.3994

          k = 0.5833-0.0833 0.9167 (  3281 PWs)   bands (ev):

    -2.0416  -0.9833   2.1031   2.8775   9.1517  10.4069  11.2157  12.5941

          k = 0.5000 0.0000 0.8333 (  3275 PWs)   bands (ev):

    -2.2716  -0.7545   1.9792   3.1004   9.4513  10.5925  11.1073  12.3447

          k =-0.3333-1.0000 0.0000 (  3294 PWs)   bands (ev):

    -1.5283  -1.5283   2.5392   2.5392   8.8788   8.8788  12.8588  12.8588

          k =-0.5000-1.0000 0.0000 (  3268 PWs)   bands (ev):

    -1.4853  -1.4853   2.3334   2.3334  10.3921  10.3921  11.1079  11.1079

     the Fermi energy is     6.5895 ev

!    total energy              =     -15.76638692 Ry
     estimated scf accuracy    <          1.1E-11 Ry
     smearing contrib. (-TS)   =      -0.00000000 Ry
     internal energy E=F+TS    =     -15.76638692 Ry

     The total energy is F=E-TS. E is the sum of the following terms:
     one-electron contribution =       4.69061603 Ry
     hartree contribution      =       1.10752764 Ry
     xc contribution           =      -4.80787036 Ry
     ewald contribution        =     -16.75666023 Ry

     convergence has been achieved in   7 iterations

     Writing all to output data dir out/mp-149.save/
 
     init_run     :      0.12s CPU      0.24s WALL (       1 calls)
     electrons    :      2.18s CPU      2.46s WALL (       1 calls)

     Called by init_run:
     wfcinit      :      0.09s CPU      0.12s WALL (       1 calls)
     potinit      :      0.01s CPU      0.02s WALL (       1 calls)
     hinit0       :      0.01s CPU      0.09s WALL (       1 calls)

     Called by electrons:
     c_bands      :      1.87s CPU      2.07s WALL (       8 calls)
     sum_band     :      0.27s CPU      0.32s WALL (       8 calls)
     v_of_rho     :      0.03s CPU      0.04s WALL (       8 calls)
     mix_rho      :      0.01s CPU      0.01s WALL (       8 calls)

     Called by c_bands:
     init_us_2    :      0.03s CPU      0.03s WALL (     612 calls)
     init_us_2:cp :      0.03s CPU      0.03s WALL (     612 calls)
     cegterg      :      1.70s CPU      1.79s WALL (     288 calls)

     Called by *egterg:
     cdiaghg      :      0.12s CPU      0.13s WALL (    1308 calls)
     h_psi        :      1.53s CPU      1.62s WALL (    1380 calls)
     g_psi        :      0.01s CPU      0.01s WALL (    1056 calls)

     Called by h_psi:
     h_psi:calbec :      0.04s CPU      0.04s WALL (    1380 calls)
     vloc_psi     :      1.47s CPU      1.54s WALL (    1380 calls)
     add_vuspsi   :      0.02s CPU      0.02s WALL (    1380 calls)

     General routines
     calbec       :      0.03s CPU      0.04s WALL (    1380 calls)
     fft          :      0.01s CPU      0.10s WALL (      80 calls)
     ffts         :      0.00s CPU      0.00s WALL (       8 calls)
     fftw         :      1.56s CPU      1.64s WALL (   17484 calls)
     davcio       :      0.03s CPU      0.14s WALL (     988 calls)
 
     Parallel routines
 
     PWSCF        :      2.37s CPU      2.85s WALL

 
   This run was terminated on:   2:58:18  16Nov2023            

=------------------------------------------------------------------------------=
   JOB DONE.
=------------------------------------------------------------------------------=
