
     Program PWSCF v.7.1 starts on 19Nov2023 at 20:47:16 

     This program is part of the open-source Quantum ESPRESSO suite
     for quantum simulation of materials; please cite
         "P. Giannozzi et al., J. Phys.:Condens. Matter 21 395502 (2009);
         "P. Giannozzi et al., J. Phys.:Condens. Matter 29 465901 (2017);
         "P. Giannozzi et al., J. Chem. Phys. 152 154105 (2020);
          URL http://www.quantum-espresso.org", 
     in publications or presentations arising from this work. More details at
     http://www.quantum-espresso.org/quote

     Parallel version (MPI), running on    24 processors

     MPI processes distributed on     1 nodes
     123298 MiB available memory on the printing compute node when the environment starts
 
     Reading input from pw_mp-2605_scf_k3000_E109.in
Warning: card &CELL ignored
Warning: card / ignored

     Current dimensions of program PWSCF are:
     Max number of different atomic species (ntypx) = 10
     Max number of k-points (npk) =  40000
     Max angular momentum in pseudopotentials (lmaxx) =  4
 
     K-points division:     npool     =       2
     R & G space division:  proc/nbgrp/npool/nimage =      12
     Subspace diagonalization in iterative solution of the eigenvalue problem:
     a serial algorithm will be used

 
     Parallelization info
     --------------------
     sticks:   dense  smooth     PW     G-vecs:    dense   smooth      PW
     Min         103     103     30                 2396     2396     386
     Max         104     104     31                 2400     2400     389
     Sum        1237    1237    367                28763    28763    4645
 
     Using Slab Decomposition
 


     bravais-lattice index     =            2
     lattice parameter (alat)  =       9.0841  a.u.
     unit-cell volume          =     187.4084 (a.u.)^3
     number of atoms/cell      =            2
     number of atomic types    =            2
     number of electrons       =        16.00
     number of Kohn-Sham states=           16
     kinetic-energy cutoff     =     109.0000  Ry
     charge density cutoff     =     436.0000  Ry
     scf convergence threshold =      1.0E-10
     mixing beta               =       0.7000
     number of iterations used =            8  plain     mixing
     Exchange-correlation= PBE
                           (   1   4   3   4   0   0   0)

     celldm(1)=   9.084123  celldm(2)=   0.000000  celldm(3)=   0.000000
     celldm(4)=   0.000000  celldm(5)=   0.000000  celldm(6)=   0.000000

     crystal axes: (cart. coord. in units of alat)
               a(1) = (  -0.500000   0.000000   0.500000 )  
               a(2) = (   0.000000   0.500000   0.500000 )  
               a(3) = (  -0.500000   0.500000   0.000000 )  

     reciprocal axes: (cart. coord. in units 2 pi/alat)
               b(1) = ( -1.000000 -1.000000  1.000000 )  
               b(2) = (  1.000000  1.000000  1.000000 )  
               b(3) = ( -1.000000  1.000000 -1.000000 )  


     PseudoPot. # 1 for Ca read from file:
     /usr/scratch4/magr4985/MG/HTDF/pseudo/SG15/Ca.upf
     MD5 check sum: b43c970dc090f2312d256360aabdb6f1
     Pseudo is Norm-conserving, Zval = 10.0
     Generated using ONCVPSP code by D. R. Hamann
     Using radial grid of  602 points,  6 beta functions with: 
                l(1) =   0
                l(2) =   0
                l(3) =   1
                l(4) =   1
                l(5) =   2
                l(6) =   2

     PseudoPot. # 2 for O  read from file:
     /usr/scratch4/magr4985/MG/HTDF/pseudo/SG15/O.upf
     MD5 check sum: e36c48deb68f4e355fffe4602be2c42c
     Pseudo is Norm-conserving, Zval =  6.0
     Generated using ONCVPSP code by D. R. Hamann
     Using radial grid of  602 points,  4 beta functions with: 
                l(1) =   0
                l(2) =   0
                l(3) =   1
                l(4) =   1

     atomic species   valence    mass     pseudopotential
        Ca            10.00    40.07800     Ca( 1.00)
        O              6.00    15.99940     O ( 1.00)

     48 Sym. Ops., with inversion, found



   Cartesian axes

     site n.     atom                  positions (alat units)
         1           Ca  tau(   1) = (   0.0000000   0.0000000   0.0000000  )
         2           O   tau(   2) = (  -0.5000000   0.5000000   0.5000000  )

     number of k points=    72  Gaussian smearing, width (Ry)=  0.0005
                       cart. coord. in units 2pi/alat
        k(    1) = (   0.0000000   0.0000000   0.0000000), wk =   0.0011574
        k(    2) = (  -0.0833333   0.0833333  -0.0833333), wk =   0.0092593
        k(    3) = (  -0.1666667   0.1666667  -0.1666667), wk =   0.0092593
        k(    4) = (  -0.2500000   0.2500000  -0.2500000), wk =   0.0092593
        k(    5) = (  -0.3333333   0.3333333  -0.3333333), wk =   0.0092593
        k(    6) = (  -0.4166667   0.4166667  -0.4166667), wk =   0.0092593
        k(    7) = (   0.5000000  -0.5000000   0.5000000), wk =   0.0046296
        k(    8) = (   0.0000000   0.1666667   0.0000000), wk =   0.0069444
        k(    9) = (  -0.0833333   0.2500000  -0.0833333), wk =   0.0277778
        k(   10) = (  -0.1666667   0.3333333  -0.1666667), wk =   0.0277778
        k(   11) = (  -0.2500000   0.4166667  -0.2500000), wk =   0.0277778
        k(   12) = (  -0.3333333   0.5000000  -0.3333333), wk =   0.0277778
        k(   13) = (   0.5833333  -0.4166667   0.5833333), wk =   0.0277778
        k(   14) = (   0.5000000  -0.3333333   0.5000000), wk =   0.0277778
        k(   15) = (   0.4166667  -0.2500000   0.4166667), wk =   0.0277778
        k(   16) = (   0.3333333  -0.1666667   0.3333333), wk =   0.0277778
        k(   17) = (   0.2500000  -0.0833333   0.2500000), wk =   0.0277778
        k(   18) = (   0.1666667  -0.0000000   0.1666667), wk =   0.0138889
        k(   19) = (   0.0000000   0.3333333   0.0000000), wk =   0.0069444
        k(   20) = (  -0.0833333   0.4166667  -0.0833333), wk =   0.0277778
        k(   21) = (  -0.1666667   0.5000000  -0.1666667), wk =   0.0277778
        k(   22) = (  -0.2500000   0.5833333  -0.2500000), wk =   0.0277778
        k(   23) = (   0.6666667  -0.3333333   0.6666667), wk =   0.0277778
        k(   24) = (   0.5833333  -0.2500000   0.5833333), wk =   0.0277778
        k(   25) = (   0.5000000  -0.1666667   0.5000000), wk =   0.0277778
        k(   26) = (   0.4166667  -0.0833333   0.4166667), wk =   0.0277778
        k(   27) = (   0.3333333   0.0000000   0.3333333), wk =   0.0138889
        k(   28) = (   0.0000000   0.5000000   0.0000000), wk =   0.0069444
        k(   29) = (  -0.0833333   0.5833333  -0.0833333), wk =   0.0277778
        k(   30) = (  -0.1666667   0.6666667  -0.1666667), wk =   0.0277778
        k(   31) = (   0.7500000  -0.2500000   0.7500000), wk =   0.0277778
        k(   32) = (   0.6666667  -0.1666667   0.6666667), wk =   0.0277778
        k(   33) = (   0.5833333  -0.0833333   0.5833333), wk =   0.0277778
        k(   34) = (   0.5000000   0.0000000   0.5000000), wk =   0.0138889
        k(   35) = (   0.0000000   0.6666667   0.0000000), wk =   0.0069444
        k(   36) = (  -0.0833333   0.7500000  -0.0833333), wk =   0.0277778
        k(   37) = (   0.8333333  -0.1666667   0.8333333), wk =   0.0277778
        k(   38) = (   0.7500000  -0.0833333   0.7500000), wk =   0.0277778
        k(   39) = (   0.6666667  -0.0000000   0.6666667), wk =   0.0138889
        k(   40) = (   0.0000000   0.8333333   0.0000000), wk =   0.0069444
        k(   41) = (   0.9166667  -0.0833333   0.9166667), wk =   0.0277778
        k(   42) = (   0.8333333   0.0000000   0.8333333), wk =   0.0138889
        k(   43) = (   0.0000000  -1.0000000   0.0000000), wk =   0.0034722
        k(   44) = (  -0.1666667   0.3333333   0.0000000), wk =   0.0277778
        k(   45) = (  -0.2500000   0.4166667  -0.0833333), wk =   0.0555556
        k(   46) = (  -0.3333333   0.5000000  -0.1666667), wk =   0.0555556
        k(   47) = (   0.5833333  -0.4166667   0.7500000), wk =   0.0555556
        k(   48) = (   0.5000000  -0.3333333   0.6666667), wk =   0.0277778
        k(   49) = (  -0.1666667   0.5000000   0.0000000), wk =   0.0277778
        k(   50) = (  -0.2500000   0.5833333  -0.0833333), wk =   0.0555556
        k(   51) = (   0.6666667  -0.3333333   0.8333333), wk =   0.0555556
        k(   52) = (   0.5833333  -0.2500000   0.7500000), wk =   0.0555556
        k(   53) = (   0.5000000  -0.1666667   0.6666667), wk =   0.0555556
        k(   54) = (   0.4166667  -0.0833333   0.5833333), wk =   0.0555556
        k(   55) = (   0.3333333   0.0000000   0.5000000), wk =   0.0277778
        k(   56) = (  -0.1666667   0.6666667  -0.0000000), wk =   0.0277778
        k(   57) = (   0.7500000  -0.2500000   0.9166667), wk =   0.0555556
        k(   58) = (   0.6666667  -0.1666667   0.8333333), wk =   0.0555556
        k(   59) = (   0.5833333  -0.0833333   0.7500000), wk =   0.0555556
        k(   60) = (   0.5000000   0.0000000   0.6666667), wk =   0.0277778
        k(   61) = (   0.8333333  -0.1666667   1.0000000), wk =   0.0277778
        k(   62) = (   0.7500000  -0.0833333   0.9166667), wk =   0.0555556
        k(   63) = (   0.6666667   0.0000000   0.8333333), wk =   0.0277778
        k(   64) = (  -0.1666667  -1.0000000  -0.0000000), wk =   0.0138889
        k(   65) = (   0.6666667  -0.3333333   1.0000000), wk =   0.0277778
        k(   66) = (   0.5833333  -0.2500000   0.9166667), wk =   0.0555556
        k(   67) = (   0.5000000  -0.1666667   0.8333333), wk =   0.0277778
        k(   68) = (   0.6666667  -0.1666667   1.0000000), wk =   0.0277778
        k(   69) = (   0.5833333  -0.0833333   0.9166667), wk =   0.0555556
        k(   70) = (   0.5000000   0.0000000   0.8333333), wk =   0.0277778
        k(   71) = (  -0.3333333  -1.0000000   0.0000000), wk =   0.0138889
        k(   72) = (  -0.5000000  -1.0000000   0.0000000), wk =   0.0069444

     Dense  grid:    28763 G-vectors     FFT dimensions: (  45,  45,  45)

     Estimated max dynamical RAM per process >       5.52 MB

     Estimated total dynamical RAM >     125.37 MB

     Initial potential from superposition of free atoms

     starting charge      15.7951, renormalised to      16.0000
     Starting wfcs are random

     total cpu time spent up to now is        0.3 secs

     Self-consistent Calculation

     iteration #  1     ecut=   109.00 Ry     beta= 0.70
     Davidson diagonalization with overlap
     ethr =  1.00E-02,  avg # of iterations =  9.1

     total cpu time spent up to now is        1.6 secs

     total energy              =    -105.81624639 Ry
     estimated scf accuracy    <       0.35080748 Ry

     iteration #  2     ecut=   109.00 Ry     beta= 0.70
     Davidson diagonalization with overlap
     ethr =  2.19E-03,  avg # of iterations =  2.1

     total cpu time spent up to now is        2.1 secs

     total energy              =    -105.80861921 Ry
     estimated scf accuracy    <       0.88362834 Ry

     iteration #  3     ecut=   109.00 Ry     beta= 0.70
     Davidson diagonalization with overlap
     ethr =  2.19E-03,  avg # of iterations =  2.0

     total cpu time spent up to now is        2.6 secs

     total energy              =    -105.98518058 Ry
     estimated scf accuracy    <       0.00926734 Ry

     iteration #  4     ecut=   109.00 Ry     beta= 0.70
     Davidson diagonalization with overlap
     ethr =  5.79E-05,  avg # of iterations =  2.2

     total cpu time spent up to now is        3.1 secs

     total energy              =    -105.98699542 Ry
     estimated scf accuracy    <       0.00030768 Ry

     iteration #  5     ecut=   109.00 Ry     beta= 0.70
     Davidson diagonalization with overlap
     ethr =  1.92E-06,  avg # of iterations =  3.4

     total cpu time spent up to now is        3.6 secs

     total energy              =    -105.98704443 Ry
     estimated scf accuracy    <       0.00000293 Ry

     iteration #  6     ecut=   109.00 Ry     beta= 0.70
     Davidson diagonalization with overlap
     ethr =  1.83E-08,  avg # of iterations =  2.2

     total cpu time spent up to now is        4.1 secs

     total energy              =    -105.98704537 Ry
     estimated scf accuracy    <       0.00000013 Ry

     iteration #  7     ecut=   109.00 Ry     beta= 0.70
     Davidson diagonalization with overlap
     ethr =  8.15E-10,  avg # of iterations =  2.0

     total cpu time spent up to now is        4.5 secs

     total energy              =    -105.98704539 Ry
     estimated scf accuracy    <       0.00000001 Ry

     iteration #  8     ecut=   109.00 Ry     beta= 0.70
     Davidson diagonalization with overlap
     ethr =  7.16E-11,  avg # of iterations =  2.0

     total cpu time spent up to now is        5.0 secs

     total energy              =    -105.98704539 Ry
     estimated scf accuracy    <          1.4E-10 Ry

     iteration #  9     ecut=   109.00 Ry     beta= 0.70
     Davidson diagonalization with overlap
     ethr =  8.95E-13,  avg # of iterations =  2.0

     total cpu time spent up to now is        5.5 secs

     End of self-consistent calculation

          k = 0.0000 0.0000 0.0000 (  3647 PWs)   bands (ev):

   -29.8979 -10.6673 -10.6673 -10.6673  -7.7092   7.7796   7.7796   7.7796
    12.5114  13.9961  13.9961  13.9961  15.4923  15.4923  22.8660  30.1844

          k =-0.0833 0.0833-0.0833 (  3617 PWs)   bands (ev):

   -29.8912 -10.7644 -10.6710 -10.6710  -7.6075   7.5232   7.6819   7.6819
    12.8357  13.9706  14.1146  14.1146  15.6596  15.6596  23.1481  29.6737

          k =-0.1667 0.1667-0.1667 (  3608 PWs)   bands (ev):

   -29.8728 -11.0031 -10.6808 -10.6808  -7.3557   6.9268   7.4320   7.4320
    13.6104  13.9785  14.4504  14.4504  16.1122  16.1122  23.6990  28.7928

          k =-0.2500 0.2500-0.2500 (  3602 PWs)   bands (ev):

   -29.8475 -11.2857 -10.6941 -10.6941  -7.0541   6.2542   7.1228   7.1228
    14.0288  14.6425  14.9448  14.9448  16.7334  16.7334  23.7091  27.6934

          k =-0.3333 0.3333-0.3333 (  3615 PWs)   bands (ev):

   -29.8220 -11.5346 -10.7074 -10.7074  -6.7843   5.6747   6.8425   6.8425
    14.3066  15.4917  15.4917  15.5286  17.3899  17.3899  22.9840  26.2743

          k =-0.4167 0.4167-0.4167 (  3609 PWs)   bands (ev):

   -29.8032 -11.7015 -10.7170 -10.7170  -6.6010   5.2887   6.6521   6.6521
    14.6440  15.9329  15.9329  16.1121  17.9333  17.9333  22.2631  25.1692

          k = 0.5000-0.5000 0.5000 (  3600 PWs)   bands (ev):

   -29.7963 -11.7600 -10.7205 -10.7205  -6.5362   5.1537   6.5851   6.5851
    14.8126  16.1039  16.1039  16.2927  18.1590  18.1590  21.9919  24.7363

          k = 0.0000 0.1667 0.0000 (  3615 PWs)   bands (ev):

   -29.8890 -10.7718 -10.6824 -10.6824  -7.5811   7.3441   7.7209   7.7209
    12.9000  13.7472  14.2579  14.2579  15.5610  15.8695  23.2494  29.4848

          k =-0.0833 0.2500-0.0833 (  3611 PWs)   bands (ev):

   -29.8745 -10.9448 -10.6991 -10.6890  -7.3991   6.8906   7.5346   7.5826
    13.4474  13.6025  14.5543  14.6052  15.7891  16.3469  23.7461  28.5735

          k =-0.1667 0.3333-0.1667 (  3613 PWs)   bands (ev):

   -29.8515 -11.1972 -10.7164 -10.6982  -7.1401   6.3570   7.1996   7.3242
    13.6198  14.3324  14.9434  15.0945  16.2834  16.9560  23.9662  27.5471

          k =-0.2500 0.4167-0.2500 (  3611 PWs)   bands (ev):

   -29.8262 -11.4434 -10.7297 -10.7143  -6.8846   5.8503   6.8795   7.0335
    13.8736  15.1462  15.5011  15.6200  16.9309  17.5642  23.3288  26.3335

          k =-0.3333 0.5000-0.3333 (  3606 PWs)   bands (ev):

   -29.8052 -11.6278 -10.7355 -10.7333  -6.6901   5.4637   6.6649   6.7874
    14.2982  15.4718  16.0279  16.2852  17.5905  18.0640  22.4527  25.3089

          k = 0.5833-0.4167 0.5833 (  3607 PWs)   bands (ev):

   -29.7943 -11.7182 -10.7497 -10.7322  -6.5923   5.2682   6.5898   6.6368
    14.7126  15.4947  16.1676  16.7552  18.0526  18.3287  21.9558  24.6307

          k = 0.5000-0.3333 0.5000 (  3608 PWs)   bands (ev):

   -29.7966 -11.7005 -10.7590 -10.7209  -6.6078   5.3009   6.6086   6.6582
    14.6920  15.5240  15.9755  16.6787  18.1163  18.1706  22.0580  24.5373

          k = 0.4167-0.2500 0.4167 (  3605 PWs)   bands (ev):

   -29.8114 -11.5781 -10.7582 -10.7044  -6.7347   5.5603   6.7076   6.8543
    14.3125  15.4578  15.5262  16.1566  17.5969  17.8005  22.7150  25.1301

          k = 0.3333-0.1667 0.3333 (  3608 PWs)   bands (ev):

   -29.8346 -11.3713 -10.7466 -10.6872  -6.9517   6.0072   6.9174   7.1399
    13.9738  14.9129  14.9858  15.5441  16.8806  17.2577  23.5874  26.0805

          k = 0.2500-0.0833 0.2500 (  3620 PWs)   bands (ev):

   -29.8599 -11.1203 -10.7260 -10.6737  -7.2168   6.5684   7.1978   7.4435
    13.8077  14.0611  14.5105  15.0014  16.2370  16.6300  23.9351  27.2480

          k = 0.1667-0.0000 0.1667 (  3609 PWs)   bands (ev):

   -29.8806 -10.8909 -10.6982 -10.6678  -7.4640   7.1342   7.4819   7.6541
    13.2709  13.8523  14.2026  14.4996  15.7939  16.0521  23.5330  28.6485

          k = 0.0000 0.3333 0.0000 (  3623 PWs)   bands (ev):

   -29.8646 -10.9887 -10.7237 -10.7237  -7.3327   6.5795   7.5935   7.5935
    13.1545  13.6323  14.9438  14.9438  15.7540  16.8142  24.1621  28.1557

          k =-0.0833 0.4167-0.0833 (  3593 PWs)   bands (ev):

   -29.8457 -11.1453 -10.7479 -10.7413  -7.1878   6.2484   7.4023   7.4597
    12.9629  14.1942  15.3597  15.4045  16.0245  17.3588  24.5016  27.0535

          k =-0.1667 0.5000-0.1667 (  3599 PWs)   bands (ev):

   -29.8228 -11.3375 -10.7652 -10.7616  -7.0146   5.9671   7.0626   7.2319
    13.0762  14.9622  15.7786  15.8833  16.5426  17.8801  23.8920  26.0410

          k =-0.2500 0.5833-0.2500 (  3596 PWs)   bands (ev):

   -29.8020 -11.5016 -10.7926 -10.7711  -6.8576   5.7443   6.7578   6.9839
    13.4680  15.4433  16.2394  16.3197  17.1894  18.3714  22.7623  25.1859

          k = 0.6667-0.3333 0.6667 (  3610 PWs)   bands (ev):

   -29.7889 -11.6013 -10.8268 -10.7642  -6.7489   5.5815   6.6143   6.7801
    14.0546  15.3549  16.3489  16.8030  17.7688  18.8597  21.9416  24.3260

          k = 0.5833-0.2500 0.5833 (  3620 PWs)   bands (ev):

   -29.7871 -11.6201 -10.8526 -10.7461  -6.7093   5.5147   6.6531   6.6638
    14.6458  14.9800  16.1544  16.7922  18.0817  19.0433  21.7832  23.8183

          k = 0.5000-0.1667 0.5000 (  3599 PWs)   bands (ev):

   -29.7972 -11.5584 -10.8588 -10.7217  -6.7488   5.5864   6.6564   6.8307
    14.3985  15.1627  15.7246  16.3934  18.0513  18.4945  22.3906  23.9178

          k = 0.4167-0.0833 0.4167 (  3600 PWs)   bands (ev):

   -29.8163 -11.4328 -10.8381 -10.6974  -6.8641   5.8066   6.7592   7.0825
    14.0124  15.0725  15.2176  15.9790  17.5725  17.7280  23.3899  24.4547

          k = 0.3333 0.0000 0.3333 (  3603 PWs)   bands (ev):

   -29.8393 -11.2739 -10.7897 -10.6798  -7.0338   6.1518   6.9531   7.3210
    13.8149  14.5664  14.7812  15.5755  16.7413  17.2133  24.0125  25.5708

          k = 0.0000 0.5000 0.0000 (  3591 PWs)   bands (ev):

   -29.8316 -11.1731 -10.7799 -10.7799  -7.1888   6.1059   7.4798   7.4798
    12.4844  14.3983  15.8182  15.8182  16.0317  17.7766  25.1365  26.6115

          k =-0.0833 0.5833-0.0833 (  3586 PWs)   bands (ev):

   -29.8128 -11.2664 -10.8097 -10.8041  -7.1453   6.0215   7.3118   7.3771
    12.3535  14.9206  16.2030  16.2185  16.3405  18.1561  24.6373  25.4091

          k =-0.1667 0.6667-0.1667 (  3596 PWs)   bands (ev):

   -29.7944 -11.3672 -10.8570 -10.8141  -7.0675   6.0031   6.9864   7.1905
    12.5901  15.5010  16.4282  16.5135  16.8516  18.6193  23.1695  24.8019

          k = 0.7500-0.2500 0.7500 (  3595 PWs)   bands (ev):

   -29.7813 -11.4385 -10.9207 -10.8073  -6.9728   5.9932   6.6984   6.9807
    13.1242  15.6190  16.5891  16.6148  17.3962  19.3346  22.1178  23.9381

          k = 0.6667-0.1667 0.6667 (  3605 PWs)   bands (ev):

   -29.7772 -11.4714 -10.9740 -10.7855  -6.8846   5.8924   6.6330   6.8032
    13.8429  15.2199  16.4412  16.6152  17.8421  20.1077  21.5790  23.0987

          k = 0.5833-0.0833 0.5833 (  3600 PWs)   bands (ev):

   -29.7831 -11.4767 -10.9826 -10.7543  -6.8270   5.7631   6.6965   6.7555
    14.5669  14.6993  16.0551  16.3923  18.0706  19.8211  22.0064  22.8274

          k = 0.5000 0.0000 0.5000 (  3599 PWs)   bands (ev):

   -29.7975 -11.4654 -10.9305 -10.7221  -6.8184   5.7223   6.6808   6.9341
    14.2626  15.0345  15.6024  16.1441  18.0261  18.6911  23.0153  23.1476

          k = 0.0000 0.6667 0.0000 (  3567 PWs)   bands (ev):

   -29.7987 -11.2613 -10.8361 -10.8361  -7.2405   6.0858   7.4195   7.4195
    11.9189  15.1377  16.3277  16.6087  16.6087  18.3423  24.1100  25.8511

          k =-0.0833 0.7500-0.0833 (  3587 PWs)   bands (ev):

   -29.7845 -11.2870 -10.8795 -10.8528  -7.2668   6.1868   7.2705   7.3466
    11.8964  15.5434  16.5667  16.7658  16.8884  18.6704  22.9495  25.0919

          k = 0.8333-0.1667 0.8333 (  3590 PWs)   bands (ev):

   -29.7738 -11.2956 -10.9741 -10.8500  -7.2121   6.3083   6.9320   7.1878
    12.2704  15.9060  16.5203  16.8735  17.0692  19.4198  22.0583  24.0838

          k = 0.7500-0.0833 0.7500 (  3598 PWs)   bands (ev):

   -29.7696 -11.2861 -11.0885 -10.8283  -7.0947   6.3500   6.6147   6.9944
    12.9373  15.7303  16.3774  16.7732  17.4708  20.4766  21.6334  22.8504

          k = 0.6667-0.0000 0.6667 (  3579 PWs)   bands (ev):

   -29.7730 -11.3567 -11.0883 -10.7934  -6.9528   6.0580   6.6513   6.8175
    13.7638  15.1733  16.4000  16.4440  17.8548  21.1939  21.5507  21.9676

          k = 0.0000 0.8333 0.0000 (  3591 PWs)   bands (ev):

   -29.7749 -11.2704 -10.8772 -10.8772  -7.3934   6.3267   7.4031   7.4031
    11.5516  15.6581  16.5580  17.1100  17.1100  18.7106  22.1561  25.8190

          k = 0.9167-0.0833 0.9167 (  3586 PWs)   bands (ev):

   -29.7682 -11.2565 -10.9315 -10.8809  -7.4005   6.4372   7.2547   7.3441
    11.6554  15.8636  16.7370  16.9525  17.1822  19.2214  21.5139  24.9840

          k = 0.8333 0.0000 0.8333 (  3596 PWs)   bands (ev):

   -29.7663 -11.2137 -11.0628 -10.8632  -7.2865   6.5095   6.8836   7.1922
    12.1601  16.1109  16.3786  17.0540  17.0688  20.0310  21.3317  23.8447

          k = 0.0000-1.0000 0.0000 (  3572 PWs)   bands (ev):

   -29.7662 -11.2615 -10.8922 -10.8922  -7.4731   6.4705   7.4024   7.4024
    11.4251  15.8081  16.6455  17.2712  17.2712  19.0363  21.2370  25.7526

          k =-0.1667 0.3333 0.0000 (  3620 PWs)   bands (ev):

   -29.8578 -11.0950 -10.7414 -10.6925  -7.2333   6.4812   7.3155   7.5079
    13.4111  13.9712  14.8198  15.1266  16.0412  16.8900  24.1372  27.1071

          k =-0.2500 0.4167-0.0833 (  3601 PWs)   bands (ev):

   -29.8349 -11.2942 -10.7790 -10.7024  -7.0288   6.0794   7.0217   7.2863
    13.4711  14.6868  15.1968  15.6484  16.5802  17.4770  23.9992  25.7433

          k =-0.3333 0.5000-0.1667 (  3604 PWs)   bands (ev):

   -29.8118 -11.4810 -10.8020 -10.7209  -6.8434   5.7442   6.7713   7.0108
    13.7758  15.2604  15.6827  16.1067  17.2904  18.0255  23.0708  24.8910

          k = 0.5833-0.4167 0.7500 (  3599 PWs)   bands (ev):

   -29.7948 -11.6102 -10.8113 -10.7405  -6.7174   5.5180   6.6340   6.7779
    14.2661  15.2919  16.1036  16.6169  17.8688  18.5341  22.1651  24.3291

          k = 0.5000-0.3333 0.6667 (  3612 PWs)   bands (ev):

   -29.7886 -11.6561 -10.8127 -10.7494  -6.6730   5.4374   6.6198   6.6611
    14.6913  15.0244  16.2547  16.8797  18.0563  18.8057  21.7978  24.1367

          k =-0.1667 0.5000 0.0000 (  3592 PWs)   bands (ev):

   -29.8269 -11.2530 -10.8002 -10.7499  -7.0992   6.0473   7.2229   7.3729
    12.8010  14.6743  15.7264  15.8856  16.3319  17.8388  24.5789  25.4630

          k =-0.2500 0.5833-0.0833 (  3591 PWs)   bands (ev):

   -29.8063 -11.3750 -10.8437 -10.7685  -6.9946   5.9184   6.9517   7.1753
    12.9673  15.2270  16.0967  16.1927  16.9234  18.3325  23.6106  24.5730

          k = 0.6667-0.3333 0.8333 (  3597 PWs)   bands (ev):

   -29.7894 -11.4731 -10.8766 -10.7896  -6.8992   5.8412   6.7186   6.9530
    13.4147  15.4025  16.4251  16.4449  17.5075  18.9558  22.4258  24.0795

          k = 0.5833-0.2500 0.7500 (  3608 PWs)   bands (ev):

   -29.7809 -11.5244 -10.9062 -10.7920  -6.8332   5.7747   6.6369   6.7787
    14.0508  15.0252  16.5101  16.6883  17.8639  19.6172  21.7035  23.6103

          k = 0.5000-0.1667 0.6667 (  3612 PWs)   bands (ev):

   -29.7831 -11.5217 -10.9226 -10.7726  -6.8112   5.7287   6.6711   6.7478
    14.4406  14.7244  16.3278  16.5599  17.9930  19.5862  21.8274  23.3736

          k = 0.4167-0.0833 0.5833 (  3592 PWs)   bands (ev):

   -29.7953 -11.4721 -10.9078 -10.7432  -6.8407   5.7510   6.7017   6.9329
    13.9191  15.1411  15.9499  16.2284  17.8300  18.7861  22.7317  23.5630

          k = 0.3333 0.0000 0.5000 (  3603 PWs)   bands (ev):

   -29.8143 -11.3909 -10.8554 -10.7165  -6.9188   5.8674   6.8277   7.1450
    13.5742  15.0422  15.5326  16.0028  17.2476  18.0342  23.7541  24.1810

          k =-0.1667 0.6667-0.0000 (  3596 PWs)   bands (ev):

   -29.7963 -11.3073 -10.8589 -10.8244  -7.1514   6.0548   7.1826   7.2934
    12.2763  15.3220  16.4035  16.5603  16.6875  18.5157  23.7248  24.6607

          k = 0.7500-0.2500 0.9167 (  3597 PWs)   bands (ev):

   -29.7818 -11.3408 -10.9178 -10.8497  -7.1122   6.1368   6.9192   7.1280
    12.5708  15.6363  16.3702  16.8032  17.1335  19.1438  22.6211  24.0242

          k = 0.6667-0.1667 0.8333 (  3605 PWs)   bands (ev):

   -29.7733 -11.3552 -10.9985 -10.8469  -7.0383   6.1894   6.6746   6.9486
    13.1541  15.4156  16.3990  16.8514  17.5447  20.0733  21.8785  23.2211

          k = 0.5833-0.0833 0.7500 (  3596 PWs)   bands (ev):

   -29.7730 -11.3745 -11.0448 -10.8195  -6.9524   6.0610   6.6656   6.7986
    13.9080  14.8446  16.4142  16.6649  17.8427  20.8703  21.5170  22.4849

          k = 0.5000 0.0000 0.6667 (  3599 PWs)   bands (ev):

   -29.7811 -11.4249 -11.0050 -10.7802  -6.8799   5.8700   6.7094   6.7989
    14.2978  14.6533  16.3029  16.3194  17.9751  19.9663  22.4186  22.4290

          k = 0.8333-0.1667 1.0000 (  3596 PWs)   bands (ev):

   -29.7740 -11.2739 -10.9018 -10.9017  -7.2997   6.3257   7.1692   7.2632
    11.9340  15.7882  16.6133  16.8530  17.0978  19.1353  22.1283  24.6319

          k = 0.7500-0.0833 0.9167 (  3598 PWs)   bands (ev):

   -29.7678 -11.2344 -11.0214 -10.8966  -7.2390   6.4579   6.8664   7.1185
    12.3591  15.9271  16.2081  17.1335  17.2008  19.9940  21.6088  23.7558

          k = 0.6667 0.0000 0.8333 (  3598 PWs)   bands (ev):

   -29.7674 -11.2003 -11.1488 -10.8658  -7.1090   6.4559   6.5814   6.9530
    13.0621  15.4165  16.2644  16.9803  17.5458  20.9257  21.5289  22.5988

          k =-0.1667-1.0000-0.0000 (  3580 PWs)   bands (ev):

   -29.7660 -11.2373 -10.9434 -10.9175  -7.3765   6.4901   7.1602   7.2574
    11.8161  15.9457  16.6327  16.8865  17.2726  19.6173  21.2839  24.6316

          k = 0.6667-0.3333 1.0000 (  3589 PWs)   bands (ev):

   -29.7897 -11.3922 -10.9209 -10.7991  -6.9737   5.9491   6.8118   7.0328
    13.1800  15.3203  16.2170  16.4372  17.4586  19.0142  23.0438  23.4636

          k = 0.5833-0.2500 0.9167 (  3602 PWs)   bands (ev):

   -29.7775 -11.3923 -10.9739 -10.8388  -6.9579   6.0223   6.7119   6.8626
    13.6581  14.9631  16.3274  16.7265  17.7548  19.9557  22.1423  23.0354

          k = 0.5000-0.1667 0.8333 (  3602 PWs)   bands (ev):

   -29.7730 -11.3895 -10.9919 -10.8578  -6.9520   6.0641   6.6860   6.7737
    14.3058  14.3093  16.4283  16.8393  17.8333  20.6502  21.5213  22.9112

          k = 0.6667-0.1667 1.0000 (  3597 PWs)   bands (ev):

   -29.7719 -11.2872 -10.9687 -10.9243  -7.1153   6.2948   6.7958   6.9814
    12.9012  15.4077  16.1978  17.0631  17.4518  19.9967  22.1250  23.2892

          k = 0.5833-0.0833 0.9167 (  3602 PWs)   bands (ev):

   -29.7674 -11.2291 -11.0578 -10.9435  -7.0806   6.3906   6.6688   6.8447
    13.4987  14.7963  16.2107  17.1489  17.6750  21.0200  21.7663  22.5445

          k = 0.5000 0.0000 0.8333 (  3601 PWs)   bands (ev):

   -29.7694 -11.2788 -11.0592 -10.9018  -7.0227   6.2436   6.7347   6.7552
    14.1502  14.2461  16.2592  17.0155  17.7821  21.0975  22.0363  22.0688

          k =-0.3333-1.0000 0.0000 (  3612 PWs)   bands (ev):

   -29.7655 -11.1708 -11.0393 -10.9862  -7.1876   6.5625   6.7113   6.9681
    12.8031  15.4306  16.0959  17.2754  17.4443  20.6816  21.4921  23.2455

          k =-0.5000-1.0000 0.0000 (  3636 PWs)   bands (ev):

   -29.7652 -11.0845 -11.0790 -11.0790  -7.0948   6.5010   6.7173   6.7173
    14.0864  14.0864  16.1438  17.2768  17.7208  21.6934  21.9094  21.9094

     the Fermi energy is     9.5506 ev

!    total energy              =    -105.98704539 Ry
     estimated scf accuracy    <          2.6E-11 Ry
     smearing contrib. (-TS)   =      -0.00000000 Ry
     internal energy E=F+TS    =    -105.98704539 Ry

     The total energy is F=E-TS. E is the sum of the following terms:
     one-electron contribution =     -26.32169044 Ry
     hartree contribution      =      20.83957475 Ry
     xc contribution           =     -17.46893811 Ry
     ewald contribution        =     -83.03599159 Ry

     convergence has been achieved in   9 iterations

     Writing all to output data dir out/mp-2605.save/
 
     init_run     :      0.18s CPU      0.26s WALL (       1 calls)
     electrons    :      4.70s CPU      5.25s WALL (       1 calls)

     Called by init_run:
     wfcinit      :      0.15s CPU      0.20s WALL (       1 calls)
     potinit      :      0.01s CPU      0.01s WALL (       1 calls)
     hinit0       :      0.01s CPU      0.03s WALL (       1 calls)

     Called by electrons:
     c_bands      :      4.02s CPU      4.40s WALL (       9 calls)
     sum_band     :      0.64s CPU      0.74s WALL (       9 calls)
     v_of_rho     :      0.04s CPU      0.04s WALL (      10 calls)
     mix_rho      :      0.01s CPU      0.01s WALL (       9 calls)

     Called by c_bands:
     init_us_2    :      0.06s CPU      0.06s WALL (     684 calls)
     init_us_2:cp :      0.06s CPU      0.06s WALL (     684 calls)
     cegterg      :      3.63s CPU      3.77s WALL (     324 calls)

     Called by *egterg:
     cdiaghg      :      0.36s CPU      0.39s WALL (    1335 calls)
     h_psi        :      3.12s CPU      3.26s WALL (    1371 calls)
     g_psi        :      0.02s CPU      0.02s WALL (    1011 calls)

     Called by h_psi:
     h_psi:calbec :      0.07s CPU      0.08s WALL (    1371 calls)
     vloc_psi     :      2.99s CPU      3.12s WALL (    1371 calls)
     add_vuspsi   :      0.05s CPU      0.05s WALL (    1371 calls)

     General routines
     calbec       :      0.07s CPU      0.07s WALL (    1371 calls)
     fft          :      0.02s CPU      0.04s WALL (      99 calls)
     ffts         :      0.00s CPU      0.00s WALL (       9 calls)
     fftw         :      3.25s CPU      3.40s WALL (   35624 calls)
     davcio       :      0.06s CPU      0.31s WALL (    1130 calls)
 
     Parallel routines
 
     PWSCF        :      5.13s CPU      6.15s WALL

 
   This run was terminated on:  20:47:22  19Nov2023            

=------------------------------------------------------------------------------=
   JOB DONE.
=------------------------------------------------------------------------------=
