
     Program PWSCF v.7.1 starts on 19Nov2023 at 15:24:30 

     This program is part of the open-source Quantum ESPRESSO suite
     for quantum simulation of materials; please cite
         "P. Giannozzi et al., J. Phys.:Condens. Matter 21 395502 (2009);
         "P. Giannozzi et al., J. Phys.:Condens. Matter 29 465901 (2017);
         "P. Giannozzi et al., J. Chem. Phys. 152 154105 (2020);
          URL http://www.quantum-espresso.org", 
     in publications or presentations arising from this work. More details at
     http://www.quantum-espresso.org/quote

     Parallel version (MPI), running on    24 processors

     MPI processes distributed on     1 nodes
     123332 MiB available memory on the printing compute node when the environment starts
 
     Reading input from pw_mp-2605_nscf_k260_E109.in
Warning: card &IONS ignored
Warning: card / ignored
Warning: card &CELL ignored
Warning: card / ignored

     Current dimensions of program PWSCF are:
     Max number of different atomic species (ntypx) = 10
     Max number of k-points (npk) =  40000
     Max angular momentum in pseudopotentials (lmaxx) =  4

     Atomic positions and unit cell read from directory:
     out/mp-2605.save/
     Atomic positions from file used, from input discarded
 
 
     K-points division:     npool     =       2
     R & G space division:  proc/nbgrp/npool/nimage =      12
     Subspace diagonalization in iterative solution of the eigenvalue problem:
     one sub-group per band group will be used
     scalapack distributed-memory algorithm (size of sub-group:  3*  3 procs)

 
     Parallelization info
     --------------------
     sticks:   dense  smooth     PW     G-vecs:    dense   smooth      PW
     Min         103     103     30                 2396     2396     384
     Max         104     104     31                 2400     2400     388
     Sum        1237    1237    367                28763    28763    4621
 
     Using Slab Decomposition
 


     bravais-lattice index     =            2
     lattice parameter (alat)  =       9.0841  a.u.
     unit-cell volume          =     187.4084 (a.u.)^3
     number of atoms/cell      =            2
     number of atomic types    =            2
     number of electrons       =        16.00
     number of Kohn-Sham states=         1200
     kinetic-energy cutoff     =     109.0000  Ry
     charge density cutoff     =     436.0000  Ry
     Exchange-correlation= PBE
                           (   1   4   3   4   0   0   0)

     celldm(1)=   9.084123  celldm(2)=   0.000000  celldm(3)=   0.000000
     celldm(4)=   0.000000  celldm(5)=   0.000000  celldm(6)=   0.000000

     crystal axes: (cart. coord. in units of alat)
               a(1) = (  -0.500000   0.000000   0.500000 )  
               a(2) = (   0.000000   0.500000   0.500000 )  
               a(3) = (  -0.500000   0.500000   0.000000 )  

     reciprocal axes: (cart. coord. in units 2 pi/alat)
               b(1) = ( -1.000000 -1.000000  1.000000 )  
               b(2) = (  1.000000  1.000000  1.000000 )  
               b(3) = ( -1.000000  1.000000 -1.000000 )  


     PseudoPot. # 1 for Ca read from file:
     /usr/scratch4/magr4985/MG/HTDF/pseudo/SG15/Ca.upf
     MD5 check sum: b43c970dc090f2312d256360aabdb6f1
     Pseudo is Norm-conserving, Zval = 10.0
     Generated using ONCVPSP code by D. R. Hamann
     Using radial grid of  602 points,  6 beta functions with: 
                l(1) =   0
                l(2) =   0
                l(3) =   1
                l(4) =   1
                l(5) =   2
                l(6) =   2

     PseudoPot. # 2 for O  read from file:
     /usr/scratch4/magr4985/MG/HTDF/pseudo/SG15/O.upf
     MD5 check sum: e36c48deb68f4e355fffe4602be2c42c
     Pseudo is Norm-conserving, Zval =  6.0
     Generated using ONCVPSP code by D. R. Hamann
     Using radial grid of  602 points,  4 beta functions with: 
                l(1) =   0
                l(2) =   0
                l(3) =   1
                l(4) =   1

     atomic species   valence    mass     pseudopotential
        Ca            10.00    40.07800     Ca( 1.00)
        O              6.00    15.99940     O ( 1.00)

     48 Sym. Ops., with inversion, found



   Cartesian axes

     site n.     atom                  positions (alat units)
         1           Ca  tau(   1) = (   0.0000000   0.0000000   0.0000000  )
         2           O   tau(   2) = (  -0.5000000   0.5000000   0.5000000  )

     number of k points=    16  Gaussian smearing, width (Ry)=  0.0005
                       cart. coord. in units 2pi/alat
        k(    1) = (   0.0000000   0.0000000   0.0000000), wk =   0.0092593
        k(    2) = (  -0.1666667   0.1666667  -0.1666667), wk =   0.0740741
        k(    3) = (  -0.3333333   0.3333333  -0.3333333), wk =   0.0740741
        k(    4) = (   0.5000000  -0.5000000   0.5000000), wk =   0.0370370
        k(    5) = (   0.0000000   0.3333333   0.0000000), wk =   0.0555556
        k(    6) = (  -0.1666667   0.5000000  -0.1666667), wk =   0.2222222
        k(    7) = (   0.6666667  -0.3333333   0.6666667), wk =   0.2222222
        k(    8) = (   0.5000000  -0.1666667   0.5000000), wk =   0.2222222
        k(    9) = (   0.3333333   0.0000000   0.3333333), wk =   0.1111111
        k(   10) = (   0.0000000   0.6666667   0.0000000), wk =   0.0555556
        k(   11) = (   0.8333333  -0.1666667   0.8333333), wk =   0.2222222
        k(   12) = (   0.6666667  -0.0000000   0.6666667), wk =   0.1111111
        k(   13) = (   0.0000000  -1.0000000   0.0000000), wk =   0.0277778
        k(   14) = (   0.6666667  -0.3333333   1.0000000), wk =   0.2222222
        k(   15) = (   0.5000000  -0.1666667   0.8333333), wk =   0.2222222
        k(   16) = (  -0.3333333  -1.0000000   0.0000000), wk =   0.1111111

     Dense  grid:    28763 G-vectors     FFT dimensions: (  45,  45,  45)

     Estimated max dynamical RAM per process >     105.60 MB

     Estimated total dynamical RAM >       2.47 GB

     The potential is recalculated from file :
     out/mp-2605.save/charge-density

     Starting wfcs are random

     Band Structure Calculation
     Davidson diagonalization with overlap

     ethr =  5.00E-06,  avg # of iterations =  8.8

     total cpu time spent up to now is      781.2 secs

     End of band structure calculation

          k = 0.0000 0.0000 0.0000 (  3647 PWs)   bands (ev):

   -29.8980 -10.6674 -10.6674 -10.6674  -7.7092   7.7796   7.7796   7.7796
    12.5114  13.9961  13.9961  13.9961  15.4923  15.4923  22.8660  30.1844
    30.1844  30.1844  35.2391  35.2391  35.2391  35.7437  35.7437  35.9197
    35.9197  35.9197  44.5078  49.9039  49.9039  49.9039  53.1494  53.1494
    55.8513  55.8513  55.8513  57.0827  67.0298  67.0298  67.0298  68.4095
    68.6414  68.6414  68.6414  69.2835  69.2835  69.2835  70.5945  70.5945
    70.5945  71.5454  71.5454  71.5454  74.2886  74.2886  74.2886  74.4115
    74.4115  75.8181  76.4394  77.0849  77.0849  86.5835  86.5835  86.5835
    86.6022  86.6022  86.6022  99.5940  99.5940  99.5940 100.1159 104.9750
   104.9750 110.6803 110.6803 110.6803 114.0516 114.0516 114.0516 117.3610
   117.3610 117.3610 118.5541 119.1923 119.4148 119.4148 121.4920 121.4920
   121.4920 123.3434 123.3434 123.3434 124.3839 124.3839 124.3839 124.4229
   124.4229 124.4229 124.5830 124.5830 125.2937 125.2937 125.2937 126.4916
   126.4916 126.4916 128.2268 128.2268 128.4892 129.4601 129.4601 129.4601
   130.2986 135.5968 135.5968 138.1159 138.1159 138.1159 142.3083 142.3083
   142.3083 146.9359 148.2172 148.2172 148.2172 153.0816 153.0816 153.0816
   153.4570 153.4570 153.5379 153.5379 153.5379 153.6935 153.6935 153.6935
   153.7240 153.7240 153.7240 153.7793 153.7793 155.2713 159.0327 159.0327
   159.0327 167.0349 167.5907 167.5907 167.5907 170.2727 171.8680 171.8680
   171.8680 172.1554 172.1554 172.1554 172.8712 172.8712 172.8712 173.0299
   173.0299 173.0299 175.3322 177.7122 177.7122 177.7723 177.7723 177.7723
   177.8473 182.2917 182.2917 182.2917 184.5196 184.5196 190.1869 190.1869
   190.1869 200.5750 200.5750 200.5750 200.7627 200.7627 200.7627 206.1169
   206.1169 206.1169 206.2064 206.2064 206.5054 215.0651 215.0651 215.0651
   215.0795 215.0795 217.6040 217.6040 217.6040 218.3846 218.3846 218.3846
   219.3994 219.3994 219.3994 220.2431 220.2431 220.2431 220.9486 220.9486
   221.7398 222.0822 222.0822 222.0822 223.0067 224.4491 224.4491 224.4491
   224.6339 224.6339 224.6746 224.6746 224.6746 225.4866 225.9119 225.9119
   225.9119 226.2792 226.2792 226.2792 226.3259 227.9601 227.9601 227.9601
   227.9645 228.2822 228.2822 228.6406 228.6406 228.6406 229.3874 229.3874
   229.3874 229.8374 231.7066 231.7066 231.7095 231.7095 231.7095 231.9156
   231.9156 231.9156 232.4430 232.4430 232.4430 232.7557 232.7557 232.7557
   232.7853 232.7853 234.9334 244.7398 244.7398 246.7420 246.7420 246.7420
   249.4382 249.4382 249.4382 253.1956 253.1956 253.1956 253.5821 253.5821
   253.5821 253.9043 253.9043 253.9043 258.4625 258.7580 258.7580 258.8764
   258.8764 258.8764 258.9421 261.0988 261.0988 261.0988 264.4953 264.4953
   264.4953 269.5439 271.5295 271.5295 275.3169 275.9779 275.9779 275.9779
   276.2717 276.2717 276.3020 276.3020 276.3020 276.4034 276.4034 276.4034
   276.5190 276.5190 276.5190 278.0598 278.0598 278.0598 278.8228 278.8228
   278.8228 280.7162 280.7162 281.2600 282.2554 282.2554 282.2554 282.3392
   282.3392 282.3392 282.3731 282.3731 282.3731 282.5453 282.5453 282.5968
   282.5968 282.5968 286.7011 294.9410 294.9410 297.6016 297.6016 297.6016
   300.6539 300.6539 300.6539 306.5534 307.1437 307.1437 307.1437 308.7192
   310.1368 310.1368 310.1368 317.7754 317.9853 317.9853 318.4395 318.4395
   318.4395 319.5315 319.5315 319.5315 322.2140 322.2140 322.2140 323.3805
   325.5606 325.5606 325.5606 326.6607 326.6607 327.0452 327.0452 327.0452
   327.7755 327.7755 327.7755 327.8660 327.8660 327.8660 328.1518 328.1518
   328.1518 329.3486 329.3486 329.3486 330.5485 330.5485 330.5485 330.5818
   330.8970 330.8970 330.9172 330.9172 330.9172 330.9506 330.9506 330.9506
   333.2955 333.2955 333.8243 333.8243 333.8335 333.8335 333.8335 333.8367
   334.1467 334.1467 334.1467 334.3750 334.3750 334.3750 334.4503 334.4503
   334.4503 334.4945 339.2414 349.5591 349.5591 349.5591 350.2659 350.2659
   350.2659 353.9786 354.3812 354.3812 357.1576 357.1576 357.1576 357.2965
   357.2965 357.2965 357.5047 357.5047 357.5070 357.5070 357.5070 357.6715
   357.6715 357.6715 359.6886 361.6765 361.6765 361.6765 361.7079 361.7079
   361.7311 361.7311 361.7311 361.7352 361.7352 361.7920 361.7920 361.7920
   361.8175 361.8175 361.8175 362.0797 362.0797 362.0797 363.4122 363.4590
   363.4590 363.4590 363.5054 363.5054 363.5054 363.5512 364.0163 364.0163
   364.0163 365.1777 365.1777 371.5639 371.5639 371.5639 372.1646 372.4572
   372.4572 372.4572 373.2088 373.2088 373.2088 374.9505 374.9505 374.9505
   375.4849 375.7724 375.7724 375.7724 376.2094 376.2094 376.4955 376.4955
   376.4955 376.9461 380.4257 380.4257 380.7553 380.7553 380.7553 381.1377
   381.1377 381.1377 381.1455 381.1455 381.1455 381.4541 381.4541 381.4541
   381.4832 381.4832 381.8065 382.1180 382.1180 382.1180 382.1829 382.1829
   383.9721 383.9721 383.9721 384.0012 384.0012 384.0012 384.0943 384.0943
   384.0943 384.1489 384.1489 384.1489 384.3508 385.2868 385.3357 385.3357
   385.3357 385.3453 385.3453 398.8017 398.8017 400.3051 400.3051 400.3051
   409.5757 420.4136 420.4136 420.4136 425.4063 425.4063 425.4063 427.8138
   427.8138 429.5699 429.5699 429.5699 429.9828 429.9828 430.3818 430.3862
   430.3862 430.3862 430.4288 430.4288 430.4288 430.5214 430.5214 430.5214
   430.6001 430.6001 430.6001 430.7207 430.7207 430.7207 430.7400 430.7400
   430.8718 431.2776 432.4446 432.4446 432.4446 433.3598 435.1934 435.1934
   435.1934 435.4299 435.4299 435.4299 435.4636 435.4636 435.4636 435.7598
   435.7598 435.7598 439.6424 439.6424 439.7303 439.7303 439.7303 439.7439
   439.7439 439.7439 439.7785 439.7785 439.7785 439.8699 439.8699 439.8921
   439.8921 439.8921 440.9409 440.9409 440.9761 440.9761 440.9761 440.9979
   442.2353 455.9264 455.9264 455.9264 457.5279 457.5279 457.5279 458.6634
   458.6634 460.1099 460.1099 460.1099 461.3460 462.1891 462.1891 462.1891
   463.6040 463.6040 463.8182 463.8551 463.8551 463.8551 463.9769 463.9769
   463.9780 463.9780 463.9780 464.0304 464.0304 464.0304 464.0614 464.0614
   464.0614 464.1348 464.1348 464.1348 466.2888 468.5239 468.5239 468.5239
   470.0063 470.0063 470.0063 471.5500 471.5500 472.9311 472.9311 472.9311
   480.3549 480.3549 480.6247 480.7146 480.7146 480.7146 480.8274 480.8274
   480.8274 480.9710 480.9710 480.9710 481.1056 481.2287 481.4019 481.4019
   481.4019 481.7714 481.7714 481.7714 484.0119 484.5767 484.5767 484.5966
   484.5966 484.5966 484.6151 484.6151 484.6151 484.6939 484.6939 484.6939
   484.9109 487.7395 487.7395 487.7395 488.3960 488.3960 488.3960 488.4596
   488.4596 488.5335 488.5335 488.5335 488.5371 488.5479 488.5479 488.5479
   488.6072 488.6072 488.6072 489.2500 489.2500 489.5733 489.5733 489.5733
   490.3646 490.6601 490.6601 490.6601 490.8463 490.8463 490.8463 491.0559
   491.0559 491.0559 491.0926 491.0926 493.8928 505.8109 505.8109 505.8109
   511.2449 511.2449 512.7450 512.7450 512.7450 513.3899 513.3899 513.3899
   513.4182 513.4182 513.4182 513.8007 513.8007 513.8007 513.9772 513.9772
   514.2894 514.2894 514.2894 514.3939 516.1548 516.1548 516.7774 518.0801
   518.0801 518.0801 523.3096 526.9778 526.9778 526.9778 527.5619 527.5619
   527.5619 529.0274 532.2073 532.2073 532.4018 532.4018 532.4018 532.4469
   532.4469 532.4469 532.6438 532.6438 532.6438 532.6478 532.6478 532.6478
   532.7117 532.7117 533.7893 535.7323 535.7323 535.7323 535.8732 535.8732
   535.8732 535.9407 535.9407 535.9407 535.9508 535.9508 535.9508 536.6663
   536.6663 536.6663 536.6938 536.6938 536.7434 536.7434 536.7434 536.8618
   536.8618 536.8998 536.8998 536.8998 536.9477 536.9477 536.9477 537.6318
   537.6318 537.6318 538.1403 538.1403 538.1403 538.4325 538.5300 538.5300
   538.5300 538.6486 538.6486 538.6486 538.6852 538.7835 539.4962 539.4962
   539.7861 539.7861 539.7861 539.9603 539.9603 539.9603 539.9637 539.9637
   539.9637 539.9772 539.9772 540.0495 540.0495 540.0495 542.0775 542.0920
   542.0920 542.0920 542.1000 542.1000 544.4067 544.4067 544.4067 544.4249
   544.4249 544.4272 544.4272 544.4272 544.4420 544.4420 544.4420 544.4637
   544.4637 544.4815 544.4815 544.4815 544.8689 544.8689 544.8689 544.8705
   544.8776 544.8776 544.8776 544.8970 546.1735 559.7116 559.7116 559.7116
   561.2249 561.2249 561.2249 561.6344 564.8109 569.5883 569.5883 569.5883
   569.5930 569.5930 569.6509 569.6509 569.6509 569.7232 569.7232 569.7232
   569.8293 569.8293 569.8293 569.8562 569.8562 574.5816 574.5816 574.5816
   576.9432 576.9432 580.5127 580.5127 580.5127 580.6892 580.6892 580.6892
   580.8807 580.8807 580.8807 580.9379 580.9379 580.9379 583.9711 584.5871
   584.5871 584.6178 584.6178 584.6178 584.7414 589.5102 589.5396 589.5396
   589.5442 589.5442 589.5442 592.0909 592.0909 592.0909 592.0914 592.0914
   592.0914 592.1030 592.1030 592.1030 592.1036 592.1036 592.1036 593.4756
   593.4756 593.4756 593.4767 593.4767 593.4819 612.5104 612.5104 612.5104
   618.3740 618.3740 618.3740 618.7942 618.8271 618.8271 619.1119 619.1119
   619.1119 619.1175 619.1175 619.1175 619.2490 619.2490 619.2490 619.2743
   619.2743 619.2743 619.3683 619.3683 620.2970 624.2383 624.2383 624.2383
   629.8734 629.8734 629.8734 631.3661 631.3661 631.4820 631.4820 631.4820
   631.8169 632.3344 632.6068 632.6068 632.6068 632.6124 632.6124 632.6124
   634.7725 634.9509 634.9509 634.9509 635.4487 635.4487 637.3426 637.3426
   637.3426 637.7277 637.7277 637.7277 638.2703 638.2703 638.2703 638.6018
   638.6018 638.7763 638.7763 638.7763 639.3714 639.3714 639.3714 639.6137
   639.6137 639.6316 640.1412 640.1412 640.1412 640.3465 640.4887 640.4887
   640.5726 640.5911 640.5911 640.5911 640.8802 640.8802 640.8802 640.9988
   640.9988 640.9988 641.7341 641.7341 641.7652 641.7652 641.7652 641.9263
   641.9263 641.9263 641.9421 641.9421 641.9421 642.0201 642.0201 642.0201
   642.0620 642.0620 643.2822 643.2822 643.2930 643.2930 643.2930 643.3006
   643.3116 643.3116 643.3116 643.3157 643.3157 643.3157 645.6989 646.5474
   646.5566 646.5566 646.5934 646.5934 646.5934 646.6051 646.6051 646.6051
   646.6386 646.6386 646.6386 663.5687 663.5687 663.5687 665.7926 665.7926
   667.6502 668.3114 668.3114 668.3114 668.7152 668.7152 668.7152 669.0991
   669.1796 669.1796 669.1796 669.3642 669.3642 669.3642 669.4516 669.4516
   669.4516 669.5957 669.5957 669.6407 669.6407 669.6407 669.8359 669.8359
   669.8359 669.9997 669.9997 670.1944 670.1944 670.1944 670.4104 670.4104
   670.4104 670.5913 670.5913 670.5913 671.5229 673.8408 673.8408 673.8408
   673.8619 673.8619 673.8619 673.9091 673.9091 673.9145 673.9145 673.9145
   673.9898 674.0882 674.0882 674.0912 674.1449 674.1449 674.1449 674.1548
   674.1548 674.1548 674.2153 674.2153 674.2153 675.2936 675.2936 675.3084
   675.3084 675.3084 675.3316 681.0851 681.0851 681.0851 683.9175 683.9175
   683.9175 684.2433 684.2433 684.2482 684.2482 684.2482 685.5774 685.5774
   685.5774 685.7152 685.7152 685.7152 685.7659 685.7659 686.0428 686.0428
   686.0428 686.2848 687.4739 689.7109 690.1249 690.1249 690.1249 690.3688
   690.3688 690.3688 690.9549 690.9549 691.0015 691.0015 691.0015 691.5957
   691.5957 691.5957 691.7737 691.7737 691.7737 691.8798 691.8798 691.8798
   691.9141 691.9141 691.9951 695.7384 695.7384 695.7569 695.7569 695.7569
   695.8438 695.8438 695.8438 695.8777 695.8777 695.8777 695.9041 695.9128

          k =-0.1667 0.1667-0.1667 (  3608 PWs)   bands (ev):

   -29.8728 -11.0031 -10.6808 -10.6808  -7.3557   6.9268   7.4320   7.4320
    13.6105  13.9785  14.4504  14.4504  16.1122  16.1122  23.6990  28.7928
    29.0495  29.0495  33.1523  33.1523  34.6137  35.8992  35.8992  36.4247
    39.0283  39.0283  46.7041  47.1403  47.1403  50.3929  54.3234  54.6020
    54.6020  57.8337  58.0577  58.0577  62.0015  62.0015  62.6113  64.0639
    65.7911  65.7911  66.4321  67.7231  68.1608  68.1608  71.1652  71.4581
    71.4581  74.1657  74.1657  75.3711  75.3711  75.7870  76.9366  77.2349
    77.2349  78.2034  82.0228  82.7696  82.7696  84.4331  85.8553  85.8553
    87.7766  87.7766  89.4892  96.9131  99.8648  99.8648 101.3961 101.7469
   101.7469 107.3250 107.3250 109.2387 112.0493 112.0524 112.0524 113.3949
   113.3949 113.4275 114.6010 114.6010 116.0161 116.1992 116.1992 118.1025
   120.3656 120.7275 120.7275 122.3436 122.3915 122.3915 123.4868 125.1643
   125.1643 125.6989 126.3396 126.4408 126.4408 127.4390 128.9401 128.9401
   131.4805 131.9372 132.4280 132.4280 134.2109 135.1333 135.1333 136.5329
   136.5329 137.7369 137.7369 138.5181 138.5181 139.8842 139.8842 142.1714
   142.8261 143.1782 143.1782 143.6553 145.6547 146.4755 146.4755 148.5122
   151.2054 151.2054 152.0152 152.4204 152.4204 152.5762 155.0457 155.0457
   158.4053 159.0227 159.0227 159.8376 160.5509 160.5509 161.6494 161.7309
   162.3692 162.3692 162.9457 164.1211 164.4592 164.4592 168.0642 168.0642
   168.1821 170.7866 170.7866 171.2366 171.2366 171.2706 172.4435 177.7604
   177.8498 177.8498 181.8023 182.4441 182.4441 182.4923 182.4923 183.3326
   184.8326 184.8326 187.3444 187.8114 187.8114 187.8517 190.5281 190.5281
   191.6724 194.1436 194.1436 196.9299 200.2326 200.2326 201.0008 202.3151
   202.3151 203.7181 204.3107 204.3107 204.7964 206.9847 206.9847 207.3104
   208.6567 209.4171 209.4171 211.2026 211.2026 211.3152 211.6374 212.6126
   212.6126 212.6935 212.6935 214.3830 214.6042 214.6042 215.3005 218.8872
   218.8872 219.3370 220.2424 220.2424 221.2561 222.1959 222.8646 222.8646
   223.2878 223.2878 223.6417 224.8214 224.8214 224.8886 225.5265 226.4254
   226.4254 226.8028 226.8028 227.5969 228.3123 228.7423 228.7423 229.3264
   229.3264 229.7491 232.0690 232.0690 232.6455 232.9683 233.9337 233.9337
   234.4408 234.4408 234.8424 236.8861 237.0881 237.0881 237.8347 237.8347
   238.3382 238.3802 238.3802 239.0170 239.1330 241.0067 241.9467 242.2234
   242.2234 242.7429 242.7429 244.8717 244.8717 244.9845 245.9789 246.9335
   246.9335 248.1309 248.2954 248.2954 248.6240 248.7658 251.7415 251.7415
   253.8309 253.8309 255.0665 255.0665 256.6454 256.6454 257.3910 260.7868
   260.7868 262.1495 263.5213 263.8638 263.8638 264.7606 264.8037 264.8037
   265.6629 265.6629 265.9804 266.0129 268.6655 268.6655 269.8470 269.8470
   270.3101 270.9977 270.9977 271.3883 272.9655 272.9655 273.1761 274.3143
   274.3143 274.7400 274.8624 276.4861 276.4861 277.6519 280.0410 281.2359
   281.2359 283.5593 283.5593 283.5903 286.5884 286.5884 286.7857 287.5976
   287.5976 287.9419 288.1328 291.6981 292.4693 292.4693 293.9361 293.9361
   295.1429 295.7387 295.7387 295.9055 297.4797 297.4797 298.6009 299.4557
   299.8789 299.8789 302.7280 303.0795 303.0795 304.5376 304.5376 305.5243
   306.7608 306.7608 309.7593 310.3318 310.3318 310.9834 310.9834 311.6513
   312.6290 312.6290 313.0179 313.3051 313.4725 313.4725 315.3196 315.3196
   315.6649 315.7797 315.7797 317.2671 319.6887 320.0278 320.0278 320.5648
   320.5851 320.5851 323.6859 325.0585 325.0585 325.5429 325.5429 326.6340
   326.8659 330.7530 330.7530 330.9951 331.7974 331.7974 331.8180 331.9243
   331.9779 331.9779 332.0873 334.3712 334.3712 335.6662 335.6662 336.4349
   336.4349 337.1024 337.1024 337.1618 337.1896 338.0863 338.1065 339.8858
   339.8858 340.6556 340.8827 342.7375 342.7375 343.1211 343.1211 343.3773
   343.5250 343.8127 343.8127 344.1776 344.7000 344.7000 348.4749 349.1192
   349.1192 350.2918 350.2918 350.5671 350.8736 350.8736 351.2624 351.3090
   351.3090 351.7562 351.7562 351.8132 353.0134 353.6041 353.6041 353.7381
   353.9072 353.9072 354.0337 355.1431 355.1431 356.0104 356.0104 356.5809
   356.6817 357.3853 357.3853 358.4658 359.0125 359.0125 359.9848 359.9848
   361.5527 361.5527 361.6265 362.0240 362.2457 362.6634 362.6634 362.8557
   363.5322 363.5322 363.5351 363.7525 363.7525 366.1044 366.2753 366.2753
   366.5531 367.4286 367.4286 368.4560 368.4560 368.8403 368.9594 370.3377
   370.3377 371.8478 373.0835 373.0835 374.5047 375.0028 375.0028 375.3236
   375.7358 375.7358 375.9300 375.9300 376.2819 377.3474 377.3474 377.3713
   377.7483 379.4388 379.4388 379.8491 379.8491 379.9426 380.6858 382.4164
   383.2115 383.2115 383.6698 384.1460 384.1460 384.6557 384.6557 385.0532
   388.0859 388.0859 388.2721 388.2721 388.3368 389.9521 390.5901 390.5901
   392.4471 392.4471 392.8033 393.0308 393.7295 394.3035 394.3035 395.5622
   395.5622 395.6636 397.3759 397.5339 397.5339 399.6678 401.4288 402.4219
   402.4219 403.4322 404.7147 404.7147 405.7500 407.5121 407.5121 407.7558
   408.4680 408.4680 410.1840 410.1840 410.8769 410.8769 412.2486 412.2486
   412.3894 414.4864 414.4864 415.4584 415.4584 415.8154 415.9799 416.5994
   417.3428 417.3428 418.8837 419.5699 419.5699 420.3358 420.3358 421.3921
   425.9603 426.1437 426.3277 426.3277 427.2524 427.2524 427.4306 428.2463
   428.2463 429.3278 431.5695 431.5695 431.8811 432.9644 433.4982 433.4982
   433.8819 433.8819 435.4270 436.4916 436.4916 437.1206 438.7426 438.7426
   440.6076 441.6567 443.5850 443.5850 444.6179 444.6179 445.7429 445.7429
   446.1748 446.2137 446.2137 446.6166 447.0290 447.0290 447.2869 447.3219
   447.5156 447.5156 448.8012 448.8076 448.8076 450.6139 450.7091 451.2611
   451.2689 451.2689 453.2193 453.2193 453.4837 454.3372 454.5183 454.5183
   454.8662 454.8662 454.9411 455.5510 455.5510 455.9144 457.4585 458.1739
   458.1739 459.0770 459.0770 459.1698 459.1698 459.2785 460.0189 460.0189
   460.0504 460.7150 461.0358 461.0358 461.1812 461.2005 461.7906 461.7906
   462.4716 463.5944 463.5944 463.6353 465.0384 465.0384 468.6238 468.7253
   468.7253 469.1582 469.1582 470.4932 470.4932 471.1022 472.1810 472.7302
   472.7302 473.3736 473.5433 473.5433 474.8580 480.0827 480.1560 480.1560
   481.5753 481.5753 481.7345 481.9126 481.9126 482.2540 482.2540 482.5627
   482.7782 482.9017 482.9017 483.0432 483.0858 483.0858 483.1679 484.4240
   485.1913 485.1913 485.8585 486.0074 486.0074 486.2494 486.2494 486.4820
   486.9746 486.9746 487.8231 488.3159 488.3159 488.6845 490.1583 490.1583
   490.4871 491.3914 491.3914 491.9963 491.9963 492.1133 492.3058 492.3058
   492.4789 493.3533 494.6425 494.6425 494.9798 494.9798 495.0779 495.2492
   495.5628 496.1543 496.1543 497.4949 498.2612 498.2612 500.8035 500.8035
   503.9588 504.6633 504.6633 505.0745 505.0745 505.5224 505.5224 505.7456
   506.1287 506.7188 506.7188 506.7934 506.9124 508.4302 510.0055 510.0055
   510.0721 510.0721 510.6958 511.3949 511.3949 512.9928 513.5213 513.7234
   513.7234 514.6560 514.6560 514.9510 515.4861 515.6372 515.6372 515.7220
   515.9274 515.9274 516.2670 516.4975 516.6038 516.6038 516.9908 516.9908
   517.2041 518.2046 518.2046 518.9744 520.3271 520.3271 520.4549 520.7442
   520.7442 520.8276 520.9238 520.9238 522.8331 522.8331 522.9801 523.7547
   523.8425 523.8425 524.3209 524.4025 524.4025 524.6875 524.6875 524.7981
   524.9013 527.1899 529.0163 529.0163 530.0219 530.2554 530.2554 530.3198
   531.6907 531.6907 531.9057 532.7188 532.7188 534.0668 534.1343 534.1343
   535.2327 535.6044 535.6044 535.8028 535.8028 535.8983 535.8983 535.9001
   538.2819 538.2819 538.3050 539.2522 539.7523 539.7523 540.4654 540.4654
   540.4874 540.5088 541.1894 541.1894 541.2207 543.4809 543.4809 544.9316
   545.2863 545.2863 545.5983 546.4127 546.4143 546.4143 548.0099 548.0099
   549.3421 549.3421 549.3701 549.4155 551.5854 551.8120 551.8120 552.7443
   552.7443 554.2900 554.5029 554.5029 554.5435 554.7025 554.7025 555.0512
   555.1827 555.1827 556.1786 556.1786 556.2063 556.4982 557.1247 557.1247
   557.3157 557.3157 557.3432 557.3641 557.9901 557.9901 558.6301 561.2116
   561.5396 561.5396 561.6323 563.3946 563.3946 563.6056 563.7441 563.7441
   564.4291 564.5226 564.5226 565.2796 565.2796 565.2915 565.6763 565.6763
   565.8754 566.2050 566.2050 566.2844 567.8555 567.8555 568.5026 569.3027
   569.3027 570.0474 570.4011 570.4011 570.4739 571.0349 571.0349 571.3747
   571.9549 571.9549 573.1222 575.3913 575.3913 576.0107 578.2748 578.2748
   578.3001 578.9407 578.9407 578.9730 581.1886 581.1886 581.1948 583.6472
   584.9218 584.9218 585.9940 585.9940 586.1765 589.9218 589.9218 590.6511
   594.5321 596.0837 596.0837 596.2648 597.1606 599.4351 599.4351 601.2020
   601.5753 601.5753 602.0832 602.2894 602.2894 602.4114 603.2321 603.2321
   603.6998 604.1825 604.1825 604.9009 604.9009 605.2681 605.2681 605.3160
   606.1835 606.9924 606.9924 607.4587 607.4587 607.8096 608.9867 608.9867
   609.4912 609.4912 609.5697 610.9185 612.8674 612.8674 613.7163 614.2653
   614.2653 616.6174 616.6174 616.6700 617.0669 617.3092 617.3092 617.5694
   617.6383 617.6383 618.8841 619.4595 619.4595 619.6262 619.6262 619.6877
   619.8434 620.1300 620.1300 620.2242 620.2242 620.2317 620.3128 621.6645
   621.6645 621.8548 626.7285 626.7285 626.7921 628.6726 628.6726 631.3273
   631.3273 631.6758 631.8189 632.4563 632.4563 632.8805 633.4491 633.4491
   633.7713 634.2298 635.2582 635.2582 635.8596 635.8596 636.6408 636.6408
   636.7430 637.0775 637.8515 637.8515 638.4509 638.4827 638.4827 639.8180
   639.8180 639.9592 639.9989 641.0484 642.0579 642.0579 642.8237 642.8237
   643.5973 643.8441 643.8441 644.1354 644.1354 644.1387 644.1731 644.8405
   644.8405 644.9275 645.7097 645.7097 646.2266 646.3674 646.3962 646.3962
   648.4652 648.4652 648.5032 648.7987 648.7987 649.0178 649.0486 649.0486
   649.1063 649.5886 650.9783 650.9783 651.2290 652.4237 652.4237 652.8917
   652.8917 653.3709 654.2982 654.2982 654.5794 655.4373 655.4373 655.6323
   656.1471 656.1471 656.2744 656.2744 656.4070 656.4424 656.5310 656.7298
   656.7298 658.1847 658.1847 658.3444 659.3827 659.3866 659.3866 659.6404
   661.0104 661.0104 661.4028 661.9273 662.1923 662.1923 663.0694 663.0694
   663.4738 663.4738 663.4931 663.6956 665.3795 665.4570 665.4570 666.4603
   666.4603 666.5026 666.7026 668.5398 668.5398 668.6102 668.7344 668.7344
   669.0269 669.5913 669.5913 671.0321 671.0321 671.6958 671.8450 671.8450
   671.8655 672.0117 672.1513 672.1513 672.5643 672.5643 673.0194 673.0194
   673.0302 673.1153 673.3719 674.5817 674.5817 674.8771 675.2063 675.2063
   676.1771 676.1771 676.2102 677.2089 677.4371 677.4371 677.4462 677.4797
   677.4797 677.5705 677.7342 677.7342 677.7484 678.9836 678.9836 681.3327
   681.3327 681.4900 681.4900 681.4947 681.5088 682.7869 682.7869 683.7293
   685.0672 685.0672 685.2247 685.2247 685.2698 685.2893 685.5977 685.5977
   685.8279 685.9567 685.9567 686.2740 687.8887 687.8887 688.0369 688.1928
   688.1936 688.1936 689.5873 689.5873 689.6239 693.3690 693.3690 693.8906
   694.2331 694.2331 694.2940 694.3923 694.4225 694.4225 696.3127 696.3127
   696.4291 698.0339 698.0339 698.1684 698.4628 698.4628 698.4927 699.6635
   699.7497 699.7497 700.7229 700.7229 700.7758 701.8336 704.0798 704.0799

          k =-0.3333 0.3333-0.3333 (  3615 PWs)   bands (ev):

   -29.8220 -11.5346 -10.7074 -10.7074  -6.7843   5.6747   6.8426   6.8426
    14.3067  15.4917  15.4917  15.5287  17.3899  17.3899  22.9840  26.2743
    26.2743  29.4167  32.3861  33.1016  33.1016  35.3558  35.3558  38.5550
    42.4948  42.4948  45.2690  45.2690  49.4721  50.8298  51.7624  53.6826
    53.6826  55.3382  55.3382  57.0037  59.4915  60.0893  63.0764  63.0764
    64.5770  64.5770  64.8086  66.5423  66.5423  67.5929  70.8923  72.3364
    72.3364  74.6030  74.6030  76.8107  78.7369  80.1982  80.1982  82.2993
    82.2993  84.8469  84.9702  85.0164  85.0164  88.7109  88.7109  88.8158
    91.7430  94.0757  94.0757  95.9101  95.9101  96.6176  96.8984  96.8984
   100.0728 102.8945 102.8945 103.7844 103.7844 104.1664 106.2029 106.9778
   106.9778 111.3391 111.3391 112.3775 114.1297 115.8683 117.4106 117.4106
   120.0750 120.0750 120.6320 121.0809 121.5046 121.5046 121.8219 123.2291
   123.2291 125.9637 127.9461 127.9461 128.4794 128.5433 128.5858 128.5858
   132.6853 132.6853 134.3925 134.9223 134.9857 134.9857 136.6536 136.6536
   137.3079 138.5399 138.5399 138.8537 141.0313 142.9423 142.9423 144.2436
   146.0392 147.4875 147.4875 149.2546 149.2546 151.1226 151.1226 151.2930
   152.4664 152.5952 153.4658 153.4658 154.0133 154.2289 154.2289 154.8205
   154.8205 156.1305 156.1305 156.4615 158.0941 158.0941 160.2620 160.7921
   162.0172 162.0172 163.8061 165.7140 165.7140 166.2667 168.4676 168.4676
   172.0628 172.0628 172.3060 173.2763 175.7277 176.3771 176.3771 176.9193
   176.9193 181.4446 183.9557 184.5325 184.5325 187.0856 187.0856 188.0946
   188.1059 188.9889 188.9889 189.5966 189.5966 189.7608 190.6153 190.6153
   193.3798 193.3798 193.7893 193.7893 195.2934 195.6953 195.6953 195.6953
   197.4531 197.4531 197.6044 198.7412 199.9918 199.9918 202.0085 202.1761
   203.2992 203.2992 204.5726 204.5726 205.0885 205.4701 205.9583 205.9583
   207.9261 207.9261 209.8626 210.0442 213.0286 215.4393 215.4393 216.7638
   217.1306 217.1306 217.7921 220.0521 220.2798 220.2798 220.6635 220.6635
   222.1435 222.1435 222.8809 223.3693 223.5926 223.5926 223.7446 224.7040
   224.7040 225.3883 225.3883 225.6817 228.2256 228.2828 228.2828 229.3705
   230.8842 230.8842 231.0333 232.6743 232.6743 234.3288 236.5365 236.5365
   238.1123 238.1123 238.1506 238.7906 238.7906 238.8549 239.2156 240.1901
   240.1901 240.9695 241.2845 241.2845 241.3481 242.3217 242.3217 243.3235
   244.1384 244.1384 244.4543 245.9877 245.9877 248.6556 248.6556 251.7193
   254.4825 254.4825 254.5731 255.5602 255.7471 255.7471 256.0870 256.0870
   256.1215 256.3054 257.4338 257.5247 257.5247 259.2469 259.2469 259.5820
   259.6583 261.1548 263.4800 263.4800 264.0463 265.7191 265.7191 267.2711
   267.2711 268.7304 269.6099 269.6099 271.2285 271.5845 271.6280 271.6280
   273.3474 273.3474 274.0003 274.0003 274.3206 275.2291 275.2291 275.3498
   275.4534 277.1776 277.1776 279.8139 279.8877 279.8877 282.9858 282.9858
   283.4029 285.2224 287.1610 287.1610 287.4814 289.5954 289.5954 290.2260
   290.2260 291.0460 292.3139 292.3139 292.6221 292.6221 293.2245 293.2578
   293.4077 293.9290 293.9290 294.4574 294.4574 294.7252 296.6896 296.7820
   296.7820 298.0208 298.0208 298.2462 299.4865 299.9199 299.9199 300.4629
   302.1869 305.4448 305.4448 307.5590 307.5590 308.4214 308.8931 308.8931
   309.9556 309.9556 310.0055 310.5563 311.4719 311.4719 312.3131 312.3131
   312.4259 313.8111 314.5420 315.5051 315.5051 318.6311 318.6311 319.7417
   320.7437 321.2566 321.2566 323.1272 323.2747 323.2747 324.6221 325.0063
   325.1333 325.1333 325.5213 325.5213 326.6345 326.6345 326.8791 327.5480
   328.0769 328.0769 328.2347 328.2347 328.8067 328.9147 328.9147 330.6148
   331.9696 331.9696 332.8336 332.8336 333.2391 334.0934 334.0934 334.6588
   334.8271 335.8878 335.8878 338.4412 338.4412 339.4467 340.8669 340.8669
   342.1473 342.2268 342.5152 342.5152 343.3106 343.3106 343.9567 344.6500
   344.6500 344.9286 345.1282 345.1282 345.3010 345.9667 348.6384 348.6384
   350.2188 353.2242 353.2242 353.5416 355.6806 355.6806 356.3807 356.5347
   356.5347 357.4629 357.6788 357.6788 359.0749 359.1791 359.1791 359.6910
   359.6910 359.9239 360.2224 360.5278 361.8683 361.8683 362.5953 363.2763
   363.2763 363.4050 364.0993 364.0993 364.2044 364.9036 364.9036 365.6070
   366.3750 367.0292 367.0292 367.6969 367.6969 368.4535 370.1618 370.1618
   370.5075 370.5859 370.5859 370.6468 371.0053 371.0053 371.7627 371.8545
   371.8545 371.8645 374.8107 375.9132 375.9132 376.7863 377.7620 377.7620
   377.9089 377.9089 378.6145 378.6269 378.7301 378.7301 379.9737 379.9737
   380.1208 380.5246 381.2985 381.2985 384.6227 384.6227 387.8358 387.8358
   388.7821 390.5068 392.1043 392.1043 393.2227 393.7011 393.7011 394.2106
   394.2277 394.2277 395.7135 396.0272 396.0272 396.3103 396.3103 396.4486
   396.8035 398.7858 398.7858 398.9336 400.4581 400.4581 401.0127 401.9705
   401.9705 402.5708 402.9119 402.9119 403.3303 404.1802 404.1802 404.5850
   404.9699 405.3179 405.3179 407.3765 408.0415 408.0415 409.8381 409.8381
   410.1363 410.6675 410.6675 410.7091 411.4604 411.4604 412.1859 413.8923
   414.1235 414.3670 414.3670 414.6226 414.6226 415.6879 415.6879 415.8621
   415.8621 416.0035 416.2493 416.2493 416.2867 417.3297 418.2371 418.2371
   418.7412 419.5318 419.8678 419.8678 423.0209 425.7023 426.6091 426.6091
   428.6219 428.6219 428.8052 428.8052 428.9670 429.1095 429.8674 429.8850
   429.8850 430.5153 430.5153 431.2054 431.3287 431.3287 431.7515 431.7515
   431.8260 431.8388 432.3843 432.3843 432.5944 432.9266 434.0609 434.0609
   437.3940 437.3940 437.4840 438.1438 438.1438 438.1994 439.8241 439.8241
   440.6300 440.6300 440.6510 441.5390 442.9411 442.9411 446.1755 447.5207
   447.5207 449.2067 449.2067 449.2093 449.8651 455.6836 455.6836 457.9124
   458.4714 458.4714 460.0782 461.1225 461.1225 461.5348 461.6795 461.6795
   462.3500 462.4012 462.4012 462.5447 462.5914 462.5914 462.7049 462.7049
   462.8135 463.3765 463.3765 463.5444 463.9459 463.9459 464.2153 465.5720
   465.6906 466.1848 466.1848 466.2944 466.8112 466.8112 467.4687 467.4687
   467.8548 468.8704 468.8704 468.9969 469.5775 469.5775 471.7193 474.2259
   474.2259 475.1988 476.0082 476.0300 476.0300 478.4485 478.4485 479.8995
   480.3408 480.3408 480.8450 481.1493 481.1493 481.2576 481.6944 481.6944
   482.4429 483.1925 483.1925 483.5331 483.5331 483.6812 483.6812 483.7867
   483.7979 484.0190 484.2806 484.2806 484.9181 485.5438 485.5438 486.0371
   486.0371 486.3079 486.9702 486.9702 487.0536 487.0822 489.0134 489.0134
   489.9357 492.2218 493.4309 493.4309 494.1789 495.2147 495.2147 495.3484
   496.7909 496.7909 497.1924 497.2808 497.2808 497.5011 498.5035 498.5035
   498.5243 498.7038 498.9124 498.9124 498.9566 498.9566 498.9942 499.0684
   499.2852 499.2852 499.3486 499.6698 499.8364 499.8364 500.2249 500.2249
   500.7282 500.7282 500.8761 501.7119 501.7119 501.8538 501.9446 502.0753
   502.0753 502.2843 502.2843 502.3661 502.3837 502.3837 502.5915 502.5915
   503.9448 505.5270 505.5270 506.7902 509.3946 509.3946 509.4292 513.2214
   513.2610 513.2610 514.3470 514.3470 514.9124 514.9802 514.9802 515.1593
   517.0704 517.5175 517.5175 518.1780 518.1780 518.9943 518.9943 519.0420
   519.6551 522.7029 523.9554 523.9554 526.3066 526.3066 528.1967 528.8318
   528.8318 531.0414 531.4651 531.4651 531.9151 531.9151 532.1331 532.1331
   532.3661 532.5455 532.9414 532.9414 532.9731 533.1982 533.2140 533.2140
   533.4268 533.4709 533.4709 534.0060 534.7571 534.7571 535.1943 535.1943
   535.2171 535.7860 537.1379 537.1379 537.1782 537.6046 537.6046 539.6559
   541.0381 541.6837 541.6837 542.4067 542.4067 542.9880 543.1375 543.1375
   543.2364 543.7806 543.7806 543.8196 544.6629 544.6629 544.7918 547.3261
   547.3261 547.3394 548.9726 550.4122 551.8269 551.8269 552.0791 552.0791
   552.2001 552.3407 552.3407 552.4895 553.6132 553.6132 554.1271 554.4786
   554.4786 554.7649 555.1547 555.1547 555.7981 555.8220 555.8220 556.8427
   556.8427 556.9607 557.1318 558.0149 558.0149 558.5411 558.6274 558.8270
   558.8270 562.3330 565.7541 565.7541 566.5892 567.2018 567.2018 567.4307
   567.4307 567.4725 567.6971 569.0250 569.0250 569.6454 569.6454 569.7907
   570.0066 570.0066 570.0679 571.2622 571.2622 571.2711 571.4647 571.4647
   572.0821 573.7639 573.7639 573.7879 575.0772 575.0772 575.0788 576.0362
   576.0362 576.6424 577.0474 577.1418 577.1418 578.4149 578.4149 578.4790
   579.3150 579.3150 580.5610 582.0963 582.0963 584.1760 585.4066 585.4066
   586.0631 586.3366 586.3366 586.5523 586.8412 586.8412 587.0108 587.4163
   587.4163 587.5861 587.9763 587.9763 587.9974 587.9974 588.0563 588.2472
   588.3438 588.3546 588.3546 589.3832 589.3832 589.3961 594.0119 594.2182
   594.2182 597.8600 599.6172 599.6172 600.2072 600.2072 600.9014 601.8580
   601.8580 601.8840 602.0860 602.0860 602.1725 602.8208 603.1329 603.1329
   603.8336 603.8336 604.3575 604.3575 604.7790 604.7790 604.7915 604.8560
   606.4818 606.9720 606.9720 607.0656 607.0656 607.0752 607.6125 607.6125
   608.2740 608.6027 610.2052 610.2052 610.2855 613.1511 613.1511 613.1781
   615.9200 617.1667 617.1667 619.0329 619.0848 619.0848 619.5938 619.5938
   619.8316 620.0007 620.0007 620.8742 620.8742 620.8757 621.1678 621.1678
   621.2423 621.3090 621.3215 621.3215 621.3268 621.7929 622.2091 622.3715
   622.3715 623.9448 623.9448 624.0011 625.1010 625.1010 625.3149 625.7883
   625.7883 625.9795 626.0983 626.0983 627.9834 627.9834 627.9847 628.4851
   631.6615 631.6615 631.7169 631.7169 631.7401 631.8504 631.9837 632.4098
   632.4098 633.5941 633.5941 633.8776 634.8210 634.8210 634.9705 635.6861
   635.6861 635.7478 635.9100 636.7849 636.7849 637.9396 638.3047 638.3047
   638.9330 638.9330 638.9396 639.1662 640.2345 640.2345 640.2618 640.4524
   640.4524 640.5650 641.2869 641.2869 645.4566 645.5631 645.5631 645.6836
   645.6836 645.8806 646.2345 646.2345 646.7645 646.7645 646.7713 647.0031
   649.3395 649.3395 649.3577 650.6631 650.6631 652.6587 652.7171 652.7171
   653.6003 653.8350 653.8350 653.9244 654.8983 654.8983 655.0916 655.7014
   656.0014 656.0014 656.1664 656.1664 656.1881 656.7313 656.7313 657.0142
   657.0142 657.0468 657.2365 657.6458 657.6458 657.6628 657.7178 657.7178
   657.7384 665.0686 666.5423 666.5423 668.1723 668.5083 668.5083 668.6217
   668.6383 668.6383 668.6646 668.8794 668.8794 670.0153 671.3340 671.3340
   672.1396 672.1396 672.4537 672.8300 672.8300 673.1577 673.1577 673.1987
   673.2977 673.4044 673.4044 673.4167 673.8918 673.8918 673.9008 674.5813
   674.5884 674.5884 674.6145 674.6145 674.6173 674.6418 674.6418 674.6850
   676.9616 676.9616 678.6554 678.6554 678.7604 679.5582 680.2273 680.2273
   680.2625 680.2625 680.3474 680.5574 680.6513 680.6513 680.6845 681.9383
   681.9383 682.1996 682.3930 682.3930 682.4024 683.2768 683.3540 683.3540
   687.3497 688.0287 688.0287 689.2690 689.2690 689.4488 690.1098 690.6615
   690.6615 691.3822 691.3822 691.5244 691.5303 691.5303 691.6433 693.0118
   693.0118 693.0396 696.5771 696.5771 696.7002 697.1359 697.1359 697.1598
   699.6194 700.4714 700.4714 702.0772 702.0772 702.7026 703.1231 703.1231
   703.1828 704.8266 704.8266 705.1348 705.5273 705.8163 705.8164 705.9359
   706.0105 706.0105 706.0570 706.0570 706.0934 706.5454 706.5456 706.5706

          k = 0.5000-0.5000 0.5000 (  3600 PWs)   bands (ev):

   -29.7964 -11.7600 -10.7205 -10.7205  -6.5362   5.1537   6.5851   6.5851
    14.8126  16.1039  16.1039  16.2927  18.1590  18.1590  21.9919  24.7363
    24.7363  29.9153  31.9807  33.8129  33.8129  34.4063  34.4063  41.3381
    44.6369  44.6369  44.8727  45.1936  45.1936  50.6264  50.6264  51.9133
    53.0113  54.6133  54.6133  56.9275  57.1718  60.7869  62.5738  62.5738
    64.8401  65.2524  65.2524  66.6135  68.1006  68.1006  70.5616  71.0952
    71.0952  75.3474  76.8578  76.8578  80.3138  81.0732  81.0732  85.3817
    86.8668  86.8668  87.7956  87.7956  88.5829  88.5829  90.9185  90.9185
    91.5922  92.9378  92.9378  92.9967  94.0582  94.0885  94.8432  96.6077
    96.6077 101.4251 103.1989 103.1989 104.2448 106.6201 106.6201 106.7349
   106.7349 107.3743 107.3743 110.6209 110.6209 114.0459 114.3102 117.1865
   117.1865 117.2173 118.5668 120.2478 121.4534 121.4534 121.9075 122.1670
   122.1670 124.8166 128.2124 128.2124 128.4606 129.4417 131.2587 131.2587
   132.3235 132.5832 132.5832 133.6559 135.2327 136.0940 136.0940 138.8518
   138.8518 141.0090 141.3396 141.3396 142.5812 142.5812 142.8108 142.8108
   143.7754 145.1647 145.9422 148.1521 148.9085 148.9085 149.2486 152.2052
   152.2052 154.5786 154.5786 155.6020 156.4798 156.4798 158.0072 158.0072
   158.3583 158.4375 160.1788 160.1788 160.3982 162.1207 163.5428 164.2165
   164.2165 164.4659 164.4659 167.1126 169.8284 169.8284 169.8674 169.8674
   171.8423 171.8463 171.8825 171.8825 172.6415 172.6415 174.2687 174.2687
   180.1079 180.1079 180.1757 180.6895 180.6895 181.2159 184.5063 184.5063
   184.7236 184.7236 184.7418 184.8827 186.2959 186.2959 186.6159 189.4161
   192.3336 193.0717 193.0717 194.5661 196.3749 197.4787 197.4787 200.1537
   200.1537 201.0924 201.0924 201.4543 202.7679 203.0569 203.7710 203.7710
   205.3184 205.9302 205.9302 207.0725 207.0725 207.6895 208.4483 208.4483
   209.2461 209.2461 209.3104 209.5712 209.8159 209.8159 210.2041 210.2041
   211.2389 212.0996 216.2388 216.2388 217.4279 219.4831 219.7695 219.7695
   221.1179 221.1179 221.4569 222.3052 222.3599 222.3599 222.8359 223.0675
   223.0675 223.4939 223.4939 224.8230 225.0308 225.0308 227.7322 227.7322
   228.8282 229.3348 229.3348 230.6933 231.5772 233.5761 233.5923 233.5923
   234.2487 234.2487 234.2897 235.8636 241.9285 242.5161 242.5161 242.6980
   242.6980 243.3163 244.4216 244.8362 244.8362 246.8544 246.8544 247.1566
   247.4567 247.5921 247.5921 248.7974 248.7974 250.0853 250.2075 250.2075
   250.3854 250.5981 250.5981 250.7235 252.6663 254.1071 255.5210 255.5210
   255.5841 256.0153 256.0153 262.8763 262.8763 263.2351 263.2351 266.4517
   267.4022 267.4022 267.6648 269.1863 269.1863 271.6101 272.8981 272.8981
   273.4550 273.4583 273.4583 273.5224 273.6326 273.6326 273.7631 273.7631
   273.9516 273.9516 274.0047 274.1717 274.1753 276.8746 277.4983 278.5118
   278.5118 282.4321 282.9969 282.9969 284.0325 284.0325 284.1783 284.5914
   285.2181 285.2181 285.2880 285.2880 285.4685 285.4685 285.6541 285.6541
   285.7956 286.8672 287.0563 287.0563 287.0774 287.5276 288.0333 289.0999
   289.0999 289.1445 289.1445 290.6734 290.6735 294.9699 299.5790 299.5790
   299.8311 299.8311 300.7641 300.8846 300.8846 301.2333 301.2859 301.2859
   303.7785 303.7785 304.4366 304.4366 304.4811 305.0213 305.0213 307.7384
   307.7384 308.7068 309.1795 309.1795 310.6160 312.3943 312.3943 312.4604
   312.4604 312.5006 312.7170 312.7284 313.7782 313.7782 313.9400 314.0984
   315.2641 315.2641 315.7627 317.8487 317.8487 318.6882 318.6882 319.8867
   322.9393 322.9393 323.6320 324.1443 325.1477 325.1477 325.6215 325.6215
   326.0098 326.0098 326.1054 326.6271 326.8327 326.8327 326.9867 328.9489
   334.3030 334.6574 334.6574 335.4913 335.4913 336.9123 336.9123 337.7585
   337.8130 337.8254 337.8254 337.9248 338.5229 338.5229 339.1143 339.7841
   339.7841 340.3213 340.5084 343.7074 343.7074 344.4828 344.4828 345.1272
   345.5325 347.4586 347.4586 348.2470 348.9945 349.3342 349.5346 349.5346
   349.9143 349.9143 350.4930 350.4930 350.5607 350.5607 350.9323 352.5116
   353.3762 353.3762 354.3296 354.3296 355.3932 355.6124 355.6124 359.2427
   359.2427 360.3133 360.6859 361.2992 361.2992 362.3307 362.7025 362.7025
   363.2099 363.5255 363.5255 365.1027 365.2825 365.2825 365.3800 365.3800
   365.6500 366.9211 368.4551 368.4752 368.4752 368.4905 368.4905 368.5641
   371.3208 372.3813 372.3813 374.8291 374.8291 376.5088 376.5088 376.9596
   377.7534 377.7534 378.0333 378.0343 381.5698 381.7871 381.7871 383.4724
   384.8962 384.8962 386.1890 386.1890 386.3339 388.8222 388.8222 388.9290
   389.2724 389.2724 389.4741 390.0768 390.0768 390.1399 390.1802 391.3240
   391.7429 391.8766 391.8766 391.9811 391.9811 392.0941 392.7380 392.7380
   392.9801 395.7782 395.7782 396.3188 396.3188 397.6764 397.6994 397.6994
   398.2424 398.2424 398.7071 399.6460 399.6460 399.8267 400.8483 402.0448
   402.8397 402.8673 403.3507 403.3923 403.3923 403.4144 403.4144 403.6657
   403.6657 403.7949 403.7949 404.0307 404.0307 404.1433 404.1861 404.1861
   404.2055 405.4762 405.4762 405.6187 405.6525 405.6525 405.7907 409.3041
   414.4314 414.4314 415.2198 415.5330 415.5330 415.8368 415.9815 415.9815
   416.8084 417.1150 417.1150 417.1156 417.1156 417.4629 417.4629 417.4704
   417.5645 418.9314 418.9539 418.9539 419.1344 419.1344 419.1479 419.1495
   426.2643 426.2643 426.5833 428.2823 428.6384 428.6384 428.9284 428.9284
   428.9965 429.1633 429.1633 430.7405 432.0582 435.9055 435.9055 436.0318
   437.5181 438.8893 438.8893 438.9089 438.9089 440.1289 440.1289 440.2785
   440.2785 440.5436 440.5457 440.5457 440.7840 440.7840 440.8192 440.8262
   441.9127 442.0200 442.0200 444.4925 444.4925 444.5392 444.5392 444.8990
   446.2981 446.2982 448.0925 448.0925 450.0461 453.0942 453.4461 453.4461
   453.9083 453.9083 453.9435 454.3268 454.3268 454.3782 454.3782 455.9286
   457.9358 458.5736 458.5736 458.5934 458.5934 458.8280 458.8284 459.1516
   459.1516 460.8501 460.8501 461.0642 462.7071 462.7350 462.7350 462.7550
   462.8547 464.1827 464.4673 464.4673 466.0707 466.1924 466.1924 470.5906
   470.5906 470.6532 470.6532 471.5861 475.9801 475.9801 476.9308 476.9573
   476.9573 478.1083 478.1083 478.7590 478.8381 478.8381 478.9552 479.1247
   479.1247 479.9278 479.9278 479.9674 479.9855 480.0008 480.0008 480.0093
   480.3794 480.4002 480.4002 480.9365 481.2783 481.2783 481.3357 481.3487
   481.3487 481.8101 482.1498 482.2082 482.2082 482.3119 482.3119 482.8525
   482.8525 483.0827 483.1770 483.2751 483.2751 484.2480 484.2480 484.2714
   484.2714 484.2759 484.4391 485.3846 488.8569 488.8569 490.7263 490.7263
   490.8826 492.6031 493.2540 493.2540 493.3450 493.3450 493.3724 493.8677
   495.9609 496.0048 496.0048 496.1836 496.1918 496.1918 498.2710 500.7181
   500.7181 502.5291 502.5291 504.9386 505.4099 505.4099 506.3403 506.3403
   506.4552 506.5125 506.5465 506.5465 506.8746 506.8746 506.9092 506.9891
   507.2028 507.2028 507.4545 507.4545 507.5950 507.6234 508.3686 508.3686
   508.6686 509.0164 509.0164 509.3851 509.3851 509.4850 509.4905 509.4905
   509.5205 511.3534 515.9610 517.3822 517.3822 518.8558 518.9458 518.9458
   519.3490 519.8474 519.8474 519.9781 519.9781 520.8677 520.8677 521.0124
   521.3004 521.3070 521.3070 521.4175 521.4175 521.5699 521.5728 521.6562
   521.6562 522.4256 523.7814 527.9690 529.5069 529.5069 530.7347 530.9368
   530.9368 532.1808 535.0484 535.0484 535.3374 535.3374 535.6202 535.6202
   535.6775 535.6820 535.6820 535.7181 537.5412 537.5412 539.4425 541.6701
   541.6701 541.7232 542.0854 542.0854 542.2270 542.4438 542.4438 543.7535
   544.2116 544.2116 544.2133 544.3241 544.3241 544.6646 544.7088 544.7109
   544.7109 544.9561 544.9561 545.3407 545.4252 546.3724 546.3724 546.5086
   546.5086 548.0141 548.5960 548.5960 548.6468 548.7020 548.7020 548.7368
   549.9088 550.9986 550.9986 552.6476 552.6476 556.1562 558.1023 558.1023
   558.5334 558.5961 558.5961 558.9888 559.3876 559.4463 559.4463 559.8264
   559.8264 559.8531 559.8531 559.9614 559.9614 560.0330 560.0343 561.6971
   562.7389 562.7445 562.7445 562.7559 562.7559 562.7834 569.5018 569.5018
   569.7516 571.1027 571.1643 571.5232 571.5232 571.5259 571.5259 571.9015
   571.9015 571.9717 571.9717 572.0577 572.0577 572.0895 572.1826 572.8984
   573.9495 573.9495 574.4986 575.0956 575.0956 575.3103 575.3108 575.3796
   575.3796 576.3882 576.3882 579.8084 581.6550 582.8431 582.8431 583.7346
   584.5174 584.5174 584.6918 585.0374 585.0536 585.0536 585.1138 585.2774
   585.2774 585.3936 585.3936 585.4227 585.4227 585.5866 585.8716 587.6341
   592.2050 592.2050 592.5154 593.9045 593.9045 594.8998 595.0179 595.0179
   595.0850 595.1875 595.1875 596.0394 596.0394 596.1049 596.1049 596.5468
   596.5474 596.5796 596.5796 596.7947 596.8261 596.9746 596.9746 597.0117
   597.0117 597.0437 597.1313 597.1971 597.1971 598.9139 599.1402 599.1703
   599.2802 599.2802 599.3181 599.3181 600.6592 600.6592 600.6707 600.6707
   600.6707 600.7085 600.7085 600.7147 600.7147 600.7584 600.7646 600.7653
   611.7918 611.7918 611.8924 612.4433 612.4433 612.8012 612.8538 612.8538
   612.8874 612.8874 613.0205 613.0260 613.1926 613.2668 613.3138 613.3138
   613.3666 613.3666 615.8230 615.8230 618.8824 619.2879 619.2879 621.3484
   622.9653 622.9653 623.0148 623.0986 623.0986 623.1161 623.7468 623.7468
   624.2482 624.4334 624.4334 624.5367 624.7500 624.7592 624.7592 624.7780
   624.7780 624.7897 624.9435 624.9435 625.3337 625.3337 625.3881 626.1437
   628.3316 631.8195 631.8195 631.8910 632.0087 632.0264 632.0318 632.0318
   633.3467 633.3467 633.7432 634.2980 634.2980 634.3566 634.3566 634.7522
   635.2247 635.3366 635.3366 635.5630 635.5630 635.5674 635.5674 637.9726
   638.1167 638.3013 638.3013 638.3089 638.3089 638.5702 638.5702 638.6230
   638.6282 638.6282 638.7116 638.7116 638.7553 638.7806 638.7806 638.8542
   638.8823 639.4526 641.3843 641.3843 641.3861 641.3861 642.8956 642.8957
   648.8190 648.8190 649.7983 649.7983 649.8129 650.3342 652.0832 652.2205
   652.2205 652.2785 652.2785 652.4127 655.8022 655.8022 657.2626 659.1820
   659.1820 659.4337 659.8179 660.2839 660.2839 660.3109 660.3109 661.4281
   661.4281 661.5550 661.5550 661.6243 661.7596 661.8154 662.1149 662.1149
   662.1927 662.2115 662.3555 662.3555 662.3724 662.3724 662.5598 662.5598
   662.7377 663.3028 663.8986 663.8986 664.0860 664.0860 664.0956 664.1141
   669.1403 670.7011 674.1037 674.1037 674.8360 675.1586 675.1586 675.1901
   675.4430 675.4430 675.4726 675.4726 675.5086 675.6975 675.6975 675.6999
   675.6999 675.7980 675.8298 676.0360 676.1651 676.1651 676.2509 676.2509
   676.2809 676.2818 676.2909 676.3011 676.3011 676.3293 676.3293 676.4903
   677.7358 677.7358 678.0189 678.0847 678.0847 678.6829 678.6829 678.6911
   678.7190 678.7190 678.7221 678.7221 678.7666 678.7666 678.7843 678.9880
   679.8890 679.8903 679.9050 679.9050 679.9070 679.9070 685.6411 685.6411
   685.6796 686.4580 686.4580 687.3651 691.3996 691.3996 691.4883 691.4883
   691.4923 691.5012 699.0108 699.0108 699.2452 701.5725 701.5725 702.0283
   702.0283 702.0760 702.0760 702.1292 702.1348 702.9529 702.9557 702.9782
   702.9782 702.9783 702.9783 703.0209 703.0209 703.0232 703.0334 703.0334
   703.0416 703.0669 705.6455 705.6455 705.7366 706.7754 706.7754 708.2163

          k = 0.0000 0.3333 0.0000 (  3623 PWs)   bands (ev):

   -29.8646 -10.9887 -10.7237 -10.7237  -7.3326   6.5796   7.5936   7.5936
    13.1545  13.6323  14.9438  14.9438  15.7540  16.8142  24.1622  28.1557
    28.1557  29.4821  31.1700  34.8521  35.3119  35.8141  35.8141  37.7049
    37.7049  39.4798  45.2929  47.4749  48.7896  48.7896  53.6902  55.4013
    55.8528  55.8528  58.1034  59.5114  61.1338  61.1338  61.8405  65.0741
    65.7903  65.7903  66.6264  67.5452  67.5452  68.4754  68.5970  70.3757
    71.2054  73.0146  75.2067  75.2067  77.0156  77.0156  77.6291  77.9716
    80.2710  80.2710  80.7286  80.8677  84.5899  84.5899  87.3426  87.3506
    88.2716  88.8538  88.8538  96.5576  98.8758  99.6178  99.6178 100.4694
   102.8369 108.4197 108.4197 109.2664 109.7304 109.7304 111.8120 112.3444
   112.6461 112.6461 112.7449 113.5182 113.8609 113.8609 117.1832 117.6182
   119.3770 119.3770 119.5529 120.1832 122.4405 123.9685 124.9119 124.9119
   126.8508 127.4650 127.4650 127.9689 128.2304 128.2674 129.5705 130.1003
   130.1003 131.9915 133.2604 133.2604 134.8946 135.1540 136.7909 136.7960
   136.7960 137.4282 138.3520 139.2076 140.0222 140.0222 140.3897 141.8555
   141.8555 144.1433 144.1433 145.3046 145.7013 145.7013 145.8591 146.5752
   147.2384 149.1676 150.1141 150.1141 150.7309 153.2601 153.2601 156.3176
   157.4239 157.6803 157.9928 157.9928 159.8668 162.2126 162.6708 162.6708
   162.8251 165.1249 165.1249 166.3536 167.7726 169.7991 169.7991 170.0571
   170.4799 170.6304 170.6304 171.8120 172.9968 173.1882 175.9922 176.0129
   176.0129 178.9063 180.2348 180.2348 180.7724 180.8503 182.3253 183.1931
   183.1931 183.5569 185.7808 185.7808 186.2142 188.4713 193.0572 193.2383
   193.6309 193.6309 196.4446 196.4446 199.8476 200.1042 201.3478 201.3478
   202.5565 202.5565 202.6608 202.8335 205.9101 205.9101 206.1754 206.9439
   207.1546 207.4976 208.0988 208.9791 209.5683 209.5683 211.7176 211.7176
   212.6899 213.0894 214.1686 214.1686 215.5189 215.6915 215.6915 215.8381
   216.6247 217.6278 218.7336 218.7336 218.9641 220.0966 220.0966 220.2285
   220.5708 220.9111 221.8694 222.6740 223.1054 223.1054 224.0073 224.0073
   225.5985 226.4214 226.9637 227.9953 227.9953 228.1064 229.1719 229.1719
   230.6114 231.4659 231.4659 232.4303 232.7035 233.1908 233.2984 233.2984
   233.5890 236.3051 239.0062 239.0062 239.1445 239.4911 239.7988 240.4214
   240.7899 240.7899 242.7335 243.3250 243.8955 243.8955 244.3366 244.3366
   245.4624 247.7853 247.7853 248.4123 248.5548 248.7530 248.9200 248.9200
   249.0454 249.0793 249.1986 251.2580 251.2580 252.0807 252.3578 252.8894
   253.1556 253.1556 253.2312 253.7293 254.4982 254.5242 254.5242 255.8925
   255.8925 256.1810 259.8832 260.1018 260.2576 260.2576 261.6069 262.5666
   263.6040 263.6040 264.1821 264.4089 264.4177 264.4177 264.5075 268.0457
   269.6895 269.6895 272.2018 273.2321 274.4924 274.4924 274.6789 275.5093
   277.8477 277.8477 279.0133 279.0527 279.0527 279.4630 283.7706 284.5475
   285.5840 286.0567 286.0567 287.7940 287.7940 288.0152 288.2078 289.1090
   289.2488 289.2488 290.4705 291.9810 292.0824 292.0824 292.3168 292.6226
   292.6226 292.8093 293.3530 295.8547 297.3370 297.3370 297.6000 297.8085
   298.5420 298.5420 300.3676 300.3676 302.4074 303.0927 304.0693 305.5348
   305.7034 306.5764 306.5764 308.1442 308.1442 308.1786 308.6955 309.7862
   309.7862 309.9592 310.4293 310.6408 314.5577 314.9029 314.9029 315.6817
   317.9537 318.1035 318.1035 320.6138 320.6138 322.0375 323.8113 324.6446
   324.6446 325.9608 326.2228 326.5004 326.5004 327.0033 328.0228 328.1045
   328.1045 328.7149 328.9141 330.1142 330.1142 331.1413 331.2298 332.8921
   332.9163 332.9163 332.9629 333.5123 334.7543 334.7613 334.7613 334.9013
   335.5725 335.5725 335.8430 336.0669 336.7398 336.7398 336.7598 336.8121
   337.0277 337.0277 339.8988 340.2632 340.6130 340.6130 341.6887 342.3554
   342.3554 342.5181 342.8010 343.0401 343.0845 343.0845 343.2517 345.5355
   345.5355 346.7944 347.9838 348.7629 348.9627 350.0615 350.0615 350.3050
   350.9196 351.2487 351.2487 352.7962 353.1409 353.1409 353.3182 353.5815
   354.0004 354.2199 354.2199 354.2950 354.3439 354.3439 355.4407 355.5803
   356.6378 358.0440 358.0440 358.7514 358.7514 358.8455 359.0537 359.0537
   359.2394 360.3203 361.0650 361.0650 361.4433 362.3194 363.4374 364.1725
   364.1725 364.8953 364.9563 365.4747 366.7205 366.7205 367.5247 369.0815
   369.6989 369.7104 369.8476 369.8476 369.9954 370.1586 370.1586 370.2814
   370.8031 370.8031 372.1642 373.0893 373.9782 373.9782 374.1461 374.4349
   376.1620 376.1620 376.7967 377.5193 377.8264 377.8295 377.8295 378.2814
   379.7217 379.7217 382.6512 382.8716 383.7236 384.2340 384.2340 384.5473
   384.7439 385.1707 385.1707 385.5466 388.1249 388.1249 388.4637 388.6002
   388.6586 388.7482 388.7482 389.2763 390.1079 390.1991 390.3381 390.3381
   393.5230 397.2014 397.2014 397.2531 397.3277 397.9471 397.9471 398.2131
   398.9973 399.2180 399.2180 400.0938 400.8085 400.8085 401.0194 401.0324
   401.7412 401.7412 402.4033 403.3157 403.4864 403.4864 403.8226 404.7214
   404.7214 406.6022 406.9875 407.7997 408.0765 408.0765 408.3781 412.5506
   412.9209 415.0126 415.0126 416.3303 416.3303 416.3573 416.4364 417.0744
   417.8070 418.1132 418.1132 418.1856 418.4845 418.4845 419.5369 421.3066
   422.5663 422.9143 422.9143 423.4208 426.7108 426.7108 426.7137 427.4594
   428.0680 429.7815 429.7815 429.9767 433.0938 433.0938 433.8974 433.8974
   434.2171 434.2826 434.7364 434.8238 435.8674 436.0929 436.0929 436.1319
   438.1866 441.7372 441.7372 442.2786 442.9877 442.9877 443.1137 443.5452
   444.4165 444.4165 444.4828 445.3915 445.5305 445.9179 445.9179 446.2985
   447.4945 448.9776 448.9776 449.1267 452.5955 454.5182 454.5182 455.7766
   455.8702 456.2338 456.3144 456.3144 456.4545 456.5693 456.5693 456.8300
   456.9146 457.0152 457.3864 457.3864 457.5766 457.6237 457.6237 457.7308
   457.7680 458.8227 459.5772 459.8964 459.8964 459.9470 460.4428 460.7130
   460.7130 461.0398 461.0398 461.4304 461.7776 462.8007 463.2480 463.2480
   463.6830 464.0497 464.0542 464.0542 464.1532 464.5500 464.5500 465.2453
   466.0850 467.3322 467.3322 467.3345 467.4315 467.6440 468.9295 468.9295
   470.4235 470.9323 470.9323 472.8308 472.9179 473.1127 473.1127 473.1720
   473.2618 473.2752 473.7382 473.7382 476.3739 478.2704 479.2476 479.2690
   479.2690 479.5657 479.5911 479.5911 480.3347 480.7412 480.9079 480.9079
   481.3214 482.1347 485.8238 485.8238 486.5319 487.2618 487.7630 487.9530
   487.9530 488.0549 491.1440 491.1440 491.1802 491.1980 492.2731 492.2731
   493.4660 496.2742 496.5669 496.5669 497.0527 497.2773 497.2773 498.3255
   498.3957 498.3957 498.4361 499.2886 499.4034 499.5611 499.5611 499.7331
   501.1037 501.1037 501.5877 502.7991 503.7942 503.9032 504.0389 504.0389
   504.2960 504.9473 504.9473 505.3192 506.3198 506.3581 506.4375 506.4375
   506.4440 508.7824 508.7824 508.8588 508.8873 508.9182 508.9242 508.9242
   509.4246 509.4246 509.6852 510.4530 510.6307 510.6307 510.6570 512.6705
   512.8141 513.2321 513.4645 513.4645 513.5882 513.7464 513.9660 513.9660
   514.0218 514.3995 514.3995 514.4634 514.5377 515.5208 515.5208 515.8915
   515.9414 515.9636 515.9636 516.1476 516.7539 516.7605 517.6076 517.6076
   519.1031 519.3860 519.3860 519.6206 520.6886 520.7695 520.9386 520.9386
   522.3993 524.2534 524.2534 524.3674 524.6174 524.7215 524.8485 524.8485
   525.0780 525.0883 525.0883 525.1542 526.1296 531.2437 531.2437 531.4274
   531.5735 533.7292 533.7292 534.0647 534.3108 534.4929 534.5431 534.5431
   534.9941 535.1640 535.2528 535.2528 535.3065 535.7373 537.2860 537.2860
   537.6605 537.6966 537.6966 538.0024 538.4285 539.3340 542.4462 542.4462
   544.0169 544.0169 544.2733 544.3337 544.5258 544.5258 544.5765 545.0260
   545.2226 545.2226 545.4625 545.9352 546.3707 547.9364 548.2079 548.2079
   548.6976 548.8994 548.8994 548.9052 549.4545 549.4545 549.4946 549.7703
   551.2185 551.2749 551.5786 551.5786 551.6952 551.7580 551.7580 551.7974
   551.8275 552.7780 553.7813 553.7813 555.1545 556.1126 556.1126 556.2470
   556.3686 557.0952 557.1392 557.1392 557.1518 557.3376 560.0665 560.0665
   560.4678 560.6535 560.8093 560.9016 560.9016 561.0572 564.3615 564.3615
   564.5093 564.5703 566.7694 566.7694 568.0219 568.5084 568.5254 568.5254
   568.5724 570.0870 573.9021 573.9021 574.1341 574.5802 576.0073 576.0073
   577.2378 577.2378 577.3554 577.5981 579.0612 579.0612 579.7999 579.8468
   579.8468 579.8653 580.6153 581.0508 581.8019 581.8610 581.9217 581.9217
   582.1234 582.4109 583.0866 583.0866 583.2005 584.7679 584.7679 585.2251
   585.7945 590.6996 590.9990 590.9990 591.7201 592.7883 592.9231 592.9231
   593.0302 593.5844 593.5901 593.5930 593.5930 595.3757 596.3094 596.3405
   596.3405 596.6015 596.9896 596.9896 597.1437 597.2356 597.6620 597.6620
   600.3393 600.4019 601.2997 601.2997 601.5602 601.9595 601.9595 602.1582
   602.2291 602.3573 602.5648 602.5648 602.6752 602.9085 605.5886 605.5886
   605.6032 605.6108 605.7640 605.7640 606.2677 606.7852 608.1638 608.9140
   608.9140 609.5155 613.5122 613.5773 613.5773 613.6158 615.3946 615.3946
   615.5888 616.3031 617.8104 618.4315 618.4823 618.4823 619.3596 620.0737
   620.3277 620.3277 620.3992 620.3992 620.4987 623.0463 624.3722 624.8754
   624.8754 626.7206 626.7875 626.9798 626.9798 627.0501 627.0501 627.0648
   627.2189 629.2901 630.1458 630.1458 630.7232 631.2043 631.8622 631.8622
   632.5925 633.1617 633.1617 633.2478 635.9672 636.3917 636.7367 637.0004
   637.0266 637.0266 637.1698 637.1698 637.3350 637.3639 637.5282 637.5282
   637.7205 637.8879 638.2320 638.2320 638.7675 640.2156 640.2206 640.3196
   640.3196 641.5112 644.1465 645.0301 645.0301 645.2441 645.8617 645.9414
   645.9414 646.3866 646.8510 646.8510 646.8712 646.9057 647.1159 647.1446
   647.1446 647.1829 647.6182 647.8054 647.8054 648.1336 650.7912 650.7912
   652.0254 652.2517 652.4405 652.5284 652.5284 652.6406 653.7204 654.2191
   654.2191 654.5310 655.4606 655.7331 655.7691 655.7691 656.9193 656.9606
   656.9606 657.0823 657.2004 657.2004 657.3758 657.4148 659.0830 659.0830
   660.3505 660.6866 661.3095 661.5912 661.5912 661.8467 661.9008 661.9008
   662.1073 662.1575 662.3611 662.3903 662.3962 662.3962 662.4596 662.4754
   662.4754 663.0415 663.7508 663.8036 663.8036 663.8806 665.3329 665.3329
   665.3945 665.4305 666.2834 666.2961 666.2961 666.3048 667.6074 667.6074
   668.2030 668.7678 670.0621 670.0621 670.1980 670.2577 670.4496 670.5043
   670.5043 670.8696 671.0497 671.0682 671.0682 671.3165 671.3165 671.3174
   671.4702 672.1847 674.3057 674.3464 674.3464 674.3614 674.8358 674.8527
   674.8527 674.8576 676.6804 677.1254 677.1254 677.8348 678.4826 678.4826
   678.8435 679.0700 679.0884 679.0884 679.0920 679.1631 679.6580 680.1226
   680.1226 680.3276 680.5590 680.5590 680.6021 680.7011 683.1159 683.1783
   683.2204 683.2204 683.2591 684.3452 684.3452 684.7379 684.8001 684.8437
   684.8437 684.9336 685.3887 690.5119 690.5119 690.7179 690.7376 690.7376
   690.7427 690.7515 690.8974 696.6938 696.9478 696.9478 697.3603 697.8396
   697.8645 697.8645 697.9704 698.0168 698.0824 698.0938 698.0938 698.3178
   698.4168 698.4168 698.4929 700.4541 701.5605 701.5605 702.2773 704.1555
   704.4971 704.4971 705.0293 705.0855 705.0855 705.2603 705.5997 705.8998

          k =-0.1667 0.5000-0.1667 (  3599 PWs)   bands (ev):

   -29.8228 -11.3375 -10.7652 -10.7616  -7.0146   5.9671   7.0626   7.2319
    13.0762  14.9622  15.7786  15.8833  16.5426  17.8801  23.8920  26.0410
    26.3999  28.9672  31.9005  33.5605  34.2161  35.8381  36.1982  38.4951
    40.1628  42.6739  44.0277  46.1033  48.3350  50.0472  52.2213  53.8120
    53.9154  54.8874  57.8291  58.8242  59.4669  59.9873  60.1487  62.4102
    64.4318  64.7590  65.3416  66.9451  67.4626  70.3538  71.8448  71.9947
    73.0271  73.5188  74.5225  76.5137  76.8963  78.1512  79.5481  81.3115
    82.0800  82.5703  84.6728  87.0327  87.1942  88.3254  88.4543  89.4593
    91.2797  92.3611  93.3971  95.6293  97.0778  97.1429  98.1778  99.4641
   100.1729 101.3350 103.0742 103.2303 103.5738 106.1057 106.2759 108.3889
   109.2106 110.2925 111.4248 113.1119 113.2243 114.8179 115.8334 116.4811
   117.2296 118.1962 118.9198 120.0914 121.8378 123.2065 123.6083 124.4995
   126.2230 127.0907 127.3993 127.8455 127.9294 129.4645 129.8670 130.0419
   132.0623 132.3541 132.4174 134.8191 136.5917 136.7192 136.7434 137.1859
   137.7223 137.9153 139.9753 140.5502 140.9412 141.0180 142.9219 143.0690
   143.8598 144.8417 146.0025 146.9272 147.8411 148.3282 148.4637 149.1610
   149.7861 151.1192 152.2168 152.7954 153.4727 153.8302 155.3049 155.7315
   155.8543 156.2516 156.9589 158.6342 158.7336 160.0121 160.7429 162.3215
   163.3781 164.6595 164.7209 166.6031 168.8471 169.6961 171.2496 172.3493
   172.3948 173.7377 174.6563 174.8361 176.3433 176.8091 177.4204 179.0672
   179.7292 180.1408 180.4769 181.3179 181.3991 183.2978 183.4565 186.0905
   186.8436 187.4221 187.7853 188.3004 188.3792 189.3809 190.1080 190.2308
   191.4629 192.9539 193.5946 193.6849 194.5993 195.3534 195.6066 197.5070
   197.7502 198.3395 199.1947 199.7704 200.5104 200.8784 201.6877 202.0809
   203.0366 204.5073 205.0849 205.3489 205.9408 206.4899 207.0750 208.3928
   208.8419 209.6967 210.4517 210.5729 210.9582 211.6626 212.8530 213.6119
   214.1433 215.0988 216.1585 216.9080 217.9626 219.0087 219.1942 219.3965
   219.9057 220.0800 221.2977 221.6916 222.0536 222.1418 223.7795 223.9477
   224.5971 226.5869 227.5565 228.7956 229.1189 229.7734 229.8713 232.2100
   233.1028 233.9114 234.4882 234.8206 235.5362 236.2806 236.6286 236.8737
   237.6367 237.8672 238.0949 238.7048 238.9002 239.0310 240.4680 240.5428
   241.8562 242.2356 242.4745 243.8558 245.0181 245.0543 245.9171 245.9683
   246.7835 247.2136 247.6921 248.3014 249.6503 250.9530 251.0520 251.5324
   251.5589 251.9773 253.2453 253.6357 254.0869 254.1758 254.4908 255.8478
   256.1589 256.5484 256.7039 256.8942 257.6055 258.1545 259.0980 259.5154
   259.7262 260.5348 261.4353 261.5183 261.9943 262.3762 262.6375 263.9927
   264.0898 264.1683 266.6700 266.9490 268.8356 268.9530 269.5278 270.1287
   270.3801 272.2759 272.4500 273.4084 274.6231 275.7943 275.8628 276.9245
   277.9181 279.5841 280.8533 280.9483 281.7219 282.0517 282.1986 282.7520
   282.9111 283.4647 284.7075 285.1768 285.3764 286.4956 286.5970 287.7308
   288.5871 289.2868 289.7567 289.8708 290.1316 290.9841 291.6240 291.9447
   292.2139 293.8284 294.0008 294.9593 295.3762 295.9845 297.1843 298.8748
   298.9432 300.0316 301.3804 301.7076 302.0903 302.5832 304.5546 305.3189
   306.4071 308.0933 308.6783 308.8460 309.6341 309.9104 310.5177 311.0182
   311.2881 311.5677 311.8239 312.0735 312.9142 312.9930 314.1739 314.2147
   314.8048 315.5663 315.9129 316.4235 316.7841 317.1275 317.3701 318.2287
   318.5432 319.2320 319.6276 319.6928 321.3461 321.8214 322.6052 323.4678
   323.5367 324.4156 324.5262 325.3484 325.7600 325.7661 326.8400 326.9854
   327.1169 327.2578 328.2216 329.6743 329.7144 331.4758 331.8431 331.8913
   332.7189 333.6959 334.0390 334.4644 334.6721 335.7671 336.0875 336.1699
   336.8809 337.0743 337.6896 337.8343 338.3568 339.3191 339.3453 340.2494
   340.9238 341.2353 341.8727 342.3835 343.3974 343.5347 343.6236 344.7351
   344.8907 345.2555 345.2666 346.1266 346.2055 346.9471 348.4412 349.1398
   349.6039 349.9824 350.6903 351.3723 351.5829 351.7606 351.9626 352.3813
   352.8087 353.3540 354.0769 354.1313 354.3009 354.6953 354.8790 355.3612
   355.6627 357.0652 357.5134 357.7567 359.2431 359.6523 361.0404 361.5395
   362.0835 363.0228 363.2687 363.6913 364.4315 365.7487 365.9987 366.5525
   367.6173 367.7415 367.8031 369.2968 369.3529 369.8877 369.9231 370.6090
   370.6146 372.8665 373.1805 374.5309 374.8538 375.8856 375.9406 376.0241
   376.6852 377.3698 378.0157 378.2986 378.3462 378.4401 378.8917 379.5221
   379.6587 379.7889 380.6359 381.0471 381.0854 381.1926 381.6936 382.2249
   382.5722 382.7528 383.2269 384.2683 384.7367 385.9862 386.2568 386.8685
   388.1973 389.0428 389.8306 390.2341 390.2921 390.4577 391.1962 391.9789
   392.3912 392.7427 393.4809 393.9030 394.1193 394.2192 394.6418 394.6494
   395.6802 396.5229 396.5718 396.7100 397.2437 398.4389 398.5369 399.0712
   399.4022 400.6042 402.6867 403.0025 403.8528 404.3936 404.8789 405.5019
   405.5795 405.7413 405.7839 407.1777 407.7046 408.3352 408.6993 408.9467
   409.1924 409.5658 409.8298 410.7271 411.0305 411.3954 411.6720 413.7007
   413.7809 413.9551 415.4028 415.8568 415.9307 415.9763 416.2218 417.3670
   417.5639 417.6893 418.2375 418.3814 418.7386 420.5781 420.9039 421.2392
   421.5416 421.6286 422.0984 422.7348 423.0109 423.1994 424.6209 425.1901
   425.8429 428.7659 429.1250 429.2379 429.8237 430.1776 431.1124 431.1719
   431.2686 431.9574 431.9751 432.2474 432.2898 432.4505 433.0535 433.2003
   434.0648 434.4845 434.5747 435.0347 435.2940 435.9598 436.2583 436.7338
   437.5437 437.5809 439.4413 439.5356 440.4298 441.0399 441.5245 441.6679
   441.6901 442.5772 442.9723 443.2943 443.5314 444.1840 444.3779 445.8056
   445.8062 448.4458 450.2233 450.7560 451.2243 451.8999 452.6834 452.9245
   454.0340 454.4345 455.0786 455.2113 455.3465 456.2982 457.0436 457.2227
   458.2342 458.6178 459.7342 459.8234 460.5718 460.6697 460.9657 461.0014
   461.1720 461.3138 461.6917 462.8972 464.4759 465.1447 465.3230 465.7948
   466.3771 466.7124 467.1333 467.4627 467.7957 468.2391 468.8863 469.2225
   469.4170 469.9614 470.1132 470.5615 471.5641 471.6027 471.8947 472.4624
   472.5332 473.4507 473.6561 473.7488 473.9248 475.1931 475.2134 475.3645
   475.8498 476.7909 477.0791 477.5539 478.1976 478.3135 478.6484 478.9914
   479.2112 479.4241 480.2989 480.4806 481.0882 481.1625 482.4181 482.9323
   483.2779 484.3802 484.9936 486.2219 486.2947 486.5994 486.8266 487.0845
   487.4266 487.5664 487.8560 487.9709 488.1278 488.5898 489.1027 489.8890
   490.4441 491.0696 491.5065 491.6704 492.4491 492.5323 493.9137 494.1934
   494.8127 494.8325 495.1073 495.7826 495.8595 495.8824 496.5250 496.9580
   496.9654 497.0301 497.0995 497.2591 497.5654 497.6832 499.9142 500.2474
   500.6849 501.7188 501.9796 503.1476 503.7420 504.2123 504.2740 504.9818
   505.2735 505.5272 506.1061 506.2766 506.3458 506.4341 506.5157 506.5453
   507.3087 507.5134 507.5533 509.5581 510.8662 511.0836 511.2659 511.3324
   512.4391 512.9108 512.9519 513.2443 513.3258 513.3289 513.4243 513.7097
   514.5216 514.5350 515.1528 515.6277 516.3388 517.2455 518.0114 518.1942
   518.2723 519.2444 519.3066 519.7186 520.2032 520.6956 520.8825 521.0537
   521.6111 522.7247 522.7604 523.4902 523.5740 523.8105 523.9292 524.0975
   524.3634 524.4606 524.8912 525.2667 525.4653 525.8308 526.2416 526.4277
   526.8041 527.8398 528.6494 529.1664 529.1796 529.2213 529.5235 529.9580
   530.0294 530.5750 531.5578 532.8014 533.1977 534.4481 534.8718 535.0665
   535.1179 535.9360 535.9385 536.5295 536.5527 538.3074 538.4510 538.9255
   539.5119 539.6059 540.5386 540.6093 540.6728 541.2613 541.7619 541.8442
   542.5354 543.5855 544.0363 544.2445 544.3372 545.7628 545.7892 545.8632
   546.4349 546.6820 546.9026 546.9409 547.6266 547.8434 548.5502 549.1717
   549.3316 549.8098 550.5423 552.0627 553.2664 553.4861 553.5433 553.5559
   554.4212 555.4752 555.4995 556.7529 556.8158 556.9134 557.6637 557.7163
   557.8086 558.1851 558.9133 559.6106 559.7188 560.4812 560.5300 561.2311
   561.3030 562.5717 564.6527 564.6689 566.2749 566.7146 567.0372 567.4451
   567.5232 568.2458 568.3017 568.5093 568.5453 569.0174 569.0749 569.8397
   570.2936 570.4476 571.2683 571.8504 571.8961 572.7894 575.1512 576.0288
   576.9518 577.0269 577.3303 577.5378 577.9252 578.3132 578.5891 579.5834
   580.0558 580.6100 580.6759 581.2010 581.2896 581.6320 581.6501 582.3115
   582.4027 583.0779 583.2065 584.1475 584.5704 584.6588 584.6635 584.7808
   584.8282 585.0767 585.3804 585.4116 586.0371 586.1341 586.8317 587.6991
   587.7797 589.1878 589.4622 589.5381 589.9736 590.0967 590.4114 590.5461
   591.7925 592.0421 592.4076 592.8765 593.0492 593.2412 593.5958 594.1506
   594.2934 594.3630 594.4073 594.6708 594.7787 595.5518 595.6084 596.3436
   596.5236 598.1599 599.9403 600.1737 600.8747 600.9950 601.8854 602.0062
   602.3055 602.3411 602.9619 603.5423 603.6227 603.9240 603.9513 604.0276
   604.1683 604.2060 604.4742 604.9783 605.5258 605.8932 606.2445 606.4260
   608.4119 608.8373 609.0908 609.1667 609.5912 610.6596 611.4213 612.3033
   612.4171 613.0105 613.2383 613.3320 613.3948 613.5783 613.6639 614.2748
   614.4436 615.1858 616.0175 616.0658 616.4330 616.8688 617.5524 617.9477
   618.0831 619.5576 620.3804 620.7190 620.9841 621.0462 621.3180 621.4301
   622.2463 622.2827 623.4770 623.7455 623.9106 623.9462 625.2362 625.9272
   626.8438 628.5540 628.6249 628.9045 629.2798 629.5842 630.2175 630.4913
   630.5357 630.8986 632.1647 632.3711 632.9958 633.2789 633.3185 633.4287
   633.5576 633.6399 634.2475 634.4808 634.6079 634.9043 635.2381 635.2937
   636.2343 636.6020 636.8452 637.5797 638.1937 638.2481 638.7467 638.8945
   638.9075 639.0248 639.1858 639.3054 639.4731 639.7360 642.3974 643.1590
   643.8362 644.1793 645.5605 645.8925 645.9336 646.1152 646.2456 646.4280
   646.6640 647.4469 647.5512 647.9540 648.0956 648.2621 648.3329 648.4094
   649.5380 649.8178 649.9658 650.1575 650.2645 650.5462 652.8753 653.5156
   653.8224 654.1096 654.5847 655.0936 655.3799 655.5991 655.7512 656.3674
   656.6668 656.7388 657.0303 657.0614 657.7699 658.4595 659.3981 659.5405
   659.9178 660.2993 660.7159 661.1721 661.7580 661.9134 662.7138 662.7912
   663.2796 663.5577 664.5388 665.5452 665.5768 666.2597 666.2646 666.6939
   667.8673 667.9447 668.7166 669.0758 669.2424 670.1043 670.2446 670.6961
   670.8397 671.4056 672.0542 672.1052 672.8745 672.9148 673.1771 673.1823
   673.2165 673.3725 673.8539 674.1510 674.4788 675.8565 675.9312 675.9984
   676.0245 676.2694 676.3850 677.9901 678.0866 678.3079 678.5671 679.7039
   681.0659 681.1743 681.3794 681.4449 681.6686 681.7571 682.2939 683.3645
   684.1096 684.4587 684.8865 685.0350 685.1190 685.2046 685.5485 686.0380
   686.6024 686.7723 686.9043 686.9479 686.9757 687.1404 687.4227 688.8406
   689.2735 689.5861 690.3058 690.8234 690.9533 691.2101 691.2421 691.3779
   691.4127 692.0949 692.3292 692.5738 692.7501 693.0891 693.0940 693.2450
   693.4325 693.7667 693.8075 693.9940 694.0074 694.8924 695.0548 695.3122
   695.6048 696.0679 696.9231 697.0889 697.4733 698.4927 698.5449 698.9545
   699.0358 699.1607 699.5782 699.6373 699.8358 699.9486 700.4064 700.5798
   701.3460 701.6542 701.9780 702.1082 702.5998 703.4807 703.7578 703.8233

          k = 0.6667-0.3333 0.6667 (  3610 PWs)   bands (ev):

   -29.7889 -11.6013 -10.8268 -10.7642  -6.7488   5.5815   6.6143   6.7801
    14.0546  15.3549  16.3489  16.8030  17.7688  18.8597  21.9416  24.3260
    25.1616  29.6601  32.4278  32.4936  33.7860  36.1149  36.1936  41.1025
    42.5828  43.5699  44.6978  45.6352  46.9252  48.2706  48.5137  52.1052
    53.8667  54.2337  55.1958  56.7273  57.9629  60.8930  61.5861  63.0747
    63.5345  63.6223  65.9012  66.9939  69.6868  70.4462  71.0342  73.2550
    74.9360  76.2072  76.6980  76.8183  78.4431  80.2707  81.5656  82.2741
    82.9481  83.7880  86.0919  87.3311  88.1840  89.8915  90.1572  91.3906
    91.9498  92.1583  94.2935  94.7847  95.7170  98.0401  98.0769  98.4446
    99.4823  99.6358 101.8521 102.6585 104.0545 104.0917 105.4133 106.0341
   108.0265 108.3682 109.1594 110.7902 111.8886 113.1059 113.3223 113.8696
   115.6632 117.2744 117.6257 118.2324 119.0147 120.6877 122.2477 123.3357
   124.1057 125.6688 126.8604 127.6696 128.9627 129.2862 129.9189 130.0901
   130.8384 131.5633 132.1772 133.3543 134.7585 135.3587 136.4282 136.8094
   138.7382 139.0570 141.3517 141.7019 142.6233 143.3999 143.4921 144.0797
   147.4297 147.5596 148.6606 148.8748 149.3206 150.0209 150.0847 151.3034
   152.1313 153.1175 153.5335 154.2710 154.5030 155.9515 156.9898 158.0459
   159.2194 159.2313 161.9529 162.6828 163.3248 163.7879 164.5920 165.7713
   166.5091 166.5125 167.3653 168.1768 168.4685 168.9954 169.4923 169.7454
   171.3970 172.6065 172.6853 173.8080 173.9607 174.2316 174.9897 175.4652
   178.4259 178.4901 178.7542 180.0863 180.3417 182.4307 183.1673 183.6236
   184.5560 184.5802 185.6706 186.1500 187.6601 188.9086 189.8974 189.9396
   190.2292 190.9187 191.6381 192.4797 193.3331 194.2621 194.5081 197.1880
   197.8189 199.1478 199.4243 199.4484 200.2769 201.1638 201.4876 201.5678
   202.4474 202.9803 203.8567 204.6615 204.8098 206.0487 207.0587 208.2181
   208.7202 209.5927 210.9410 211.5371 211.8205 212.1828 213.6026 213.6515
   214.9024 215.5573 215.8378 216.9573 217.2872 217.5530 217.6625 218.1824
   218.2498 219.1241 219.4042 219.9251 221.5266 222.2647 222.6948 223.4477
   224.3948 224.8020 225.2595 225.7895 226.5696 227.3173 228.1135 228.4196
   229.6801 229.9132 230.5890 232.6719 233.4074 234.3178 234.8237 235.1362
   235.7351 236.0608 236.5627 237.1386 237.2460 238.0232 239.9131 241.7884
   242.5891 243.0490 243.9928 244.1824 244.4205 244.7444 246.7958 246.8451
   247.4529 249.1227 249.2290 250.1924 250.7700 251.3184 251.9278 252.4715
   252.9705 253.2267 254.0309 254.6281 255.6634 256.3863 257.2878 258.9336
   259.0293 260.1870 260.6202 260.7224 260.9795 263.5858 263.8208 264.8995
   265.1160 265.4052 266.6530 267.0422 267.5675 268.1810 268.8703 269.6359
   269.6464 270.7881 271.0891 271.8896 272.1945 272.6423 272.6461 273.3294
   273.7166 274.0942 275.4672 275.4983 275.8929 276.0805 277.0126 277.1298
   277.7362 277.7645 278.0090 280.6498 281.2093 281.4469 282.4467 282.5311
   283.4560 283.4635 285.1141 286.0495 287.1936 287.5069 287.7500 287.7988
   288.7095 290.2420 290.2549 290.9991 291.0709 291.2333 292.2677 293.1220
   293.4982 294.3455 294.4705 295.7045 296.2340 296.3790 296.5014 296.7490
   296.8379 297.1346 298.0774 299.2932 300.5872 300.6560 301.2609 302.1693
   302.3278 302.8693 303.1861 303.2874 303.4690 304.3209 304.3524 304.8894
   305.5475 306.3272 307.5590 307.9214 309.0513 310.0418 311.0813 311.9474
   312.3812 313.1000 313.2966 313.7181 314.1892 314.9047 314.9138 315.3737
   315.6199 316.1676 316.5020 318.2861 318.6575 319.1023 319.3540 319.8102
   321.0437 321.2252 321.5942 321.7210 322.1516 322.7169 324.4190 325.8884
   325.9294 326.2622 327.7962 328.2117 329.3330 329.8129 329.8866 330.0227
   331.7664 332.3976 332.8858 333.3470 333.7412 335.5201 335.7611 336.2528
   336.6774 337.3242 337.7396 338.0265 338.9832 339.3405 339.4198 339.6299
   340.1055 340.1398 340.3429 340.7374 341.6211 342.5989 343.3728 343.9713
   344.4904 344.8303 345.4718 345.8472 346.4832 346.5697 347.4218 348.0813
   348.3985 348.6550 349.4401 349.4986 351.5646 353.2540 353.8190 354.7081
   355.6560 355.9912 356.3227 356.5811 357.7146 357.9806 358.8490 358.9342
   359.2140 360.2298 360.8309 361.2214 361.2705 362.9308 363.0163 363.4188
   363.7746 364.0521 364.1219 364.1529 365.0338 365.6814 366.5985 367.8411
   368.4445 369.3057 369.3689 369.7904 370.3617 371.9212 372.1187 372.3805
   373.3926 373.8831 374.3203 375.2850 375.4740 376.2404 376.3160 376.4116
   377.2269 378.8371 379.3953 379.6299 380.5296 380.6652 381.0127 381.2040
   381.8487 382.4986 383.0433 383.8494 385.0503 385.3332 385.7638 386.3424
   386.6647 386.7044 386.9848 388.1441 388.2880 389.0351 389.3341 389.5425
   389.8178 390.1994 390.3495 390.6928 390.7672 391.6769 391.7164 391.9830
   392.3769 392.9226 393.4266 393.6056 394.2009 394.9501 395.6150 395.7190
   396.7162 397.7453 398.0795 398.2750 399.1254 399.2626 399.6332 400.0217
   400.7096 401.3665 401.8245 403.2205 404.0875 404.0989 404.9705 405.9314
   406.3322 406.4223 406.8080 407.0633 407.1791 407.9377 408.5349 409.0007
   409.6398 410.0477 410.2961 410.7098 411.0092 411.2898 411.5285 413.7859
   414.3982 414.7088 415.2915 415.6331 415.7659 415.8782 416.2996 417.0868
   417.7211 417.9658 418.9021 419.4583 419.5793 420.2872 421.2122 422.0732
   422.2699 422.9908 423.0065 424.6358 424.8726 425.2770 425.4436 425.4723
   425.6184 426.0323 426.1187 426.2899 426.8953 427.2512 427.8408 428.5530
   430.0227 431.6809 431.7413 431.9462 432.7555 434.2117 434.4312 435.0541
   435.3424 435.4028 435.9611 436.3938 436.5826 436.8032 437.2603 437.9701
   438.4408 440.2589 440.6706 440.7967 442.0741 442.2073 442.3801 442.8826
   442.9476 443.1991 443.3325 444.2446 444.3574 445.1835 445.3432 446.1387
[...]
   382.0849 382.9193 383.4868 383.8720 384.1534 384.6107 384.7780 385.4578
   385.5318 386.6137 386.9647 387.2994 387.5328 388.5232 389.0242 389.9935
   390.5390 390.9743 391.1582 391.6350 392.9146 393.4602 393.6844 393.8977
   394.2381 394.3149 394.3890 394.8694 395.1905 395.5244 396.3770 397.1125
   397.6922 398.2493 399.7815 399.8689 400.4481 401.9464 402.7086 402.8102
   403.2321 405.2590 405.8329 405.8654 406.0482 406.5006 406.6630 406.9412
   407.8982 408.1466 408.6352 409.1561 409.2691 409.5282 410.1260 410.2592
   410.4961 410.7645 411.3896 411.4309 411.6269 411.9942 412.2531 412.3956
   412.7773 413.0785 413.5848 414.8225 414.8347 417.6528 417.7882 418.8271
   419.5771 420.6441 420.7453 422.7803 423.1266 423.5532 423.7715 424.4487
   424.4525 424.5610 425.0892 425.3539 427.0133 427.3885 428.3827 428.5531
   429.2470 429.4316 430.4422 430.5171 430.6695 430.8073 431.7566 431.9845
   432.8202 433.0201 433.8790 434.1367 434.3016 434.5666 434.6432 434.7904
   435.0421 435.4508 435.8320 435.9221 436.9695 437.1951 437.5795 437.8597
   438.3073 439.0847 439.3598 440.6921 440.7900 440.9599 441.1142 441.3693
   442.5006 442.7759 443.4995 443.5888 443.7839 444.1051 444.8166 445.0840
   445.6158 446.3708 446.5440 446.7743 446.8264 447.9864 448.0177 448.1204
   448.5534 449.1023 450.0343 450.1941 450.2932 451.7217 452.0978 452.8422
   453.1009 453.1772 453.4834 453.9544 455.1816 455.3759 455.6206 455.6934
   455.8566 456.0543 456.5118 457.3037 457.5283 457.7833 457.9034 458.2501
   458.7252 458.7906 459.3759 459.4629 459.7801 461.1439 461.6519 462.0055
   462.0621 463.5752 464.2957 465.0829 465.5962 465.7802 465.8346 465.9504
   467.7698 468.3127 468.5691 468.8636 469.1404 469.7798 471.6059 472.3960
   473.1455 473.1821 473.3148 473.3918 473.6347 473.9672 473.9872 475.5101
   475.8129 476.0683 476.3481 476.4322 476.9277 477.2866 478.9761 479.1612
   479.4877 479.8986 481.0347 481.3747 481.9261 481.9946 483.2441 483.3646
   484.2017 485.5313 485.6230 485.9383 485.9510 486.5798 487.0457 487.5787
   488.6175 488.6956 489.8478 490.0132 491.1557 491.6302 491.7928 492.0941
   492.2886 492.6230 493.1614 493.8507 494.6234 495.0813 495.4922 495.5050
   495.6393 496.5205 496.5573 498.0633 498.3421 498.3963 498.7014 499.4600
   499.7672 500.4407 502.3956 502.4713 503.1527 504.0802 504.2604 504.7215
   506.8748 506.8820 506.9876 507.4620 507.9865 508.7380 510.2448 510.9976
   511.0803 511.3760 511.7917 513.6791 515.2814 515.3345 515.4749 516.0067
   516.0541 516.8713 516.9893 517.3039 517.8779 517.9384 518.0674 518.6696
   520.0191 520.5822 520.5963 520.8950 521.0128 521.1459 521.4115 522.6757
   523.1499 523.6382 524.1354 524.3038 524.4698 524.7098 524.8142 524.8392
   524.9128 525.8135 526.2673 526.2900 526.3658 526.4332 527.1711 527.3266
   527.8381 528.4094 528.5051 529.1884 530.7331 531.6000 532.5877 533.1067
   533.1865 533.5952 534.3461 534.4896 535.0843 535.1012 535.3232 535.4719
   536.1253 536.5038 537.1973 537.6587 537.9016 538.1176 538.4159 538.6224
   538.6546 538.9053 539.1279 539.9046 540.4012 540.6552 541.7072 542.2702
   542.5186 543.1192 543.3079 543.5629 543.8686 543.9675 544.0761 544.1514
   544.4095 545.5342 546.1140 546.4829 546.9125 547.3464 547.8245 547.9761
   548.1073 549.1587 549.2018 550.1729 551.4496 552.6132 554.5486 555.0217
   555.2845 555.6859 555.9206 556.0352 556.2874 556.4900 556.5937 556.9029
   557.0258 557.4028 559.1728 559.2051 559.8096 560.2426 560.2850 560.6643
   560.9657 561.1924 561.3907 561.5529 561.5859 561.8364 561.9123 563.0021
   563.6407 563.8993 564.1912 564.2553 564.9266 565.5567 565.7036 565.7308
   565.8172 565.9802 567.4371 567.6004 568.5353 568.8924 569.7110 570.1089
   570.3199 570.9627 572.0462 572.2428 572.3958 572.4263 572.4488 572.5191
   572.8620 573.0128 573.8618 573.9279 574.4070 574.7979 576.5755 577.0114
   577.0732 578.0699 578.2152 578.8660 579.0094 579.2574 579.7189 580.0457
   580.0927 580.2125 580.4192 581.3484 581.5655 582.3220 582.6882 583.2568
   583.2929 583.4628 585.2537 585.8337 587.1103 587.2089 587.4533 587.6465
   587.7578 587.9515 588.0290 589.1532 589.7415 589.8349 589.8732 590.1751
   590.4448 590.6975 591.0853 591.2665 591.2785 591.9641 592.4852 592.7515
   592.7955 592.9431 592.9978 593.0109 595.6338 595.8808 596.4218 596.7191
   597.1193 597.1669 599.9290 600.0579 600.1837 600.4692 600.6707 602.0217
   602.2653 603.1311 603.2606 603.7502 604.1494 604.5518 604.5740 604.9814
   605.1094 605.4279 605.5584 606.7573 606.9399 607.9873 608.1067 608.6415
   608.9893 609.1647 610.8700 610.9271 611.3673 611.9084 611.9165 612.1985
   612.3800 613.0465 613.1987 613.3217 613.5117 614.0600 614.5556 614.5946
   614.7939 615.2553 615.2729 615.6926 615.8900 615.9376 616.1871 616.7256
   617.5405 617.7719 619.0440 619.1468 619.1868 619.2710 619.2791 620.4919
   620.5042 621.0713 622.0534 622.1386 623.8354 623.9889 623.9951 624.5797
   624.5962 624.9389 625.2113 625.3327 625.3456 625.7510 625.8191 625.9462
   626.1301 626.8768 627.2600 627.2907 628.7451 628.9084 629.8140 630.2529
   630.3174 631.3590 631.8169 631.8249 631.8937 632.0040 632.6419 633.1090
   633.5000 633.8768 633.9912 634.0812 635.7656 635.9449 636.0094 636.3720
   636.6463 636.7592 637.3804 637.4857 638.1375 638.3105 638.3232 638.8532
   639.3666 639.6436 641.5404 641.5676 641.6481 641.6954 642.4779 642.7404
   643.3333 643.4756 643.5462 643.6567 644.0226 644.0285 644.9413 645.7255
   645.7412 646.1717 646.9962 647.1495 648.0994 648.1010 648.7118 648.9563
   650.2576 650.6426 650.7006 650.8732 651.9575 652.0486 653.3686 653.6269
   653.7259 654.1612 654.9841 655.7015 655.7101 656.3091 656.5587 656.7396
   656.8583 656.8905 657.2477 657.3393 657.4011 659.2271 659.7164 660.1088
   660.4700 660.8786 661.5803 661.6938 661.9297 661.9630 663.2740 663.9836
   664.3625 664.8089 664.9711 665.3287 665.4299 666.0502 666.7844 667.5424
   668.3727 668.8340 669.2161 669.3120 669.3607 669.4856 669.5339 669.6518
   670.7303 670.7512 670.9783 671.4089 673.2245 673.3293 674.5953 674.8151
   676.3333 676.4726 676.5980 676.8190 677.1111 677.3129 677.3155 677.8205
   677.8571 678.1558 678.4185 678.4589 678.4854 678.6697 678.7654 678.7753
   679.3098 679.4408 679.9521 680.0494 681.4674 681.4921 681.9570 682.2384
   684.9456 685.0092 686.2953 686.7504 686.7915 686.8231 687.0214 687.1208
   688.1365 688.3388 688.8868 689.4224 689.6134 689.6626 691.4058 691.4338
   691.5494 691.6063 691.8070 692.0450 693.2581 693.7627 693.9979 694.0739
   694.1845 694.6775 694.7218 694.8148 695.0803 695.1210 695.5792 695.8979
   695.9732 697.1776 697.6756 697.8426 699.0054 699.0118 699.3305 699.9345
   699.9389 700.0485 700.1358 701.6141 702.8445 703.3565 704.6351 704.7280
   705.4257 706.2320 706.2859 706.8102 706.9677 707.1413 707.7579 707.7707

          k =-0.3333-1.0000 0.0000 (  3612 PWs)   bands (ev):

   -29.7655 -11.1708 -11.0393 -10.9862  -7.1876   6.5625   6.7114   6.9682
    12.8031  15.4306  16.0959  17.2754  17.4443  20.6816  21.4921  23.2455
    25.1858  28.5517  30.7931  35.0122  36.3542  38.4961  38.6960  40.2576
    42.1282  42.3298  42.9252  43.9030  45.5229  46.9410  47.6848  48.2712
    53.2046  54.1069  55.0650  55.7998  57.1588  62.1562  62.5463  62.8603
    65.2718  67.0705  68.1408  68.3590  69.1220  72.0127  72.4423  72.7694
    74.9257  75.7103  77.6787  77.8942  78.9412  79.7457  80.8922  81.5107
    81.9976  85.0166  85.4683  88.4073  88.7752  89.3958  90.8772  91.3455
    92.9114  93.1687  93.2131  94.6645  95.5917  95.7714  96.9132  98.0298
    98.2374 101.3327 101.9117 103.1310 105.4610 105.8828 106.0135 106.0917
   108.7157 109.7781 109.8951 110.8666 112.0311 114.0114 114.2737 114.3086
   116.2972 116.5930 116.6537 117.6742 118.0723 120.2737 120.5571 120.6228
   121.3158 122.0993 122.6304 122.9607 124.7568 125.5401 126.4095 127.6837
   128.7029 128.8611 129.9920 130.0445 131.3325 136.2089 136.4044 139.2208
   139.5046 141.3379 142.2269 143.3647 145.0960 145.6033 145.6234 146.2502
   147.7476 149.6744 149.9894 151.0733 151.9232 153.1180 154.1787 154.6495
   154.6554 154.9658 155.1741 155.4121 156.3264 158.0987 158.8478 159.1973
   160.0634 160.2800 162.5641 163.9624 164.7656 165.0244 166.0913 167.4702
   167.7700 168.5253 169.3966 169.6923 170.5795 170.9534 171.0235 172.0440
   173.0768 173.2206 173.3280 173.6370 174.3762 174.4954 175.2235 176.6770
   176.6982 178.4677 179.8547 180.2437 180.6470 180.9948 181.5954 182.5010
   182.5079 183.7973 184.3433 184.4840 187.2779 187.5077 188.0623 189.3568
   189.6632 190.0364 191.2443 192.3614 192.6912 193.1940 195.2714 195.5757
   195.8700 196.8453 197.0880 197.0957 197.4411 197.8364 198.9846 199.6281
   199.7123 200.3370 201.2086 201.5436 201.7572 202.1220 202.2008 203.4784
   203.8506 204.2487 204.7234 205.5160 207.4991 209.4475 212.2862 212.7957
   213.6246 214.4525 215.2593 215.6437 216.7705 217.1006 217.7148 219.4975
   219.7467 220.4222 220.5545 220.5797 220.7307 222.1062 224.6457 225.9490
   226.1648 228.5829 229.3792 229.5488 230.0606 230.1882 230.2721 230.3971
   231.2700 231.5189 231.6289 232.2786 232.4819 235.1695 236.8543 237.3766
   237.8925 238.7800 239.5378 239.8427 240.3396 240.5244 240.7736 241.7136
   242.1911 242.6390 244.3656 244.4270 245.4057 245.5974 247.0549 247.3830
   249.4195 249.9921 250.6306 251.5130 251.8728 252.3488 252.9882 253.6562
   254.7876 254.9944 255.1612 255.4477 255.9753 257.3520 257.6778 258.3888
   258.4771 259.1844 259.9211 261.5319 261.8359 263.0704 263.8650 264.5272
   264.7541 264.9996 265.0609 266.1681 267.5357 269.4422 269.6012 269.7262
   269.9965 272.1516 272.6757 273.5687 273.6406 273.6659 274.3247 274.5608
   274.6725 275.3272 275.3652 276.3773 278.0110 278.3318 279.6070 279.9041
   279.9967 280.2186 280.9926 281.6469 282.4749 282.6009 283.2687 283.5159
   283.7904 285.2912 285.3957 285.6442 286.2830 286.2976 287.0455 288.0370
   288.1079 288.8167 289.0447 289.1720 289.3840 289.7773 292.0110 293.0633
   293.7716 294.0279 294.2386 294.6665 294.7810 295.3904 295.4451 296.2497
   296.4450 296.8185 297.4907 297.6365 297.7702 299.2005 299.5152 300.9257
   301.1865 301.7030 303.6388 303.7057 304.2411 304.5274 304.5732 304.8436
   305.5111 305.6687 306.1437 306.2185 306.8079 307.2895 307.7585 308.5439
   308.6227 309.3845 309.5305 310.4088 310.8692 312.0200 313.0084 313.0468
   313.3987 314.5489 317.7412 317.8230 318.1024 318.9007 319.4788 321.2114
   321.4274 321.8166 322.2201 322.8734 323.0119 324.2250 324.8302 325.0794
   325.0831 325.8397 325.9367 328.6332 328.6670 328.7073 328.8531 329.0207
   329.4739 330.6411 331.7971 333.4047 333.6356 333.9212 335.2708 336.2361
   336.9847 337.3481 337.3896 338.0366 338.6625 338.8514 339.0294 339.5442
   339.5447 339.8220 339.8978 339.9578 340.8472 341.2983 342.2058 342.2107
   343.0294 343.4656 343.8316 344.8881 346.4327 346.6108 347.5750 348.1207
   348.2190 348.5212 352.0388 352.5140 352.8041 353.1481 353.1831 354.8069
   356.4397 357.7497 357.9682 358.3761 358.6875 358.7898 358.7996 359.1773
   359.5906 359.8388 359.8484 360.9309 361.0914 361.1785 361.5084 361.7444
   363.4067 364.0051 364.3260 365.0544 365.5492 366.0302 367.5324 368.2592
   368.3765 368.3773 369.1797 369.9294 370.0355 370.2822 371.0335 371.7304
   371.8387 372.2975 373.0359 373.2988 373.3565 373.7207 374.4546 374.8801
   375.2908 375.4412 377.2598 379.1291 379.5824 381.1239 381.1560 381.4926
   381.5184 381.9120 383.1028 383.3520 383.8464 384.1472 384.7104 384.8092
   385.4252 386.1530 386.4928 386.8386 387.5672 387.5782 388.0744 388.8084
   388.9851 389.9215 391.3570 391.5525 391.8269 392.4244 392.4875 395.0369
   398.5934 398.8172 399.1801 399.4271 399.5725 400.1590 401.1399 401.3216
   401.6995 402.1225 402.5163 402.7764 403.0733 403.8907 404.1721 404.6457
   404.8075 405.2228 405.3728 406.1396 407.5055 407.6355 407.6602 408.4610
   409.5830 409.8857 410.0029 410.2810 410.3268 411.5950 411.7631 411.8632
   411.9535 413.5377 413.9237 414.1028 414.4853 414.8162 415.4101 415.6944
   415.8454 417.7999 418.1846 418.2264 418.9396 418.9431 418.9792 419.1209
   419.1232 420.0602 421.8648 422.0170 423.5370 423.6518 424.5548 424.7046
   425.4852 425.5582 425.9323 426.0400 426.2315 426.5059 426.7786 426.8671
   427.0094 427.1387 427.3537 427.6037 428.4324 428.8869 429.0565 429.1388
   429.6254 430.3401 430.5397 431.0108 431.5438 431.5683 431.6420 432.3786
   433.0797 433.1259 434.1927 434.3760 434.3910 435.2518 435.3318 435.9490
   435.9838 436.3543 436.4738 437.0047 437.5869 438.4688 438.7690 439.1952
   439.6306 440.4166 440.4879 440.7461 443.1931 443.6349 443.9827 444.1466
   444.2711 444.7511 445.1047 445.2460 446.1964 446.6339 446.7312 446.9551
   447.1475 447.1930 448.5571 448.5972 448.9606 449.8900 449.9694 451.9316
   452.3436 452.6183 452.7088 453.3639 454.2059 455.8459 456.8111 457.2668
   457.3585 458.5725 459.7130 459.9943 460.2736 460.6434 460.6625 461.8093
   462.0260 462.0879 462.3130 462.6337 462.7949 462.9291 463.0662 463.3604
   463.4143 463.6320 463.7098 464.8455 466.3916 466.9079 467.4452 467.5385
   467.7968 468.4919 468.8131 469.0794 469.1890 469.4333 469.8299 470.7545
   471.4426 471.4778 471.6181 472.1505 472.4141 472.5089 472.7567 473.1252
   473.4737 473.5276 473.7158 474.8740 477.9168 478.1862 478.9030 479.0028
   479.6072 480.8692 481.4267 481.4507 482.0720 482.1470 482.2221 482.7066
   482.9824 483.0181 483.2724 483.2938 483.8831 486.0426 486.4100 486.5341
   487.6612 487.8092 488.6102 488.7256 488.7543 488.9071 489.5958 489.7894
   490.4532 492.3491 492.4613 493.5088 493.7676 494.4481 495.0013 495.0051
   496.0585 497.0080 497.1608 497.5263 500.0740 500.4219 500.5870 500.6972
   501.5131 501.8631 503.2410 503.6018 504.2410 504.5712 504.9234 504.9253
   505.1181 505.2109 505.2259 506.1592 506.7985 507.1749 507.7163 507.7534
   507.8267 510.0673 510.0780 510.1594 510.6379 511.2528 511.9983 512.5133
   512.5496 514.2857 514.5051 515.3632 515.6494 515.8989 516.0355 516.7092
   516.8765 518.6284 520.0145 520.1471 520.3557 520.7494 522.0106 522.2935
   522.4370 523.7998 524.4296 524.4551 524.4866 525.1414 528.5238 528.7351
   529.8810 530.3565 530.6134 531.4765 531.7673 531.8120 531.9088 532.3767
   532.7354 533.8605 534.0775 534.1083 534.1292 534.1527 535.0694 535.2616
   535.7459 536.3617 537.3847 538.5093 538.6300 538.9561 539.0268 539.2669
   539.4019 539.6898 539.8152 540.1441 540.2966 540.3288 540.6032 540.8344
   541.8726 542.7037 543.0045 543.7119 544.0628 544.0792 544.1689 544.2884
   544.3824 545.2972 545.8401 546.4357 546.9331 547.1345 547.4351 547.4549
   547.8933 548.3793 548.4281 548.4316 548.6923 548.9947 549.0556 549.3967
   549.4473 549.5918 549.6523 549.6641 549.9743 550.0570 550.1866 550.8933
   552.5993 552.6230 553.5475 554.3371 556.1192 556.2254 556.5711 556.6050
   556.6906 556.7799 557.5783 559.2631 559.8728 559.9885 560.0675 560.2159
   560.3257 560.4043 561.2081 561.2395 561.5558 561.5651 561.5865 562.0230
   562.0985 563.9913 564.0377 565.4554 565.9548 566.0743 566.1275 566.4314
   566.4686 566.4877 566.5444 566.7889 567.1600 567.1683 567.2550 567.2873
   567.2914 567.7141 568.1626 568.5586 568.5594 569.7092 570.4789 571.0113
   571.1535 571.5495 571.7461 572.9636 574.0049 574.4807 574.6563 574.9728
   575.0496 575.3308 575.3586 575.6041 576.4242 577.0665 577.1492 577.4991
   578.5327 579.4323 582.5032 582.6674 582.7496 583.1235 584.0125 584.0516
   584.0645 584.1412 587.0329 587.4718 587.6244 587.7274 588.0041 588.7173
   588.8436 589.1288 589.4717 589.4914 589.6964 591.1235 591.6003 591.6541
   592.0545 592.1732 592.2541 592.2746 592.3880 592.5996 592.8497 593.1650
   593.6773 594.6147 595.2256 595.3230 595.3602 595.3809 596.1707 596.8131
   598.0969 598.1131 598.4659 598.8205 598.8415 598.9220 599.0852 599.2858
   599.6943 599.7979 599.8521 600.0654 600.3735 600.4875 601.0504 601.2845
   601.7234 601.7639 602.7022 606.1037 606.6640 607.4144 607.6324 607.7212
   607.7649 608.4664 608.7828 609.0361 609.1681 609.1933 609.6651 609.7031
   609.7486 609.8433 610.4477 610.5793 610.8375 610.8961 610.9448 611.7941
   612.2430 612.4084 612.7440 612.9508 617.3228 618.1596 618.4262 618.9172
   619.2425 619.8035 620.3105 620.6622 620.7045 620.8518 620.8760 620.9676
   620.9930 621.0552 621.6275 621.6565 621.8748 622.1990 622.4641 623.8820
   624.0951 624.8063 625.4377 625.5116 625.5832 625.7550 625.9631 626.3439
   626.3583 626.7848 628.2264 628.4858 628.6496 628.6675 630.0987 630.6661
   632.0479 632.1072 633.7283 634.9922 635.0051 635.0884 635.1076 635.1268
   635.5723 635.6310 636.0066 636.0834 636.1122 636.1601 636.4423 637.3517
   637.5795 638.0133 638.5132 639.2241 639.4965 639.5406 639.6814 639.7187
   640.0391 640.3117 640.5511 641.6079 642.9895 643.0212 643.3843 643.3936
   643.4321 643.5136 643.5796 643.7346 645.1976 645.3488 645.5094 645.6658
   645.7999 645.8042 645.8314 645.8321 646.0050 646.2346 646.3064 646.5189
   646.5354 646.6055 647.1675 647.5518 650.8389 651.1016 651.3563 651.6482
   655.4056 655.5147 655.6016 655.6332 656.2131 656.2476 657.8693 657.9742
   658.9144 659.0245 659.6435 660.0021 660.0556 660.2640 660.3745 660.7912
   660.8057 660.8068 660.8736 661.3122 661.7631 661.7964 661.8007 661.9026
   665.7864 666.0143 666.4692 666.6795 668.2586 668.6921 668.7431 668.7771
   668.9078 669.2003 669.2693 669.3453 669.4900 669.7812 670.0278 670.3961
   671.2339 671.2464 671.2530 671.3183 671.5414 671.7298 671.7370 672.5102
   672.9297 673.0799 673.1204 673.3868 674.7643 674.7716 676.8999 676.9613
   678.3390 678.5758 678.7402 679.0895 679.2799 679.4166 679.4224 679.5112
   679.5706 679.6159 679.6351 679.6570 681.2860 681.7737 682.3724 682.3760
   682.5023 682.7784 684.4184 687.2359 687.5121 687.6295 687.8546 688.6549
   688.7563 689.1675 689.3147 689.3443 689.4035 689.4105 689.8849 690.2175
   690.6978 690.7067 690.7468 690.7721 691.5429 691.5484 692.1861 692.7679
   692.7956 692.7974 692.8118 695.3682 695.4362 695.4937 695.5112 697.0236
   697.9533 698.1778 698.3073 699.5809 699.7577 700.0279 700.9808 701.1190
   702.5376 702.9914 703.1885 703.3782 703.5520 704.6109 705.4037 705.4298
   705.5840 705.6513 706.4699 706.5969 707.2041 707.2213 708.0489 708.3585

     the Fermi energy is    10.5760 ev
     (compare with:     9.5506 eV, computed in scf)

     Writing all to output data dir out/mp-2605.save/
 
     init_run     :      0.03s CPU      0.07s WALL (       1 calls)
     electrons    :    734.60s CPU    780.79s WALL (       1 calls)

     Called by init_run:
     wfcinit      :      0.00s CPU      0.00s WALL (       1 calls)
     potinit      :      0.01s CPU      0.01s WALL (       1 calls)
     hinit0       :      0.01s CPU      0.04s WALL (       1 calls)

     Called by electrons:
     c_bands      :    734.60s CPU    780.76s WALL (       1 calls)
     v_of_rho     :      0.00s CPU      0.00s WALL (       1 calls)

     Called by c_bands:
     init_us_2    :      0.00s CPU      0.00s WALL (       8 calls)
     init_us_2:cp :      0.00s CPU      0.00s WALL (       8 calls)
     cegterg      :    676.51s CPU    718.12s WALL (       8 calls)

     Called by *egterg:
     cdiaghg      :    635.30s CPU    675.60s WALL (      84 calls)
     h_psi        :     11.87s CPU     12.34s WALL (      92 calls)
     g_psi        :      0.08s CPU      0.08s WALL (      76 calls)

     Called by h_psi:
     h_psi:calbec :      0.20s CPU      0.21s WALL (      92 calls)
     vloc_psi     :     11.37s CPU     11.82s WALL (      92 calls)
     add_vuspsi   :      0.14s CPU      0.14s WALL (      92 calls)

     General routines
     calbec       :      0.20s CPU      0.21s WALL (      92 calls)
     fft          :      0.00s CPU      0.03s WALL (      10 calls)
     fftw         :     10.39s CPU     10.81s WALL (  115602 calls)
 
     Parallel routines
 
     PWSCF        :  12m15.43s CPU  13m 2.29s WALL

 
   This run was terminated on:  15:37:32  19Nov2023            

=------------------------------------------------------------------------------=
   JOB DONE.
=------------------------------------------------------------------------------=
