
     Program PWSCF v.7.1 starts on 19Nov2023 at 13: 6:42 

     This program is part of the open-source Quantum ESPRESSO suite
     for quantum simulation of materials; please cite
         "P. Giannozzi et al., J. Phys.:Condens. Matter 21 395502 (2009);
         "P. Giannozzi et al., J. Phys.:Condens. Matter 29 465901 (2017);
         "P. Giannozzi et al., J. Chem. Phys. 152 154105 (2020);
          URL http://www.quantum-espresso.org", 
     in publications or presentations arising from this work. More details at
     http://www.quantum-espresso.org/quote

     Parallel version (MPI), running on     8 processors

     MPI processes distributed on     1 nodes
     123617 MiB available memory on the printing compute node when the environment starts
 
     Reading input from pw_mp-2605_nscf_k60_E109.in
Warning: card &IONS ignored
Warning: card / ignored
Warning: card &CELL ignored
Warning: card / ignored

     Current dimensions of program PWSCF are:
     Max number of different atomic species (ntypx) = 10
     Max number of k-points (npk) =  40000
     Max angular momentum in pseudopotentials (lmaxx) =  4

     Atomic positions and unit cell read from directory:
     out/mp-2605.save/
     Atomic positions from file used, from input discarded
 
 
     R & G space division:  proc/nbgrp/npool/nimage =       8
     Subspace diagonalization in iterative solution of the eigenvalue problem:
     one sub-group per band group will be used
     scalapack distributed-memory algorithm (size of sub-group:  2*  2 procs)

 
     Parallelization info
     --------------------
     sticks:   dense  smooth     PW     G-vecs:    dense   smooth      PW
     Min         154     154     45                 3593     3593     558
     Max         155     155     46                 3597     3597     560
     Sum        1237    1237    361                28763    28763    4477
 
     Using Slab Decomposition
 


     bravais-lattice index     =            2
     lattice parameter (alat)  =       9.0841  a.u.
     unit-cell volume          =     187.4084 (a.u.)^3
     number of atoms/cell      =            2
     number of atomic types    =            2
     number of electrons       =        16.00
     number of Kohn-Sham states=         1200
     kinetic-energy cutoff     =     109.0000  Ry
     charge density cutoff     =     436.0000  Ry
     Exchange-correlation= PBE
                           (   1   4   3   4   0   0   0)

     celldm(1)=   9.084123  celldm(2)=   0.000000  celldm(3)=   0.000000
     celldm(4)=   0.000000  celldm(5)=   0.000000  celldm(6)=   0.000000

     crystal axes: (cart. coord. in units of alat)
               a(1) = (  -0.500000   0.000000   0.500000 )  
               a(2) = (   0.000000   0.500000   0.500000 )  
               a(3) = (  -0.500000   0.500000   0.000000 )  

     reciprocal axes: (cart. coord. in units 2 pi/alat)
               b(1) = ( -1.000000 -1.000000  1.000000 )  
               b(2) = (  1.000000  1.000000  1.000000 )  
               b(3) = ( -1.000000  1.000000 -1.000000 )  


     PseudoPot. # 1 for Ca read from file:
     /usr/scratch4/magr4985/MG/HTDF/pseudo/SG15/Ca.upf
     MD5 check sum: b43c970dc090f2312d256360aabdb6f1
     Pseudo is Norm-conserving, Zval = 10.0
     Generated using ONCVPSP code by D. R. Hamann
     Using radial grid of  602 points,  6 beta functions with: 
                l(1) =   0
                l(2) =   0
                l(3) =   1
                l(4) =   1
                l(5) =   2
                l(6) =   2

     PseudoPot. # 2 for O  read from file:
     /usr/scratch4/magr4985/MG/HTDF/pseudo/SG15/O.upf
     MD5 check sum: e36c48deb68f4e355fffe4602be2c42c
     Pseudo is Norm-conserving, Zval =  6.0
     Generated using ONCVPSP code by D. R. Hamann
     Using radial grid of  602 points,  4 beta functions with: 
                l(1) =   0
                l(2) =   0
                l(3) =   1
                l(4) =   1

     atomic species   valence    mass     pseudopotential
        Ca            10.00    40.07800     Ca( 1.00)
        O              6.00    15.99940     O ( 1.00)

     48 Sym. Ops., with inversion, found



   Cartesian axes

     site n.     atom                  positions (alat units)
         1           Ca  tau(   1) = (   0.0000000   0.0000000   0.0000000  )
         2           O   tau(   2) = (  -0.5000000   0.5000000   0.5000000  )

     number of k points=     8  Gaussian smearing, width (Ry)=  0.0005
                       cart. coord. in units 2pi/alat
        k(    1) = (   0.0000000   0.0000000   0.0000000), wk =   0.0312500
        k(    2) = (  -0.2500000   0.2500000  -0.2500000), wk =   0.2500000
        k(    3) = (   0.5000000  -0.5000000   0.5000000), wk =   0.1250000
        k(    4) = (   0.0000000   0.5000000   0.0000000), wk =   0.1875000
        k(    5) = (   0.7500000  -0.2500000   0.7500000), wk =   0.7500000
        k(    6) = (   0.5000000   0.0000000   0.5000000), wk =   0.3750000
        k(    7) = (   0.0000000  -1.0000000   0.0000000), wk =   0.0937500
        k(    8) = (  -0.5000000  -1.0000000   0.0000000), wk =   0.1875000

     Dense  grid:    28763 G-vectors     FFT dimensions: (  45,  45,  45)

     Estimated max dynamical RAM per process >     178.45 MB

     Estimated total dynamical RAM >       1.39 GB

     The potential is recalculated from file :
     out/mp-2605.save/charge-density

     Starting wfcs are random

     Band Structure Calculation
     Davidson diagonalization with overlap

     ethr =  5.00E-06,  avg # of iterations =  7.9

     total cpu time spent up to now is     1142.6 secs

     End of band structure calculation

          k = 0.0000 0.0000 0.0000 (  3647 PWs)   bands (ev):

   -29.8980 -10.6674 -10.6674 -10.6674  -7.7092   7.7796   7.7796   7.7796
    12.5114  13.9961  13.9961  13.9961  15.4923  15.4923  22.8660  30.1844
    30.1844  30.1844  35.2391  35.2391  35.2391  35.7437  35.7437  35.9197
    35.9197  35.9197  44.5078  49.9039  49.9039  49.9039  53.1494  53.1494
    55.8513  55.8513  55.8513  57.0827  67.0298  67.0298  67.0298  68.4095
    68.6414  68.6414  68.6414  69.2835  69.2835  69.2835  70.5945  70.5945
    70.5945  71.5454  71.5454  71.5454  74.2886  74.2886  74.2886  74.4115
    74.4115  75.8181  76.4394  77.0849  77.0849  86.5835  86.5835  86.5835
    86.6022  86.6022  86.6022  99.5940  99.5940  99.5940 100.1159 104.9750
   104.9750 110.6803 110.6803 110.6803 114.0516 114.0516 114.0516 117.3610
   117.3610 117.3610 118.5541 119.1923 119.4148 119.4148 121.4920 121.4920
   121.4920 123.3434 123.3434 123.3434 124.3839 124.3839 124.3839 124.4229
   124.4229 124.4229 124.5830 124.5830 125.2937 125.2937 125.2937 126.4916
   126.4916 126.4916 128.2268 128.2268 128.4892 129.4601 129.4601 129.4601
   130.2986 135.5968 135.5968 138.1159 138.1159 138.1159 142.3083 142.3083
   142.3083 146.9359 148.2172 148.2172 148.2172 153.0816 153.0816 153.0816
   153.4570 153.4570 153.5379 153.5379 153.5379 153.6935 153.6935 153.6935
   153.7240 153.7240 153.7240 153.7793 153.7793 155.2713 159.0327 159.0327
   159.0327 167.0349 167.5907 167.5907 167.5907 170.2727 171.8680 171.8680
   171.8680 172.1554 172.1554 172.1554 172.8712 172.8712 172.8712 173.0299
   173.0299 173.0299 175.3322 177.7122 177.7122 177.7723 177.7723 177.7723
   177.8473 182.2917 182.2917 182.2917 184.5196 184.5196 190.1869 190.1869
   190.1869 200.5750 200.5750 200.5750 200.7627 200.7627 200.7627 206.1169
   206.1169 206.1169 206.2064 206.2064 206.5054 215.0651 215.0651 215.0651
   215.0795 215.0795 217.6040 217.6040 217.6040 218.3846 218.3846 218.3846
   219.3994 219.3994 219.3994 220.2431 220.2431 220.2431 220.9486 220.9486
   221.7398 222.0822 222.0822 222.0822 223.0067 224.4491 224.4491 224.4491
   224.6339 224.6339 224.6746 224.6746 224.6746 225.4866 225.9119 225.9119
   225.9119 226.2792 226.2792 226.2792 226.3259 227.9601 227.9601 227.9601
   227.9645 228.2822 228.2822 228.6406 228.6406 228.6406 229.3874 229.3874
   229.3874 229.8374 231.7066 231.7066 231.7095 231.7095 231.7095 231.9156
   231.9156 231.9156 232.4430 232.4430 232.4430 232.7557 232.7557 232.7557
   232.7853 232.7853 234.9334 244.7398 244.7398 246.7420 246.7420 246.7420
   249.4382 249.4382 249.4382 253.1956 253.1956 253.1956 253.5821 253.5821
   253.5821 253.9043 253.9043 253.9043 258.4625 258.7580 258.7580 258.8764
   258.8764 258.8764 258.9421 261.0988 261.0988 261.0988 264.4953 264.4953
   264.4953 269.5439 271.5295 271.5295 275.3169 275.9779 275.9779 275.9779
   276.2717 276.2717 276.3020 276.3020 276.3020 276.4034 276.4034 276.4034
   276.5190 276.5190 276.5190 278.0598 278.0598 278.0598 278.8228 278.8228
   278.8228 280.7162 280.7162 281.2600 282.2554 282.2554 282.2554 282.3392
   282.3392 282.3392 282.3731 282.3731 282.3731 282.5453 282.5453 282.5968
   282.5968 282.5968 286.7011 294.9410 294.9410 297.6016 297.6016 297.6016
   300.6539 300.6539 300.6539 306.5534 307.1437 307.1437 307.1437 308.7192
   310.1368 310.1368 310.1368 317.7754 317.9853 317.9853 318.4395 318.4395
   318.4395 319.5315 319.5315 319.5315 322.2140 322.2140 322.2140 323.3805
   325.5606 325.5606 325.5606 326.6607 326.6607 327.0452 327.0452 327.0452
   327.7755 327.7755 327.7755 327.8660 327.8660 327.8660 328.1518 328.1518
   328.1518 329.3486 329.3486 329.3486 330.5485 330.5485 330.5485 330.5818
   330.8970 330.8970 330.9172 330.9172 330.9172 330.9506 330.9506 330.9506
   333.2955 333.2955 333.8243 333.8243 333.8335 333.8335 333.8335 333.8367
   334.1467 334.1467 334.1467 334.3750 334.3750 334.3750 334.4503 334.4503
   334.4503 334.4945 339.2414 349.5591 349.5591 349.5591 350.2659 350.2659
   350.2659 353.9786 354.3812 354.3812 357.1576 357.1576 357.1576 357.2965
   357.2965 357.2965 357.5047 357.5047 357.5070 357.5070 357.5070 357.6715
   357.6715 357.6715 359.6886 361.6765 361.6765 361.6765 361.7079 361.7079
   361.7311 361.7311 361.7311 361.7352 361.7352 361.7920 361.7920 361.7920
   361.8175 361.8175 361.8175 362.0797 362.0797 362.0797 363.4122 363.4590
   363.4590 363.4590 363.5054 363.5054 363.5054 363.5512 364.0163 364.0163
   364.0163 365.1777 365.1777 371.5639 371.5639 371.5639 372.1646 372.4572
   372.4572 372.4572 373.2088 373.2088 373.2088 374.9505 374.9505 374.9505
   375.4849 375.7724 375.7724 375.7724 376.2094 376.2094 376.4955 376.4955
   376.4955 376.9461 380.4257 380.4257 380.7553 380.7553 380.7553 381.1377
   381.1377 381.1377 381.1455 381.1455 381.1455 381.4541 381.4541 381.4541
   381.4832 381.4832 381.8065 382.1180 382.1180 382.1180 382.1829 382.1829
   383.9721 383.9721 383.9721 384.0012 384.0012 384.0012 384.0943 384.0943
   384.0943 384.1489 384.1489 384.1489 384.3508 385.2868 385.3357 385.3357
   385.3357 385.3453 385.3453 398.8017 398.8017 400.3051 400.3051 400.3051
   409.5757 420.4136 420.4136 420.4136 425.4063 425.4063 425.4063 427.8138
   427.8138 429.5699 429.5699 429.5699 429.9828 429.9828 430.3818 430.3862
   430.3862 430.3862 430.4288 430.4288 430.4288 430.5214 430.5214 430.5214
   430.6001 430.6001 430.6001 430.7207 430.7207 430.7207 430.7400 430.7400
   430.8718 431.2776 432.4446 432.4446 432.4446 433.3598 435.1934 435.1934
   435.1934 435.4299 435.4299 435.4299 435.4636 435.4636 435.4636 435.7598
   435.7598 435.7598 439.6424 439.6424 439.7303 439.7303 439.7303 439.7439
   439.7439 439.7439 439.7785 439.7785 439.7785 439.8699 439.8699 439.8921
   439.8921 439.8921 440.9409 440.9409 440.9761 440.9761 440.9761 440.9979
   442.2353 455.9264 455.9264 455.9264 457.5279 457.5279 457.5279 458.6634
   458.6634 460.1099 460.1099 460.1099 461.3460 462.1891 462.1891 462.1891
   463.6040 463.6040 463.8182 463.8551 463.8551 463.8551 463.9769 463.9769
   463.9780 463.9780 463.9780 464.0304 464.0304 464.0304 464.0614 464.0614
   464.0614 464.1348 464.1348 464.1348 466.2888 468.5239 468.5239 468.5239
   470.0063 470.0063 470.0063 471.5500 471.5500 472.9311 472.9311 472.9311
   480.3549 480.3549 480.6247 480.7146 480.7146 480.7146 480.8274 480.8274
   480.8274 480.9710 480.9710 480.9710 481.1056 481.2287 481.4019 481.4019
   481.4019 481.7714 481.7714 481.7714 484.0119 484.5767 484.5767 484.5966
   484.5966 484.5966 484.6151 484.6151 484.6151 484.6939 484.6939 484.6939
   484.9109 487.7395 487.7395 487.7395 488.3960 488.3960 488.3960 488.4596
   488.4596 488.5335 488.5335 488.5335 488.5371 488.5479 488.5479 488.5479
   488.6072 488.6072 488.6072 489.2500 489.2500 489.5733 489.5733 489.5733
   490.3646 490.6601 490.6601 490.6601 490.8463 490.8463 490.8463 491.0559
   491.0559 491.0559 491.0926 491.0926 493.8928 505.8109 505.8109 505.8109
   511.2449 511.2449 512.7450 512.7450 512.7450 513.3899 513.3899 513.3899
   513.4182 513.4182 513.4182 513.8007 513.8007 513.8007 513.9772 513.9772
   514.2894 514.2894 514.2894 514.3939 516.1548 516.1548 516.7774 518.0801
   518.0801 518.0801 523.3096 526.9778 526.9778 526.9778 527.5619 527.5619
   527.5619 529.0274 532.2073 532.2073 532.4018 532.4018 532.4018 532.4469
   532.4469 532.4469 532.6438 532.6438 532.6438 532.6478 532.6478 532.6478
   532.7117 532.7117 533.7893 535.7323 535.7323 535.7323 535.8732 535.8732
   535.8732 535.9407 535.9407 535.9407 535.9508 535.9508 535.9508 536.6663
   536.6663 536.6663 536.6938 536.6938 536.7434 536.7434 536.7434 536.8618
   536.8618 536.8998 536.8998 536.8998 536.9477 536.9477 536.9477 537.6318
   537.6318 537.6318 538.1403 538.1403 538.1403 538.4325 538.5300 538.5300
   538.5300 538.6486 538.6486 538.6486 538.6852 538.7835 539.4962 539.4962
   539.7861 539.7861 539.7861 539.9603 539.9603 539.9603 539.9637 539.9637
   539.9637 539.9772 539.9772 540.0495 540.0495 540.0495 542.0775 542.0920
   542.0920 542.0920 542.1000 542.1000 544.4067 544.4067 544.4067 544.4249
   544.4249 544.4272 544.4272 544.4272 544.4420 544.4420 544.4420 544.4637
   544.4637 544.4815 544.4815 544.4815 544.8689 544.8689 544.8689 544.8705
   544.8776 544.8776 544.8776 544.8970 546.1735 559.7116 559.7116 559.7116
   561.2249 561.2249 561.2249 561.6344 564.8109 569.5883 569.5883 569.5883
   569.5930 569.5930 569.6509 569.6509 569.6509 569.7232 569.7232 569.7232
   569.8293 569.8293 569.8293 569.8562 569.8562 574.5816 574.5816 574.5816
   576.9432 576.9432 580.5127 580.5127 580.5127 580.6892 580.6892 580.6892
   580.8807 580.8807 580.8807 580.9379 580.9379 580.9379 583.9711 584.5871
   584.5871 584.6178 584.6178 584.6178 584.7414 589.5102 589.5396 589.5396
   589.5442 589.5442 589.5442 592.0909 592.0909 592.0909 592.0914 592.0914
   592.0914 592.1030 592.1030 592.1030 592.1036 592.1036 592.1036 593.4756
   593.4756 593.4756 593.4767 593.4767 593.4819 612.5104 612.5104 612.5104
   618.3740 618.3740 618.3740 618.7942 618.8271 618.8271 619.1119 619.1119
   619.1119 619.1175 619.1175 619.1175 619.2490 619.2490 619.2490 619.2743
   619.2743 619.2743 619.3683 619.3683 620.2970 624.2383 624.2383 624.2383
   629.8734 629.8734 629.8734 631.3661 631.3661 631.4820 631.4820 631.4820
   631.8169 632.3344 632.6068 632.6068 632.6068 632.6124 632.6124 632.6124
   634.7725 634.9509 634.9509 634.9509 635.4487 635.4487 637.3426 637.3426
   637.3426 637.7277 637.7277 637.7277 638.2703 638.2703 638.2703 638.6018
   638.6018 638.7763 638.7763 638.7763 639.3714 639.3714 639.3714 639.6137
   639.6137 639.6316 640.1412 640.1412 640.1412 640.3465 640.4887 640.4887
   640.5726 640.5911 640.5911 640.5911 640.8802 640.8802 640.8802 640.9988
   640.9988 640.9988 641.7341 641.7341 641.7652 641.7652 641.7652 641.9263
   641.9263 641.9263 641.9421 641.9421 641.9421 642.0201 642.0201 642.0201
   642.0620 642.0620 643.2822 643.2822 643.2930 643.2930 643.2930 643.3006
   643.3116 643.3116 643.3116 643.3157 643.3157 643.3157 645.6989 646.5474
   646.5566 646.5566 646.5934 646.5934 646.5934 646.6051 646.6051 646.6051
   646.6386 646.6386 646.6386 663.5687 663.5687 663.5687 665.7926 665.7926
   667.6502 668.3114 668.3114 668.3114 668.7152 668.7152 668.7152 669.0991
   669.1796 669.1796 669.1796 669.3642 669.3642 669.3642 669.4516 669.4516
   669.4516 669.5957 669.5957 669.6407 669.6407 669.6407 669.8359 669.8359
   669.8359 669.9997 669.9997 670.1944 670.1944 670.1944 670.4104 670.4104
   670.4104 670.5913 670.5913 670.5913 671.5229 673.8408 673.8408 673.8408
   673.8619 673.8619 673.8619 673.9091 673.9091 673.9145 673.9145 673.9145
   673.9898 674.0882 674.0882 674.0912 674.1449 674.1449 674.1449 674.1548
   674.1548 674.1548 674.2153 674.2153 674.2153 675.2936 675.2936 675.3084
   675.3084 675.3084 675.3316 681.0851 681.0851 681.0851 683.9175 683.9175
   683.9175 684.2433 684.2433 684.2482 684.2482 684.2482 685.5774 685.5774
   685.5774 685.7152 685.7152 685.7152 685.7659 685.7659 686.0428 686.0428
   686.0428 686.2848 687.4739 689.7109 690.1249 690.1249 690.1249 690.3688
   690.3688 690.3688 690.9549 690.9549 691.0015 691.0015 691.0015 691.5957
   691.5957 691.5957 691.7737 691.7737 691.7737 691.8798 691.8798 691.8798
   691.9141 691.9141 691.9951 695.7384 695.7384 695.7569 695.7569 695.7569
   695.8438 695.8438 695.8438 695.8777 695.8777 695.8777 695.9041 695.9128

          k =-0.2500 0.2500-0.2500 (  3602 PWs)   bands (ev):

   -29.8475 -11.2857 -10.6941 -10.6941  -7.0540   6.2542   7.1228   7.1228
    14.0288  14.6425  14.9448  14.9448  16.7333  16.7333  23.7091  27.6934
    27.6934  28.6696  32.9357  32.9357  33.4437  35.7360  35.7360  37.3693
    40.7855  40.7855  45.9314  45.9314  48.7244  50.9859  52.4296  54.4595
    54.4595  57.6165  57.6165  58.0539  60.0274  61.6047  61.7751  61.7751
    64.4418  64.4418  65.3977  67.2412  67.2412  67.8821  70.9109  72.6466
    72.6466  73.5102  73.5102  77.0449  78.0715  78.0715  78.5737  79.4759
    79.4759  80.8164  83.9890  85.1562  85.1562  85.2560  87.5177  87.5177
    89.0975  89.0975  92.6492  94.6961  98.7660  98.7660 100.1340 100.1340
   102.2350 103.4209 103.4209 105.7070 108.5192 108.5192 108.8822 108.8822
   109.4501 112.5835 112.9633 112.9633 114.3289 117.1044 117.1044 117.2074
   120.0717 120.0717 121.1518 122.0953 122.5272 122.5272 122.6052 124.8061
   126.4127 126.4127 126.9050 127.8342 127.8342 127.9129 129.0545 129.0545
   131.9595 131.9595 132.9140 133.0543 133.0543 134.2957 135.2692 135.2692
   139.2555 140.1264 140.1264 140.9127 141.4891 141.4891 142.0665 142.7287
   143.9949 143.9949 145.1538 146.4418 146.4418 148.4397 148.4397 149.1643
   150.4954 152.2973 152.2973 153.0133 153.0133 153.0879 153.8061 153.8061
   155.0890 155.0890 155.3363 157.0377 160.2832 160.2832 161.1716 162.8676
   163.5760 163.5760 164.0474 164.6233 164.6233 166.2835 167.0585 167.0585
   167.9542 170.4991 170.4991 171.5651 173.3836 175.7920 175.7920 179.7675
   179.7675 180.4760 182.8025 182.8025 182.8385 184.5557 184.5557 186.4198
   187.5826 187.5826 189.2087 189.2087 189.3885 190.9328 192.0680 192.0680
   194.7765 194.7765 195.6782 196.4532 197.6226 197.6226 198.3396 198.3396
   199.3369 199.3369 200.5303 201.1377 201.4925 201.7418 201.7418 203.3353
   203.7372 203.7372 204.5234 204.7253 205.9350 205.9350 208.7392 208.7392
   208.7905 208.7905 210.2352 211.8377 212.3227 216.0906 216.0906 218.4026
   218.4026 218.7743 219.7600 219.7600 220.4339 221.5434 221.5434 222.3292
   223.4482 224.0753 224.0753 224.3908 224.9609 224.9609 225.7646 225.7646
   225.9433 227.5519 227.5641 227.5641 227.6880 230.2085 230.2085 230.6524
   231.0572 231.0572 231.3694 232.9867 232.9867 233.5033 233.5033 235.6995
   235.8139 236.0842 236.0842 236.7992 237.3179 239.2713 239.2713 239.5818
   239.5818 239.6416 239.7757 240.6621 240.6621 242.1332 242.1332 244.4383
   244.4383 244.8827 245.8953 246.3352 246.3352 247.4672 248.6107 249.2247
   249.2247 251.0484 251.0484 251.2922 251.4095 251.4095 252.5209 254.1075
   254.1075 255.0428 256.9001 256.9001 258.2461 258.4085 258.4085 258.4718
   260.6078 260.6078 261.0373 263.4745 263.4745 263.5842 264.2793 264.2793
   264.7386 265.4471 265.4471 265.9671 268.7503 268.7503 269.8135 270.0441
   270.8629 271.3525 271.3525 272.6979 272.6979 274.2294 274.2821 274.2821
   275.2543 275.2543 277.1926 278.5692 280.1651 280.1651 282.9042 282.9042
   283.8913 284.5060 284.5060 284.6665 285.5631 288.3637 288.3637 289.5451
   289.5451 290.5217 292.0516 292.0516 293.1177 293.1239 293.1239 294.0671
   294.1554 295.6072 296.8237 296.8237 298.3532 298.3532 299.6986 300.8654
   300.8654 301.9000 301.9000 302.0342 302.7051 302.7051 303.0722 303.1400
   303.9624 304.0527 304.0527 305.3441 305.3441 306.1459 306.5446 309.1139
   309.1139 311.0243 312.3214 312.3214 313.8312 313.8312 314.2938 314.9048
   315.7974 315.7974 316.7488 316.7488 318.3297 318.6038 318.6038 319.1617
   319.1617 319.6910 321.3959 321.4125 321.4125 324.1697 324.1697 324.9250
   324.9250 325.1158 325.6787 325.8154 327.8898 327.8898 328.1991 330.5909
   330.5909 331.9597 332.4501 332.4501 332.9588 333.0755 333.2305 333.2305
   333.7687 333.7687 336.1377 336.1377 336.3408 336.3858 337.8520 337.8520
   339.2029 339.2029 339.3720 339.6397 340.6816 340.6816 341.4042 342.0612
   342.0612 343.5617 345.8199 346.1632 346.4998 346.4998 347.8867 347.8867
   348.3290 348.3363 348.3554 348.3554 349.6908 349.6908 350.6533 350.6533
   351.7445 351.9383 352.0466 352.0466 352.4199 352.4199 352.8865 353.0796
   354.6766 354.6766 356.3372 356.5793 356.5793 356.8299 356.8299 357.2960
   358.6449 358.8885 359.2663 359.2663 360.0694 360.0694 360.6233 360.6609
   360.6609 361.4253 361.4253 361.6325 362.4350 362.4350 362.4791 363.2743
   363.2743 363.4024 364.4518 365.3884 365.6294 365.6294 367.2398 367.2398
   367.7129 367.7129 368.0303 368.8936 370.1958 370.1958 371.3254 372.6466
   372.6466 372.7053 372.7053 372.8159 372.9420 373.0215 373.0215 373.5636
   373.9632 373.9632 374.6398 374.6934 374.6934 378.3798 381.3561 381.3561
   383.5662 383.5662 384.0787 384.7740 384.7740 385.4165 386.1914 386.4565
   388.3396 388.9336 388.9336 389.0670 389.0670 389.3098 389.3098 389.3551
   389.4603 392.0541 392.0541 392.2598 393.5898 395.2091 395.2091 396.8661
   396.8661 397.1192 397.1192 397.1326 398.2994 398.2994 398.6763 399.9083
   400.7734 400.7734 401.8952 401.8952 402.5142 402.5142 403.5811 403.9880
   405.2060 405.2060 405.4927 405.4927 405.6875 406.4831 406.9265 406.9265
   407.6300 407.6300 407.7667 408.5695 408.5695 409.1994 409.8895 411.4415
   411.4415 413.3250 413.9492 413.9492 415.5234 416.4603 416.4603 417.3452
   418.6526 419.7742 419.7742 419.9546 419.9868 420.1705 420.1705 421.1958
   421.1958 421.3135 421.4044 421.4044 421.5763 424.4134 424.4134 424.8720
   424.9218 424.9218 426.4999 426.4999 428.0514 428.5048 428.5048 428.7634
   431.3514 431.3514 431.7701 432.9589 432.9589 434.4703 434.8368 434.8368
   435.8130 437.4516 438.5091 438.5091 439.1566 439.1566 439.3865 439.5923
   440.5681 440.5681 441.6263 441.6263 442.0057 442.8300 444.6804 444.6804
   445.7977 449.0285 449.0285 449.0860 450.4547 450.4547 451.7903 451.7903
   451.8420 451.9357 452.1317 452.1317 453.3236 453.3236 453.9927 453.9927
   454.3160 454.3565 455.0183 455.0183 455.1211 456.1365 457.5588 457.5588
   457.9427 458.4293 458.4293 459.4081 459.8919 459.8919 459.9793 460.4436
   460.4436 460.5446 461.1573 461.1573 461.5767 463.9017 463.9017 464.0877
   466.3641 466.3641 467.6921 467.6921 467.7927 469.6652 469.7257 469.7257
   471.0566 471.7923 472.1696 472.1696 472.3498 473.6846 473.6846 474.4358
   474.4358 475.5510 475.9153 475.9153 476.3397 477.2587 478.1658 478.1658
   479.1178 480.7577 480.7577 480.8256 481.7756 481.7756 481.8529 482.8574
   483.4122 483.4122 483.8695 483.8695 484.0693 484.0913 484.0913 484.2699
   484.7319 484.7319 485.5359 485.5359 485.5827 486.0824 486.2330 486.2330
   486.9780 486.9780 488.5309 489.5275 489.5275 490.7624 490.7624 491.2053
   491.2053 491.2694 491.4779 493.1195 493.8120 494.9265 494.9265 495.3319
   495.3772 495.3772 495.4944 495.4944 495.5485 495.8845 495.8845 497.7297
   497.7297 497.8137 498.0504 499.5058 499.5058 499.6473 499.6473 499.8463
   500.1638 500.1638 500.2343 500.4944 501.2847 501.2847 501.9369 501.9369
   502.2247 502.3642 503.1328 503.1328 503.2493 503.8950 503.8950 505.5390
   506.3393 506.3393 506.4979 507.4791 507.5067 507.5067 507.8428 507.8428
   507.9783 508.3715 509.0021 509.0021 510.5131 511.0844 511.0844 511.2555
   511.4393 511.4393 514.9292 516.6329 516.6329 516.6953 518.2468 518.2468
   518.9570 518.9570 519.5648 519.5648 519.7420 519.7481 519.7610 519.7610
   519.9449 522.1895 522.1895 522.5320 523.2565 523.2565 524.4077 524.4077
   524.4665 524.9874 525.9398 525.9398 526.8153 527.2986 527.2986 527.9880
   527.9880 528.0678 528.4055 529.9459 529.9459 530.0543 530.6447 530.6447
   530.9544 531.2625 533.1821 533.1821 533.7492 534.8221 534.8221 534.9604
   535.3962 535.4372 535.4372 536.4032 536.4032 536.5491 538.0631 538.0631
   538.1019 538.9787 538.9787 539.9348 540.3245 540.3245 541.3027 541.8504
   541.8504 541.9539 544.0611 544.0611 544.6727 544.6727 544.8572 547.4992
   547.6050 547.6050 549.2521 551.1698 551.1698 551.8762 551.9751 552.1801
   552.1801 552.3930 552.3930 552.4735 552.9154 552.9154 553.1535 553.5264
   553.5264 553.8864 553.8864 554.0713 554.0713 554.1265 554.1826 554.6481
   554.6746 554.6746 555.4912 557.9697 557.9697 558.0260 560.1671 560.1671
   561.0883 561.5336 561.5336 562.0807 562.1475 562.1475 563.3008 563.3529
   563.3529 563.4480 563.5835 563.5835 563.7132 564.8623 564.9767 564.9767
   566.4166 566.4901 566.4901 567.7145 567.7145 567.7682 568.0530 568.3089
   568.3089 572.4406 572.4406 572.6550 574.0645 574.9608 574.9608 575.2243
   575.2243 575.3724 576.0266 576.0266 576.0336 576.6688 576.6693 576.6693
   576.9866 577.7757 577.7757 578.2263 579.7440 582.4686 582.4686 583.9623
   583.9623 584.0102 584.3772 585.1066 585.1066 585.6351 585.6351 586.9094
   587.1869 587.1869 587.4134 587.4134 588.0404 590.4055 590.4055 591.2247
   591.3312 591.3312 592.1077 592.1658 592.1658 593.6646 594.2568 594.2568
   594.4126 595.0689 595.0689 595.3175 595.8935 595.8935 595.9139 597.1940
   597.1940 599.2853 599.6055 599.6055 600.5942 601.9521 601.9521 602.1864
   603.1255 603.1255 603.2694 604.7564 604.7564 606.8914 609.1044 609.1044
   610.2322 610.6581 610.9224 610.9224 612.0250 612.0250 612.7277 613.1441
   613.1441 613.2161 613.7383 613.7383 613.8920 615.0172 618.1801 618.9264
   618.9264 619.3973 619.3973 619.8308 619.8308 619.8472 619.9170 620.0019
   620.0019 620.2009 620.2009 620.3072 621.2870 621.8083 621.8083 622.0297
   623.0888 623.0888 623.2703 623.2703 623.3956 627.0465 627.0465 629.0445
   630.1284 630.1284 630.2154 630.2154 630.3584 630.9059 631.2111 631.2111
   631.4416 631.4416 631.6251 631.7124 631.7124 631.7313 631.8973 632.0528
   632.0528 632.1264 634.0524 634.1365 634.1365 634.4506 634.5920 634.5920
   634.6055 635.2668 635.2668 636.0994 636.0994 636.1335 636.2907 636.2907
   637.0522 637.0572 637.0572 639.2435 639.7379 640.4091 640.4091 640.6072
   640.7438 640.7438 640.7964 642.8834 642.8834 642.9981 644.2407 644.2407
   645.1849 645.1849 645.2013 645.2946 645.9408 645.9408 646.3880 646.3880
   646.4446 646.5835 648.0295 648.0295 648.0579 648.3189 648.3189 648.6914
   649.2291 649.2291 650.2084 651.4240 651.4240 651.4395 651.5878 651.5878
   651.7348 651.8566 651.8566 652.3298 652.4937 652.4937 652.5360 654.3740
   654.4382 654.4382 656.8501 656.8574 656.8574 659.7897 659.7897 659.8047
   660.1408 660.1408 660.1767 660.2496 660.2496 661.0576 664.7214 664.7214
   664.9062 666.0654 666.3732 666.3732 667.0680 667.0680 667.0898 668.0320
   668.0320 668.7338 669.6179 669.6179 669.7854 670.7021 670.7689 670.7689
   671.9111 671.9111 672.2630 672.2630 672.3542 672.4169 672.5786 672.6055
   672.6055 672.6654 672.6654 672.6848 672.7471 672.7471 673.5479 673.8034
   673.8034 673.8676 673.8676 673.8898 673.8936 677.0470 677.4694 677.4694
   677.9502 677.9502 678.4029 679.7567 679.7567 679.8751 681.4087 682.3236
   682.3236 682.6640 682.8025 682.8025 682.8281 684.3731 684.3731 684.6393
   684.8777 684.8777 684.8873 685.5160 685.5160 686.3721 686.3739 686.3739
   686.4850 686.4850 686.5116 686.5116 686.5170 686.5614 687.1889 688.3876
   688.8339 688.8339 689.7864 689.7864 690.8787 690.9641 690.9641 691.0174
   691.0582 691.0582 691.7784 693.2483 693.2483 693.2550 694.3624 694.3624
   695.3369 695.3369 695.3508 697.1965 697.9599 697.9599 698.0098 698.0098
   698.2623 698.5909 698.5909 698.9678 699.7122 699.7122 699.7195 701.6624
   701.6624 701.7307 702.3579 702.3579 702.3979 702.4164 702.4164 702.8683

          k = 0.5000-0.5000 0.5000 (  3600 PWs)   bands (ev):

   -29.7964 -11.7600 -10.7205 -10.7205  -6.5362   5.1537   6.5851   6.5851
    14.8126  16.1039  16.1039  16.2927  18.1590  18.1590  21.9919  24.7363
    24.7363  29.9153  31.9807  33.8129  33.8129  34.4063  34.4063  41.3381
    44.6369  44.6369  44.8727  45.1936  45.1936  50.6264  50.6264  51.9133
    53.0113  54.6133  54.6133  56.9275  57.1718  60.7869  62.5738  62.5738
    64.8401  65.2524  65.2524  66.6135  68.1006  68.1006  70.5616  71.0952
    71.0952  75.3474  76.8578  76.8578  80.3138  81.0732  81.0732  85.3817
    86.8668  86.8668  87.7956  87.7956  88.5829  88.5829  90.9185  90.9185
    91.5922  92.9378  92.9378  92.9967  94.0582  94.0885  94.8432  96.6077
    96.6077 101.4251 103.1989 103.1989 104.2448 106.6201 106.6201 106.7349
   106.7349 107.3743 107.3743 110.6209 110.6209 114.0459 114.3102 117.1865
   117.1865 117.2173 118.5668 120.2478 121.4534 121.4534 121.9075 122.1670
   122.1670 124.8166 128.2124 128.2124 128.4606 129.4417 131.2587 131.2587
   132.3235 132.5832 132.5832 133.6559 135.2327 136.0940 136.0940 138.8518
   138.8518 141.0090 141.3396 141.3396 142.5812 142.5812 142.8108 142.8108
   143.7754 145.1647 145.9422 148.1521 148.9085 148.9085 149.2486 152.2052
   152.2052 154.5786 154.5786 155.6020 156.4798 156.4798 158.0072 158.0072
   158.3583 158.4375 160.1788 160.1788 160.3982 162.1207 163.5428 164.2165
   164.2165 164.4659 164.4659 167.1126 169.8284 169.8284 169.8674 169.8674
   171.8423 171.8463 171.8825 171.8825 172.6415 172.6415 174.2687 174.2687
   180.1079 180.1079 180.1757 180.6895 180.6895 181.2159 184.5063 184.5063
   184.7236 184.7236 184.7418 184.8827 186.2959 186.2959 186.6159 189.4161
   192.3336 193.0717 193.0717 194.5661 196.3749 197.4787 197.4787 200.1537
   200.1537 201.0924 201.0924 201.4543 202.7679 203.0569 203.7710 203.7710
   205.3184 205.9302 205.9302 207.0725 207.0725 207.6895 208.4483 208.4483
   209.2461 209.2461 209.3104 209.5712 209.8159 209.8159 210.2041 210.2041
   211.2389 212.0996 216.2388 216.2388 217.4279 219.4831 219.7695 219.7695
   221.1179 221.1179 221.4569 222.3052 222.3599 222.3599 222.8359 223.0675
   223.0675 223.4939 223.4939 224.8230 225.0308 225.0308 227.7322 227.7322
   228.8282 229.3348 229.3348 230.6933 231.5772 233.5761 233.5923 233.5923
   234.2487 234.2487 234.2897 235.8636 241.9285 242.5161 242.5161 242.6980
   242.6980 243.3163 244.4216 244.8362 244.8362 246.8544 246.8544 247.1566
   247.4567 247.5921 247.5921 248.7974 248.7974 250.0853 250.2075 250.2075
   250.3854 250.5981 250.5981 250.7235 252.6663 254.1071 255.5210 255.5210
   255.5841 256.0153 256.0153 262.8763 262.8763 263.2351 263.2351 266.4517
   267.4022 267.4022 267.6648 269.1863 269.1863 271.6101 272.8981 272.8981
   273.4550 273.4583 273.4583 273.5224 273.6326 273.6326 273.7631 273.7631
   273.9516 273.9516 274.0047 274.1717 274.1753 276.8746 277.4983 278.5118
   278.5118 282.4321 282.9969 282.9969 284.0325 284.0325 284.1783 284.5914
   285.2181 285.2181 285.2880 285.2880 285.4685 285.4685 285.6541 285.6541
   285.7956 286.8672 287.0563 287.0563 287.0774 287.5276 288.0333 289.0999
   289.0999 289.1445 289.1445 290.6734 290.6735 294.9699 299.5790 299.5790
   299.8311 299.8311 300.7641 300.8846 300.8846 301.2333 301.2859 301.2859
   303.7785 303.7785 304.4366 304.4366 304.4811 305.0213 305.0213 307.7384
   307.7384 308.7068 309.1795 309.1795 310.6160 312.3943 312.3943 312.4604
   312.4604 312.5006 312.7170 312.7284 313.7782 313.7782 313.9400 314.0984
   315.2641 315.2641 315.7627 317.8487 317.8487 318.6882 318.6882 319.8867
   322.9393 322.9393 323.6320 324.1443 325.1477 325.1477 325.6215 325.6215
   326.0098 326.0098 326.1054 326.6271 326.8327 326.8327 326.9867 328.9489
   334.3030 334.6574 334.6574 335.4913 335.4913 336.9123 336.9123 337.7585
   337.8130 337.8254 337.8254 337.9248 338.5229 338.5229 339.1143 339.7841
   339.7841 340.3213 340.5084 343.7074 343.7074 344.4828 344.4828 345.1272
   345.5325 347.4586 347.4586 348.2470 348.9945 349.3342 349.5346 349.5346
   349.9143 349.9143 350.4930 350.4930 350.5607 350.5607 350.9323 352.5116
   353.3762 353.3762 354.3296 354.3296 355.3932 355.6124 355.6124 359.2427
   359.2427 360.3133 360.6859 361.2992 361.2992 362.3307 362.7025 362.7025
   363.2099 363.5255 363.5255 365.1027 365.2825 365.2825 365.3800 365.3800
   365.6500 366.9211 368.4551 368.4752 368.4752 368.4905 368.4905 368.5641
   371.3208 372.3813 372.3813 374.8291 374.8291 376.5088 376.5088 376.9596
   377.7534 377.7534 378.0333 378.0343 381.5698 381.7871 381.7871 383.4724
   384.8962 384.8962 386.1890 386.1890 386.3339 388.8222 388.8222 388.9290
   389.2724 389.2724 389.4741 390.0768 390.0768 390.1399 390.1802 391.3240
   391.7429 391.8766 391.8766 391.9811 391.9811 392.0941 392.7380 392.7380
   392.9801 395.7782 395.7782 396.3188 396.3188 397.6764 397.6994 397.6994
   398.2424 398.2424 398.7071 399.6460 399.6460 399.8267 400.8483 402.0448
   402.8397 402.8673 403.3507 403.3923 403.3923 403.4144 403.4144 403.6657
   403.6657 403.7949 403.7949 404.0307 404.0307 404.1433 404.1861 404.1861
   404.2055 405.4762 405.4762 405.6187 405.6525 405.6525 405.7907 409.3041
   414.4314 414.4314 415.2198 415.5330 415.5330 415.8368 415.9815 415.9815
   416.8084 417.1150 417.1150 417.1156 417.1156 417.4629 417.4629 417.4704
   417.5645 418.9314 418.9539 418.9539 419.1344 419.1344 419.1479 419.1495
   426.2643 426.2643 426.5833 428.2823 428.6384 428.6384 428.9284 428.9284
   428.9965 429.1633 429.1633 430.7405 432.0582 435.9055 435.9055 436.0318
   437.5181 438.8893 438.8893 438.9089 438.9089 440.1289 440.1289 440.2785
   440.2785 440.5436 440.5457 440.5457 440.7840 440.7840 440.8192 440.8262
   441.9127 442.0200 442.0200 444.4925 444.4925 444.5392 444.5392 444.8990
   446.2981 446.2982 448.0925 448.0925 450.0461 453.0942 453.4461 453.4461
   453.9083 453.9083 453.9435 454.3268 454.3268 454.3782 454.3782 455.9286
   457.9358 458.5736 458.5736 458.5934 458.5934 458.8280 458.8284 459.1516
   459.1516 460.8501 460.8501 461.0642 462.7071 462.7350 462.7350 462.7550
   462.8547 464.1827 464.4673 464.4673 466.0707 466.1924 466.1924 470.5906
   470.5906 470.6532 470.6532 471.5861 475.9801 475.9801 476.9308 476.9573
   476.9573 478.1083 478.1083 478.7590 478.8381 478.8381 478.9552 479.1247
   479.1247 479.9278 479.9278 479.9674 479.9855 480.0008 480.0008 480.0093
   480.3794 480.4002 480.4002 480.9365 481.2783 481.2783 481.3357 481.3487
   481.3487 481.8101 482.1498 482.2082 482.2082 482.3119 482.3119 482.8525
   482.8525 483.0827 483.1770 483.2751 483.2751 484.2480 484.2480 484.2714
   484.2714 484.2759 484.4391 485.3846 488.8569 488.8569 490.7263 490.7263
   490.8826 492.6031 493.2540 493.2540 493.3450 493.3450 493.3724 493.8677
   495.9609 496.0048 496.0048 496.1836 496.1918 496.1918 498.2710 500.7181
   500.7181 502.5291 502.5291 504.9386 505.4099 505.4099 506.3403 506.3403
   506.4552 506.5125 506.5465 506.5465 506.8746 506.8746 506.9092 506.9891
   507.2028 507.2028 507.4545 507.4545 507.5950 507.6234 508.3686 508.3686
   508.6686 509.0164 509.0164 509.3851 509.3851 509.4850 509.4905 509.4905
   509.5205 511.3534 515.9610 517.3822 517.3822 518.8558 518.9458 518.9458
   519.3490 519.8474 519.8474 519.9781 519.9781 520.8677 520.8677 521.0124
   521.3004 521.3070 521.3070 521.4175 521.4175 521.5699 521.5728 521.6562
   521.6562 522.4256 523.7814 527.9690 529.5069 529.5069 530.7347 530.9368
   530.9368 532.1808 535.0484 535.0484 535.3374 535.3374 535.6202 535.6202
   535.6775 535.6820 535.6820 535.7181 537.5412 537.5412 539.4425 541.6701
   541.6701 541.7232 542.0854 542.0854 542.2270 542.4438 542.4438 543.7535
   544.2116 544.2116 544.2133 544.3241 544.3241 544.6646 544.7088 544.7109
   544.7109 544.9561 544.9561 545.3407 545.4252 546.3724 546.3724 546.5086
   546.5086 548.0141 548.5960 548.5960 548.6468 548.7020 548.7020 548.7368
   549.9088 550.9986 550.9986 552.6476 552.6476 556.1562 558.1023 558.1023
   558.5334 558.5961 558.5961 558.9888 559.3876 559.4463 559.4463 559.8264
   559.8264 559.8531 559.8531 559.9614 559.9614 560.0330 560.0343 561.6971
   562.7389 562.7445 562.7445 562.7559 562.7559 562.7834 569.5018 569.5018
   569.7516 571.1027 571.1643 571.5232 571.5232 571.5259 571.5259 571.9015
   571.9015 571.9717 571.9717 572.0577 572.0577 572.0895 572.1826 572.8984
   573.9495 573.9495 574.4986 575.0956 575.0956 575.3103 575.3108 575.3796
   575.3796 576.3882 576.3882 579.8084 581.6550 582.8431 582.8431 583.7346
   584.5174 584.5174 584.6918 585.0374 585.0536 585.0536 585.1138 585.2774
   585.2774 585.3936 585.3936 585.4227 585.4227 585.5866 585.8716 587.6341
   592.2050 592.2050 592.5154 593.9045 593.9045 594.8998 595.0179 595.0179
   595.0850 595.1875 595.1875 596.0394 596.0394 596.1049 596.1049 596.5468
   596.5474 596.5796 596.5796 596.7947 596.8261 596.9746 596.9746 597.0117
   597.0117 597.0437 597.1313 597.1971 597.1971 598.9139 599.1402 599.1703
   599.2802 599.2802 599.3181 599.3181 600.6592 600.6592 600.6707 600.6707
   600.6707 600.7085 600.7085 600.7147 600.7147 600.7584 600.7646 600.7653
   611.7918 611.7918 611.8924 612.4433 612.4433 612.8012 612.8538 612.8538
   612.8874 612.8874 613.0205 613.0260 613.1926 613.2668 613.3138 613.3138
   613.3666 613.3666 615.8230 615.8230 618.8824 619.2879 619.2879 621.3484
   622.9653 622.9653 623.0148 623.0986 623.0986 623.1161 623.7468 623.7468
   624.2482 624.4334 624.4334 624.5367 624.7500 624.7592 624.7592 624.7780
   624.7780 624.7897 624.9435 624.9435 625.3337 625.3337 625.3881 626.1437
   628.3316 631.8195 631.8195 631.8910 632.0087 632.0264 632.0318 632.0318
   633.3467 633.3467 633.7432 634.2980 634.2980 634.3566 634.3566 634.7522
   635.2247 635.3366 635.3366 635.5630 635.5630 635.5674 635.5674 637.9726
   638.1167 638.3013 638.3013 638.3089 638.3089 638.5702 638.5702 638.6230
   638.6282 638.6282 638.7116 638.7116 638.7553 638.7806 638.7806 638.8542
   638.8823 639.4526 641.3843 641.3843 641.3861 641.3861 642.8956 642.8957
   648.8190 648.8190 649.7983 649.7983 649.8129 650.3342 652.0832 652.2205
   652.2205 652.2785 652.2785 652.4127 655.8022 655.8022 657.2626 659.1820
   659.1820 659.4337 659.8179 660.2839 660.2839 660.3109 660.3109 661.4281
   661.4281 661.5550 661.5550 661.6243 661.7596 661.8154 662.1149 662.1149
   662.1927 662.2115 662.3555 662.3555 662.3724 662.3724 662.5598 662.5598
   662.7377 663.3028 663.8986 663.8986 664.0860 664.0860 664.0956 664.1141
   669.1403 670.7011 674.1037 674.1037 674.8360 675.1586 675.1586 675.1901
   675.4430 675.4430 675.4726 675.4726 675.5086 675.6975 675.6975 675.6999
   675.6999 675.7980 675.8298 676.0360 676.1651 676.1651 676.2509 676.2509
   676.2809 676.2818 676.2909 676.3011 676.3011 676.3293 676.3293 676.4903
   677.7358 677.7358 678.0189 678.0847 678.0847 678.6829 678.6829 678.6911
   678.7190 678.7190 678.7221 678.7221 678.7666 678.7666 678.7843 678.9880
   679.8890 679.8903 679.9050 679.9050 679.9070 679.9070 685.6411 685.6411
   685.6796 686.4580 686.4580 687.3651 691.3996 691.3996 691.4883 691.4883
   691.4923 691.5012 699.0108 699.0108 699.2452 701.5725 701.5725 702.0283
   702.0283 702.0760 702.0760 702.1292 702.1348 702.9529 702.9557 702.9782
   702.9782 702.9783 702.9783 703.0209 703.0209 703.0232 703.0334 703.0334
   703.0416 703.0669 705.6455 705.6455 705.7366 706.7754 706.7754 708.2163

          k = 0.0000 0.5000 0.0000 (  3591 PWs)   bands (ev):

   -29.8316 -11.1731 -10.7799 -10.7799  -7.1888   6.1059   7.4799   7.4799
    12.4844  14.3983  15.8182  15.8182  16.0317  17.7766  25.1365  26.6115
    26.9478  26.9478  32.6369  34.4484  34.8053  35.7053  35.7053  39.5656
    39.5656  40.3586  43.2600  47.4332  47.4332  50.0848  53.8738  54.0179
    54.0179  54.0751  58.1920  59.0780  60.2529  60.2529  63.4774  63.7008
    64.0110  65.0229  65.0229  66.8332  67.3284  67.8734  67.8734  71.8332
    72.1400  73.0251  76.9967  76.9967  78.4004  79.3723  79.3723  80.8511
    80.8511  80.9196  83.4508  83.5188  86.5702  87.9917  87.9917  90.2852
    91.5619  91.5619  94.2004  95.0027  96.6373  97.8167  97.8291  97.8291
   102.9321 104.6318 104.6585 104.6585 104.8960 106.3004 106.3004 106.7586
   109.9450 109.9450 111.2223 112.2999 113.7250 113.7250 116.2801 117.6206
   118.5271 118.5271 118.7056 119.9272 121.3332 125.5007 125.5007 125.9996
   126.9037 127.3511 127.3511 127.5783 128.1143 129.2612 129.6264 129.6264
   131.0636 131.1899 135.2652 135.2652 136.4810 136.6637 138.3583 138.3583
   138.7749 139.3129 139.3129 140.6091 141.7051 142.2819 142.5019 142.5019
   142.6302 143.9454 143.9454 144.2453 145.1006 145.1006 145.7461 146.2001
   146.2268 148.7272 150.3229 150.3229 152.4642 153.1371 153.1371 153.6240
   156.5101 156.8723 158.3111 158.3111 161.9475 164.2305 164.2305 166.3947
   166.4447 167.9057 167.9200 167.9200 169.1993 169.1993 169.5386 170.3281
   172.4268 172.6706 174.8066 174.8066 175.6934 176.2963 176.8494 178.2214
   178.2214 179.5118 179.9338 180.7765 180.7765 182.6204 183.0064 183.0064
   183.7104 184.7099 187.4239 187.5348 187.5348 187.8972 192.0204 193.2521
   193.3211 193.8891 193.8891 194.1447 195.7394 195.7394 196.8348 196.8348
   197.4641 200.6038 200.6038 200.7935 202.2213 202.5220 203.7057 204.1013
   205.2700 205.2700 205.5186 205.8694 205.8694 206.1860 208.1894 208.1894
   209.4379 210.2500 210.3883 210.6812 210.6812 211.6363 211.8842 213.7077
   213.7077 214.0301 216.8669 216.8669 217.4503 217.4503 218.7560 218.8000
   218.8744 218.8744 219.0261 219.1397 220.4030 221.5377 222.4715 222.4715
   227.1469 227.6648 228.3960 228.3960 228.8059 231.3771 231.6697 232.7240
   232.7240 232.8973 233.3910 235.6682 235.6682 236.5837 236.5837 236.5989
   237.9241 240.3307 241.5229 241.5229 241.7769 241.7831 241.7897 241.7897
   242.5533 244.5762 244.5762 244.7362 244.7846 246.3530 247.1215 247.2225
   247.4295 247.4295 247.8705 250.4750 250.4750 250.5667 250.9765 251.7181
   251.8326 251.8326 254.3792 254.4723 254.4723 254.5837 254.5837 254.6756
   255.0230 255.2286 255.4083 255.4083 256.2889 258.0238 258.2114 258.5984
   258.5984 258.8931 258.9048 258.9048 258.9765 259.4759 259.8036 260.1009
   262.4468 262.4468 263.7393 265.7788 266.7735 266.7735 268.2774 268.3959
   268.7438 268.7438 269.5270 270.2768 271.3328 271.3328 271.4928 272.9018
   277.0840 277.0840 279.9170 280.1377 280.1377 281.7201 281.8961 285.0902
   285.0902 286.4422 286.4422 286.6440 286.7470 287.3729 289.8498 289.9083
   292.1200 292.1200 293.0312 293.0312 293.2893 294.2749 294.6055 294.9959
   294.9959 295.0067 295.2137 295.2978 295.2978 297.9078 298.7444 298.7444
   299.2921 299.3685 299.4560 299.7495 299.8111 299.8111 300.0180 301.5817
   303.3143 303.3143 304.0325 306.7174 306.9122 307.3861 307.3861 307.5285
   308.5874 308.5874 309.6437 312.7875 316.2736 317.1611 317.2201 317.2201
   317.4169 317.4169 318.7451 320.3794 320.3794 320.7404 322.2263 323.8318
   323.8318 323.8644 323.8644 323.8908 323.9080 324.3700 324.6930 325.2234
   325.3162 325.6990 325.6990 326.9907 326.9907 330.3467 330.4415 330.5447
   330.5447 332.4354 332.5127 332.5127 332.9326 333.1331 333.9220 334.0877
   334.3100 334.3100 334.6118 334.6118 334.6605 334.6962 335.2143 335.9084
   335.9084 336.1355 336.1355 336.1464 336.1498 336.2619 336.9273 337.4603
   339.5180 339.5681 339.5681 339.6198 339.6879 339.6879 340.0555 341.3116
   341.3116 341.3510 343.0874 346.7324 346.9316 346.9316 346.9352 348.0115
   348.4266 349.3827 349.3827 349.8739 349.8739 350.3977 350.4690 350.9363
   350.9363 350.9989 351.6527 352.9343 353.2361 353.2361 354.8517 355.1388
   356.6102 356.6102 358.1701 358.5879 359.6821 360.9287 360.9287 360.9627
   364.2223 364.4313 364.7847 364.7847 364.8416 364.9582 364.9582 364.9818
   365.0539 368.4765 368.4765 368.9983 369.2955 370.7943 370.9957 370.9957
   371.2420 371.3751 372.1101 372.1101 372.6210 372.6210 372.6586 372.7262
   373.7709 374.7760 374.7760 375.1271 375.6143 375.6143 375.7042 380.0511
   380.9868 382.0933 382.0933 383.9239 384.9314 384.9314 385.1639 385.1639
   386.2239 386.2508 386.4383 386.8082 386.8082 386.8546 387.0148 387.2038
   387.2194 387.2194 387.3936 388.0326 388.0326 388.2158 388.9015 390.5327
   392.3722 392.3722 393.5869 394.7161 396.0197 396.0197 396.5176 397.4463
   397.6927 397.6927 397.7629 397.9844 398.3674 398.3674 398.4274 399.2382
   400.1347 402.1498 402.1498 402.4261 402.5982 402.5982 402.8309 404.6975
   404.7249 404.7282 404.7282 407.0398 407.8758 409.1094 409.1094 409.1671
   410.4938 410.5884 410.5884 411.1958 411.2528 411.5102 411.5102 412.2559
   412.2929 412.2929 412.6419 413.1839 413.4999 413.4999 413.5740 415.1103
   415.3185 415.3185 415.4618 415.5438 415.5972 415.7116 415.7116 416.0280
   418.7272 419.8341 419.8341 421.3371 421.3371 421.6129 422.9492 423.7532
   424.6598 424.6598 425.1421 425.9984 428.5806 429.2161 429.2161 430.3208
   431.0788 431.0788 431.9188 432.4345 435.0302 435.0302 435.2960 436.2941
   436.7471 436.7837 436.7837 438.6006 442.3601 442.5736 442.5736 442.7860
   445.0438 445.1935 445.1935 446.3189 448.0268 448.0268 448.4190 449.2975
   449.8389 449.8389 450.4732 450.5504 450.6186 450.6186 450.9431 451.1879
   451.6674 451.6674 451.7060 451.8166 451.8428 451.8951 451.8951 451.9917
   451.9917 452.0200 452.0302 452.8787 453.1912 453.2075 453.4607 453.4607
   453.4864 453.5323 453.5796 453.5796 455.5451 457.0353 457.0353 457.0679
   457.1169 457.1209 457.4277 457.4277 458.4955 461.1640 461.5380 461.6985
   461.6985 463.2156 463.2156 463.4159 464.0045 465.1527 466.9672 467.0557
   467.0557 467.2803 469.1648 469.1648 470.0540 473.2066 476.3616 476.3616
   476.4717 476.8952 477.1551 477.1551 477.1975 478.0433 478.0775 478.2285
   478.2289 478.2289 478.3992 478.6088 478.6088 478.6958 478.7989 478.8203
   478.8203 478.8672 478.8672 478.9181 478.9608 478.9608 479.4460 480.5986
   484.1569 485.0589 486.3061 486.3061 487.3284 487.3284 487.3958 487.6931
   488.6124 489.0298 489.0298 489.2766 489.2812 489.5310 489.5310 489.7295
   489.9310 490.1256 490.1256 491.6142 491.7613 491.8079 491.8079 491.9541
   493.8548 493.8836 493.8997 493.8997 494.6041 494.6652 494.8479 494.8479
   495.0634 498.9555 498.9555 500.3296 500.4351 501.0338 501.0338 502.8446
   503.0556 503.4338 503.4739 503.5195 503.5195 503.9723 503.9723 504.0352
   504.8297 506.0910 506.0910 508.0672 508.8787 511.0632 511.0632 513.0050
   513.0722 513.9750 513.9750 514.4980 514.8003 515.2417 515.4223 515.4907
   515.4907 515.6114 515.9847 516.0310 516.0310 516.2435 516.9739 517.0459
   517.0459 517.4196 517.4483 517.4483 517.5777 517.6161 517.7120 517.7481
   517.7481 517.8369 518.2685 518.2685 518.3054 519.4073 519.5542 519.5542
   519.6710 520.8371 520.8819 520.8819 520.9019 522.6205 523.4357 523.4357
   524.7735 524.7735 525.0130 525.2846 525.7391 525.8152 525.8152 527.5852
   527.6878 529.1414 529.1414 529.8274 529.8606 529.9708 529.9708 529.9981
   531.0915 531.3703 531.3703 531.4224 531.6907 531.7366 531.7366 531.7453
   532.4439 532.4968 532.4968 532.5768 532.6645 533.3450 533.4382 533.4382
   533.4450 533.6344 534.8662 535.1067 535.1067 535.1718 535.1718 535.3099
   536.5380 538.9367 538.9367 539.4212 540.1880 541.4468 541.4999 541.4999
   541.9452 543.4974 543.4974 543.6477 544.0369 547.7125 547.7556 547.7556
   547.8167 551.7470 551.7470 552.3953 553.0508 554.4569 554.4569 554.9049
   555.0965 555.0990 555.0990 555.2929 555.5835 558.5470 558.5470 558.6487
   558.6796 560.3692 561.7130 561.7130 562.7468 564.7228 566.2984 566.2984
   567.5365 567.7627 567.8474 567.8474 568.0810 568.2121 568.2121 568.2788
   568.4900 568.4900 568.5118 568.6574 568.7976 569.8800 569.8800 570.4797
   570.5717 570.6068 570.8651 570.8651 571.0506 572.7983 572.8442 572.8442
   572.9146 573.9684 577.2749 578.0221 578.0221 579.8506 579.9009 579.9009
   580.0240 580.0661 580.2343 580.4618 580.4618 580.5526 580.6691 581.0948
   581.0948 582.0016 583.0937 584.5152 584.5152 584.5166 584.5408 586.5475
   586.5475 587.2313 587.3222 588.8303 588.8303 589.1756 591.5510 591.5510
   591.8325 591.9375 592.6406 593.5832 593.5832 593.7002 593.8804 593.8820
   593.8820 594.5117 594.5280 594.5280 594.7389 594.8077 594.8543 594.8600
   594.9780 594.9780 595.2469 595.3044 595.3942 595.3942 596.1963 596.2577
   596.2577 596.2612 596.2903 596.2903 597.5008 597.9986 598.0484 598.0484
   598.0792 599.2396 599.2981 599.2981 599.3276 602.2124 602.2798 602.8172
   602.8172 603.3321 603.6770 604.7481 604.7481 605.7223 605.7475 606.1280
   606.2559 606.2559 606.3172 606.3172 606.3963 606.6794 606.6794 606.9380
   608.0701 610.2153 610.3238 610.3238 610.3760 610.4255 610.4255 610.4478
   610.4756 611.8162 612.9287 612.9387 612.9387 612.9517 619.3570 619.3570
   620.6534 620.7962 620.7962 620.8868 620.9225 620.9528 621.2982 621.3471
   621.3471 621.5184 621.5338 621.5338 621.5783 621.6254 626.7097 627.6560
   627.6560 628.7200 629.5090 629.5090 630.0692 630.5722 633.5253 633.5253
   634.5417 634.5920 634.5920 634.6174 634.6935 634.7187 634.8707 634.9484
   635.0088 635.0088 635.6976 635.6976 636.8904 638.5164 638.7423 638.7423
   638.7560 638.8901 639.8414 640.4006 640.4006 640.6521 640.9110 640.9110
   642.4377 644.7851 645.4298 645.9676 645.9676 646.4495 646.4495 646.4705
   646.6364 646.7088 646.7088 646.7553 646.8646 647.0466 647.3750 647.3750
   647.5245 647.6702 647.8811 647.8811 647.9461 647.9781 648.0319 648.0319
   648.0837 648.4526 649.7130 652.2904 652.2904 653.6760 654.3333 654.3333
   654.7308 654.7885 657.8028 657.8028 657.9142 658.3808 658.7336 658.7336
   659.5512 659.5793 659.6100 659.6100 659.6671 659.6810 659.9469 659.9469
   660.0323 660.0907 660.1730 660.1778 660.1778 660.8812 663.0702 663.0879
   663.0879 663.1046 664.8678 664.8719 664.8719 664.8736 667.6845 667.6845
   668.0870 668.8198 670.6227 670.6227 670.7925 670.8641 671.0649 671.0649
   671.5836 672.0270 672.2323 672.6897 672.6897 672.8932 672.8932 672.9285
   672.9718 673.3997 675.3618 675.4019 675.4019 675.4719 677.6049 678.3749
   678.3749 678.5422 679.3987 681.1926 681.1926 682.8436 682.8436 682.8938
   682.9396 683.0521 683.0521 683.1661 683.7002 683.9790 684.0000 684.0000
   684.0619 684.4650 684.5602 684.5945 684.5945 684.7037 684.7973 684.7973
   684.8333 685.0361 685.4163 685.4163 685.5728 685.6960 686.2810 686.7048
   686.7048 686.9728 687.5889 687.5889 687.6635 687.6635 687.6642 687.6655
   687.7384 688.0884 688.4310 688.4465 688.4600 688.4600 688.4743 688.4743
   688.4892 688.5064 690.3784 690.4245 690.4245 690.4432 694.2402 695.3046
   695.3046 695.7277 697.0242 697.0242 697.2618 697.4696 699.4320 699.4973
   699.6074 699.6074 699.9518 699.9518 700.1575 700.4195 700.7776 700.7967
   700.7967 700.8411 701.0892 701.1747 701.1747 701.3018 705.0131 706.8422

          k = 0.7500-0.2500 0.7500 (  3595 PWs)   bands (ev):

   -29.7814 -11.4385 -10.9207 -10.8073  -6.9728   5.9932   6.6984   6.9807
    13.1242  15.6190  16.5891  16.6148  17.3962  19.3346  22.1178  23.9381
    25.5156  28.7733  32.0656  33.0420  35.5937  36.5206  37.1236  41.1748
    41.2158  42.9556  45.0600  45.3540  45.7212  46.1766  49.7150  50.8811
    53.3028  54.9048  55.9342  56.7056  57.5227  60.7180  61.0641  62.6575
    63.3305  66.0267  66.4288  67.6332  69.6884  71.3854  73.4147  73.8997
    74.7481  75.0266  76.1531  77.1262  77.8045  79.8503  80.7202  80.9183
    83.2709  84.9846  86.5198  87.2245  88.4775  88.6101  89.5431  90.6478
    92.6959  92.9880  95.3514  96.5717  96.6470  96.9868  98.0459  98.8612
   100.1260 100.1472 100.7557 102.3823 102.5284 103.2466 106.0919 107.9425
   108.1287 108.9589 109.6987 109.9047 110.9667 111.4133 112.6167 114.7024
   115.8066 116.4645 117.6740 119.4640 120.2876 120.8945 121.0925 121.9123
   123.0652 124.7106 125.0126 126.6792 127.0897 127.7377 129.7372 130.5192
   130.9989 131.7899 131.9320 132.3684 134.9392 135.2356 135.7376 136.3272
   138.3263 139.7075 139.9845 141.2971 142.2371 142.7205 145.2136 145.3389
   146.4196 147.5633 148.7765 149.1910 150.8980 151.0507 152.1377 152.3455
   152.9341 153.2580 154.2369 154.7318 156.4929 157.9773 158.2380 158.7056
   160.1346 160.4413 161.1146 162.3643 162.4819 162.8057 163.4132 164.8949
   166.4760 166.9178 168.9625 169.1207 169.6278 169.8345 170.6068 171.9697
   172.3231 172.5007 173.5783 174.4758 174.5068 175.1914 176.3840 177.7302
   178.1421 179.3863 180.5796 180.6048 181.4183 182.3647 182.6386 183.6245
   184.4520 185.3939 185.6300 185.9214 186.6712 187.2257 187.9167 189.7869
   190.0928 190.4219 191.0303 192.1356 192.9292 193.4037 194.7739 195.0282
   195.4192 195.5770 195.6696 196.6563 197.6688 198.4090 200.5697 201.1781
   202.0451 202.7855 203.3885 204.1418 204.8894 205.6316 206.0326 207.0092
   207.5172 207.9399 208.9018 208.9179 209.4872 211.7530 212.6887 212.7256
   213.8804 214.5546 215.3503 215.6784 216.2032 217.0525 218.0290 220.0440
   220.0797 220.8163 220.9028 221.7181 221.7927 222.4656 223.1877 223.7249
   224.4163 225.0986 225.5139 226.8925 227.2241 227.8179 228.5167 229.6458
   229.9986 230.9529 231.5514 232.3216 232.4835 233.7368 235.2349 235.3914
   237.5645 237.9027 239.3076 240.1918 240.9062 240.9281 242.4312 242.5090
   243.1872 243.3288 244.0464 244.3290 244.6424 244.8014 245.5596 246.1284
   247.1684 247.5274 249.7558 251.3562 251.9853 252.1235 253.9213 254.4535
   254.6272 255.1409 255.8549 255.9108 256.7653 256.8402 257.1888 257.8249
   258.8624 259.2856 260.8122 260.8347 261.3891 262.1869 262.3359 263.1444
   263.9850 264.5323 265.5501 266.1273 266.4916 267.7434 267.8107 270.3882
   270.6327 270.7826 270.9794 271.3311 271.7614 271.8077 272.6627 273.3245
   274.4802 274.7912 275.0617 276.5388 276.9114 277.1772 278.0579 278.1076
   278.7404 278.7960 279.3991 279.6358 280.5073 281.1008 281.4056 281.6722
   282.0812 282.9741 283.3143 284.2064 284.6847 285.5194 285.7834 285.9889
   288.0778 288.2938 289.8973 290.5145 291.0610 291.7012 291.7135 292.1600
   293.2167 293.9551 293.9655 294.8054 295.3805 295.4947 297.2590 297.2713
   297.8276 298.5689 298.9211 299.1158 299.5502 300.3338 300.9210 302.4097
   302.6413 302.8958 303.6643 304.5379 305.1215 305.5055 306.4578 307.9789
   308.7049 309.6576 309.8035 310.3333 310.5356 310.7847 311.6671 311.6817
   312.2556 312.4132 312.7433 312.8323 313.2052 314.1777 314.5218 315.3768
   315.7354 316.2469 317.2230 318.2621 318.3909 319.0998 319.2908 320.6529
   321.3137 321.6362 322.2019 322.2631 323.5822 323.6126 323.7000 325.0310
   325.7176 326.2874 326.6285 326.8321 326.8828 327.7569 327.9844 328.3638
   328.5044 329.1862 330.6849 331.8313 332.1148 332.3520 333.1897 335.2176
   335.9697 336.4027 336.8054 337.1371 338.6608 338.6728 339.1003 339.3526
   339.9918 340.0713 340.9140 341.4793 342.0871 342.8842 343.1826 343.2788
   344.1367 345.6242 346.8129 347.6030 347.6710 348.2412 348.2868 349.1732
   349.8405 349.9482 350.8514 351.2315 352.2594 352.3383 352.3560 352.4389
   353.7530 353.7603 354.6613 355.1376 355.6925 356.2435 357.1235 357.4501
   357.7143 358.7138 358.9725 359.7436 360.1889 361.4330 361.9246 362.4792
   364.8295 365.6866 366.2123 367.0340 367.2723 368.2886 368.3352 368.9132
   369.2189 369.2351 369.9009 370.7923 371.1556 371.3103 372.5146 372.9517
   374.3360 374.4629 374.5817 375.3810 375.4613 376.6957 376.8073 377.4498
   377.9537 378.1131 378.3933 378.9907 379.4723 379.8166 380.4229 381.3320
   381.5332 381.5429 381.9603 383.0966 383.7654 383.8578 384.0597 384.7303
   385.0402 385.5439 386.2993 386.6802 386.9026 387.6352 388.2177 388.2185
   389.6814 389.7622 390.5348 390.6355 390.9086 391.3960 392.3801 392.9436
   394.2476 395.5687 395.5928 396.0589 396.1826 396.9460 397.2512 397.3896
   398.8430 400.1442 400.3900 400.4483 400.9373 401.3201 402.6469 403.6954
   403.7522 404.0749 404.8525 405.0955 405.3502 406.3567 406.4171 406.6795
   406.8414 407.2585 407.3415 408.2001 408.4285 408.8622 408.9715 409.0123
   409.2632 409.4729 410.2012 410.4321 410.9585 411.3430 412.7188 414.2961
   414.8842 416.2562 416.3548 416.5126 417.1251 417.5404 417.7738 418.0796
   418.7884 419.8293 419.9467 420.1546 421.2014 421.3795 421.4669 422.8451
   422.8504 423.2231 424.3915 424.3947 425.1379 425.2714 426.4927 426.6587
   427.6692 427.7944 428.6480 428.7057 428.9902 429.7395 429.7791 430.5471
   430.5472 430.6311 430.7794 431.7871 431.9432 432.0054 432.4533 433.0441
   433.4003 434.0232 435.8453 436.1703 436.8644 436.8774 437.0618 437.1431
   438.1027 438.9836 439.1367 439.3857 439.5445 439.8815 440.1808 440.5003
   440.9778 441.0776 441.9687 443.1132 443.9862 444.4282 445.7726 446.4251
   446.6702 446.8302 447.4993 448.4220 449.1978 449.2359 449.9100 450.3423
   450.4900 451.2258 451.3149 451.5566 451.7684 451.8309 452.3871 452.8637
   454.3285 454.8208 454.9091 455.6265 455.8724 455.9591 456.5499 456.8111
   456.8240 457.4563 458.1046 458.6054 460.4038 460.4261 460.5058 460.6736
   460.8879 461.1176 461.3377 461.5057 461.6037 463.0541 463.4457 464.7560
   465.3801 465.6398 467.1550 467.5830 467.8915 468.3452 468.7167 468.7879
   470.0002 470.0506 470.2274 470.6489 470.7207 471.3559 472.7558 473.4424
   473.4959 473.5665 473.8511 474.4867 474.6682 474.9900 475.6818 476.1328
   476.5492 476.9107 477.2775 477.3717 477.6501 477.7866 477.9488 478.4433
   478.5545 481.3648 481.4287 482.2422 482.6641 482.7642 483.2440 484.0484
   484.0511 484.4337 484.8297 485.6215 485.8611 487.2889 487.3455 487.6106
   487.9679 489.3837 489.3991 489.5100 489.7512 490.0311 490.9109 490.9719
   493.7431 494.5740 496.1289 496.6917 497.7778 498.5247 499.2573 499.4768
   499.5056 500.0599 500.0863 500.7934 501.7346 501.7778 502.5416 502.5575
   503.0655 503.2136 503.2710 503.7773 503.9880 504.3435 504.4871 504.5017
   504.7256 504.9270 505.2064 505.4097 505.4949 505.9305 506.1587 506.3929
   507.1556 507.3321 508.1112 509.7603 510.2503 511.2385 513.2640 513.6246
   513.9031 514.4349 514.4733 515.1234 515.1513 515.4721 515.9667 517.2878
   517.3389 517.4054 517.4800 518.0609 518.1026 518.7681 518.8558 519.1899
   520.1273 520.2270 520.7315 521.0555 522.0286 522.6224 522.8385 524.7130
   524.7259 525.1190 525.2954 525.4649 525.6333 525.7532 526.2529 526.7906
   526.8498 527.3493 527.4382 527.7639 529.2810 529.6406 530.0796 530.2541
   532.2398 532.4708 533.1604 533.1936 533.4952 533.7078 534.3401 534.4728
   534.6290 535.4325 537.4511 537.8604 537.9261 538.5312 538.8856 539.0341
   539.1415 539.9816 541.1296 541.2176 541.6423 541.9053 541.9377 541.9981
   542.7107 543.1018 543.2644 543.5143 543.8307 544.6915 545.1212 545.1609
   545.1683 545.6019 545.8883 546.3717 546.8138 547.1641 547.4751 548.3145
   548.8017 548.9893 550.5641 551.1283 551.4135 551.5058 551.5727 552.4237
   552.7778 552.8793 553.6639 554.7867 555.1047 555.9541 555.9850 556.1321
   556.7206 557.4078 557.5538 557.8356 558.4584 558.9632 560.5266 561.4206
   561.5269 562.2395 562.5959 562.7386 562.8422 563.0896 563.1775 563.2358
   564.0603 565.3010 565.5346 565.8755 565.9298 566.2580 566.3819 567.2489
   567.7118 567.9621 568.5730 570.0278 570.6665 571.1865 571.5587 572.0531
   572.1137 572.3990 572.4938 572.5697 572.7538 573.2219 573.3996 574.2998
   574.7695 574.7841 574.8966 574.9097 575.3655 575.9443 576.6639 576.8021
   577.8314 578.3459 578.4978 578.7525 579.1617 580.6456 581.1625 581.7418
   581.9138 583.0063 583.0342 583.4781 583.5180 583.5864 584.0439 584.1641
   584.1683 584.3782 584.4810 584.6802 584.7893 585.1889 585.4711 585.8241
   585.8687 586.0748 586.3855 587.0735 587.1232 587.1850 587.9455 590.3580
   590.9241 592.5409 593.8624 594.3008 594.6759 594.9896 595.0512 595.5533
   596.4889 596.5363 596.7883 596.8532 597.0434 597.1970 597.2503 597.4099
   598.4934 598.6764 598.9319 599.4369 599.8651 600.1471 600.3671 601.2083
   601.2874 601.6925 601.7521 602.3226 602.7991 602.8338 603.1358 603.5695
   603.7587 604.0943 604.1153 604.6112 604.8947 605.2741 605.3526 606.0152
   606.2408 606.4797 607.3649 607.6161 608.7960 608.9138 609.4653 609.6029
   609.7921 610.4360 610.8696 611.1208 611.1760 611.7217 611.9786 614.2541
   614.4240 614.5616 614.6266 614.7058 614.7888 615.1796 617.0673 617.0798
   617.2960 617.5713 617.6658 618.2891 618.4415 618.8318 618.9065 620.1665
   620.8628 620.9392 621.4010 621.4362 622.7984 623.1651 623.1997 623.4691
   623.5382 623.6299 623.8054 623.9785 624.1650 624.2009 624.8515 624.9792
   626.6943 628.2105 629.2693 629.3119 629.9346 630.1303 630.4597 630.7425
   631.3952 631.4363 631.7266 632.4233 632.5538 633.2116 634.1321 635.0087
   635.0923 635.8292 635.9746 636.0860 636.1171 636.9629 637.1213 637.3389
   637.3406 637.5244 637.9468 638.3765 638.6628 638.7712 639.9552 639.9922
   640.1603 640.5217 641.5247 641.7337 641.7380 642.7278 642.7383 643.9777
   644.1120 645.5246 645.7398 645.8172 646.3074 646.3982 646.7443 647.0501
   648.3188 649.1963 649.4352 649.5168 650.2298 650.3291 650.6456 651.0536
   652.1474 652.2940 652.3623 652.6389 652.7114 653.1530 653.2624 653.3644
   653.8024 654.6615 654.7100 655.4964 655.5513 655.7797 655.8629 656.1224
   658.0099 658.3104 658.3855 658.7876 659.6278 659.8312 660.1309 660.3854
   660.8517 661.0047 661.5547 661.7973 661.8994 664.3703 664.6034 664.8883
   665.2478 665.2777 665.4864 666.1107 666.4850 666.6769 667.0144 667.3307
   667.4934 668.3894 668.5352 668.8560 668.9152 670.9737 671.0746 671.2717
   672.3394 672.5820 673.0182 673.5230 674.4164 674.6377 674.9429 675.3623
   675.5135 675.5693 675.8084 676.2261 676.8048 678.1344 678.1546 678.3237
   678.4535 678.6991 679.3377 680.0410 680.1339 680.5132 680.9461 681.6521
   681.7109 681.8350 682.1231 682.5273 682.7463 682.9143 683.1540 683.1777
   683.3507 683.5669 683.6631 684.1830 684.4809 686.6121 688.0576 688.1064
   688.2179 688.6212 689.8885 689.9290 690.2997 690.3279 691.1197 691.6598
   691.9091 692.9802 693.0433 693.3367 693.3715 693.9214 693.9260 694.5334
   695.4724 695.8013 695.8143 696.3970 696.4183 696.8110 697.9104 698.4323
   698.5241 698.9957 700.0861 700.1177 700.8775 701.2640 701.2865 701.6985
   701.7697 701.8878 701.9732 702.2125 702.2161 702.6073 702.6386 703.2198
   704.7809 705.0730 705.1972 705.3028 705.4643 705.5928 705.6985 705.9958

          k = 0.5000 0.0000 0.5000 (  3599 PWs)   bands (ev):

   -29.7975 -11.4654 -10.9305 -10.7221  -6.8183   5.7223   6.6809   6.9342
    14.2626  15.0346  15.6024  16.1441  18.0261  18.6911  23.0153  23.1476
    27.3156  29.6900  30.8398  32.1160  35.5549  36.6545  36.6845  37.4185
    42.4988  42.9048  45.1554  46.6665  47.7757  50.5628  50.7006  50.8851
    51.8125  53.4718  53.5706  58.0239  60.8977  60.9866  61.9263  62.1489
    62.2527  63.1533  68.0905  68.7602  69.0009  70.0343  71.3197  72.5069
    74.7417  74.8864  75.5984  75.6766  76.2891  81.2287  81.8753  83.7141
    84.0012  84.0791  85.2145  85.8381  87.2787  87.9226  88.5970  89.1936
    91.2784  93.5197  94.5284  95.0447  95.0498  96.6445  99.0205  99.8908
   101.1641 101.4687 102.0403 103.3853 104.6800 104.8572 105.0601 106.1903
   107.4019 109.8446 111.7916 111.8456 113.1026 113.9744 114.0970 114.1565
   117.1816 117.2577 117.6272 117.9211 118.3691 118.6890 119.9605 121.5731
   124.1254 124.4357 127.5832 127.7209 127.9051 128.6307 129.1683 130.0200
   130.9525 133.2593 134.5045 134.8530 135.6760 137.1591 138.3274 138.7379
   140.0222 140.2087 141.1966 142.2076 142.2085 142.3940 143.0720 143.8283
   144.4930 147.0226 147.3155 148.3487 148.8226 149.4310 150.5551 151.8379
   151.8553 151.9142 152.2138 152.7628 154.3979 154.5998 154.6777 155.3356
   156.4400 157.3785 158.4219 158.6679 161.4039 164.4289 165.4887 165.8007
   166.2736 168.1190 168.4792 168.9768 169.1308 169.4314 169.7171 172.8769
   173.3004 173.3922 174.4409 174.9492 175.0055 175.6989 175.9596 176.4613
   177.0509 177.5603 178.9098 179.2622 179.5567 181.4217 182.5703 182.8912
   184.6118 185.8644 186.1882 187.1140 187.6507 187.9428 190.1398 190.5438
   191.5669 191.8637 193.7031 193.9171 194.0145 195.3464 195.7892 195.9926
   196.1590 197.1946 198.7909 200.4040 200.6329 201.1749 201.3014 201.3402
   201.5152 202.8600 203.4754 205.0375 205.7179 206.1037 206.4683 206.9328
   209.5363 209.9070 210.1205 210.2444 213.3579 213.4036 213.4486 213.9401
   214.3660 214.5619 214.9658 216.9754 216.9849 217.0848 217.6454 217.9163
   218.2813 219.1029 219.4399 219.7762 222.1234 222.1551 222.6157 223.9334
   224.1345 227.3447 227.5204 227.6587 227.8230 228.8494 231.4942 231.5753
   231.6151 232.3523 232.8361 233.1694 233.3222 233.4287 234.0450 234.1948
   234.6620 234.6838 237.0427 237.3079 238.0632 239.0477 241.7022 242.3337
   242.6932 242.8094 242.9541 243.6597 244.0891 245.8993 246.0263 246.8300
   246.9132 247.3705 247.8150 248.8938 249.0507 249.6958 250.8167 251.3660
   253.3892 254.4056 254.9198 255.0767 256.0703 256.4181 257.1666 257.5756
   257.6391 258.4881 259.5532 260.4302 260.7348 261.2484 261.4980 261.6212
   263.4311 263.7813 264.1804 265.0061 265.7086 265.8482 266.0030 267.2956
   268.8383 268.9050 269.4970 269.8435 270.2500 271.2180 271.5528 272.1426
   274.1292 274.2279 274.4190 275.7856 276.0451 277.0806 277.6571 278.5841
   280.0546 280.8079 281.7746 281.8756 281.9612 282.8447 282.8653 283.4788
   283.6843 283.7756 284.6067 285.1104 285.7540 286.1345 286.2611 287.0759
   288.3316 288.6296 289.4626 290.5397 290.5874 291.2644 292.0505 292.1187
   293.0441 294.1938 294.2074 294.2275 294.9621 295.6579 295.7112 295.8291
   298.5056 299.5462 299.5753 300.3116 301.0542 303.1887 303.3194 303.5742
   304.9105 305.1818 305.8372 306.3596 306.5184 307.0022 308.5074 308.5476
   309.0656 309.3626 309.5208 309.5808 309.9534 310.5280 311.4575 311.5527
   311.7388 311.9807 312.2103 312.2818 312.3920 312.4310 312.6434 313.0710
   314.5448 314.6108 316.1152 317.9813 318.4033 319.3957 320.6410 321.2394
   321.8222 322.5091 324.8065 325.2501 325.3295 325.6166 326.3071 326.4647
   326.4823 326.5626 326.7608 327.9763 329.3082 329.6864 329.9831 330.0632
   330.6113 331.0475 331.4392 332.8221 332.9478 333.1322 333.7648 333.9500
   333.9829 334.3441 334.9593 335.6682 336.4832 337.3924 337.5001 340.2543
   342.2172 342.3658 342.8308 343.3445 343.8809 343.9036 344.8883 345.7557
   346.0266 346.1020 346.5880 348.0864 349.1877 349.3181 349.6466 349.6897
   349.9614 350.0592 350.1108 350.3155 351.0861 351.5780 352.2857 353.2030
   353.4775 354.6625 354.8132 356.0007 356.1272 358.1846 358.7370 358.7911
   360.7141 360.7577 361.1283 361.9288 362.0188 365.1646 365.2606 365.3009
   365.9239 366.6835 366.9271 368.2170 368.7640 368.7890 368.9676 369.6320
   369.6755 370.1201 370.3166 370.5392 370.8267 370.8571 371.1663 371.1769
   371.7671 372.0511 372.3273 372.5967 373.9838 374.6436 375.1515 375.5941
   375.6988 375.7577 375.8657 376.6070 376.6722 376.7811 376.8780 377.8672
   377.9867 378.1241 378.6321 380.2660 381.7051 381.7865 381.9516 383.8420
   385.0445 385.5101 385.8712 386.2468 386.6679 386.7695 386.9224 387.4995
   387.7938 388.8609 389.5504 389.5624 389.7620 389.8602 390.8367 392.0865
   392.2124 392.6262 393.4034 395.0506 395.8525 395.9842 396.0347 396.1838
   396.9528 397.3802 399.0426 399.2268 399.4384 400.2653 401.1547 402.0151
   402.1156 402.1593 402.7538 402.8429 402.8862 403.2433 403.2832 403.3128
   405.4652 405.9045 406.7158 406.7342 407.0237 407.2650 407.7478 408.9020
   409.5069 411.4442 411.4804 411.7087 411.8262 412.9813 413.3803 413.7007
   414.1261 414.1965 414.6024 415.4286 416.5698 417.5316 417.6823 418.4375
   418.4436 420.0579 420.2256 420.5481 420.8615 422.8281 423.1509 423.9677
   424.5776 425.1620 425.2816 425.5358 425.7530 426.6604 427.7570 427.9069
   428.2550 428.4163 428.5575 428.6701 428.7061 428.9705 429.4446 429.6207
   429.8076 430.0754 430.3091 432.8993 433.2108 433.3101 433.6271 433.8731
   433.9816 434.4980 435.1289 435.5388 436.9913 437.0394 437.8002 438.6813
   438.9764 439.1815 439.7869 440.2024 440.2832 440.7899 441.1661 441.2204
   442.5206 442.5383 442.5883 442.6618 443.8194 444.5486 444.6713 445.0227
   447.1799 447.3609 447.9678 448.0223 448.1959 448.2404 448.2704 448.9441
   449.3772 451.4517 451.9605 452.1755 453.0929 453.4203 453.4390 453.9027
   453.9428 454.5006 456.6893 457.5252 458.1479 458.6822 459.6224 459.9633
   460.0825 461.0827 461.1024 461.1620 461.1988 461.3262 461.3653 461.6260
   461.8868 462.5433 462.8146 463.2368 463.2530 464.7946 465.8638 465.9946
   465.9948 466.7178 466.8062 467.0259 467.1446 467.7203 467.7590 468.1081
   468.1729 468.3373 468.3408 469.5377 471.6919 472.1301 472.2263 473.0649
   473.1348 473.7792 476.4307 476.4384 477.0259 477.0990 478.2061 478.8137
   480.0184 480.4784 481.0623 481.2775 481.8603 482.3110 482.7263 483.7615
   483.9198 484.2360 484.2599 485.4163 486.8047 487.0445 487.8820 488.3667
   488.3966 488.6400 488.6813 489.8615 490.0467 490.4043 490.5132 490.8167
   490.8257 490.8571 490.8801 490.8920 491.0766 492.4755 492.5876 492.6657
   493.0049 493.4062 493.5260 494.1513 494.6407 495.2711 498.0993 498.1179
   498.3778 498.7924 500.3889 500.6765 500.8144 500.8277 501.3898 501.8531
   503.0001 503.5262 503.7890 503.8047 504.0854 504.4277 504.9294 504.9358
   504.9742 505.3465 505.4428 505.5518 505.6930 505.9992 506.1135 506.4067
   506.8249 507.2225 507.4134 507.4570 507.5818 507.6646 507.7443 508.6272
   508.7783 509.3727 509.3862 509.8928 510.5001 510.7440 510.9078 513.1709
   514.6751 515.9511 515.9983 516.9114 518.5709 518.8695 519.0371 519.0616
   519.0839 519.1065 519.2682 519.5852 521.6864 521.7244 522.1722 522.4443
   522.5669 523.3861 523.5129 524.5241 524.6954 524.8507 524.8733 524.8741
   524.9146 525.7035 525.7160 526.1449 526.2318 526.4883 526.5443 526.6694
   530.6956 530.7690 531.0978 531.2987 531.9158 531.9385 532.0849 532.5778
   535.4595 535.8504 537.5125 537.8262 538.9808 539.0047 539.0416 539.0875
   539.1701 539.2075 539.2906 539.3273 539.8179 540.3919 541.1775 541.4289
   542.0681 542.0904 542.3294 543.6483 543.8427 544.1573 544.4250 544.5031
   545.3229 545.3805 545.5769 545.6438 546.0693 546.7554 548.5828 548.8937
   549.3079 549.7830 549.8164 550.1634 551.3124 551.4182 551.4309 551.4651
   552.1351 552.9953 553.0253 554.0830 554.1485 554.9509 555.2075 555.4425
   556.0459 556.0850 556.9063 557.3584 558.5630 558.9792 559.2065 559.2176
   559.2746 559.7374 559.8462 560.3615 561.9098 562.6663 563.6948 564.2084
   564.2266 564.5115 564.5577 564.7309 564.7737 564.9164 565.1711 565.7827
   565.9135 567.0085 567.0173 567.1349 567.3380 567.9271 569.4635 569.4912
   569.7841 569.8214 569.9440 569.9827 570.1588 570.8292 571.9631 572.1016
   572.1532 572.2111 572.2221 573.6500 574.9795 576.4529 577.1517 577.2265
   577.8186 577.9293 578.3560 578.3649 579.6704 580.7430 581.2090 581.6029
   582.1908 583.1518 583.1713 583.3965 583.8003 585.4428 585.8763 585.8881
   585.8995 585.9161 585.9282 585.9439 585.9525 585.9746 585.9748 586.0306
   586.0716 586.2626 587.1555 590.6563 590.8888 592.3309 592.3999 592.4274
   592.4691 593.5771 593.5980 594.6355 594.7973 595.6699 595.7963 596.2166
   596.5120 596.5347 596.5975 597.0624 598.3608 598.9789 599.7519 599.8949
   600.7268 600.8935 601.4292 601.6887 602.1601 602.3649 602.4468 602.6476
   602.8731 602.9985 603.0122 603.1045 603.1293 603.8696 604.0388 604.0795
   604.1318 604.1551 604.4120 606.8406 607.1296 607.2466 607.3244 607.5665
   607.5929 607.9743 608.0182 608.0638 608.0777 608.0980 608.2697 609.0477
   609.5316 609.6482 610.3890 610.8936 610.9314 611.0050 611.0539 614.1367
   614.4306 615.1230 615.5107 618.1760 618.3841 619.1466 619.6560 619.7188
   620.5647 620.5930 621.5337 621.7923 621.8462 622.2366 622.3324 622.5335
   623.1072 623.2471 623.3246 623.8971 623.9701 623.9736 623.9881 623.9933
   624.0165 624.0550 624.2186 624.2245 624.7709 625.5964 625.8105 626.1986
   626.7255 627.0955 627.4086 627.5626 628.2758 629.6235 629.9384 630.2764
   630.3047 631.2280 631.5254 631.7357 631.9584 633.0363 633.0686 634.4888
   634.6428 635.3297 635.4686 635.5979 636.4941 636.5869 637.9273 638.0296
   639.3691 639.4093 640.1978 640.4472 640.5372 640.7504 641.0806 641.3659
   641.3793 643.4356 643.4630 643.5292 643.5897 643.6289 643.6991 643.7105
   643.8738 646.3229 646.3280 647.7603 648.0961 648.2733 648.3134 648.7245
   648.9653 649.1843 649.1861 649.2424 649.2436 649.3099 649.3258 649.3703
   649.7061 652.0857 652.5775 653.1102 653.1707 653.1987 654.2007 654.5398
   654.6348 654.7839 655.2463 655.2854 655.3950 655.4220 655.8271 656.3166
   656.3286 657.5597 658.2622 658.3179 659.1644 659.6408 659.6566 660.0067
   660.6762 661.7432 661.7548 662.2631 662.2775 662.6305 662.6873 663.3381
   663.5296 663.7076 663.8008 663.9325 664.1525 667.0845 667.4200 667.6618
   667.9250 668.5774 668.5813 668.6108 668.6536 670.3397 670.3794 670.3949
   670.4055 672.6229 673.0084 673.0384 673.1165 673.1429 673.1839 674.1657
   674.5975 674.8874 675.0382 676.3917 676.6245 676.6555 676.7843 677.1603
   677.4164 678.6929 679.8969 680.1104 681.0130 681.3474 681.3866 682.9132
   683.1699 683.2420 683.8172 684.3278 684.3339 684.8368 685.0156 685.0726
   685.4284 685.6058 686.0467 687.9773 687.9809 688.1965 688.2113 688.3305
   688.3935 688.4171 688.4348 688.4966 688.5245 690.0462 690.0676 691.3500
   691.7016 692.6153 694.0326 694.0888 694.3560 694.5474 694.7733 694.8130
   694.8307 697.1953 697.2586 697.3830 697.3870 697.5261 698.0849 699.3802
   699.4345 699.4663 699.6760 700.3069 700.4942 700.6381 700.7899 701.4656
   701.6424 701.8908 701.9097 702.1211 702.1272 702.3232 702.4036 702.4494
   702.4762 702.4811 702.5150 704.1144 704.4092 705.2764 705.5541 705.6302

          k = 0.0000-1.0000 0.0000 (  3572 PWs)   bands (ev):

   -29.7662 -11.2615 -10.8922 -10.8922  -7.4731   6.4705   7.4024   7.4024
    11.4251  15.8081  16.6455  17.2712  17.2712  19.0363  21.2370  25.7526
    25.7526  26.3715  33.5394  35.4664  35.4664  35.7690  40.6663  40.8592
    41.2017  42.5711  43.7855  43.7855  44.0810  44.0810  48.2550  48.2550
    52.5509  55.6663  57.5214  57.8154  59.4019  62.0447  62.0447  63.4127
    63.7837  63.7837  65.7910  69.1392  69.2716  69.6728  71.8478  71.8478
    74.1684  75.6219  75.6219  79.6700  80.6232  80.6232  84.1388  84.8337
    86.0503  86.1662  87.9309  88.0102  88.0102  88.6611  90.3339  90.3339
    90.4344  90.4344  92.1256  92.2210  92.8026  94.2685  97.1415  97.1415
   101.5955 102.1019 105.5160 105.5160 105.7373 106.1892 107.0061 107.0061
   108.7255 109.4034 109.4034 109.4954 110.2220 111.5282 111.5282 112.9342
   112.9342 113.0601 117.4056 117.9635 119.1850 119.2136 119.9422 119.9422
   121.1230 121.1230 122.0067 129.8174 129.9484 129.9484 130.5043 131.6121
   131.6121 132.4825 133.4927 133.5528 135.5875 136.4144 136.4144 136.8154
   137.0881 137.0881 137.1846 138.7325 139.3675 141.6777 141.6777 142.2335
   142.2478 147.0799 147.0799 149.3662 151.8124 151.8124 153.1555 153.6089
   154.6199 155.3919 156.4848 157.7913 157.7913 159.2483 159.2483 160.9579
   162.2653 162.6937 166.2707 166.6420 167.1592 167.4997 167.4997 167.8908
   168.0948 168.0948 168.6511 168.6511 170.0644 170.0869 170.4735 172.0953
   172.0953 172.4399 173.0962 174.2434 174.2434 177.2504 180.9047 181.7370
   181.7370 182.3892 182.5744 182.5744 183.9677 183.9677 183.9722 183.9722
   184.2213 184.5398 185.6919 185.8030 185.8606 185.8690 185.8690 185.9706
   186.6143 186.6143 186.9295 187.1901 188.1263 188.3458 189.4867 193.9442
   193.9442 194.5365 194.7940 194.7940 194.8141 195.1709 195.7855 197.4777
   200.2360 200.2360 203.5669 203.5669 204.5012 205.1212 205.1212 205.7832
   207.9278 209.8508 210.0323 210.0331 210.0331 210.0615 210.4800 211.6612
   212.5546 212.5546 213.7689 213.9349 214.0756 214.0756 215.9616 216.1492
   216.1492 216.5332 217.3906 217.3906 217.5486 217.6911 218.7541 220.9006
   220.9006 222.7922 224.4641 229.3985 229.3985 229.6496 233.4822 237.6575
   237.6575 238.0331 239.0905 239.0905 239.1546 239.5087 239.7538 240.2016
   242.4266 242.4266 242.9082 242.9082 244.1123 244.1242 244.1242 244.3122
   244.3254 244.3254 244.3280 244.5126 246.2085 246.2085 247.6725 248.6763
   248.8811 248.8811 249.2171 249.2300 250.6431 252.8463 256.6381 256.6381
   256.8328 256.9484 257.3109 257.3109 257.6463 257.9690 259.2770 259.2770
   260.5454 260.7597 260.7597 261.2941 262.0819 262.4656 262.6700 262.6700
   262.7246 263.0045 263.0045 263.2473 264.6480 266.0315 266.0315 266.1338
   266.3004 266.4026 266.5295 266.5295 266.6086 269.4833 271.0525 271.9841
   271.9841 272.1942 272.1942 272.2059 272.3246 272.3641 277.0274 277.6960
   279.8355 279.8355 280.6189 280.6189 282.1020 283.4943 284.4266 285.4673
   285.7218 285.7706 285.7706 286.4072 286.4072 287.7719 287.7719 287.8854
   287.9168 288.4801 288.4801 289.7939 289.8967 289.9521 290.0264 290.3606
   290.5078 290.5078 290.5195 290.5195 292.5351 292.9356 295.5087 296.7341
   297.1750 298.3745 298.3745 298.7313 299.3949 299.3949 299.7137 299.7137
   300.7699 300.7981 302.1380 304.0753 309.2510 309.2510 311.4506 312.0189
   312.2313 312.2313 312.7530 313.2469 313.6292 313.6292 313.6836 313.7050
   313.8293 313.8484 313.8484 314.1481 314.2599 314.2599 314.3504 315.1383
   315.1383 315.4750 316.7641 317.0831 318.0369 318.1550 318.1550 322.4720
   322.4844 322.5777 322.5777 322.6862 322.6870 322.6870 322.9742 323.4488
   323.7803 323.8222 323.8222 323.9724 326.8728 328.1790 328.1790 328.7999
   330.9364 335.9291 335.9291 336.2334 337.4303 337.4303 337.7409 337.9082
   337.9082 338.0127 339.3435 339.4709 339.4709 339.8141 340.0199 340.0199
   340.8826 341.3093 341.3093 341.5114 341.5554 342.0680 343.3800 343.3848
   343.8682 344.7995 345.0152 345.0152 345.3621 345.4132 345.4132 345.4475
   345.7852 345.7852 346.0923 346.2796 346.2796 346.3520 346.3824 347.6685
   347.7828 347.7828 347.7853 350.3200 350.4093 350.4703 350.5203 350.5203
   350.8931 350.9020 350.9123 350.9123 358.3465 360.1865 360.1865 360.8478
   360.8478 362.5967 363.9723 365.9709 366.9734 367.0580 367.1289 367.1465
   367.2087 367.2087 367.2679 367.2679 368.8623 368.8623 369.1745 369.3122
   370.7878 371.0751 371.0751 371.1856 379.5951 379.5951 380.6614 381.2916
   381.6615 381.6615 385.4499 386.8050 386.9511 387.6634 387.8158 387.8158
   389.0625 389.0625 389.3646 390.2015 390.2053 390.5748 390.5748 391.0198
   391.0198 391.5679 391.9608 392.8883 393.3064 393.3064 393.3193 393.5252
   393.5648 393.5755 393.5755 395.0330 396.6550 396.7368 396.7368 398.0938
   398.0938 398.2096 398.2896 398.3995 398.9319 398.9319 399.2050 399.2055
   399.2055 399.2453 399.2467 400.1836 401.6940 402.1104 402.2466 402.2466
   402.2756 402.3348 402.3348 402.3862 402.4185 403.1304 404.5375 404.5375
   406.3249 407.2329 412.8304 412.8304 412.9233 413.2607 413.2607 415.2277
   415.4307 416.5783 416.5783 416.8207 417.0085 417.4996 417.7517 417.7517
   417.8308 417.8308 417.9227 418.0293 418.0473 418.1428 418.1428 418.2481
   418.4151 418.4237 419.2817 419.4039 419.4039 419.6388 419.6388 420.0157
   420.0737 421.4866 421.4866 421.5670 421.5979 421.6195 422.7632 422.8473
   422.8473 422.9466 422.9466 423.1290 423.6301 425.2881 425.2881 425.3399
   425.3399 428.2368 429.0722 429.0817 429.0817 429.0859 429.1446 429.1471
   429.1642 429.1642 431.4192 431.4269 436.7001 436.7001 436.8050 438.0570
   438.4672 438.6022 438.6022 439.1611 439.9279 440.6119 440.6119 441.4920
   441.6920 441.6920 441.7139 443.2703 444.9961 446.0393 446.0651 446.1330
   446.1330 446.1339 446.1339 446.4043 446.4771 446.6375 446.6375 446.7261
   446.7261 447.4362 447.8286 447.8286 447.8388 447.9275 448.0394 448.4515
   448.4515 448.4699 448.5491 451.4304 452.5200 452.6514 452.7922 452.7922
   452.8579 452.8579 453.0610 453.0954 459.0550 459.9737 459.9737 461.8482
   463.5654 464.2396 464.2396 465.7583 467.1594 467.9000 467.9000 468.1647
   468.3374 468.3753 468.9257 469.1693 469.1693 469.9503 469.9503 470.3520
   470.3520 473.8302 473.8670 473.8670 473.9031 473.9405 474.0904 474.6211
   475.2426 475.2426 475.5204 475.5490 475.6697 475.6697 475.8935 476.0242
   476.1913 476.2625 476.3314 476.3314 476.3817 476.4378 476.4378 477.6821
   477.7342 477.7342 477.7823 478.9083 478.9340 479.0846 481.4685 481.4685
   481.4817 481.4817 482.8515 482.8516 487.6953 487.6953 488.2249 489.8015
   489.8104 489.8104 491.0722 494.3687 494.7968 494.7968 495.0810 495.4346
   495.5931 495.6286 495.6286 495.7889 496.2346 496.2346 496.4842 496.7488
   496.8194 496.8194 496.8809 497.7005 498.7270 498.7385 498.7391 498.7392
   498.7392 498.7410 498.7410 498.7522 499.9278 500.2965 500.2965 500.4288
   500.4288 500.5024 500.5316 502.2286 504.6542 504.7075 504.7578 504.7578
   504.8163 504.9248 504.9248 504.9473 509.2395 510.5974 510.5974 513.0228
   514.0386 514.3937 516.1370 516.1370 517.0046 517.1746 517.3018 518.3334
   518.3334 519.6780 520.5764 521.0123 521.0123 521.3132 521.3132 521.6399
   521.6795 521.7122 521.7723 521.7723 521.8097 522.0548 522.6268 522.6268
   522.7177 523.4468 525.7500 526.6423 526.6741 526.6741 526.7117 526.9187
   526.9212 526.9212 526.9549 527.6161 527.6161 527.9154 527.9154 528.5432
   528.6034 530.4301 531.9260 531.9917 531.9917 531.9928 537.7483 541.4134
   541.4134 542.3621 542.3621 542.6039 543.2834 543.9022 544.1001 544.1175
   544.1175 544.1755 544.9598 545.2198 545.2198 546.6435 546.6435 546.7424
   546.9090 547.0178 547.0178 549.7994 550.0646 550.0646 550.1001 550.4764
   550.5127 550.6338 550.6338 551.7262 551.7514 552.5717 552.7980 552.9064
   553.1078 553.1078 553.2883 553.2883 553.7556 556.0198 558.2708 558.2905
   558.2993 558.2993 558.4517 558.5012 558.5012 558.5499 558.7279 558.7372
   558.7372 558.7428 559.1245 559.1381 559.1381 559.1402 566.3005 566.3005
   566.3084 569.5674 569.5674 569.6368 570.1055 572.3144 572.6753 572.6753
   572.9006 572.9572 573.0480 573.0936 573.0936 573.2462 573.2489 573.4238
   573.4660 573.4660 573.5806 573.5806 573.7358 573.7917 573.8992 573.9926
   574.0321 574.0321 574.0639 574.0860 574.0860 574.0874 574.2638 574.2679
   574.2852 574.2852 574.4049 574.4475 574.4475 574.4488 574.5243 574.6648
   574.6648 574.7044 574.7044 574.8672 574.8714 574.9846 575.7417 575.7417
   576.3194 576.4312 576.4655 576.4655 576.4759 576.4882 576.5129 576.5982
   576.5982 577.7846 577.7846 577.8117 577.8905 578.4454 578.7036 578.7036
   578.8884 579.5262 579.6538 579.6538 579.6884 582.7457 582.8101 582.8101
   582.8177 582.8693 582.8693 582.8868 582.9504 583.1712 584.9915 585.0054
   585.1896 585.1896 585.2178 585.2178 585.3444 585.3597 599.5143 599.5143
   600.0273 600.1394 600.1394 600.1524 600.1763 600.2098 600.2523 600.2523
   600.2544 600.4441 600.4441 600.4757 600.5509 600.9995 602.9658 602.9658
   603.4433 605.2719 605.2719 605.4614 605.6835 605.8684 605.9225 606.2349
   606.2349 606.2532 606.2532 606.3828 606.4438 607.0358 607.0856 607.1158
   607.1158 607.2292 607.2292 607.3010 607.3214 607.3298 607.3675 607.4758
   607.4758 607.5081 607.5081 607.5164 607.5587 608.7339 617.9391 621.3017
   621.3017 623.3428 623.6545 623.6545 624.2640 624.2640 624.4371 624.5660
   624.6746 624.6823 624.7062 624.7854 624.7854 625.7414 626.2309 626.2309
   626.7687 627.1374 627.1374 627.1388 627.1622 628.2022 629.1131 629.1522
   629.1522 629.4018 629.7055 630.1195 630.1195 630.1249 630.1249 630.1751
   630.2391 631.1476 634.8324 634.8324 634.8330 634.8444 634.8588 634.8588
   634.8600 634.8819 636.6868 636.6868 637.1626 637.1790 637.2339 637.2393
   637.2420 637.2420 637.3602 637.3602 639.1218 639.9830 640.7183 641.3196
   641.7830 641.7830 642.1285 644.3435 647.0119 647.0119 647.0953 647.4778
   647.4778 647.6582 647.6750 649.9680 649.9983 649.9983 650.0302 650.4913
   651.6378 651.6785 651.6785 651.6859 651.7034 651.7034 651.9089 651.9306
   653.6655 653.6901 653.7639 653.7639 653.7686 653.7686 653.7710 653.7719
   653.7932 653.7932 653.9306 653.9315 655.2997 655.3169 655.3872 655.3872
   655.4104 655.4104 655.4896 655.5225 655.5803 655.6311 655.6311 655.6387
   657.7034 657.7291 657.7291 657.7499 657.7499 657.7551 658.3067 659.2129
   659.6377 659.6377 659.6546 659.6546 659.7715 659.8089 659.8351 659.8351
   665.7421 665.7426 671.0595 671.0595 672.2969 672.3966 672.4141 672.4141
   673.3078 674.5461 676.5372 677.0051 677.0051 677.3057 677.3057 677.4299
   677.5246 677.5777 677.6896 677.6896 677.7523 677.7760 677.8082 677.8082
   677.8624 678.0118 680.6638 680.6638 681.7593 681.8175 682.1227 682.1257
   682.1257 682.2357 682.2357 682.2565 682.2607 682.7510 682.7510 682.7521
   682.7526 683.0109 683.4677 684.1895 684.1895 684.3289 684.3999 684.5700
   684.5700 684.6472 684.7230 684.7230 685.0805 685.0883 685.2215 685.2215
   685.2568 685.5315 696.4165 699.3670 699.3670 701.2650 701.4206 701.5888
   701.6473 701.6473 701.6980 702.1456 702.1474 702.1474 702.3045 702.5663
   702.6127 702.6260 702.6260 703.4235 703.9958 703.9958 704.2651 704.2651
   705.8553 705.8949 705.8998 705.8998 705.9447 706.0291 706.0291 706.0953
   706.1326 706.1326 706.1666 706.4018 706.4624 706.5044 706.5044 707.7577

          k =-0.5000-1.0000 0.0000 (  3636 PWs)   bands (ev):

   -29.7652 -11.0845 -11.0790 -11.0790  -7.0947   6.5010   6.7174   6.7174
    14.0864  14.0864  16.1438  17.2768  17.7208  21.6934  21.9094  21.9094
    24.8846  29.6193  29.6193  34.8860  36.7587  38.0088  39.4166  39.4166
    41.6252  43.1456  43.8797  43.8797  45.7890  46.1842  49.2861  49.2861
    51.2715  51.2715  54.5841  57.6342  57.7012  60.9552  62.8529  62.8529
    66.9793  66.9793  67.2727  67.8117  71.6675  71.8557  73.0749  73.0749
    74.2175  75.5164  77.6615  77.6615  78.5078  78.5078  79.6921  81.1624
    85.0088  85.3701  85.4590  85.4590  89.1630  89.1630  90.8802  91.7540
    93.0540  93.0540  93.6125  94.3249  95.7322  95.7322  96.8982  97.3271
   100.3845 100.3845 100.5525 103.5574 104.4839 107.4641 107.4641 107.8022
   109.4304 110.0301 110.0301 111.3781 111.4607 112.9486 112.9486 114.7530
   116.0256 116.7910 116.7910 118.5541 118.9902 118.9902 119.5449 119.8248
   120.2509 123.1037 123.1037 123.2593 124.9509 124.9509 125.0700 125.0745
   126.4892 128.5775 130.5272 133.0778 133.0778 134.9058 136.8834 136.8834
   139.1892 141.5580 141.7843 141.7843 145.3264 145.3264 146.7622 149.4592
   151.1149 151.1149 151.3359 151.4510 152.7495 152.7495 154.3779 154.4409
   155.4335 155.4335 156.1643 158.1464 158.1464 158.3242 159.0124 159.0124
   159.0789 160.3183 162.8078 163.1001 163.1556 163.1556 164.2271 164.2491
   166.0972 166.0972 167.3841 168.9003 170.4246 171.4406 171.4406 171.9573
   172.0422 172.2429 172.9291 172.9291 173.3815 173.7646 173.7646 175.1129
   178.5411 178.5411 180.5241 181.3835 181.4748 182.0836 182.3898 183.2074
   183.2074 185.3891 185.3891 186.6152 187.1218 187.6138 188.5267 188.5267
   189.0352 189.6090 190.6099 190.6099 192.6615 195.0203 196.0168 196.0168
   196.5343 196.6467 197.2284 197.2321 197.2321 197.9087 197.9087 199.0454
   199.9707 200.0813 200.2500 200.2500 200.6953 201.4407 201.4407 201.5471
   206.1883 206.8871 206.8871 209.4992 209.9475 211.1835 211.1835 211.3617
   212.8048 212.8048 212.8225 212.9323 218.3204 218.3204 218.7697 221.1018
   221.1240 221.1240 222.5730 224.3801 224.5026 224.5026 224.5850 224.9347
   224.9347 226.5311 227.8473 228.2344 228.2344 228.3364 228.8077 228.8397
   230.6767 232.8147 232.8147 234.9194 234.9194 235.2336 235.9962 237.1171
   237.7382 237.7382 237.9809 239.1837 240.2941 240.2941 240.5751 240.6364
   241.3689 241.3689 241.4686 241.5725 244.3783 245.8975 246.2229 246.2229
   246.2278 246.3351 248.4627 248.4627 249.4053 249.9653 254.1712 254.1712
   254.8217 255.2932 256.0837 256.0837 256.8562 256.8562 258.8455 258.8455
   259.7590 260.1991 260.4558 262.6210 262.9044 262.9044 263.1643 263.8604
   264.8875 265.8067 267.3272 267.3272 268.5233 271.0074 272.2988 272.2988
   274.5920 275.0403 275.3611 275.3611 275.9069 276.0141 276.2466 276.2466
   276.6124 276.7875 277.2185 277.2185 277.4134 278.0153 278.2208 278.2208
   279.5282 279.7942 280.0093 280.0093 280.6442 281.3516 281.3516 283.4168
   283.9972 283.9972 285.2048 286.2500 286.6150 286.6150 286.8766 287.8754
   288.6707 288.6707 288.7667 288.7667 288.9244 288.9493 289.0894 290.2890
   292.4383 292.4383 292.5270 294.2982 294.9621 296.8715 296.8715 298.0382
   298.8710 299.5772 299.5772 301.0622 301.2481 301.3763 301.3763 301.5152
   301.5152 301.9696 303.0887 303.6414 303.8278 303.8278 303.9284 303.9908
   305.9053 305.9053 306.0756 306.2456 306.2607 306.2607 306.6995 306.6995
   306.9765 307.0119 307.0165 308.8492 310.5417 310.5417 311.0306 312.7477
   314.4683 314.4683 314.7315 315.1334 315.5814 315.5950 315.5950 317.1653
   320.4364 320.4364 320.4968 320.5718 324.2827 324.9980 324.9980 325.6442
   325.6442 325.7296 325.7948 326.2291 326.9974 327.5242 327.5242 327.6052
   328.3113 328.3113 328.4141 329.9742 333.2889 333.2889 334.3473 334.9596
   337.5640 338.8134 338.8134 338.8700 338.9000 338.9387 338.9387 339.8201
   339.8695 339.8695 340.9844 342.8166 343.3608 346.6927 346.6927 349.1361
   350.5720 351.0536 351.0536 352.3456 352.3726 352.4057 352.4057 352.7244
   352.9026 353.1128 353.1128 353.1190 353.3613 353.8271 353.8271 354.8853
   355.1283 355.1283 355.2179 355.4818 355.6462 355.6591 355.6591 355.7568
   355.7960 355.8073 355.8073 356.1116 357.3069 357.8318 359.3233 359.3233
   360.8728 363.6124 365.5237 365.8915 365.8915 367.1002 367.4381 367.4381
   367.4709 367.9239 370.7052 370.7797 370.7797 370.9973 370.9973 371.2018
   373.4504 374.1480 374.1480 375.9260 376.4819 376.4819 377.6238 377.9297
   379.0076 379.0076 380.0459 380.3107 380.3240 380.3240 380.3864 380.5370
   380.5501 380.5501 380.5869 381.8800 382.7975 384.9585 384.9907 384.9907
   385.4366 385.4776 386.4457 386.4457 387.6442 387.6442 387.7398 387.7398
   387.7985 389.0423 390.2588 391.0387 391.1047 391.1047 391.1382 392.1683
   392.5247 392.5247 392.6450 393.2128 393.2128 393.3471 393.7018 396.2098
   397.4306 397.4306 398.0512 398.0558 401.6268 401.6268 404.3867 405.2942
   405.7978 406.2225 406.2225 406.9365 406.9719 407.7578 408.2213 408.2213
   412.4832 414.0564 414.0564 415.0893 415.3505 415.4250 415.4250 415.4373
   416.9421 417.3128 417.3128 417.5250 417.5250 417.8136 417.9411 418.4885
   418.5313 418.6374 418.6374 419.5902 419.6706 420.2317 420.2317 420.2768
   420.4080 420.4080 420.7120 421.6435 422.2335 422.2335 422.6451 422.8338
   422.8338 422.8968 423.6928 424.0993 424.8711 426.4817 426.4817 429.4321
   429.6555 429.7702 429.7702 431.0855 431.3929 431.3929 431.4656 431.6667
   431.6822 432.0751 432.0751 432.1967 432.1967 432.4357 432.5394 432.8829
   432.9071 432.9375 432.9375 433.1619 434.1623 434.1623 434.5513 434.6197
   434.6535 434.6535 434.7113 436.2846 436.3971 436.3971 436.5109 437.0693
   437.2224 437.2769 437.2769 437.3109 440.9969 442.5555 442.5555 443.8069
   444.3692 444.6136 444.6136 445.4853 445.4853 445.5488 445.6410 447.0205
   450.4902 450.4902 451.8461 452.4487 453.0138 454.9699 454.9699 456.0407
   456.3926 456.5253 456.5253 456.6459 456.8554 456.8554 457.1361 457.8866
   457.9862 457.9862 458.1614 458.2320 458.3795 458.8855 458.8855 458.8874
   458.9010 459.0268 459.0268 459.6321 459.7441 462.0557 462.2906 462.2906
   462.3458 462.5845 465.0867 465.0867 465.1223 466.8351 467.0299 467.0299
   468.8163 468.8220 468.9699 469.5422 469.5422 470.9808 471.0207 471.1217
   471.1939 471.1939 471.5802 471.5802 471.8220 472.0615 472.1553 472.1553
   472.2267 472.2556 472.3906 472.3906 472.6853 474.5629 475.0422 475.0422
   476.0821 476.0821 476.1605 476.1822 482.1813 482.1813 482.7167 484.6620
   484.7059 484.7059 484.8339 484.8399 485.5039 485.5611 485.5986 485.5986
   485.8653 485.8653 485.8687 485.8960 489.7153 491.0685 491.0685 492.4892
   492.4892 492.7810 492.9904 493.8795 495.5180 495.5180 496.5597 496.7744
   497.2289 497.2488 497.2488 498.3235 500.5117 500.5117 501.7275 501.7275
   502.0446 502.1237 502.1418 502.2960 502.3111 502.3111 502.3311 502.3408
   503.8714 503.8714 504.3394 509.7230 509.7230 509.9262 510.0808 510.3151
   510.5421 510.5421 510.6678 511.2215 514.2761 514.2761 514.5746 514.6288
   514.6602 514.6602 514.8124 516.2158 516.8753 519.7963 519.7963 520.6940
   520.6940 521.4896 521.6488 521.7562 521.9591 521.9591 522.0257 522.3014
   522.3873 522.3873 522.4761 523.1888 523.1888 523.2416 523.4354 523.7066
   523.7287 523.8491 523.8491 526.2363 533.5995 533.5995 533.9630 535.3782
   535.3782 535.5809 535.6509 535.7061 535.7190 535.9448 535.9448 536.4364
   536.5155 536.5155 536.7284 537.0642 537.0642 537.1434 537.1599 537.5974
   540.9562 540.9562 542.4360 543.2681 543.5698 543.8975 544.0346 544.0346
   544.1758 544.1758 544.7745 546.7584 547.1127 547.1373 547.1373 547.7840
   547.9726 548.0759 548.0759 548.1714 548.3599 548.3777 548.3858 548.3858
   548.3993 548.9585 549.0941 549.0941 549.1414 549.4224 549.4224 549.7613
   549.7718 549.8493 549.8493 550.1685 550.1685 550.1983 550.2502 550.4847
   550.5209 550.5209 550.5717 550.6573 550.6948 550.6948 550.7772 550.7836
   551.1825 551.1825 551.3409 554.0714 554.1406 554.1462 554.1462 554.1729
   560.4785 560.7443 560.7443 561.3390 561.3390 561.3612 561.6559 561.8493
   562.1150 562.1150 562.1844 562.7789 562.7996 562.7996 562.9218 563.5778
   563.7128 563.8064 563.8064 563.8755 564.0334 564.0334 564.0864 564.5101
   564.6280 564.6341 564.6341 564.8419 568.2697 570.2258 570.2258 570.4281
   570.7355 570.7355 571.6801 573.4629 574.3490 574.5231 574.7623 574.7623
   575.2470 578.3220 580.2151 580.2151 580.3197 580.3269 583.0846 583.0846
   583.4215 585.4974 585.5692 585.5692 586.2661 586.6872 586.7267 586.7267
   586.7808 587.5783 587.5783 587.6697 587.7659 587.8584 588.1669 588.2244
   588.2244 588.7853 589.0025 589.0025 589.0972 589.1313 589.1313 589.1404
   589.1856 589.8805 590.7934 590.7934 590.7988 590.8155 590.8155 590.8202
   590.9459 591.2939 592.1664 592.1664 593.2115 593.7914 593.7914 595.6714
   598.2526 598.2526 598.8459 600.5903 601.0379 601.0379 601.0788 601.1888
   601.2150 601.2150 601.2571 601.7088 605.3985 605.3985 605.4305 605.4350
   607.6272 608.5293 608.5293 609.1819 609.1819 609.5561 609.5995 610.8808
   611.7038 611.7038 612.5703 613.2200 613.2317 613.2599 613.2599 614.2950
   614.2950 614.3485 614.3711 614.4922 614.5319 614.5353 614.5353 615.0599
   615.0939 615.1312 615.1312 615.2094 615.2119 615.2214 615.2214 616.2120
   618.6850 618.6850 619.2586 619.2673 619.6084 619.6084 619.6635 619.6639
   621.8601 621.8601 623.7848 624.1410 624.4729 624.6759 624.6759 624.6839
   624.7016 625.3125 625.3125 626.2823 626.2823 626.3496 626.3921 626.4229
   626.4350 626.5359 626.5359 627.1100 627.4167 627.5305 627.5795 627.5795
   627.9694 627.9694 628.1625 628.1870 628.1870 628.2713 628.3451 628.3592
   628.3592 628.3595 628.4288 628.5373 628.5821 628.5821 628.6749 628.6832
   628.6982 629.1556 629.1556 630.3007 638.2785 638.4483 638.4483 639.1427
   639.3174 639.3174 640.4926 642.2984 642.3023 642.3023 642.3174 642.4309
   642.5421 642.5555 642.5555 642.8712 649.4729 649.9486 649.9486 651.8855
   652.0204 652.0204 652.1076 652.1415 652.8380 652.8380 652.8860 652.9062
   652.9980 652.9980 653.1013 653.1013 653.2754 653.3953 653.3953 653.6396
   654.1065 654.6932 654.6932 655.1632 655.1750 655.1795 655.1795 655.5929
   657.0169 657.0169 657.0367 657.0542 662.2675 662.3178 662.3178 663.3880
   663.6701 663.7459 663.7459 664.5935 664.6336 664.7172 664.7172 666.1711
   666.2632 666.4084 666.4084 666.4215 666.4417 666.4417 666.4498 666.4588
   666.8354 666.9571 666.9571 667.2000 667.2069 667.2713 667.2713 667.3735
   667.4007 667.4007 667.4079 667.4130 667.4227 667.4361 667.4361 667.7553
   671.5011 671.5011 671.5067 671.5145 675.9753 676.0508 676.0508 676.5515
   678.3313 678.3313 678.8298 679.1808 679.2039 679.2439 679.2439 679.7127
   680.7206 680.7206 680.7313 680.7488 680.7587 680.7587 680.7844 680.8408
   682.5452 682.8603 682.8603 685.6864 686.2239 687.1242 687.1242 687.4633
   687.5867 687.5867 687.6216 688.0653 692.8555 692.8555 692.8656 693.0414
   693.0497 693.0685 693.0685 693.2760 696.1814 696.1814 696.2609 696.2645
   696.7122 696.7122 696.7303 696.7364 697.3690 697.3690 697.4463 697.4505
   699.2347 700.0548 700.0548 700.7323 701.5656 701.5656 703.2437 703.6966
   703.7563 703.7563 703.8680 703.9959 704.0599 704.3590 704.3590 704.3754
   704.3944 704.4012 704.4012 704.4013 704.4201 704.9015 704.9015 705.2910

     the Fermi energy is    10.4120 ev
     (compare with:     9.5506 eV, computed in scf)

     Writing all to output data dir out/mp-2605.save/
 
     init_run     :      0.07s CPU      0.09s WALL (       1 calls)
     electrons    :   1057.77s CPU   1142.24s WALL (       1 calls)

     Called by init_run:
     wfcinit      :      0.00s CPU      0.00s WALL (       1 calls)
     potinit      :      0.01s CPU      0.02s WALL (       1 calls)
     hinit0       :      0.02s CPU      0.04s WALL (       1 calls)

     Called by electrons:
     c_bands      :   1057.77s CPU   1142.24s WALL (       1 calls)
     v_of_rho     :      0.01s CPU      0.01s WALL (       1 calls)

     Called by c_bands:
     init_us_2    :      0.00s CPU      0.00s WALL (       8 calls)
     init_us_2:cp :      0.00s CPU      0.00s WALL (       8 calls)
     cegterg      :   1037.32s CPU   1120.54s WALL (       8 calls)

     Called by *egterg:
     cdiaghg      :    985.29s CPU   1067.53s WALL (      71 calls)
     h_psi        :     16.45s CPU     17.02s WALL (      79 calls)
     g_psi        :      0.11s CPU      0.11s WALL (      63 calls)

     Called by h_psi:
     h_psi:calbec :      0.24s CPU      0.26s WALL (      79 calls)
     vloc_psi     :     15.93s CPU     16.48s WALL (      79 calls)
     add_vuspsi   :      0.18s CPU      0.18s WALL (      79 calls)

     General routines
     calbec       :      0.24s CPU      0.26s WALL (      79 calls)
     fft          :      0.01s CPU      0.03s WALL (      10 calls)
     fftw         :     14.43s CPU     14.92s WALL (  114944 calls)
 
     Parallel routines
 
     PWSCF        :  17m38.64s CPU  19m 3.76s WALL

 
   This run was terminated on:  13:25:46  19Nov2023            

=------------------------------------------------------------------------------=
   JOB DONE.
=------------------------------------------------------------------------------=
