
     Program PWSCF v.7.1 starts on 17Nov2023 at 10:35:39 

     This program is part of the open-source Quantum ESPRESSO suite
     for quantum simulation of materials; please cite
         "P. Giannozzi et al., J. Phys.:Condens. Matter 21 395502 (2009);
         "P. Giannozzi et al., J. Phys.:Condens. Matter 29 465901 (2017);
         "P. Giannozzi et al., J. Chem. Phys. 152 154105 (2020);
          URL http://www.quantum-espresso.org", 
     in publications or presentations arising from this work. More details at
     http://www.quantum-espresso.org/quote

     Parallel version (MPI), running on    24 processors

     MPI processes distributed on     1 nodes
     123415 MiB available memory on the printing compute node when the environment starts
 
     Reading input from pw_mp-1672_scf_k3000_E39.in
Warning: card &CELL ignored
Warning: card / ignored

     Current dimensions of program PWSCF are:
     Max number of different atomic species (ntypx) = 10
     Max number of k-points (npk) =  40000
     Max angular momentum in pseudopotentials (lmaxx) =  4
 
     K-points division:     npool     =       2
     R & G space division:  proc/nbgrp/npool/nimage =      12
     Subspace diagonalization in iterative solution of the eigenvalue problem:
     a serial algorithm will be used

 
     Parallelization info
     --------------------
     sticks:   dense  smooth     PW     G-vecs:    dense   smooth      PW
     Min          52      52     16                  864      864     151
     Max          54      54     17                  865      865     154
     Sum         637     637    199                10369    10369    1837
 
     Using Slab Decomposition
 


     bravais-lattice index     =            2
     lattice parameter (alat)  =      10.7804  a.u.
     unit-cell volume          =     313.2175 (a.u.)^3
     number of atoms/cell      =            2
     number of atomic types    =            2
     number of electrons       =        16.00
     number of Kohn-Sham states=           16
     kinetic-energy cutoff     =      39.0000  Ry
     charge density cutoff     =     156.0000  Ry
     scf convergence threshold =      1.0E-10
     mixing beta               =       0.7000
     number of iterations used =            8  plain     mixing
     Exchange-correlation= PBE
                           (   1   4   3   4   0   0   0)

     celldm(1)=  10.780412  celldm(2)=   0.000000  celldm(3)=   0.000000
     celldm(4)=   0.000000  celldm(5)=   0.000000  celldm(6)=   0.000000

     crystal axes: (cart. coord. in units of alat)
               a(1) = (  -0.500000   0.000000   0.500000 )  
               a(2) = (   0.000000   0.500000   0.500000 )  
               a(3) = (  -0.500000   0.500000   0.000000 )  

     reciprocal axes: (cart. coord. in units 2 pi/alat)
               b(1) = ( -1.000000 -1.000000  1.000000 )  
               b(2) = (  1.000000  1.000000  1.000000 )  
               b(3) = ( -1.000000  1.000000 -1.000000 )  


     PseudoPot. # 1 for Ca read from file:
     /usr/scratch4/magr4985/MG/HTDF/pseudo/SG15/Ca.upf
     MD5 check sum: b43c970dc090f2312d256360aabdb6f1
     Pseudo is Norm-conserving, Zval = 10.0
     Generated using ONCVPSP code by D. R. Hamann
     Using radial grid of  602 points,  6 beta functions with: 
                l(1) =   0
                l(2) =   0
                l(3) =   1
                l(4) =   1
                l(5) =   2
                l(6) =   2

     PseudoPot. # 2 for S  read from file:
     /usr/scratch4/magr4985/MG/HTDF/pseudo/SG15/S.upf
     MD5 check sum: f9d020296ee6110346977bfd66d424f6
     Pseudo is Norm-conserving, Zval =  6.0
     Generated using ONCVPSP code by D. R. Hamann
     Using radial grid of  602 points,  4 beta functions with: 
                l(1) =   0
                l(2) =   0
                l(3) =   1
                l(4) =   1

     atomic species   valence    mass     pseudopotential
        Ca            10.00    40.07800     Ca( 1.00)
        S              6.00    32.06500     S ( 1.00)

     48 Sym. Ops., with inversion, found



   Cartesian axes

     site n.     atom                  positions (alat units)
         1           Ca  tau(   1) = (   0.0000000   0.0000000   0.0000000  )
         2           S   tau(   2) = (  -0.5000000   0.5000000   0.5000000  )

     number of k points=    72  Gaussian smearing, width (Ry)=  0.0005
                       cart. coord. in units 2pi/alat
        k(    1) = (   0.0000000   0.0000000   0.0000000), wk =   0.0011574
        k(    2) = (  -0.0833333   0.0833333  -0.0833333), wk =   0.0092593
        k(    3) = (  -0.1666667   0.1666667  -0.1666667), wk =   0.0092593
        k(    4) = (  -0.2500000   0.2500000  -0.2500000), wk =   0.0092593
        k(    5) = (  -0.3333333   0.3333333  -0.3333333), wk =   0.0092593
        k(    6) = (  -0.4166667   0.4166667  -0.4166667), wk =   0.0092593
        k(    7) = (   0.5000000  -0.5000000   0.5000000), wk =   0.0046296
        k(    8) = (   0.0000000   0.1666667   0.0000000), wk =   0.0069444
        k(    9) = (  -0.0833333   0.2500000  -0.0833333), wk =   0.0277778
        k(   10) = (  -0.1666667   0.3333333  -0.1666667), wk =   0.0277778
        k(   11) = (  -0.2500000   0.4166667  -0.2500000), wk =   0.0277778
        k(   12) = (  -0.3333333   0.5000000  -0.3333333), wk =   0.0277778
        k(   13) = (   0.5833333  -0.4166667   0.5833333), wk =   0.0277778
        k(   14) = (   0.5000000  -0.3333333   0.5000000), wk =   0.0277778
        k(   15) = (   0.4166667  -0.2500000   0.4166667), wk =   0.0277778
        k(   16) = (   0.3333333  -0.1666667   0.3333333), wk =   0.0277778
        k(   17) = (   0.2500000  -0.0833333   0.2500000), wk =   0.0277778
        k(   18) = (   0.1666667  -0.0000000   0.1666667), wk =   0.0138889
        k(   19) = (   0.0000000   0.3333333   0.0000000), wk =   0.0069444
        k(   20) = (  -0.0833333   0.4166667  -0.0833333), wk =   0.0277778
        k(   21) = (  -0.1666667   0.5000000  -0.1666667), wk =   0.0277778
        k(   22) = (  -0.2500000   0.5833333  -0.2500000), wk =   0.0277778
        k(   23) = (   0.6666667  -0.3333333   0.6666667), wk =   0.0277778
        k(   24) = (   0.5833333  -0.2500000   0.5833333), wk =   0.0277778
        k(   25) = (   0.5000000  -0.1666667   0.5000000), wk =   0.0277778
        k(   26) = (   0.4166667  -0.0833333   0.4166667), wk =   0.0277778
        k(   27) = (   0.3333333   0.0000000   0.3333333), wk =   0.0138889
        k(   28) = (   0.0000000   0.5000000   0.0000000), wk =   0.0069444
        k(   29) = (  -0.0833333   0.5833333  -0.0833333), wk =   0.0277778
        k(   30) = (  -0.1666667   0.6666667  -0.1666667), wk =   0.0277778
        k(   31) = (   0.7500000  -0.2500000   0.7500000), wk =   0.0277778
        k(   32) = (   0.6666667  -0.1666667   0.6666667), wk =   0.0277778
        k(   33) = (   0.5833333  -0.0833333   0.5833333), wk =   0.0277778
        k(   34) = (   0.5000000   0.0000000   0.5000000), wk =   0.0138889
        k(   35) = (   0.0000000   0.6666667   0.0000000), wk =   0.0069444
        k(   36) = (  -0.0833333   0.7500000  -0.0833333), wk =   0.0277778
        k(   37) = (   0.8333333  -0.1666667   0.8333333), wk =   0.0277778
        k(   38) = (   0.7500000  -0.0833333   0.7500000), wk =   0.0277778
        k(   39) = (   0.6666667  -0.0000000   0.6666667), wk =   0.0138889
        k(   40) = (   0.0000000   0.8333333   0.0000000), wk =   0.0069444
        k(   41) = (   0.9166667  -0.0833333   0.9166667), wk =   0.0277778
        k(   42) = (   0.8333333   0.0000000   0.8333333), wk =   0.0138889
        k(   43) = (   0.0000000  -1.0000000   0.0000000), wk =   0.0034722
        k(   44) = (  -0.1666667   0.3333333   0.0000000), wk =   0.0277778
        k(   45) = (  -0.2500000   0.4166667  -0.0833333), wk =   0.0555556
        k(   46) = (  -0.3333333   0.5000000  -0.1666667), wk =   0.0555556
        k(   47) = (   0.5833333  -0.4166667   0.7500000), wk =   0.0555556
        k(   48) = (   0.5000000  -0.3333333   0.6666667), wk =   0.0277778
        k(   49) = (  -0.1666667   0.5000000   0.0000000), wk =   0.0277778
        k(   50) = (  -0.2500000   0.5833333  -0.0833333), wk =   0.0555556
        k(   51) = (   0.6666667  -0.3333333   0.8333333), wk =   0.0555556
        k(   52) = (   0.5833333  -0.2500000   0.7500000), wk =   0.0555556
        k(   53) = (   0.5000000  -0.1666667   0.6666667), wk =   0.0555556
        k(   54) = (   0.4166667  -0.0833333   0.5833333), wk =   0.0555556
        k(   55) = (   0.3333333   0.0000000   0.5000000), wk =   0.0277778
        k(   56) = (  -0.1666667   0.6666667  -0.0000000), wk =   0.0277778
        k(   57) = (   0.7500000  -0.2500000   0.9166667), wk =   0.0555556
        k(   58) = (   0.6666667  -0.1666667   0.8333333), wk =   0.0555556
        k(   59) = (   0.5833333  -0.0833333   0.7500000), wk =   0.0555556
        k(   60) = (   0.5000000   0.0000000   0.6666667), wk =   0.0277778
        k(   61) = (   0.8333333  -0.1666667   1.0000000), wk =   0.0277778
        k(   62) = (   0.7500000  -0.0833333   0.9166667), wk =   0.0555556
        k(   63) = (   0.6666667   0.0000000   0.8333333), wk =   0.0277778
        k(   64) = (  -0.1666667  -1.0000000  -0.0000000), wk =   0.0138889
        k(   65) = (   0.6666667  -0.3333333   1.0000000), wk =   0.0277778
        k(   66) = (   0.5833333  -0.2500000   0.9166667), wk =   0.0555556
        k(   67) = (   0.5000000  -0.1666667   0.8333333), wk =   0.0277778
        k(   68) = (   0.6666667  -0.1666667   1.0000000), wk =   0.0277778
        k(   69) = (   0.5833333  -0.0833333   0.9166667), wk =   0.0555556
        k(   70) = (   0.5000000   0.0000000   0.8333333), wk =   0.0277778
        k(   71) = (  -0.3333333  -1.0000000   0.0000000), wk =   0.0138889
        k(   72) = (  -0.5000000  -1.0000000   0.0000000), wk =   0.0069444

     Dense  grid:    10369 G-vectors     FFT dimensions: (  32,  32,  32)

     Estimated max dynamical RAM per process >       3.77 MB

     Estimated total dynamical RAM >      87.93 MB

     Initial potential from superposition of free atoms

     starting charge      15.7857, renormalised to      16.0000
     Starting wfcs are random

     total cpu time spent up to now is        0.2 secs

     Self-consistent Calculation

     iteration #  1     ecut=    39.00 Ry     beta= 0.70
     Davidson diagonalization with overlap
     ethr =  1.00E-02,  avg # of iterations =  8.9

     Threshold (ethr) on eigenvalues was too large:
     Diagonalizing with lowered threshold

     Davidson diagonalization with overlap
     ethr =  4.61E-04,  avg # of iterations =  2.2

     total cpu time spent up to now is        0.9 secs

     total energy              =     -94.49290006 Ry
     estimated scf accuracy    <       0.07375629 Ry

     iteration #  2     ecut=    39.00 Ry     beta= 0.70
     Davidson diagonalization with overlap
     ethr =  4.61E-04,  avg # of iterations =  3.4

     total cpu time spent up to now is        1.2 secs

     total energy              =     -94.51094422 Ry
     estimated scf accuracy    <       0.03125624 Ry

     iteration #  3     ecut=    39.00 Ry     beta= 0.70
     Davidson diagonalization with overlap
     ethr =  1.95E-04,  avg # of iterations =  2.2

     total cpu time spent up to now is        1.3 secs

     total energy              =     -94.51820746 Ry
     estimated scf accuracy    <       0.00060788 Ry

     iteration #  4     ecut=    39.00 Ry     beta= 0.70
     Davidson diagonalization with overlap
     ethr =  3.80E-06,  avg # of iterations =  7.3

     total cpu time spent up to now is        1.7 secs

     total energy              =     -94.51828839 Ry
     estimated scf accuracy    <       0.00000341 Ry

     iteration #  5     ecut=    39.00 Ry     beta= 0.70
     Davidson diagonalization with overlap
     ethr =  2.13E-08,  avg # of iterations =  2.2

     total cpu time spent up to now is        1.9 secs

     total energy              =     -94.51828971 Ry
     estimated scf accuracy    <       0.00000032 Ry

     iteration #  6     ecut=    39.00 Ry     beta= 0.70
     Davidson diagonalization with overlap
     ethr =  1.98E-09,  avg # of iterations =  2.0

     total cpu time spent up to now is        2.0 secs

     total energy              =     -94.51828982 Ry
     estimated scf accuracy    <          9.2E-09 Ry

     iteration #  7     ecut=    39.00 Ry     beta= 0.70
     Davidson diagonalization with overlap
     ethr =  5.77E-11,  avg # of iterations =  2.2

     total cpu time spent up to now is        2.2 secs

     total energy              =     -94.51828982 Ry
     estimated scf accuracy    <          2.1E-09 Ry

     iteration #  8     ecut=    39.00 Ry     beta= 0.70
     Davidson diagonalization with overlap
     ethr =  1.32E-11,  avg # of iterations =  2.0

     total cpu time spent up to now is        2.4 secs

     total energy              =     -94.51828982 Ry
     estimated scf accuracy    <          1.9E-10 Ry

     iteration #  9     ecut=    39.00 Ry     beta= 0.70
     Davidson diagonalization with overlap
     ethr =  1.17E-12,  avg # of iterations =  2.0

     total cpu time spent up to now is        2.6 secs

     End of self-consistent calculation

          k = 0.0000 0.0000 0.0000 (  1243 PWs)   bands (ev):

   -33.2955 -14.2688 -14.2688 -14.2688  -5.3289   5.9801   5.9801   5.9801
    10.0927  10.1707  10.1707  10.1707  10.7694  10.7694  16.8436  19.1355

          k =-0.0833 0.0833-0.0833 (  1279 PWs)   bands (ev):

   -33.2948 -14.2799 -14.2696 -14.2696  -5.2811   5.6569   5.8748   5.8748
    10.1472  10.2705  10.2705  10.4789  10.9484  10.9484  16.9502  18.9402

          k =-0.1667 0.1667-0.1667 (  1303 PWs)   bands (ev):

   -33.2928 -14.3100 -14.2720 -14.2720  -5.1472   4.9430   5.6183   5.6183
    10.1648  10.5481  10.5481  11.3237  11.4520  11.4520  16.8503  18.3793

          k =-0.2500 0.2500-0.2500 (  1305 PWs)   bands (ev):

   -33.2900 -14.3504 -14.2751 -14.2751  -4.9559   4.1679   5.3205   5.3205
    10.2750  10.9616  10.9616  12.1661  12.1661  12.2046  16.3448  17.4259

          k =-0.3333 0.3333-0.3333 (  1284 PWs)   bands (ev):

   -33.2873 -14.3902 -14.2783 -14.2783  -4.7530   3.5073   5.0642   5.0642
    10.5278  11.4679  11.4679  12.6228  12.9496  12.9496  16.2114  16.3771

          k =-0.4167 0.4167-0.4167 (  1293 PWs)   bands (ev):

   -33.2853 -14.4188 -14.2806 -14.2806  -4.5955   3.0646   4.8952   4.8952
    10.9123  11.9488  11.9488  12.3588  13.6637  13.6637  15.4180  15.4181

          k = 0.5000-0.5000 0.5000 (  1308 PWs)   bands (ev):

   -33.2846 -14.4292 -14.2814 -14.2814  -4.5356   2.9083   4.8367   4.8367
    11.2069  12.0299  12.1658  12.1658  14.1062  14.1062  14.8619  14.8619

          k = 0.0000 0.1667 0.0000 (  1299 PWs)   bands (ev):

   -33.2945 -14.2794 -14.2719 -14.2719  -5.2666   5.5111   5.8831   5.8831
     9.9934  10.3782  10.4233  10.4233  10.8133  11.2874  17.0118  18.7075

          k =-0.0833 0.2500-0.0833 (  1299 PWs)   bands (ev):

   -33.2930 -14.3015 -14.2755 -14.2733  -5.1656   4.9876   5.6717   5.7139
     9.9316  10.5498  10.7124  10.9201  11.0717  11.9786  17.0470  18.2523

          k =-0.1667 0.3333-0.1667 (  1303 PWs)   bands (ev):

   -33.2905 -14.3374 -14.2794 -14.2756  -4.9995   4.3330   5.3471   5.4492
    10.0194  10.8870  11.0805  11.6363  11.6449  12.7818  16.5364  17.5350

          k =-0.2500 0.4167-0.2500 (  1296 PWs)   bands (ev):

   -33.2877 -14.3761 -14.2825 -14.2793  -4.8069   3.7075   5.0540   5.1812
    10.2473  11.3475  11.5572  12.3256  12.3334  13.3782  16.0256  16.6594

          k =-0.3333 0.5000-0.3333 (  1290 PWs)   bands (ev):

   -33.2855 -14.4074 -14.2841 -14.2835  -4.6390   3.2340   4.8545   4.9724
    10.6218  11.8576  12.0238  12.4312  12.9963  13.8480  15.3863  15.9279

          k = 0.5833-0.4167 0.5833 (  1283 PWs)   bands (ev):

   -33.2843 -14.4234 -14.2870 -14.2838  -4.5479   2.9981   4.7709   4.8576
    11.0642  12.0020  12.2045  12.2869  13.6743  14.0479  14.9187  15.3463

          k = 0.5000-0.3333 0.5000 (  1286 PWs)   bands (ev):

   -33.2846 -14.4200 -14.2887 -14.2815  -4.5657   3.0441   4.8089   4.8518
    11.0399  11.9532  12.0390  12.4122  13.3881  14.1055  15.2265  15.3516

          k = 0.4167-0.2500 0.4167 (  1292 PWs)   bands (ev):

   -33.2862 -14.3984 -14.2881 -14.2779  -4.6860   3.3645   4.9561   4.9622
    10.6524  11.4753  11.9874  12.3959  12.8479  13.6533  15.9945  16.0265

          k = 0.3333-0.1667 0.3333 (  1295 PWs)   bands (ev):

   -33.2886 -14.3638 -14.2854 -14.2740  -4.8677   3.9033   5.1575   5.2118
    10.3712  10.9814  11.4784  11.7683  12.7294  12.8790  16.2287  16.7378

          k = 0.2500-0.0833 0.2500 (  1302 PWs)   bands (ev):

   -33.2914 -14.3256 -14.2809 -14.2709  -5.0570   4.5674   5.4230   5.5135
    10.2443  10.5802  10.9405  11.1104  12.0745  12.1113  16.7309  17.4240

          k = 0.1667-0.0000 0.1667 (  1295 PWs)   bands (ev):

   -33.2936 -14.2947 -14.2752 -14.2693  -5.2060   5.2225   5.6928   5.7759
    10.2028  10.3293  10.4716  10.7279  11.3192  11.3954  17.0162  18.2024

          k = 0.0000 0.3333 0.0000 (  1307 PWs)   bands (ev):

   -33.2919 -14.3064 -14.2805 -14.2805  -5.1083   4.6770   5.6674   5.6674
     9.5834  10.7275  10.9533  11.0827  11.0827  12.7410  17.3259  17.9435

          k =-0.0833 0.4167-0.0833 (  1300 PWs)   bands (ev):

   -33.2898 -14.3308 -14.2856 -14.2841  -4.9884   4.2548   5.4358   5.4996
     9.4993  11.0327  11.1452  11.5436  11.5542  13.5533  16.6179  17.1999

          k =-0.1667 0.5000-0.1667 (  1296 PWs)   bands (ev):

   -33.2874 -14.3625 -14.2895 -14.2885  -4.8337   3.8331   5.0872   5.2766
     9.6652  11.5311  11.5553  12.0613  12.0671  14.0824  15.5587  16.8710

          k =-0.2500 0.5833-0.2500 (  1282 PWs)   bands (ev):

   -33.2851 -14.3906 -14.2948 -14.2912  -4.6837   3.4745   4.7896   5.0661
    10.0229  12.0836  12.0844  12.3872  12.4882  14.1976  14.8136  16.5128

          k = 0.6667-0.3333 0.6667 (  1286 PWs)   bands (ev):

   -33.2837 -14.4077 -14.3014 -14.2901  -4.5812   3.2440   4.6226   4.9152
    10.5380  12.0734  12.2967  12.5728  13.0458  14.0355  14.7061  16.1330

          k = 0.5833-0.2500 0.5833 (  1283 PWs)   bands (ev):

   -33.2835 -14.4099 -14.3063 -14.2865  -4.5589   3.1967   4.6018   4.8507
    11.0841  11.6498  12.0467  12.7133  13.3909  13.7632  15.3021  15.8792

          k = 0.5000-0.1667 0.5000 (  1287 PWs)   bands (ev):

   -33.2846 -14.3973 -14.3074 -14.2816  -4.6247   3.3499   4.7191   4.8821
    10.9585  11.6061  11.9587  12.2830  12.9631  14.0982  15.7761  15.9352

          k = 0.4167-0.0833 0.4167 (  1295 PWs)   bands (ev):

   -33.2867 -14.3742 -14.3033 -14.2764  -4.7570   3.6739   4.9538   5.0048
    10.6914  11.1562  11.5579  12.0835  12.8423  13.6309  16.1750  16.1899

          k = 0.3333 0.0000 0.3333 (  1293 PWs)   bands (ev):

   -33.2891 -14.3479 -14.2937 -14.2725  -4.9154   4.1058   5.1984   5.2549
    10.4889  10.7940  11.0936  11.5201  12.7266  12.8509  16.5294  16.5309

          k = 0.0000 0.5000 0.0000 (  1299 PWs)   bands (ev):

   -33.2883 -14.3385 -14.2922 -14.2922  -4.9260   4.0310   5.4505   5.4505
     9.1156  11.1549  11.1552  11.8758  11.8758  14.3638  15.8823  17.5059

          k =-0.0833 0.5833-0.0833 (  1290 PWs)   bands (ev):

   -33.2862 -14.3578 -14.2983 -14.2974  -4.8276   3.8077   5.2315   5.3194
     9.0732  11.3801  11.5307  12.2275  12.2399  14.8009  15.0149  17.1784

          k =-0.1667 0.6667-0.1667 (  1284 PWs)   bands (ev):

   -33.2843 -14.3771 -14.3070 -14.2997  -4.7180   3.6455   4.8634   5.1519
     9.3379  11.8250  12.1379  12.4315  12.4742  14.0652  14.9464  17.0882

          k = 0.7500-0.2500 0.7500 (  1287 PWs)   bands (ev):

   -33.2829 -14.3890 -14.3183 -14.2987  -4.6258   3.5527   4.5256   4.9974
     9.8152  12.2668  12.3838  12.5234  12.7347  13.6282  14.8779  16.8405

          k = 0.6667-0.1667 0.6667 (  1276 PWs)   bands (ev):

   -33.2824 -14.3913 -14.3285 -14.2944  -4.5771   3.5047   4.3556   4.8925
    10.4567  11.8566  12.2160  12.6387  13.1623  13.7624  15.1670  16.3559

          k = 0.5833-0.0833 0.5833 (  1287 PWs)   bands (ev):

   -33.2831 -14.3868 -14.3314 -14.2882  -4.5871   3.4864   4.4110   4.8574
    11.1886  11.4939  11.8428  12.1190  13.6973  13.8304  15.6310  16.0397

          k = 0.5000 0.0000 0.5000 (  1304 PWs)   bands (ev):

   -33.2846 -14.3810 -14.3218 -14.2816  -4.6536   3.5325   4.6445   4.8975
    11.1201  11.4582  11.6102  12.0181  13.1375  14.0923  15.8931  16.1272

          k = 0.0000 0.6667 0.0000 (  1283 PWs)   bands (ev):

   -33.2847 -14.3653 -14.3040 -14.3040  -4.7912   3.7252   5.2922   5.2922
     8.7175  11.3715  11.6343  12.4754  12.4754  14.1143  15.6711  17.6729

          k =-0.0833 0.7500-0.0833 (  1285 PWs)   bands (ev):

   -33.2832 -14.3757 -14.3116 -14.3076  -4.7337   3.6834   5.0861   5.2037
     8.7522  11.5820  12.0027  12.6082  12.6200  13.4519  15.7865  17.4507

          k = 0.8333-0.1667 0.8333 (  1292 PWs)   bands (ev):

   -33.2820 -14.3796 -14.3256 -14.3072  -4.6694   3.7222   4.6752   5.0839
     9.1182  11.9957  12.4919  12.5999  12.6322  12.9699  15.6201  17.1398

          k = 0.7500-0.0833 0.7500 (  1284 PWs)   bands (ev):

   -33.2816 -14.3736 -14.3448 -14.3030  -4.6144   3.8391   4.2313   4.9690
     9.6961  12.2307  12.4168  12.5513  12.5633  13.4243  15.5764  16.5087

          k = 0.6667-0.0000 0.6667 (  1292 PWs)   bands (ev):

   -33.2820 -14.3703 -14.3529 -14.2960  -4.5838   3.7543   4.1368   4.8879
    10.4205  11.9230  12.1336  12.1939  13.2126  13.9967  15.6652  15.8437

          k = 0.0000 0.8333 0.0000 (  1290 PWs)   bands (ev):

   -33.2821 -14.3817 -14.3126 -14.3126  -4.7275   3.6847   5.2032   5.2032
     8.4584  11.5339  11.9824  12.7183  12.7183  13.0130  16.2113  17.7933

          k = 0.9167-0.0833 0.9167 (  1288 PWs)   bands (ev):

   -33.2814 -14.3837 -14.3198 -14.3135  -4.7007   3.7245   5.0060   5.1503
     8.5824  11.7033  12.2022  12.6833  12.7161  12.7803  16.1582  17.5919

          k = 0.8333 0.0000 0.8333 (  1284 PWs)   bands (ev):

   -33.2812 -14.3776 -14.3348 -14.3100  -4.6596   3.8174   4.5795   5.0633
     9.0399  12.0616  12.5130  12.5505  12.6052  12.8109  15.9627  17.0615

          k = 0.0000-1.0000 0.0000 (  1298 PWs)   bands (ev):

   -33.2812 -14.3870 -14.3158 -14.3158  -4.7122   3.7100   5.1754   5.1754
     8.3677  11.5982  12.0055  12.7413  12.7568  12.7568  16.3066  17.8179

          k =-0.1667 0.3333 0.0000 (  1306 PWs)   bands (ev):

   -33.2911 -14.3219 -14.2840 -14.2744  -5.0529   4.5225   5.4718   5.5380
     9.8756  10.8571  10.9645  11.0674  11.6235  12.7623  16.9478  17.2086

          k =-0.2500 0.4167-0.0833 (  1303 PWs)   bands (ev):

   -33.2887 -14.3526 -14.2917 -14.2769  -4.8936   4.0134   5.1829   5.2767
    10.0163  11.1332  11.4415  11.5436  12.2834  13.4511  16.2102  16.6688

          k =-0.3333 0.5000-0.1667 (  1292 PWs)   bands (ev):

   -33.2862 -14.3839 -14.2965 -14.2810  -4.7270   3.5562   4.9048   5.0493
    10.2967  11.5389  12.0049  12.1188  12.6462  13.8691  15.5680  16.2939

          k = 0.5833-0.4167 0.7500 (  1286 PWs)   bands (ev):

   -33.2844 -14.4069 -14.2986 -14.2851  -4.5995   3.2370   4.7207   4.8978
    10.7112  11.9436  12.0891  12.5454  12.9044  14.1542  15.0816  15.9099

          k = 0.5000-0.3333 0.6667 (  1292 PWs)   bands (ev):

   -33.2837 -14.4153 -14.2991 -14.2869  -4.5515   3.1221   4.6578   4.8446
    11.0708  11.6374  12.2725  12.6165  13.5057  13.7433  15.1840  15.6570

          k =-0.1667 0.5000 0.0000 (  1295 PWs)   bands (ev):

   -33.2878 -14.3497 -14.2962 -14.2863  -4.8788   3.9489   5.2795   5.2970
     9.4426  11.2144  11.5305  11.7947  12.0938  14.2252  15.6803  16.8255

          k =-0.2500 0.5833-0.0833 (  1286 PWs)   bands (ev):

   -33.2856 -14.3718 -14.3049 -14.2901  -4.7512   3.6861   4.9522   5.1095
     9.6627  11.5466  12.1050  12.1745  12.4106  14.4854  14.8368  16.5490

          k = 0.6667-0.3333 0.8333 (  1286 PWs)   bands (ev):

   -33.2837 -14.3897 -14.3114 -14.2940  -4.6394   3.4957   4.6496   4.9543
    10.0697  12.0175  12.2160  12.4260  12.7814  14.2649  14.6131  16.3939

          k = 0.5833-0.2500 0.7500 (  1281 PWs)   bands (ev):

   -33.2828 -14.3983 -14.3169 -14.2945  -4.5754   3.3944   4.4873   4.8567
    10.6227  11.6274  12.4118  12.7087  12.9863  13.9515  15.0609  16.3729

          k = 0.5000-0.1667 0.6667 (  1284 PWs)   bands (ev):

   -33.2831 -14.3960 -14.3199 -14.2910  -4.5792   3.3979   4.5013   4.8350
    10.9921  11.3899  12.1676  12.4728  13.2616  14.0341  15.3670  16.0305

          k = 0.4167-0.0833 0.5833 (  1289 PWs)   bands (ev):

   -33.2844 -14.3846 -14.3172 -14.2853  -4.6497   3.5116   4.6806   4.8932
    10.5970  11.6996  11.9729  12.0882  13.0070  14.2534  15.2631  16.0128

          k = 0.3333 0.0000 0.5000 (  1290 PWs)   bands (ev):

   -33.2864 -14.3689 -14.3070 -14.2800  -4.7657   3.7245   4.9692   5.0234
    10.2521  11.3844  11.5875  12.1269  12.6489  13.9360  15.6389  16.2615

          k =-0.1667 0.6667-0.0000 (  1293 PWs)   bands (ev):

   -33.2844 -14.3699 -14.3084 -14.3008  -4.7534   3.7001   5.1171   5.1271
     9.0718  11.5019  12.0002  12.4363  12.4710  14.0895  15.2620  16.9527

          k = 0.7500-0.2500 0.9167 (  1287 PWs)   bands (ev):

   -33.2829 -14.3786 -14.3189 -14.3047  -4.6749   3.6703   4.7569   4.9977
     9.3857  11.8127  12.3440  12.5844  12.6678  13.5252  15.2616  16.8171

          k = 0.6667-0.1667 0.8333 (  1280 PWs)   bands (ev):

   -33.2820 -14.3802 -14.3323 -14.3044  -4.6126   3.7098   4.3929   4.8910
     9.9022  11.9378  12.3131  12.5777  12.7668  13.7550  15.2909  16.6072

          k = 0.5833-0.0833 0.7500 (  1284 PWs)   bands (ev):

   -33.2820 -14.3769 -14.3428 -14.2995  -4.5837   3.7072   4.2371   4.8284
    10.5620  11.4768  12.2752  12.4649  12.9273  14.3294  15.4657  16.0609

          k = 0.5000 0.0000 0.6667 (  1295 PWs)   bands (ev):

   -33.2829 -14.3795 -14.3366 -14.2923  -4.5971   3.5837   4.4001   4.8255
    11.0245  11.3094  11.9455  12.1909  13.3851  14.2753  15.4832  15.8298

          k = 0.8333-0.1667 1.0000 (  1290 PWs)   bands (ev):

   -33.2820 -14.3798 -14.3173 -14.3131  -4.6972   3.7121   5.0128   5.0181
     8.8320  11.6847  12.3994  12.5491  12.7125  12.9860  15.9005  17.3132

          k = 0.7500-0.0833 0.9167 (  1289 PWs)   bands (ev):

   -33.2814 -14.3763 -14.3312 -14.3135  -4.6526   3.8130   4.6099   4.9344
     9.2383  11.9257  12.2830  12.6504  12.7212  13.0795  15.8596  16.9970

          k = 0.6667 0.0000 0.8333 (  1277 PWs)   bands (ev):

   -33.2813 -14.3648 -14.3516 -14.3079  -4.6110   3.9802   4.1487   4.8661
     9.8405  11.9213  12.2793  12.4871  12.6182  13.8592  15.8264  16.3343

          k =-0.1667-1.0000-0.0000 (  1288 PWs)   bands (ev):

   -33.2811 -14.3822 -14.3206 -14.3182  -4.6846   3.7640   4.9723   4.9793
     8.7495  11.7375  12.4262  12.5648  12.7119  12.7613  16.1219  17.4528

          k = 0.6667-0.3333 1.0000 (  1278 PWs)   bands (ev):

   -33.2838 -14.3777 -14.3203 -14.2951  -4.6679   3.6227   4.7532   4.8832
     9.9464  11.6814  12.1722  12.3349  12.8624  14.3092  14.7853  16.2987

          k = 0.5833-0.2500 0.9167 (  1284 PWs)   bands (ev):

   -33.2824 -14.3803 -14.3306 -14.3013  -4.6064   3.6404   4.4757   4.7814
    10.3925  11.5765  12.0394  12.5251  13.0263  14.3564  15.0920  16.2100

          k = 0.5000-0.1667 0.8333 (  1280 PWs)   bands (ev):

   -33.2820 -14.3810 -14.3340 -14.3042  -4.5837   3.6714   4.3454   4.7497
    10.8871  11.0125  12.4755  12.5857  12.6355  14.6440  15.2885  16.3196

          k = 0.6667-0.1667 1.0000 (  1292 PWs)   bands (ev):

   -33.2818 -14.3744 -14.3300 -14.3130  -4.6332   3.7802   4.6250   4.7226
     9.7420  11.8768  11.9202  12.6907  12.8120  13.7429  15.5343  16.6141

          k = 0.5833-0.0833 0.9167 (  1279 PWs)   bands (ev):

   -33.2813 -14.3652 -14.3437 -14.3161  -4.6034   3.9549   4.2937   4.6499
    10.2766  11.4014  12.1007  12.4885  12.7245  14.5996  15.7215  16.3657

          k = 0.5000 0.0000 0.8333 (  1279 PWs)   bands (ev):

   -33.2816 -14.3653 -14.3474 -14.3104  -4.5934   3.8895   4.2546   4.6721
    10.8723  10.9066  12.1036  12.6426  12.6576  15.1410  15.3243  16.0650

          k =-0.3333-1.0000 0.0000 (  1290 PWs)   bands (ev):

   -33.2811 -14.3692 -14.3336 -14.3229  -4.6286   3.9288   4.5830   4.6091
     9.6719  11.8882  11.8939  12.5019  12.7670  13.8200  15.9679  16.7846

          k =-0.5000-1.0000 0.0000 (  1256 PWs)   bands (ev):

   -33.2811 -14.3514 -14.3514 -14.3252  -4.6000   4.2069   4.2069   4.4439
    10.8201  10.8201  11.9995  12.4012  12.7775  15.2844  16.0669  16.2263

     the Fermi energy is     6.0590 ev

!    total energy              =     -94.51828982 Ry
     estimated scf accuracy    <          1.3E-12 Ry
     smearing contrib. (-TS)   =      -0.00000000 Ry
     internal energy E=F+TS    =     -94.51828982 Ry

     The total energy is F=E-TS. E is the sum of the following terms:
     one-electron contribution =     -28.75820897 Ry
     hartree contribution      =      19.07924343 Ry
     xc contribution           =     -14.86897317 Ry
     ewald contribution        =     -69.97035110 Ry

     convergence has been achieved in   9 iterations

     Writing all to output data dir out/mp-1672.save/
 
     init_run     :      0.07s CPU      0.15s WALL (       1 calls)
     electrons    :      2.13s CPU      2.36s WALL (       1 calls)

     Called by init_run:
     wfcinit      :      0.06s CPU      0.09s WALL (       1 calls)
     potinit      :      0.00s CPU      0.01s WALL (       1 calls)
     hinit0       :      0.00s CPU      0.04s WALL (       1 calls)

     Called by electrons:
     c_bands      :      1.90s CPU      2.09s WALL (      10 calls)
     sum_band     :      0.21s CPU      0.23s WALL (      10 calls)
     v_of_rho     :      0.01s CPU      0.02s WALL (      10 calls)
     mix_rho      :      0.00s CPU      0.00s WALL (      10 calls)

     Called by c_bands:
     init_us_2    :      0.03s CPU      0.03s WALL (     756 calls)
     init_us_2:cp :      0.02s CPU      0.03s WALL (     756 calls)
     cegterg      :      1.71s CPU      1.85s WALL (     360 calls)

     Called by *egterg:
     cdiaghg      :      0.43s CPU      0.48s WALL (    1559 calls)
     h_psi        :      1.16s CPU      1.28s WALL (    1631 calls)
     g_psi        :      0.01s CPU      0.01s WALL (    1235 calls)

     Called by h_psi:
     h_psi:calbec :      0.05s CPU      0.06s WALL (    1631 calls)
     vloc_psi     :      1.07s CPU      1.17s WALL (    1631 calls)
     add_vuspsi   :      0.03s CPU      0.03s WALL (    1631 calls)

     General routines
     calbec       :      0.04s CPU      0.06s WALL (    1631 calls)
     fft          :      0.00s CPU      0.04s WALL (     100 calls)
     ffts         :      0.00s CPU      0.00s WALL (      10 calls)
     fftw         :      1.11s CPU      1.21s WALL (   40394 calls)
 
     Parallel routines
 
     PWSCF        :      2.27s CPU      2.69s WALL

 
   This run was terminated on:  10:35:42  17Nov2023            

=------------------------------------------------------------------------------=
   JOB DONE.
=------------------------------------------------------------------------------=
