
     Program PWSCF v.7.1 starts on 14Nov2023 at 13:43: 9 

     This program is part of the open-source Quantum ESPRESSO suite
     for quantum simulation of materials; please cite
         "P. Giannozzi et al., J. Phys.:Condens. Matter 21 395502 (2009);
         "P. Giannozzi et al., J. Phys.:Condens. Matter 29 465901 (2017);
         "P. Giannozzi et al., J. Chem. Phys. 152 154105 (2020);
          URL http://www.quantum-espresso.org", 
     in publications or presentations arising from this work. More details at
     http://www.quantum-espresso.org/quote

     Parallel version (MPI), running on     8 processors

     MPI processes distributed on     1 nodes
     123058 MiB available memory on the printing compute node when the environment starts
 
     Reading input from pw_mp-804_nscf_k10_E76.in
Warning: card &IONS ignored
Warning: card / ignored
Warning: card &CELL ignored
Warning: card / ignored

     Current dimensions of program PWSCF are:
     Max number of different atomic species (ntypx) = 10
     Max number of k-points (npk) =  40000
     Max angular momentum in pseudopotentials (lmaxx) =  4

     Atomic positions and unit cell read from directory:
     out/mp-804.save/
     Atomic positions from file used, from input discarded
 
 
     R & G space division:  proc/nbgrp/npool/nimage =       8
     Subspace diagonalization in iterative solution of the eigenvalue problem:
     one sub-group per band group will be used
     scalapack distributed-memory algorithm (size of sub-group:  2*  2 procs)

 
     Parallelization info
     --------------------
     sticks:   dense  smooth     PW     G-vecs:    dense   smooth      PW
     Min          94      94     26                 3432     3432     532
     Max          95      95     27                 3438     3438     539
     Sum         757     757    211                27487    27487    4271
 
     Using Slab Decomposition
 


     bravais-lattice index     =            4
     lattice parameter (alat)  =       6.0262  a.u.
     unit-cell volume          =     308.5900 (a.u.)^3
     number of atoms/cell      =            4
     number of atomic types    =            2
     number of electrons       =        36.00
     number of Kohn-Sham states=         1704
     kinetic-energy cutoff     =      76.0000  Ry
     charge density cutoff     =     304.0000  Ry
     Exchange-correlation= PBE
                           (   1   4   3   4   0   0   0)

     celldm(1)=   6.026205  celldm(2)=   0.000000  celldm(3)=   1.628244
     celldm(4)=   0.000000  celldm(5)=   0.000000  celldm(6)=   0.000000

     crystal axes: (cart. coord. in units of alat)
               a(1) = (   1.000000   0.000000   0.000000 )  
               a(2) = (  -0.500000   0.866025   0.000000 )  
               a(3) = (   0.000000   0.000000   1.628244 )  

     reciprocal axes: (cart. coord. in units 2 pi/alat)
               b(1) = (  1.000000  0.577350  0.000000 )  
               b(2) = (  0.000000  1.154701  0.000000 )  
               b(3) = (  0.000000  0.000000  0.614159 )  


     PseudoPot. # 1 for Ga read from file:
     /usr/scratch4/magr4985/MG/HTDF/pseudo/SG15/Ga.upf
     MD5 check sum: 9961a622ff199abf6dfec9a0a10b8555
     Pseudo is Norm-conserving, Zval = 13.0
     Generated using ONCVPSP code by D. R. Hamann
     Using radial grid of  602 points,  6 beta functions with: 
                l(1) =   0
                l(2) =   0
                l(3) =   1
                l(4) =   1
                l(5) =   2
                l(6) =   2

     PseudoPot. # 2 for N  read from file:
     /usr/scratch4/magr4985/MG/HTDF/pseudo/SG15/N.upf
     MD5 check sum: c233fa8df51455e992258b7c3dee8a9f
     Pseudo is Norm-conserving, Zval =  5.0
     Generated using ONCVPSP code by D. R. Hamann
     Using radial grid of  602 points,  4 beta functions with: 
                l(1) =   0
                l(2) =   0
                l(3) =   1
                l(4) =   1

     atomic species   valence    mass     pseudopotential
        Ga            13.00    69.72300     Ga( 1.00)
        N              5.00    14.00670     N ( 1.00)

      6 Sym. Ops. (no inversion) found



   Cartesian axes

     site n.     atom                  positions (alat units)
         1           Ga  tau(   1) = (   0.0000000   0.5773502   0.8126302  )
         2           Ga  tau(   2) = (   0.5000000   0.2886752   1.6267523  )
         3           N   tau(   3) = (   0.0000000   0.5773502   1.4262057  )
         4           N   tau(   4) = (   0.5000000   0.2886752   0.6120835  )

     number of k points=     4  Gaussian smearing, width (Ry)=  0.0005
                       cart. coord. in units 2pi/alat
        k(    1) = (   0.0000000   0.0000000   0.0000000), wk =   0.2500000
        k(    2) = (   0.0000000   0.0000000  -0.3070793), wk =   0.2500000
        k(    3) = (   0.0000000  -0.5773503   0.0000000), wk =   0.7500000
        k(    4) = (   0.0000000  -0.5773503  -0.3070793), wk =   0.7500000

     Dense  grid:    27487 G-vectors     FFT dimensions: (  36,  36,  60)

     Estimated max dynamical RAM per process >     149.33 MB

     Estimated total dynamical RAM >       1.17 GB

     The potential is recalculated from file :
     out/mp-804.save/charge-density

     Starting wfcs are random

     Band Structure Calculation
     ParO style diagonalization

     ethr =  5.00E-06,  avg # of iterations =  6.0

     total cpu time spent up to now is     1052.5 secs

     End of band structure calculation

          k = 0.0000 0.0000 0.0000 (  3441 PWs)   bands (ev):

    -5.2204  -4.3630  -2.8454  -2.8348  -2.8348  -2.7767  -2.7767  -2.5877
    -2.5877  -2.4905  -2.4905  -1.1961   3.6880   9.6807   9.6807  10.6715
    10.7063  10.7063  12.6672  14.9963  19.9124  20.6398  20.6398  21.4810
    22.4465  22.4465  25.3428  26.3923  26.3923  28.6439  28.6439  28.8995
    28.9599  32.4110  34.8742  34.8742  37.4965  38.7963  38.7963  39.8140
    39.8140  39.8347  43.5032  43.5033  45.2413  47.3368  47.3368  49.1592
    49.1592  49.2966  51.9618  52.3405  56.8450  57.7356  57.7356  59.8584
    60.4450  60.5969  60.5969  62.2895  62.4939  62.4939  65.4993  65.4993
    66.1508  66.1508  66.3299  66.3628  66.4780  66.4780  67.8618  69.4992
    69.4992  70.1274  70.5254  70.5254  72.9861  72.9861  73.8062  74.8682
    74.8801  74.8801  77.8115  77.8115  78.0261  78.5678  78.5678  78.6485
    79.8365  80.1317  80.2956  80.2956  80.7789  80.7789  80.8375  81.1513
    81.6143  81.6143  82.8270  82.8270  84.4375  84.8500  85.9223  85.9223
    87.0274  88.0515  88.0515  88.3333  88.8049  90.9912  90.9912  96.8204
    96.8204  97.5878  97.5878  98.2194  99.4754  99.6626 101.1794 101.1794
   101.1812 103.0541 103.7042 103.7042 105.1642 105.1642 105.3906 105.3906
   106.0662 106.0662 106.3704 107.1351 107.1351 107.2783 107.7600 107.8395
   107.8395 108.1118 109.4055 109.4055 109.8674 109.8674 113.3175 113.3175
   114.4762 114.8289 120.6179 120.7321 120.7321 121.6651 124.9123 124.9123
   125.5650 125.5650 127.0329 127.0528 127.0528 127.7627 128.9454 129.3446
   130.3948 130.4196 130.4196 130.5565 131.4160 131.4160 131.6960 133.7714
   133.9711 133.9711 135.1267 136.2892 136.2892 136.8632 138.1403 138.1403
   139.3756 139.3836 139.3836 139.9844 140.0749 140.0749 140.4522 141.6405
   141.6405 142.3053 142.3053 142.3726 143.7318 144.3142 144.3142 144.4667
   144.7542 144.9372 144.9372 145.0246 145.0246 145.4613 145.4613 146.1257
   146.1257 146.4883 146.7471 146.7471 147.2127 147.3826 149.0587 150.1891
   150.1891 151.6643 151.6643 151.7974 153.1308 153.8344 153.8344 153.9274
   154.8587 155.0337 155.0337 155.8683 155.8683 155.9304 156.3458 157.4076
   157.4076 158.0180 158.0180 158.1773 158.1773 158.8416 158.8416 158.9542
   159.1558 159.5669 159.5669 160.3937 160.4611 160.8401 160.8402 161.1402
   161.9209 161.9209 162.5402 163.6384 163.6384 164.0901 165.2332 165.2332
   165.5833 165.5833 165.9213 166.1408 166.3895 166.6008 166.6008 170.5441
   170.5441 171.2045 172.4931 172.4931 173.8237 174.6121 174.6121 174.6255
   175.3055 175.3812 176.5483 176.5483 178.4114 178.4114 179.4473 180.4047
   180.4047 180.5144 180.5144 181.0347 182.0249 182.3678 182.9445 182.9445
   183.5452 183.6944 183.6944 183.8774 183.8774 183.8939 185.8452 185.8452
   186.8696 186.9271 187.0229 187.0229 187.4796 187.4796 188.2262 188.3544
   189.3179 189.3179 190.7052 190.7052 191.6143 193.5608 193.5608 193.9948
   194.6853 195.1423 195.1423 195.1580 195.1580 195.4258 195.4258 195.4286
   195.4727 195.4727 195.7932 197.0989 197.3531 197.3733 197.6943 197.6943
   199.5973 200.1562 200.1562 202.3325 207.3746 207.3746 207.9753 208.2359
   210.5034 210.5034 212.7398 212.7398 213.5141 213.5141 213.5404 214.4091
   214.4132 214.4132 215.0674 215.9237 215.9237 216.9519 217.0305 217.0305
   217.2417 217.2501 217.2501 218.5627 218.5627 218.9519 218.9519 220.3506
   220.4472 220.5692 220.5692 220.8472 220.9287 220.9287 220.9973 221.5894
   221.5894 221.7070 222.3058 222.9713 222.9713 223.5468 223.8773 223.8773
   224.7445 224.7445 225.6645 226.5287 226.5287 226.6325 226.6325 226.9346
   227.1079 227.1079 227.1164 227.2622 227.7919 228.7243 228.7243 228.9846
   228.9846 228.9959 229.9957 231.6485 231.6485 232.9273 232.9273 234.1160
   235.2512 235.2512 236.0185 236.0185 236.4620 236.4620 239.0642 239.4423
   240.2430 241.9141 242.2315 242.2315 246.2339 246.2339 247.8661 247.9692
   249.0519 249.4063 249.6461 249.6461 250.2224 250.2224 250.4163 250.4163
   251.7061 251.9120 252.1839 252.1839 252.4164 252.4164 252.4752 252.5713
   252.8549 252.8549 254.2497 254.2497 254.5338 254.7643 254.9494 254.9494
   255.3064 255.6771 255.6771 255.7819 255.7819 256.2054 256.5989 256.5989
   256.9185 256.9185 257.5537 257.5537 257.6049 257.8346 257.9729 257.9729
   258.3585 258.5330 258.9197 259.8912 259.8912 259.9427 259.9427 260.2154
   261.4966 261.6572 261.6572 261.8457 261.8457 262.0809 262.3063 262.4952
   262.8700 262.8700 263.2341 263.2341 263.3491 264.1384 264.7252 264.7252
   265.1990 265.1990 265.6930 267.3448 267.3448 267.8824 267.8824 268.8461
   268.8936 270.0575 270.0575 270.5955 270.5955 271.6186 271.6186 271.7068
   271.7262 271.7346 272.1648 272.5991 272.5991 272.8019 273.3381 273.6532
   273.9340 273.9340 274.3084 274.8389 275.0301 275.0301 275.0961 275.0961
   275.1730 276.0482 276.0482 276.2539 276.2539 276.7145 276.7145 276.9292
   276.9292 277.2896 277.3976 277.3976 277.8428 277.9576 278.0131 278.0599
   278.0599 278.1905 278.1918 278.1918 278.2013 278.2159 278.2159 278.6342
   279.1931 279.1931 279.6963 279.6963 280.0560 280.1062 280.5597 280.5597
   282.0584 282.0584 282.1839 282.1839 282.3042 282.6336 284.9759 287.1463
   287.1463 287.1546 287.6169 287.6169 287.9746 287.9746 290.0267 290.0268
   290.6760 292.2754 292.2755 293.3420 293.3420 293.6851 295.8390 296.6837
   297.8032 297.8032 299.0953 299.0953 299.8869 301.9501 302.2563 302.5664
   302.7061 302.7061 303.8135 303.8135 304.1808 304.1808 304.9617 304.9617
   305.1932 305.1932 305.3000 305.4032 305.4245 305.6702 305.6702 306.4479
   308.4377 308.4377 309.5541 309.5541 310.0848 310.0848 310.4758 310.4758
   310.4921 310.7760 311.7580 311.7580 311.7918 311.9346 311.9346 311.9453
   312.1894 314.6286 314.6286 314.7224 315.0370 315.9658 315.9658 316.2909
   316.9965 318.9415 318.9415 319.2772 319.2772 320.0484 320.1091 320.1097
   320.1097 320.2662 320.7816 320.7816 320.9824 320.9824 321.4877 324.4043
   324.8887 324.8887 325.1504 325.8349 325.8349 327.1003 327.1003 327.5476
   327.5476 328.3956 328.3956 328.4401 328.4401 329.1102 329.1324 329.3945
   329.3945 330.8085 330.8449 331.5787 331.5787 332.0307 332.0307 332.2337
   333.1618 333.1618 333.4219 334.0460 334.3712 334.3795 335.0905 335.0905
   335.7803 336.1394 336.1394 336.1641 336.4820 336.6927 336.6927 336.8422
   336.8422 338.0009 338.0009 338.0766 338.0766 338.4126 338.4126 339.2133
   339.2277 339.2375 339.6802 339.6802 340.8589 340.8589 340.9766 341.2922
   341.5289 341.5289 341.6157 341.7191 342.4391 343.0578 343.0761 343.0761
   343.9102 343.9102 344.3465 344.3695 344.5914 344.5914 345.7823 345.7823
   346.6832 346.6832 347.5683 348.5629 348.5629 349.2505 349.2997 349.2997
   349.6001 350.6360 351.3433 351.3433 354.7636 354.7636 355.1071 355.1071
   355.5781 355.6141 356.1357 356.1357 359.3349 360.0431 360.8906 361.5306
   361.5306 361.5903 362.4098 362.4098 362.6810 362.6810 363.3643 363.5935
   363.9000 364.4621 364.4621 367.3668 367.3668 367.5936 367.5936 367.6252
   367.6252 367.6541 367.9060 368.6855 368.6855 369.4648 369.7685 369.7685
   369.8061 370.0689 370.0773 370.5037 370.5037 370.7914 370.7914 370.7939
   370.7939 370.8631 371.7282 371.7282 372.3111 372.3111 372.3444 372.3444
   372.9635 372.9635 373.0127 373.1942 373.2838 374.3842 374.3842 374.6473
   375.9308 375.9592 375.9592 376.0742 376.3892 376.3892 377.2508 377.2508
   377.2815 377.2815 377.4783 377.6776 378.1949 378.7563 378.7563 380.3784
   380.3784 381.4879 381.4879 381.5629 381.6451 381.8548 382.1758 382.1758
   383.4150 383.4150 384.1124 385.2737 386.2033 386.2033 386.8195 386.8195
   387.6425 388.5707 388.5707 388.9046 388.9046 388.9357 390.1679 390.4135
   390.7521 390.7853 390.8023 390.8023 391.1585 391.4291 391.9156 391.9156
   392.4958 392.4958 392.9968 392.9968 393.8809 393.8809 393.9002 394.1549
   394.1549 394.2120 394.2120 394.4499 394.7092 394.7676 394.8044 394.8044
   394.9836 394.9836 395.0858 395.2939 395.2939 395.8053 396.0978 396.5847
   396.5847 397.7978 397.7978 398.4043 398.4043 398.4237 399.6297 399.6297
   399.8110 399.8110 399.8856 399.9943 400.1804 401.5095 401.5095 401.9303
   402.1455 402.3743 402.3743 402.8274 402.8274 404.1166 404.1166 404.3183
   404.4247 404.4437 404.7214 404.7214 405.2229 405.8560 405.9046 405.9046
   406.1410 406.1410 407.2419 408.5097 408.5097 408.7277 408.7277 409.1630
   409.1630 409.6261 409.8482 410.1157 410.1157 410.3524 410.5664 410.5664
   410.8263 410.8263 411.6467 411.6573 411.8197 412.1618 412.1618 412.2632
   412.2632 412.8815 412.8815 412.9750 413.0064 413.0064 413.3294 413.3294
   413.5254 414.1251 414.1251 414.2220 414.2220 414.3853 414.3853 415.0359
   415.4671 415.5361 415.5591 416.1759 416.2462 416.2462 416.2679 416.2679
   416.6770 416.8301 418.0783 418.0783 418.2128 419.2782 419.2987 419.4738
   419.4738 420.4269 420.4269 420.7024 421.7712 422.0285 422.0285 422.7015
   422.7015 422.9612 423.1594 423.1594 423.4391 423.4391 423.5462 423.7742
   424.6088 424.6088 425.1352 425.1352 425.5587 426.6123 426.7180 426.7180
   428.5432 428.8293 428.8293 430.1331 430.2334 430.2334 430.5386 430.5386
   431.1590 431.1590 431.3944 431.3944 431.5006 431.5576 431.7890 431.8603
   431.8644 431.8644 432.5920 432.5920 433.0076 433.0076 433.2485 433.2485
   433.5952 433.6972 433.6972 433.7597 433.7597 433.8020 433.9177 433.9979
   434.7602 434.7602 434.9006 434.9382 434.9382 435.1337 435.8789 436.1824
   436.1824 437.4784 438.3333 440.1152 440.1152 442.9179 443.2381 444.0717
   444.0717 444.2645 444.5380 444.5380 444.7134 444.7434 444.7434 444.8646
   445.5145 445.5145 445.6432 445.6432 445.8233 446.6771 448.5341 448.5341
   448.5743 449.1916 449.7419 449.7419 450.1382 451.1858 451.1956 451.4262
   451.4262 451.4313 451.4313 451.6028 452.6680 453.1382 453.1382 453.9483
   453.9483 454.2307 454.2315 454.4182 454.4182 454.5101 454.5101 454.6017
   454.6017 454.6675 455.1859 455.1859 455.4308 455.4308 455.5432 455.5432
   455.7266 455.7382 455.7507 456.0970 456.0970 456.3103 456.3973 456.4597
   456.4597 456.7780 457.4126 457.4126 457.8225 457.9535 457.9535 458.4355
   459.0251 459.0251 459.5728 459.5728 460.2408 460.3113 460.4912 460.4912
   461.0092 461.0092 461.9269 462.0777 462.1837 462.1837 462.2221 462.2991
   462.7974 462.7974 462.8722 462.8722 463.6511 463.6511 463.8390 463.9445
   464.0239 464.7991 464.7991 465.2977 465.2977 466.5886 470.0778 470.0778
   470.3286 470.4572 470.4572 473.8231 473.8231 476.6973 476.6973 476.7034
   476.7034 477.1940 479.5526 479.7632 479.7632 479.7635 482.1597 482.1597
   482.2189 482.2189 485.2998 485.3056 485.3056 486.1999 486.1999 486.4586
   486.6717 486.6717 487.1315 487.6430 487.9508 487.9630 488.7616 490.5387
   490.5387 491.3322 491.3322 492.0584 492.0584 492.7625 492.8448 492.8448
   493.3791 493.3791 493.6607 493.8001 493.8001 494.3549 494.4177 494.4177
   495.0408 495.0408 495.0919 495.2367 495.2402 495.9323 497.6674 497.6674
   497.7138 497.9511 497.9511 498.7323 498.8549 499.0426 499.0426 499.2707
   499.2707 499.3743 499.4447 499.5085 499.5085 499.7915 499.7915 499.9082
   499.9082 500.3589 500.3589 500.4459 500.4560 502.2533 502.2533 503.0603
   503.2606 503.2606 503.4914 503.4914 503.8586 503.8805 503.9444 503.9444
   504.2137 504.2137 504.2491 505.0546 505.2168 505.2168 505.3308 505.3308
   505.6734 505.6734 505.7189 505.8506 506.8029 506.8029 506.9897 507.8942
   508.2076 508.2076 508.3042 508.3042 508.3518 508.3518 508.9595 508.9595
   509.5395 509.8411 509.8757 509.8757 510.0665 510.0665 510.1452 510.2311
   510.4068 510.4088 510.7103 510.7103 511.0011 511.1824 511.3492 511.3492
   512.2398 512.4195 512.4195 512.6801 512.6801 512.7410 512.7551 512.7973
   512.7973 512.8160 512.8343 512.9037 512.9037 513.1711 515.8863 516.3275
   516.3275 516.8165 516.8165 518.6203 518.6203 519.5963 519.5963 520.8297
   521.2586 521.4920 521.4920 521.6019 521.6019 522.2645 522.2645 522.5607
   522.9385 522.9697 522.9697 522.9881 523.0952 523.0952 523.5905 524.1131
   524.2263 524.2263 524.3890 526.0018 526.0334 526.2536 526.2536 526.2991
   526.2991 527.0561 527.0561 527.1365 527.1365 527.6081 527.8799 527.9606
   527.9606 528.0426 528.0426 528.4981 528.5038 529.7980 530.0515 530.0515
   530.7193 530.7193 530.8438 531.1268 531.1268 531.2779 531.2779 531.3128
   531.3128 531.6304 531.6304 531.9271 532.1533 533.5734 533.5734 534.0198
   534.2056 534.2088 534.2088 535.9788 536.3724 536.3724 537.1357 537.1357
   537.1543 537.5097 537.8290 537.8290 537.9876 539.0915 539.0915 540.6167
   540.6168 540.7130 540.9509 541.9840 541.9840 542.7136 543.7761 543.7761
   544.0048 544.6488 545.0540 545.5541 545.5541 545.8675 545.8777 545.8777
   546.0126 546.0126 546.2880 546.2880 546.2980 546.5317 546.8477 546.8477
   546.9305 547.1165 548.5048 549.1207 549.2489 549.2489 549.8395 549.8395
   549.8692 549.8692 550.0345 550.1413 550.1981 550.2118 550.2118 550.2874
   550.2874 550.3143 550.4631 550.4919 550.4919 550.5073 550.5073 550.6710
   550.6710 550.7698 550.8586 551.0699 552.3246 552.3246 552.3876 552.4081
   552.4081 552.4418 555.5647 555.5647 555.8397 555.8397 556.6495 556.6495
   556.6927 556.9525 557.4281 557.4281 557.4594 557.5876 558.3571 559.2953
   559.2953 562.2863 562.2863 563.2228 563.7675 563.7675 564.1490 564.1490
   565.7136 565.7136 565.8820 565.8820 565.9151 566.2088 566.5476 566.5560
   566.5560 567.3425 567.5742 567.5963 568.3881 568.3881 568.8921 568.9868
   569.1161 569.1161 569.5570 569.5570 569.5795 569.5795 569.7157 570.6463
   570.9101 570.9101 571.2259 571.2259 571.3062 571.4767 571.4767 571.8289
   571.8289 572.1442 572.2158 572.2158 572.2512 572.7555 572.7555 573.0160
   573.0160 573.1370 573.1541 573.5536 574.0541 574.0541 574.4090 574.7540
   574.7540 575.1603 575.1603 575.2644 575.2644 575.4101 576.1273 576.1273
   576.3948 576.3948 576.7524 576.7708 576.8869 577.1914 577.3009 577.3009
   577.8101 577.8271 577.8271 577.9474 577.9474 577.9632 577.9632 578.1229
   578.1727 578.1727 578.2412 578.3120 578.3120 578.3470 578.3787 579.5306
   579.5306 579.6873 579.6873 580.8281 580.8281 580.9011 581.8685 581.8999
   581.9163 582.0471 582.1969 582.1969 582.6977 582.6977 583.0939 583.0939
   583.5407 584.1611 585.9497 586.0393 586.0393 586.8348 586.8348 586.9293
   587.1313 587.1313 587.5852 587.5852 588.2643 588.2643 588.4774 588.9974
   588.9974 589.2401 589.2450 589.2640 589.2640 589.3627 589.3627 590.0625
   590.0658 590.3444 590.3444 590.6824 590.6824 593.2615 594.7733 594.7733
   595.3768 595.4287 595.4287 595.6081 595.6804 595.9229 596.7664 596.7664
   597.1201 597.1201 598.2794 598.2843 598.2843 598.4609 598.7650 598.7650
   598.9661 600.1972 600.1972 600.3058 600.3058 600.9219 601.0253 601.0253
   601.2211 601.4765 602.1976 602.2628 602.2628 602.4361 602.4361 603.4052
   603.5292 603.5292 603.7299 603.7299 603.8023 604.0216 604.7243 604.7243
   605.4726 606.5681 606.5681 606.6414 606.9636 606.9636 607.0777 607.7248
   607.7468 607.7468 607.7521 607.7521 607.9105 607.9707 608.0021 608.0143
   608.0143 608.1129 608.1129 608.7963 608.8146 608.8146 609.0572 609.0572
   609.2827 609.3828 609.3880 609.8157 609.8157 609.9913 609.9913 610.1675
   610.2846 610.4634 610.4634 610.4817 610.4817 611.0429 611.0429 611.0873
   611.0873 611.0923 611.1945 612.0655 612.0655 612.0685 612.0685 612.2574
   612.2574 612.3013 612.3013 612.4873 612.5137 612.5243 612.5460 613.3206
   613.3206 613.6537 613.6537 613.8104 613.8104 613.8526 613.8526 614.1822
   614.2729 614.3022 614.3022 615.1475 615.1475 615.2876 615.9141 615.9141
   615.9802 616.1263 616.1263 616.1667 616.1693 616.1801 616.2772 617.6005
   617.6462 617.6462 617.6607 617.6607 617.8255 619.4635 619.4635 619.6113
   620.3715 620.7076 620.7076 621.9828 621.9828 623.5463 623.5463 623.5757
   623.8728 623.8728 624.2183 624.2183 624.2830 624.3884 624.5562 624.5965
   624.5965 624.6079 624.6079 625.3703 625.5514 628.0075 628.0075 628.4094
   628.4777 628.4777 628.5829 628.8282 629.3736 629.5280 629.5280 629.5441
   629.5441 629.8898 630.0091 630.0868 630.0868 630.1425 630.2615 630.2615
   630.4730 631.1158 631.1158 631.4157 631.4157 631.4273 631.4273 631.4839

          k = 0.0000 0.0000-0.3071 (  3460 PWs)   bands (ev):

    -4.6788  -4.6788  -2.8153  -2.8153  -2.8153  -2.8153  -2.5306  -2.5306
    -2.5306  -2.5306  -2.4757  -2.4757   6.8833   6.8833  10.1807  10.1807
    10.1807  10.1807  14.9911  14.9911  19.2067  19.2067  21.1546  21.1546
    21.1546  21.1546  27.0464  27.0464  29.1411  29.1411  29.1411  29.1411
    33.4894  33.4894  33.4894  33.4894  33.9424  33.9424  36.9976  36.9976
    43.1659  43.1659  43.1659  43.1659  43.4881  43.4881  52.8456  52.8456
    52.8456  52.8456  55.9255  55.9255  55.9255  55.9255  57.1001  57.1001
    57.9778  57.9778  58.8304  58.8304  58.8304  58.8305  62.1467  62.1467
    65.7801  65.7801  67.8931  67.8931  67.8931  67.8931  69.9614  69.9615
    70.1361  70.1361  70.1361  70.1361  70.9604  70.9604  75.8148  75.8149
    76.0214  76.0214  76.0214  76.0214  77.6350  77.6350  79.3422  79.3422
    79.3422  79.3422  82.3878  82.3878  82.3878  82.3878  84.1118  84.1118
    86.6597  86.6597  86.6597  86.6597  88.5911  88.5911  88.9927  88.9927
    88.9927  88.9927  89.4517  89.4517  89.4517  89.4517  90.6007  90.6007
    92.7379  92.7379  93.0362  93.0362  93.0362  93.0362  93.5796  93.5796
    95.2801  95.2801  95.2801  95.2801 101.2513 101.2513 106.1216 106.1216
   106.1216 106.1216 108.7674 108.7674 111.0977 111.0977 111.4722 111.4722
   111.4722 111.4722 116.2755 116.2755 117.8137 117.8137 118.3875 118.3875
   118.3875 118.3875 123.6211 123.6211 123.6211 123.6211 124.6393 124.6393
   124.6393 124.6393 125.4759 125.4759 128.4788 128.4788 128.4788 128.4788
   130.1834 130.1835 131.2831 131.2831 131.7152 131.7152 131.7152 131.7152
   133.0382 133.0382 133.0382 133.0382 133.9373 133.9373 136.9229 136.9229
   138.3274 138.3274 138.7168 138.7168 138.7168 138.7168 139.8981 139.8981
   139.8981 139.8981 141.1055 141.1055 142.5963 142.5963 142.5963 142.5963
   144.2122 144.2122 144.2122 144.2122 144.3840 144.3840 145.3831 145.3831
   146.1686 146.1686 146.5692 146.5692 146.5692 146.5692 147.0347 147.0347
   147.7447 147.7447 147.7448 147.7448 150.0336 150.0336 150.0336 150.0336
   151.3269 151.3269 151.5640 151.5640 151.5640 151.5640 153.8846 153.8847
   157.0747 157.0747 162.0254 162.0254 162.0254 162.0254 163.5445 163.5445
   165.3066 165.3066 165.3066 165.3066 167.0537 167.0537 167.0537 167.0537
   167.0935 167.0935 167.5818 167.5818 168.3714 168.3714 168.3714 168.3714
   170.3913 170.3913 170.5819 170.5819 171.8308 171.8308 171.8308 171.8308
   173.1651 173.1651 173.2265 173.2265 173.2265 173.2265 173.5989 173.5989
   174.5099 174.5099 174.5099 174.5099 174.6510 174.6510 176.6229 176.6229
   176.6229 176.6229 178.9968 178.9968 182.1172 182.1172 182.1172 182.1172
   183.8957 183.8957 183.8957 183.8957 184.8136 184.8136 186.0478 186.0478
   187.1024 187.1024 187.1024 187.1024 188.0145 188.0145 188.0509 188.0509
   188.0509 188.0510 188.9284 188.9284 188.9284 188.9284 190.2423 190.2423
   190.2423 190.2423 190.2778 190.2778 191.4650 191.4650 196.4918 196.4918
   197.3949 197.3949 197.3949 197.3949 200.1514 200.1514 200.3337 200.3337
   200.3337 200.3337 202.7561 202.7561 202.9093 202.9093 202.9093 202.9093
   206.2342 206.2342 206.2342 206.2342 206.4348 206.4348 208.2135 208.2135
   209.2951 209.2951 209.2951 209.2951 209.8336 209.8336 210.4672 210.4672
   210.4672 210.4672 216.5910 216.5910 219.2228 219.2228 219.2228 219.2228
   223.7297 223.7297 223.7630 223.7630 223.7630 223.7630 224.5639 224.5639
   224.5639 224.5639 226.4525 226.4525 228.2358 228.2358 230.2979 230.2979
   231.1222 231.1222 231.1222 231.1222 232.8046 232.8046 232.8046 232.8046
   236.0840 236.0840 238.1394 238.1394 238.7822 238.7822 238.7823 238.7823
   240.4874 240.4874 240.6373 240.6373 240.6373 240.6373 241.6160 241.6160
   241.9486 241.9486 242.6280 242.6280 242.6280 242.6280 243.1906 243.1906
   243.1906 243.1906 243.7901 243.7901 244.4209 244.4209 244.4209 244.4209
   245.9489 245.9489 245.9937 245.9937 245.9937 245.9937 246.6533 246.6533
   246.9972 246.9972 246.9972 246.9972 247.9903 247.9903 248.9966 248.9966
   248.9966 248.9966 249.5097 249.5097 250.2853 250.2853 250.2853 250.2853
   250.6829 250.6829 250.7966 250.7966 250.7966 250.7966 251.9239 251.9239
   253.2021 253.2021 253.3163 253.3163 253.3163 253.3163 253.9363 253.9363
   253.9364 253.9364 254.5589 254.5589 254.5589 254.5589 254.7491 254.7491
   255.5200 255.5200 255.5200 255.5200 255.6668 255.6668 256.9114 256.9114
   256.9114 256.9114 260.2236 260.2236 262.2982 262.2982 262.2982 262.2982
   263.8294 263.8294 264.0136 264.0136 264.9340 264.9340 264.9340 264.9340
   266.6502 266.6502 266.6502 266.6502 267.9130 267.9130 267.9130 267.9130
   267.9746 267.9746 267.9788 267.9788 268.4355 268.4355 268.4355 268.4355
   268.9208 268.9208 269.3968 269.3968 272.6957 272.6957 272.6957 272.6957
   276.0590 276.0590 280.5235 280.5235 280.5235 280.5235 283.3045 283.3045
   283.3045 283.3045 284.4915 284.4915 285.0685 285.0685 285.5198 285.5198
   285.5198 285.5198 286.9535 286.9535 287.3868 287.3868 288.3035 288.3035
   288.3035 288.3035 289.0201 289.0202 289.0202 289.0202 289.2335 289.2335
   289.2335 289.2335 289.9949 289.9949 290.0439 290.0439 290.3368 290.3368
   290.3368 290.3368 292.7874 292.7874 292.7874 292.7874 292.8368 292.8368
   295.3639 295.3639 297.2630 297.2630 297.2630 297.2630 299.2565 299.2565
   299.2565 299.2565 299.3200 299.3200 301.1003 301.1003 301.1003 301.1003
   301.1423 301.1423 301.2708 301.2708 302.6347 302.6347 302.8096 302.8096
   302.8096 302.8096 306.2512 306.2512 306.2512 306.2512 306.3664 306.3664
   306.7128 306.7128 306.7128 306.7128 307.3740 307.3740 308.9043 308.9043
   309.1544 309.1544 309.1544 309.1544 310.4881 310.4881 310.7162 310.7162
   310.7162 310.7162 311.8002 311.8002 311.8002 311.8002 312.8919 312.8919
   312.8919 312.8919 312.9797 312.9797 314.6305 314.6305 317.7169 317.7169
   319.8484 319.8484 319.8484 319.8484 319.8664 319.8664 320.6087 320.6087
   321.6295 321.6295 321.6295 321.6295 322.2101 322.2101 322.2101 322.2101
   323.0248 323.0248 323.0248 323.0248 323.4638 323.4638 324.0651 324.0651
   325.1533 325.1533 325.3988 325.3988 325.3988 325.3988 327.8069 327.8069
   328.3088 328.3088 328.3088 328.3088 329.5707 329.5707 329.5707 329.5707
   333.0515 333.0515 333.0515 333.0515 335.7510 335.7510 339.2063 339.2063
   339.2063 339.2063 340.1180 340.1181 341.1022 341.1022 341.4098 341.4098
   341.4098 341.4098 343.6009 343.6009 343.9103 343.9103 343.9103 343.9103
   344.9352 344.9352 345.1963 345.1963 345.1963 345.1963 346.2493 346.2493
   347.1884 347.1884 347.1884 347.1884 348.6949 348.6949 349.5368 349.5368
   349.5368 349.5368 355.8275 355.8275 357.2033 357.2033 357.2033 357.2033
   360.7118 360.7118 360.7118 360.7118 362.3888 362.3888 362.4172 362.4173
   362.6960 362.6961 362.6961 362.6961 363.6171 363.6171 363.6171 363.6171
   363.6514 363.6514 363.7058 363.7058 365.0691 365.0691 365.8398 365.8398
   365.8398 365.8398 366.2021 366.2021 366.2021 366.2021 367.2872 367.2872
   367.3355 367.3355 367.3355 367.3355 367.9996 367.9996 368.3938 368.3938
   368.3938 368.3938 368.4433 368.4433 369.0536 369.0536 369.0536 369.0536
   369.9760 369.9760 369.9760 369.9760 371.1335 371.1335 371.1335 371.1335
   371.1942 371.1942 372.9589 372.9589 373.0865 373.0865 373.0865 373.0865
   374.0530 374.0530 374.3549 374.3550 374.6436 374.6436 374.6436 374.6436
   376.9555 376.9555 377.6468 377.6468 377.6468 377.6468 378.7181 378.7181
   378.7181 378.7181 378.9114 378.9114 380.7128 380.7128 380.7128 380.7128
   380.8676 380.8677 381.3202 381.3202 381.7944 381.7944 382.8631 382.8631
   382.8631 382.8631 384.7218 384.7218 384.7218 384.7218 385.2328 385.2328
   385.8479 385.8479 385.8479 385.8479 385.9105 385.9105 388.2043 388.2043
   388.2043 388.2043 388.2505 388.2505 390.2395 390.2395 390.2395 390.2395
   391.3475 391.3475 391.8456 391.8456 391.8456 391.8456 396.4495 396.4495
   396.4495 396.4495 397.5148 397.5148 397.8914 397.8914 398.2694 398.2694
   399.5248 399.5248 399.5248 399.5248 402.0764 402.0764 402.5315 402.5315
   402.5315 402.5315 402.5999 402.5999 403.3448 403.3448 403.3448 403.3448
   404.2028 404.2028 404.3441 404.3441 404.3441 404.3441 405.5107 405.5107
   406.3573 406.3573 406.5557 406.5557 406.5557 406.5557 407.2724 407.2724
   407.2724 407.2724 407.6947 407.6947 408.1111 408.1111 408.1330 408.1330
   408.1330 408.1330 410.4152 410.4152 411.1973 411.1973 411.1973 411.1973
   411.7348 411.7348 412.0936 412.0936 412.0936 412.0936 412.2757 412.2757
   412.2757 412.2757 412.5226 412.5226 414.5326 414.5326 415.1551 415.1551
   415.1551 415.1551 416.4595 416.4595 416.4595 416.4595 417.6693 417.6693
   417.6693 417.6693 418.3689 418.3689 419.3251 419.3251 419.3251 419.3251
   420.0409 420.0409 420.7510 420.7510 420.8945 420.8945 421.2000 421.2000
   421.2000 421.2000 421.7984 421.7984 421.7984 421.7984 422.9466 422.9466
   422.9466 422.9466 423.4217 423.4217 423.8496 423.8496 424.4099 424.4099
   424.4099 424.4099 424.6456 424.6456 424.7042 424.7042 424.7516 424.7516
   424.7516 424.7516 424.9239 424.9239 424.9239 424.9239 425.0746 425.0746
   425.2639 425.2639 425.2639 425.2639 426.4463 426.4463 428.6321 428.6321
   428.6321 428.6321 430.5472 430.5472 432.5252 432.5252 432.5252 432.5252
   434.3127 434.3127 434.6537 434.6537 434.6537 434.6537 436.5638 436.5638
   438.1044 438.1044 438.1044 438.1044 439.3695 439.3695 439.7754 439.7754
   439.7754 439.7754 440.6723 440.6723 441.2063 441.2063 441.2063 441.2063
   441.4960 441.4960 441.9398 441.9398 441.9398 441.9398 442.5638 442.5638
   442.5638 442.5638 444.1894 444.1894 444.8605 444.8605 446.0932 446.0932
   446.5749 446.5749 446.5749 446.5749 446.6383 446.6383 447.0182 447.0182
   447.0182 447.0182 447.2305 447.2305 447.6053 447.6053 447.6053 447.6053
   449.7199 449.7199 451.0215 451.0215 451.0215 451.0215 452.0351 452.0351
   452.0351 452.0351 452.0667 452.0667 458.2882 458.2882 458.2882 458.2882
   460.3756 460.3756 460.3756 460.3756 461.2368 461.2368 461.9778 461.9778
   461.9778 461.9778 464.5133 464.5133 466.0755 466.0755 466.0755 466.0755
   466.8379 466.8379 466.9258 466.9259 467.6746 467.6746 467.6746 467.6746
   471.2683 471.2683 471.2683 471.2683 472.1348 472.1348 474.3403 474.3403
   475.2886 475.2886 475.2886 475.2886 475.6393 475.6393 475.6393 475.6393
   476.3252 476.3252 476.8284 476.8284 477.8266 477.8266 477.8266 477.8266
   478.2564 478.2564 478.8053 478.8053 478.8053 478.8053 478.9585 478.9585
   478.9585 478.9585 479.2804 479.2804 479.3182 479.3182 479.3447 479.3447
   479.3447 479.3447 480.2410 480.2410 480.2410 480.2410 480.5022 480.5022
   481.0598 481.0598 481.2898 481.2898 482.7698 482.7698 482.7698 482.7698
   483.2829 483.2829 483.2829 483.2829 483.9953 483.9953 484.0675 484.0675
   484.0675 484.0675 485.1313 485.1313 485.3290 485.3290 485.3290 485.3290
   486.3450 486.3450 486.4255 486.4255 486.6091 486.6091 486.6091 486.6091
   487.1699 487.1699 487.1699 487.1699 487.6251 487.6251 488.2731 488.2731
   488.2731 488.2731 488.4776 488.4776 488.6636 488.6636 488.7798 488.7798
   488.7798 488.7798 490.0821 490.0821 490.0821 490.0821 490.4052 490.4052
   490.5941 490.5941 490.5941 490.5941 490.9194 490.9194 491.7795 491.7796
   498.0664 498.0664 498.0664 498.0664 498.6567 498.6567 500.2769 500.2769
   500.2769 500.2769 501.3151 501.3151 502.8359 502.8359 508.6102 508.6102
   508.6102 508.6102 512.3961 512.3961 512.3961 512.3961 513.6567 513.6567
   516.5847 516.5847 516.5847 516.5847 517.7780 517.7780 517.7780 517.7780
   518.3945 518.3945 519.0067 519.0067 519.8039 519.8039 519.8039 519.8039
   521.9384 521.9384 521.9384 521.9384 522.5188 522.5188 522.9109 522.9109
   523.0439 523.0439 523.0439 523.0439 523.4969 523.4969 523.6298 523.6298
   523.6298 523.6298 523.7490 523.7490 523.7490 523.7490 523.8571 523.8571
   524.1534 524.1534 524.2294 524.2294 524.2294 524.2294 524.2563 524.2563
   525.2214 525.2214 525.2214 525.2214 526.2509 526.2509 530.3420 530.3420
   530.3420 530.3420 531.6193 531.6193 531.6193 531.6193 532.6083 532.6083
   533.2250 533.2250 533.2250 533.2250 533.5808 533.5808 534.4642 534.4642
   534.9803 534.9803 534.9803 534.9803 535.5130 535.5130 535.5580 535.5580
   535.5580 535.5580 537.2269 537.2269 537.3908 537.3908 537.3908 537.3908
   537.4635 537.4635 538.7666 538.7666 538.7666 538.7666 539.9382 539.9382
   540.2493 540.2493 540.2493 540.2493 540.5535 540.5535 540.5535 540.5535
   540.9366 540.9366 541.3286 541.3286 542.0759 542.0759 542.0759 542.0759
   542.3941 542.3941 543.6627 543.6627 543.6627 543.6627 544.8894 544.8894
   544.8894 544.8894 545.0806 545.0806 545.4139 545.4139 545.4139 545.4139
   545.7417 545.7417 545.8402 545.8402 545.8759 545.8759 545.8759 545.8759
   545.9918 545.9918 546.2849 546.2849 546.2849 546.2849 546.4146 546.4146
   548.2849 548.2849 548.2849 548.2849 548.5023 548.5023 548.7738 548.7738
   548.7738 548.7738 548.8557 548.8557 550.7894 550.7894 552.9530 552.9530
   552.9530 552.9530 554.2341 554.2341 554.2341 554.2341 555.1651 555.1652
   555.3464 555.3464 555.3464 555.3464 556.2681 556.2681 557.2618 557.2618
   557.2618 557.2618 558.0973 558.0973 558.0973 558.0973 558.4235 558.4235
   558.6180 558.6180 559.1843 559.1843 559.1843 559.1843 560.2013 560.2013
   560.2207 560.2207 560.2207 560.2207 561.7145 561.7145 561.7145 561.7145
   561.8217 561.8217 561.8309 561.8309 561.8795 561.8795 561.8795 561.8795
   562.1537 562.1537 562.4812 562.4812 562.4812 562.4812 563.4679 563.4679
   563.4680 563.4680 563.6525 563.6525 563.6525 563.6525 563.7779 563.7779
   563.8058 563.8058 564.2886 564.2886 566.3597 566.3597 567.1451 567.1451
   567.1451 567.1451 568.3591 568.3591 568.3591 568.3591 568.9048 568.9048
   569.7260 569.7261 569.7261 569.7261 569.7351 569.7351 572.5515 572.5515
   572.5515 572.5515 573.7058 573.7058 573.9230 573.9230 573.9230 573.9230
   575.1339 575.1339 575.1805 575.1805 575.1805 575.1805 575.5953 575.5953
   577.2994 577.2994 578.0618 578.0618 578.0618 578.0618 578.3162 578.3162
   578.3162 578.3162 578.3304 578.3304 579.2810 579.2810 579.2810 579.2810
   579.7948 579.7948 580.2846 580.2846 580.2846 580.2846 580.6256 580.6256
   580.6256 580.6256 580.6299 580.6299 581.3231 581.3231 581.4326 581.4326
   581.4326 581.4326 581.9990 581.9990 583.4445 583.4445 583.4445 583.4445
   583.5591 583.5591 583.9038 583.9038 583.9038 583.9038 584.1179 584.1179
   590.1677 590.1677 590.1678 590.1678 592.5085 592.5085 592.5085 592.5085
   593.5845 593.5845 594.3764 594.3764 596.6152 596.6152 596.6152 596.6152
   597.4294 597.4294 599.4139 599.4139 599.4139 599.4139 600.0660 600.0660
   600.2157 600.2157 600.2157 600.2157 600.7489 600.7489 601.7298 601.7298
   601.7299 601.7299 601.8639 601.8639 602.2763 602.2763 602.2763 602.2763
   602.3186 602.3186 602.7087 602.7087 602.7087 602.7087 603.0240 603.0240
   604.4669 604.4669 605.3463 605.3463 605.3463 605.3463 606.8806 606.8806
   606.8806 606.8806 606.9693 606.9693 607.5016 607.5016 608.3552 608.3552
   608.3552 608.3552 608.4787 608.4787 608.5133 608.5133 608.5133 608.5133
   608.6068 608.6068 610.8712 610.8712 612.8012 612.8012 612.8012 612.8012
   613.5910 613.5910 613.5910 613.5910 614.0657 614.0657 614.5864 614.5864
   616.0096 616.0096 616.0167 616.0167 616.0167 616.0167 616.7542 616.7542
   616.7542 616.7542 617.0806 617.0806 618.1546 618.1546 618.1546 618.1546
   618.6132 618.6132 618.6132 618.6132 618.6457 618.6457 618.9856 618.9856
   620.3083 620.3083 620.3083 620.3083 621.7809 621.7809 622.1774 622.1774
   622.1774 622.1774 622.2351 622.2351 622.2542 622.2542 622.2542 622.2542
   622.2946 622.2946 623.0255 623.0255 623.0255 623.0255 623.4021 623.4021
   626.1996 626.1996 626.7033 626.7033 626.7033 626.7033 628.3270 628.3270
   628.3270 628.3270 629.7805 629.7805 629.7805 629.7805 630.2525 630.2525
   631.0134 631.0134 632.5349 632.5349 632.5349 632.5349 634.3278 634.3278
   634.3278 634.3278 635.0561 635.0561 635.0561 635.0561 635.2175 635.2175
   635.6629 635.6629 635.6629 635.6629 635.9469 635.9469 637.2447 637.2447
   637.2447 637.2447 637.4155 637.4155 637.5736 637.5736 638.2151 638.2151

          k = 0.0000-0.5774 0.0000 (  3434 PWs)   bands (ev):

    -4.3718  -4.2140  -2.7844  -2.7603  -2.6643  -2.6269  -2.5839  -2.5722
    -2.5027  -2.4665  -1.3070  -0.7521   4.2810   5.4413   6.5330   7.9851
     8.5245   9.7168  15.7990  16.2976  16.7831  19.3100  21.0628  21.1428
    23.1592  24.0352  24.7262  27.5550  28.2677  30.0743  32.1249  34.1561
    34.6531  34.7567  36.0905  37.0739  37.1890  39.0893  39.7014  41.5949
    41.6488  42.8969  43.1508  44.1423  44.4769  45.5586  45.8126  48.3644
    48.5047  51.3130  51.5339  51.5669  52.6843  53.2441  55.5217  55.5423
    55.9502  57.1157  57.1263  57.9837  58.1144  58.9458  60.3900  61.7052
    61.7575  61.9787  63.1873  63.8376  64.6167  65.3831  65.7730  66.0244
    67.1115  68.2673  69.0428  69.5036  71.7092  71.7502  72.2055  72.4014
    73.7049  75.4426  75.7404  77.0081  77.2491  78.7912  81.3745  82.0595
    82.0845  83.5390  84.4642  84.5742  84.7424  84.9729  86.6209  86.8634
    87.3445  87.3897  88.8259  89.4125  90.4140  90.7046  91.3286  91.3575
    91.7909  92.9936  93.7782  93.8012  94.2984  95.4675  96.4183  96.6933
    97.3199  98.5677  98.9064  99.5750  99.8648 100.5223 101.0518 101.1163
   102.3928 103.0241 103.1568 103.3971 103.6382 104.9394 105.3431 105.8506
   106.6211 108.6336 108.7349 108.7417 109.6394 109.8754 110.4166 110.6834
   110.9012 110.9155 111.1573 112.7694 113.3251 113.3823 114.0477 114.5589
   115.0772 115.3506 115.4826 117.8556 117.9275 118.3486 118.4302 119.0682
   119.2453 120.0857 120.9605 121.6014 121.8777 122.2953 122.3822 122.5959
   122.7102 123.2024 124.3263 125.0372 125.2620 125.8411 126.1363 127.1178
   128.2472 128.3933 128.8508 129.2622 129.6894 130.4534 132.1718 132.4242
   134.0814 135.1677 136.0935 136.2646 136.8780 137.5152 137.9879 138.5315
   138.8117 139.5206 139.5442 140.2378 140.4592 140.9088 141.5554 142.4537
   142.4892 143.5187 143.5911 144.0607 145.2679 145.9821 146.6317 146.8054
   148.3398 148.8441 148.8915 149.1389 149.4799 149.8304 150.3187 150.4251
   150.7820 151.2002 151.4918 151.6719 151.8022 152.2315 152.3681 152.6432
   152.6749 152.9042 152.9211 153.5852 153.6204 153.7412 154.5170 154.5889
   154.8287 155.7197 155.9221 156.4076 158.3346 158.6033 158.6521 159.9095
   161.2104 161.7107 162.1855 164.7727 166.5835 167.6438 169.1272 169.2469
   169.2732 169.3719 169.7660 170.0703 170.8797 171.0336 171.4350 171.8143
   171.9583 172.1034 172.8326 173.0017 173.2483 173.7819 174.0565 174.6367
   176.1007 176.1451 177.0320 177.0954 177.1656 177.7463 178.2338 178.3129
   178.5534 178.8958 179.2780 179.4579 179.6452 179.9660 180.2156 180.5134
   180.9795 182.0443 182.4047 183.0226 183.4143 183.7101 185.1691 185.4887
   186.3074 186.9364 187.4887 188.4035 188.4329 188.7575 188.9231 188.9681
   189.8602 190.4024 190.8220 190.8304 190.9468 190.9605 191.5342 191.9325
   192.1951 192.2207 194.6386 195.3813 196.4209 196.5105 196.8889 196.9594
   197.3072 197.8097 197.8273 197.9253 198.5074 198.5185 198.5847 199.3496
   199.4640 199.4656 199.4856 199.5763 199.8255 200.3782 201.2775 201.5428
   201.9968 202.0771 202.5003 203.7628 203.8073 203.8728 204.0244 204.5802
   205.6472 206.5524 206.5625 207.7240 207.7249 207.7880 208.0140 208.1639
   208.4451 208.9950 209.3350 209.6934 210.6122 210.6565 211.3869 211.4292
   211.7289 212.1340 212.2646 213.1650 213.2320 213.3311 213.4654 213.8621
   215.6523 215.9848 217.0275 217.5542 217.6551 218.9181 218.9974 219.5223
   220.1096 220.3975 220.9696 221.3536 222.8844 224.9165 225.1003 225.8483
   226.2595 226.6384 226.8744 227.0558 227.6463 227.8521 228.0257 228.2302
   228.5868 228.9187 229.6881 229.8243 229.9231 230.0664 230.3318 230.4101
   230.9338 231.4985 231.9101 232.0053 232.3004 232.4921 232.8792 233.2595
   233.5577 233.6048 233.9483 234.5785 234.6095 234.9825 235.2300 235.4682
   235.5156 235.9006 236.4719 237.1555 237.4670 237.4923 237.5680 238.1829
   238.4585 238.5944 238.6884 238.9988 239.3479 240.0742 240.1459 240.1574
   240.6246 240.6691 240.9172 241.1272 241.1829 241.7246 242.3766 242.3975
   243.1150 243.6320 243.6413 244.0964 244.1312 245.3133 245.8551 245.8869
   246.3153 246.5668 248.0158 248.5086 248.6089 249.1316 252.3059 252.6609
   252.7370 253.9318 253.9371 255.0950 255.8886 256.0009 256.1889 256.6734
   257.0607 257.0850 257.1917 257.8685 258.9461 259.1788 259.8495 259.9351
   260.0086 260.1769 260.3774 260.6021 261.2433 261.3783 261.8726 262.0523
   262.2834 262.8671 263.0494 263.7764 264.8285 264.8553 264.8777 265.4163
   266.1082 266.1782 266.9564 267.1898 267.4054 267.4171 267.7445 268.3978
   268.5954 270.1268 270.1729 271.4305 271.6633 271.8595 272.8331 274.1857
   274.2073 275.6842 275.7825 275.8653 276.1957 276.2251 278.3909 278.7273
   278.7643 279.3722 279.4461 279.6197 280.2267 280.5404 280.6768 280.9230
   282.0319 282.9705 283.1837 283.3305 283.8736 284.3108 284.3431 284.5811
   285.2201 285.5397 285.8313 285.8790 286.4833 286.7790 287.1364 287.2212
   287.5678 287.5799 288.0718 288.2050 288.3034 288.5213 289.2488 289.5110
   289.8843 289.8914 290.3020 290.4404 290.4866 290.6477 291.3966 291.4510
   291.5913 292.3135 292.4126 292.9653 293.1616 293.3928 293.4557 293.6288
   294.1134 294.5081 294.8997 297.0295 297.0546 297.1875 297.3474 297.6440
   297.7014 298.3176 298.3904 298.3925 298.5901 298.6042 299.3128 299.3232
   300.1096 300.1731 300.2102 300.5378 300.7620 300.8818 301.1908 301.2010
   301.9911 302.6076 302.9274 303.1250 303.2242 303.6824 303.8175 304.7745
   306.1676 306.4105 306.7198 306.8254 307.1510 307.2024 307.2402 308.1987
   309.5783 309.8911 310.0919 310.1922 310.5654 311.5423 311.8813 312.3312
   313.4492 313.5987 314.1934 314.1936 314.8680 314.9190 315.0271 315.2128
   315.2202 315.6691 315.8697 316.7679 316.9414 317.3294 317.8260 318.3906
   318.4046 318.5071 318.8888 318.9077 319.6907 320.2404 320.3144 320.6330
   320.9086 321.2039 321.5711 321.6739 322.0975 322.1500 322.6639 322.9273
   323.1968 323.4757 323.5093 324.2171 324.6861 325.1612 325.5656 325.7101
   325.8064 326.1112 326.1654 326.1775 326.2856 326.7320 327.1604 327.4219
   328.2999 328.3627 328.9295 328.9881 329.0210 329.1422 329.3230 329.6001
   329.6112 329.7022 329.7148 329.9069 330.0138 330.0554 330.1662 330.2249
   330.2271 330.7975 331.0708 331.2770 331.5774 331.6264 332.0103 332.9408
   333.1336 334.4733 334.5289 334.7100 335.7440 336.0974 336.3410 336.5333
   337.5781 337.6929 337.8789 338.5852 339.4498 339.5305 342.0096 342.1702
   343.3745 343.4132 343.8383 344.1690 344.7634 345.1776 345.2051 345.4619
   345.4719 345.8185 346.4077 346.4210 347.5174 347.5587 348.1990 348.6285
   348.7205 349.1139 349.3799 349.6111 349.7739 349.8037 349.9218 350.4215
   350.5725 351.2006 351.2661 351.3112 351.3160 351.4868 351.4954 352.3476
   353.1447 354.0514 354.1454 354.2884 354.8989 355.2523 355.4254 356.2205
   356.8152 357.0901 357.1010 357.3518 357.4480 357.6840 357.7957 358.7218
   359.0642 360.5832 360.6467 361.3785 361.6682 362.1578 362.2372 362.6273
   362.8661 362.9152 362.9912 363.6051 363.6096 364.3183 364.7077 364.9362
   364.9727 365.5818 366.0903 366.2135 366.3885 366.9235 367.6473 367.6965
   367.9423 368.2405 368.5407 368.8932 369.1214 369.8368 369.9116 370.3792
   371.1284 371.4491 371.6309 372.1672 372.4694 373.0703 373.1100 373.3505
   373.5851 373.7156 373.7306 374.3424 374.9880 375.2239 375.2313 375.4251
   376.1039 376.3983 376.4763 376.7158 376.8249 376.9095 377.0260 377.1970
   377.2637 377.4387 377.5528 377.7904 378.0078 378.3821 378.4173 378.5444
   378.5695 379.0499 379.3635 379.3791 379.4904 379.7198 381.1229 381.3538
   381.9436 382.2366 382.4132 382.5867 382.7016 382.7819 383.3622 383.9398
   384.0397 384.2992 384.4911 385.3582 385.3600 385.4049 385.7980 386.0578
   386.1343 386.3674 386.9963 387.1589 387.2001 387.6426 387.9441 388.3958
   388.4974 388.9117 389.1242 389.8081 389.8117 389.8770 389.9402 390.0853
   390.1241 390.6212 391.0843 391.2375 391.4741 391.5265 391.6706 392.1294
   392.3022 393.1641 393.3909 394.0717 394.3537 394.4018 394.8535 394.8981
   395.2577 395.3454 396.4200 396.5282 396.8645 396.8687 397.0374 398.3306
   398.4524 398.9410 399.1976 399.2888 399.3246 399.6170 400.3365 400.9742
   401.6612 402.1752 402.8204 403.1885 403.2565 404.1430 404.8554 405.0653
   405.7114 405.8438 405.8559 405.9870 406.1456 406.5215 406.8918 407.5712
   407.5908 407.6993 407.9122 408.4805 408.7374 409.0706 409.4393 410.2070
   410.4780 411.1855 411.2219 411.3891 412.1802 412.2452 412.3995 412.8498
   413.5173 413.5340 413.7844 414.4620 414.9219 414.9482 415.0072 415.2259
   415.4975 415.6829 416.1009 416.3219 416.4448 416.6799 416.7353 416.7423
   417.2655 417.3332 417.4672 418.3682 418.4257 419.4659 420.2019 420.4755
   420.5349 421.0779 421.8648 422.4659 422.6748 422.7571 422.8077 423.5222
   423.9571 425.7085 426.1855 426.1908 427.4948 429.1508 429.1525 430.4217
   430.7145 430.7794 431.8100 432.4130 433.1041 433.1747 433.7851 433.9959
   434.1308 434.1578 435.2402 435.3293 435.6103 435.7883 436.3201 436.5167
   436.5919 437.6441 437.6779 437.7567 438.1317 438.1491 438.5928 438.9124
   439.1164 439.4149 439.6692 440.0805 440.0973 440.4535 440.4688 440.4710
   440.7959 441.0376 441.1503 441.1899 441.7233 442.0090 442.1676 442.2624
   442.2912 442.5173 442.6257 442.8686 443.0765 443.4543 443.4935 443.7263
   444.0805 444.2575 444.3857 444.7350 445.0376 445.1694 445.5337 445.6886
   445.9336 446.0572 446.3047 446.3170 446.5148 446.6629 447.0978 447.1611
   447.2341 447.5409 447.9957 448.0771 448.9944 449.0649 449.1687 449.9010
   450.4252 450.6474 450.6963 451.0369 451.1487 451.5720 451.8186 452.0021
   452.3291 452.3406 452.7058 452.7631 452.9747 453.0127 453.2794 453.4401
   453.7020 453.8943 454.1383 454.6013 454.7519 455.0189 455.1261 455.3078
   455.6143 455.6366 455.7708 456.2166 456.5091 456.9729 458.7276 459.0298
   459.4606 459.6651 460.1686 460.8757 461.1543 461.9779 462.0393 462.1558
   462.3819 462.5161 462.5480 462.5798 462.8829 462.9737 463.0385 463.1284
   463.3171 463.3426 463.4584 463.5060 463.5600 464.2968 464.6197 464.7621
   464.7889 465.0625 465.5699 465.8762 465.9307 466.4133 466.6833 466.8675
   466.9019 466.9341 467.1178 467.1743 467.2613 468.5416 468.9235 469.4655
   469.8206 470.5463 470.7554 471.1694 471.5181 471.5491 471.6981 472.3456
   472.8546 473.3850 473.5084 473.5713 473.9617 474.3464 474.4377 474.5446
   474.7890 474.9445 474.9682 475.0074 475.4629 475.5642 475.7416 475.9199
   475.9531 476.0308 476.4504 476.4939 476.6915 476.8607 477.2948 477.2974
   477.5801 477.5878 478.0420 478.7202 478.7677 478.9376 479.1693 479.5044
   479.8693 480.3134 480.3877 480.6527 480.9306 480.9781 481.1998 481.3572
   481.5462 482.0306 482.2845 482.9439 483.0241 483.0373 483.7961 483.8922
   484.2796 484.3673 484.4538 484.6191 484.9808 485.5008 486.5266 487.3194
   487.4363 487.4466 488.0490 488.1020 489.1711 489.6063 489.8419 490.9921
   490.9979 491.0921 491.5343 491.6983 491.9378 492.3820 492.7084 492.7278
   493.1290 493.3980 493.4240 493.5767 493.9970 494.2183 494.4468 494.6271
   494.6402 494.8103 494.9534 495.2296 495.4755 495.5430 495.7721 495.8913
   496.0482 496.1951 496.4122 496.8573 497.2064 497.2261 497.5828 497.8077
   498.1599 498.2183 498.3537 498.3886 498.6572 499.8292 499.9539 500.7370
   501.0345 501.4881 501.8245 501.8555 502.1388 502.3566 502.9144 502.9375
   503.0408 503.2425 503.4900 503.5338 503.7216 504.1178 504.1840 504.2859
   504.8085 504.8214 505.1879 505.2139 505.2197 505.5788 505.7123 506.4004
   506.9029 506.9795 507.0207 507.0610 507.2477 507.3565 507.4731 507.6923
   507.8091 507.8151 508.4423 508.6307 509.7631 509.8300 509.9535 510.0300
   510.7021 510.8157 510.8165 511.3236 511.6634 512.1228 513.0625 514.2137
   514.2166 514.2394 515.0588 515.1236 515.1556 515.4113 516.9405 517.4108
   518.5289 518.6657 519.4289 519.6519 519.8274 520.9808 521.0178 521.6648
   521.7231 521.8914 522.3505 522.5180 522.8268 522.9178 523.0478 523.3291
   523.3631 523.5707 524.3262 524.3791 524.7293 524.7336 524.9950 525.2531
   526.0363 526.7187 526.9400 527.2155 527.5860 527.7128 527.9738 528.0426
   528.2996 528.3581 528.7253 528.7733 528.8785 529.0021 529.2913 529.5043
   530.0551 530.1466 530.3123 530.5139 530.6617 531.1666 531.4229 531.7934
   531.8187 532.0849 532.3039 532.4210 532.4458 532.5343 532.8082 532.8379
   532.8895 532.8948 533.7634 534.1382 534.4535 534.4892 534.5975 534.7527
   535.0189 535.2436 536.3225 536.8211 537.6322 538.9054 538.9152 539.4532
   539.7719 539.8995 539.9361 540.0618 540.1518 540.2701 540.8561 541.1403
   541.2421 541.4396 541.6993 541.8342 541.8801 542.0808 542.1931 542.4896
   542.5830 542.6956 542.7804 542.8450 542.8968 543.1475 543.4232 543.7173
   544.2338 544.3134 545.7711 546.2339 546.3311 546.4841 546.5001 546.6650
   546.8128 547.2518 547.3115 547.9805 548.0496 548.0510 548.8678 549.3717
   549.4898 549.5103 549.9951 550.3137 550.7028 550.7587 550.7705 550.9132
   550.9724 551.2876 551.3318 551.3744 551.5456 551.5694 551.7045 551.8248
   552.1806 553.0024 553.3988 553.5444 553.7124 553.9514 553.9680 554.5842
   554.7136 554.7420 554.9368 555.1797 555.3809 555.5818 555.7056 555.7193
   555.7471 556.4422 556.9935 557.7679 558.1569 558.6190 559.4726 559.7744
   560.4410 560.9028 561.5738 561.5775 561.6599 561.7121 562.8277 562.8559
   563.0275 563.3231 563.4849 563.8308 563.8982 563.9658 564.0558 564.1652
   564.1735 564.1915 564.2389 564.2933 564.7559 565.3043 565.4393 565.8026
   565.8523 566.3705 566.8955 566.9969 567.2155 567.4444 567.5652 567.6383
   567.6811 567.8658 568.4036 568.4817 568.5211 569.0578 569.4725 569.6518
   569.7594 569.9237 570.0588 570.2976 570.7566 570.9402 572.4203 572.9656
   574.1296 574.2807 574.7690 576.1288 576.4569 576.8803 576.9305 577.5732
   577.5783 577.5868 578.0764 578.1671 578.2029 578.3474 578.3523 578.3597
   578.6002 578.8896 579.2569 579.8314 580.2762 580.5608 580.6587 580.8786
   581.1287 581.2179 581.6830 581.7118 581.8271 581.8827 581.9934 582.1221
   582.1246 582.2709 582.4202 582.4604 582.4729 582.7468 582.8405 582.9651
   584.2619 584.3669 584.4967 584.5767 584.8117 585.2894 585.8272 586.0964
   586.2598 586.3931 586.7000 586.8274 586.9038 587.2834 587.4315 587.4878
   587.5557 587.7800 588.5341 588.6851 589.3163 589.4181 589.7168 590.1197
   590.2336 590.4080 590.4825 590.5552 590.7000 590.9709 590.9728 591.1175
   591.4402 591.5447 591.6427 591.6949 591.7662 591.7877 591.8542 592.2012
   592.3922 592.4212 592.4351 592.6835 592.7176 592.7432 592.9192 593.0255
   593.3301 593.4229 593.4522 593.7979 593.8477 594.1956 594.4493 594.5524
   594.7830 595.0823 595.1613 595.3621 595.5376 595.5505 595.7303 595.8300
   595.8476 595.8805 596.1099 596.2592 596.7916 597.5005 597.7069 598.3015
   598.5559 598.8295 598.8458 599.0692 599.3870 599.5328 599.8852 599.9382
   600.5311 600.5599 600.7765 600.9822 601.1945 601.2240 601.2346 601.2376
   601.2455 601.2765 607.8120 609.1171 609.8228 610.4022 610.8177 611.2755
   611.8221 611.8635 612.0861 612.3380 612.4785 612.8321 613.3497 613.3622
   613.3980 613.5528 614.0210 614.2485 614.8143 615.0028 615.0094 615.3955
   615.8493 616.4605 616.5407 616.7778 616.8720 617.2646 618.2809 618.2904
   619.3582 619.7774 619.8976 620.3582 620.5294 620.7882 621.1533 621.2898
   621.5528 622.0344 622.3844 622.7189 622.9403 622.9721 623.2189 623.5828
   623.5998 624.5300 625.1634 625.1767 625.3755 625.4497 625.5538 625.6943
   625.7095 626.2253 626.2647 626.5450 627.1238 627.1386 627.2872 627.4819
   627.5735 627.6573 628.2873 628.7882 628.8082 628.9152 629.3548 629.6308
   630.3206 630.3592 630.8272 630.8720 630.8847 630.9162 632.2896 632.2987
   632.3201 632.3423 632.6135 632.8206 632.8925 633.1405 633.2792 633.4278
   633.4979 633.5069 633.7927 634.0499 635.5103 635.6201 635.8009 635.9036
   636.0209 636.4440 636.6092 636.7204 637.0457 637.0656 639.2855 639.5691
   639.5852 640.0730 640.1439 640.4558 640.4619 640.5632 640.6214 640.6961
   640.7764 641.0249 641.3364 641.5532 641.5904 641.6705 641.8180 641.8301
   641.9942 642.0157 642.2043 642.2164 642.2804 642.4542 642.5697 642.7799

          k = 0.0000-0.5774-0.3071 (  3428 PWs)   bands (ev):

    -4.2425  -4.2425  -2.7856  -2.7856  -2.6657  -2.6657  -2.5553  -2.5553
    -2.4947  -2.4947  -1.0707  -1.0707   4.1365   4.1365   8.7795   8.7795
     8.8315   8.8315  15.1475  15.1475  18.4902  18.4903  20.6906  20.6906
    22.9587  22.9588  25.9708  25.9708  31.6354  31.6355  31.8892  31.8892
    34.7101  34.7101  35.4525  35.4526  38.9687  38.9687  42.1094  42.1094
    43.0225  43.0225  44.4914  44.4914  46.4061  46.4061  46.7146  46.7146
    48.4569  48.4569  49.0520  49.0520  51.0649  51.0649  53.5092  53.5092
    54.5624  54.5624  55.7261  55.7261  60.0737  60.0737  62.1779  62.1779
    65.0638  65.0638  66.3872  66.3872  67.7338  67.7338  67.7667  67.7667
    68.4246  68.4246  69.3187  69.3187  72.6013  72.6013  72.9831  72.9831
    74.2120  74.2120  75.1624  75.1624  76.4661  76.4661  78.9009  78.9009
    80.4997  80.4997  80.8215  80.8215  82.5129  82.5129  84.4308  84.4308
    87.2488  87.2488  90.0531  90.0531  90.2883  90.2883  92.9042  92.9042
    94.5507  94.5507  96.5795  96.5795  97.7277  97.7277  99.2370  99.2370
    99.2509  99.2509 100.4855 100.4855 101.3021 101.3021 101.5851 101.5851
   101.9054 101.9054 102.6044 102.6044 103.7647 103.7647 105.3365 105.3365
   105.4635 105.4635 105.8298 105.8298 107.8462 107.8462 108.8015 108.8015
   110.1891 110.1891 113.0673 113.0673 113.0871 113.0871 113.5278 113.5278
   114.4965 114.4966 116.4507 116.4507 118.4817 118.4817 119.2372 119.2372
   120.6972 120.6972 122.2962 122.2962 124.3697 124.3697 124.5545 124.5545
   125.6933 125.6933 125.7741 125.7741 127.0397 127.0397 127.4195 127.4195
   127.9537 127.9537 129.7459 129.7459 130.4895 130.4896 132.4549 132.4549
   132.5614 132.5615 133.6220 133.6220 135.3721 135.3721 135.4186 135.4186
   137.3540 137.3540 137.3844 137.3844 139.9139 139.9139 140.8479 140.8479
   140.8932 140.8932 143.0199 143.0199 143.8880 143.8880 145.3638 145.3638
   145.6853 145.6853 148.1678 148.1678 149.0816 149.0816 150.6466 150.6466
   151.5024 151.5024 152.1071 152.1071 153.3006 153.3006 154.5976 154.5976
   156.1226 156.1226 156.7638 156.7638 157.7200 157.7200 157.9607 157.9607
   159.3730 159.3730 160.4493 160.4493 160.9865 160.9866 162.6911 162.6911
   163.0553 163.0553 164.1859 164.1859 165.0452 165.0452 165.4415 165.4415
   166.7763 166.7763 166.9769 166.9770 168.1801 168.1801 169.1749 169.1749
   169.7937 169.7937 171.1304 171.1304 172.1739 172.1739 172.3232 172.3232
   174.7356 174.7356 175.9675 175.9675 176.2009 176.2009 176.8543 176.8543
   178.3944 178.3944 179.5759 179.5759 180.3350 180.3350 182.7134 182.7134
   183.3264 183.3264 183.6153 183.6153 184.0395 184.0395 185.3913 185.3914
   186.9255 186.9255 187.1013 187.1013 188.2142 188.2142 189.7329 189.7329
   190.3531 190.3531 191.1908 191.1908 192.1539 192.1539 192.4336 192.4336
   193.1182 193.1182 193.4679 193.4679 195.8220 195.8220 195.8503 195.8503
   197.2834 197.2834 198.0312 198.0312 198.9090 198.9090 199.8917 199.8917
   200.2270 200.2270 202.0220 202.0220 202.1259 202.1259 202.8731 202.8731
   203.9134 203.9134 204.2604 204.2604 204.4091 204.4091 205.2294 205.2294
   205.9921 205.9921 207.1615 207.1616 207.8526 207.8526 208.5773 208.5774
   209.9997 209.9997 210.4434 210.4434 211.2565 211.2565 211.3296 211.3296
   211.9834 211.9834 213.2480 213.2480 213.4416 213.4416 215.2752 215.2753
   215.3980 215.3980 217.3007 217.3007 217.7308 217.7308 217.8386 217.8386
   218.6204 218.6204 219.8772 219.8772 220.8348 220.8348 221.1263 221.1263
   222.0557 222.0557 222.8737 222.8737 224.1437 224.1437 224.2628 224.2628
   224.8635 224.8635 225.9826 225.9826 227.1726 227.1726 227.7048 227.7049
   228.6773 228.6773 230.7251 230.7251 231.3603 231.3603 232.2905 232.2905
   232.3426 232.3426 233.9018 233.9018 235.3119 235.3119 235.7450 235.7450
   237.6981 237.6981 238.7772 238.7772 240.1981 240.1981 240.4708 240.4708
   241.2775 241.2775 241.3577 241.3577 243.2158 243.2158 243.7040 243.7040
   243.9263 243.9263 244.9641 244.9641 245.0874 245.0874 246.2685 246.2685
   246.9930 246.9930 247.4596 247.4596 248.2127 248.2127 248.6717 248.6717
   249.6134 249.6134 250.1761 250.1761 251.7509 251.7509 252.6354 252.6354
   252.9015 252.9015 253.5833 253.5833 255.8103 255.8103 256.0537 256.0537
   256.6371 256.6371 257.1041 257.1041 257.7160 257.7160 259.1060 259.1060
   259.4600 259.4600 260.5980 260.5980 260.6218 260.6218 262.4116 262.4116
   262.6496 262.6496 263.5336 263.5336 265.4299 265.4299 266.4528 266.4528
   266.9027 266.9027 267.6731 267.6731 267.8942 267.8942 268.4183 268.4183
   269.2216 269.2216 269.9218 269.9218 270.0835 270.0835 271.5381 271.5381
   272.4512 272.4512 273.8222 273.8222 274.4989 274.4989 275.3143 275.3143
   275.3200 275.3200 276.0600 276.0600 276.5651 276.5651 276.7339 276.7339
   277.5313 277.5313 277.8939 277.8939 278.9908 278.9908 280.3298 280.3298
   282.5698 282.5698 284.5792 284.5792 286.0534 286.0534 286.9979 286.9979
   288.1435 288.1435 288.7359 288.7359 288.8719 288.8719 289.7697 289.7697
   290.3848 290.3848 290.5683 290.5683 291.5431 291.5431 291.8782 291.8782
   292.4056 292.4056 292.4975 292.4975 293.1687 293.1687 294.0496 294.0496
   295.4352 295.4352 296.5636 296.5636 296.9195 296.9195 297.6998 297.6998
   298.9303 298.9303 299.5203 299.5203 301.0224 301.0224 301.8583 301.8583
   302.3046 302.3046 303.2583 303.2583 303.3953 303.3953 304.0059 304.0059
   304.3704 304.3704 305.7748 305.7748 305.9772 305.9772 306.2760 306.2760
   307.1202 307.1202 308.2915 308.2915 308.6091 308.6091 309.4229 309.4229
   310.0009 310.0009 310.5422 310.5422 310.7703 310.7703 311.2660 311.2661
   311.7633 311.7633 312.4667 312.4667 313.3721 313.3721 314.8835 314.8835
   315.4405 315.4405 316.4343 316.4343 316.4642 316.4642 317.5295 317.5295
   317.7346 317.7346 318.9293 318.9293 319.2730 319.2730 319.9286 319.9286
   321.0144 321.0144 321.0809 321.0809 321.5328 321.5328 322.1970 322.1970
   322.2170 322.2170 323.0937 323.0937 323.6481 323.6481 324.7225 324.7225
   325.2436 325.2436 325.2826 325.2826 326.7927 326.7927 326.9375 326.9375
   327.5465 327.5465 328.3878 328.3878 329.4109 329.4109 330.2415 330.2415
   330.3190 330.3190 331.9355 331.9355 333.1620 333.1620 333.5190 333.5190
   334.8950 334.8950 335.8294 335.8294 336.0618 336.0618 337.6646 337.6646
   338.7093 338.7093 338.7784 338.7784 339.8701 339.8701 340.8105 340.8105
   341.0988 341.0988 341.4560 341.4560 341.9601 341.9601 342.1251 342.1251
   342.6246 342.6246 343.3966 343.3966 343.6128 343.6128 344.4525 344.4525
   345.0108 345.0108 345.4550 345.4550 346.4844 346.4844 346.9936 346.9936
   347.3864 347.3864 347.5587 347.5587 348.2682 348.2682 348.7089 348.7089
   349.5570 349.5570 350.4797 350.4797 350.6405 350.6405 351.7886 351.7886
   352.7549 352.7549 353.1639 353.1639 353.6217 353.6217 353.7331 353.7331
   355.3116 355.3116 355.5233 355.5233 356.9250 356.9250 357.1848 357.1848
   357.8702 357.8702 358.1523 358.1523 358.7345 358.7345 359.0506 359.0506
   359.4365 359.4365 360.0937 360.0937 361.1766 361.1766 361.6298 361.6298
   361.8889 361.8889 363.1257 363.1257 363.2615 363.2615 363.9401 363.9401
   364.7159 364.7159 365.1596 365.1596 365.9936 365.9936 366.8173 366.8173
   367.4973 367.4973 368.2580 368.2580 369.0242 369.0242 370.6756 370.6756
   371.2601 371.2601 372.3018 372.3018 372.8197 372.8197 373.0322 373.0322
   374.3933 374.3933 374.4171 374.4171 375.3076 375.3076 375.4911 375.4911
   375.6533 375.6533 376.0349 376.0349 378.2958 378.2958 379.2866 379.2866
   379.6607 379.6607 380.5037 380.5037 381.6168 381.6168 382.0484 382.0484
   383.6691 383.6691 384.7096 384.7096 384.7162 384.7162 385.8265 385.8265
   386.1783 386.1783 386.6308 386.6308 387.1200 387.1200 387.1463 387.1463
   388.5753 388.5753 388.9881 388.9881 389.8268 389.8268 390.6666 390.6666
   391.1637 391.1637 391.6129 391.6129 393.1152 393.1152 393.1929 393.1929
   394.5755 394.5755 395.4897 395.4897 395.5957 395.5957 395.6933 395.6933
   396.2762 396.2762 396.4487 396.4487 397.5787 397.5787 398.7825 398.7825
   399.0244 399.0244 399.4315 399.4315 400.3469 400.3469 401.0344 401.0344
   401.0623 401.0623 402.5010 402.5010 402.5586 402.5586 403.2696 403.2696
   403.3726 403.3726 404.1412 404.1412 405.7242 405.7242 406.1821 406.1821
   406.9572 406.9572 407.0129 407.0129 407.3668 407.3668 408.2634 408.2634
   408.8960 408.8960 409.2043 409.2043 410.0104 410.0104 410.4304 410.4304
   410.6347 410.6347 411.6361 411.6361 412.8949 412.8949 413.0529 413.0529
   413.4717 413.4717 413.7658 413.7658 413.8326 413.8326 415.1578 415.1578
   416.1685 416.1685 416.9743 416.9743 418.4367 418.4367 418.7540 418.7540
   419.2097 419.2097 419.3308 419.3308 420.2448 420.2448 420.9378 420.9378
   421.1593 421.1593 421.5972 421.5972 422.2473 422.2473 423.0079 423.0079
   424.3662 424.3662 425.5730 425.5730 425.7168 425.7168 426.1316 426.1316
   426.5572 426.5572 427.0255 427.0255 428.9368 428.9368 430.1056 430.1056
   430.7142 430.7142 431.1574 431.1574 431.7312 431.7312 431.9699 431.9699
   432.7192 432.7192 433.6928 433.6928 433.9394 433.9394 435.8583 435.8583
   436.5863 436.5863 437.5137 437.5137 437.5201 437.5201 437.9926 437.9926
   439.2041 439.2041 439.5040 439.5040 440.2148 440.2148 440.4517 440.4517
   440.5062 440.5062 440.7861 440.7861 441.1176 441.1176 441.1474 441.1474
   442.4467 442.4467 442.5014 442.5014 443.3044 443.3044 443.8283 443.8283
   444.3779 444.3779 444.7887 444.7887 445.0602 445.0602 445.4449 445.4449
   446.2161 446.2161 448.3813 448.3813 449.2298 449.2298 449.8863 449.8863
   450.5562 450.5562 452.1219 452.1219 452.6241 452.6241 452.7128 452.7128
   453.9565 453.9565 454.2419 454.2419 455.4409 455.4409 455.8424 455.8424
   455.9139 455.9139 456.8545 456.8545 456.8555 456.8555 457.4859 457.4859
   457.7610 457.7610 457.8740 457.8740 457.9264 457.9264 458.4840 458.4840
   458.4912 458.4912 459.9293 459.9293 460.3297 460.3297 461.1666 461.1666
   462.0795 462.0795 462.5348 462.5349 462.5682 462.5682 463.1186 463.1186
   464.1283 464.1283 464.3432 464.3432 465.1414 465.1414 465.5618 465.5618
   465.6037 465.6037 466.5928 466.5928 467.1888 467.1888 467.3944 467.3944
   467.5451 467.5451 467.6410 467.6410 468.5950 468.5950 468.9082 468.9082
   469.4495 469.4495 469.8815 469.8816 470.6875 470.6875 471.4294 471.4294
   471.6789 471.6789 472.4070 472.4070 473.1233 473.1233 473.4473 473.4473
   474.0614 474.0614 474.3560 474.3560 474.5885 474.5885 474.8240 474.8240
   476.5418 476.5418 476.6517 476.6517 477.3188 477.3188 477.8257 477.8257
   478.1337 478.1337 478.1490 478.1490 478.4389 478.4389 478.4672 478.4672
   478.9728 478.9728 478.9838 478.9838 481.3002 481.3002 481.6551 481.6551
   483.0270 483.0270 485.1996 485.1996 485.3895 485.3895 486.2651 486.2651
   486.5114 486.5115 486.9446 486.9446 487.5084 487.5084 487.7665 487.7665
   488.3152 488.3153 488.4507 488.4507 488.9889 488.9889 489.9177 489.9177
   490.9300 490.9300 491.9302 491.9302 492.5682 492.5682 492.6081 492.6081
   493.4751 493.4751 493.9182 493.9182 494.0852 494.0852 494.3373 494.3373
   496.1853 496.1853 496.5002 496.5002 496.6979 496.6979 496.9590 496.9590
   497.5095 497.5095 498.2219 498.2219 499.0247 499.0247 499.1394 499.1394
   499.7054 499.7054 501.0485 501.0485 501.5433 501.5433 501.9504 501.9504
   502.5190 502.5190 503.8450 503.8451 504.1909 504.1909 504.5050 504.5050
   504.9103 504.9103 505.1373 505.1373 505.4465 505.4465 505.5344 505.5344
   506.8569 506.8569 507.0974 507.0974 507.2068 507.2068 508.1077 508.1077
   509.1116 509.1116 509.2111 509.2111 510.4513 510.4513 510.5714 510.5714
   511.0720 511.0720 511.2662 511.2662 511.8615 511.8615 511.9453 511.9453
   512.3559 512.3559 512.4008 512.4008 512.8476 512.8476 513.4101 513.4101
   513.9279 513.9279 514.8409 514.8409 516.7092 516.7092 517.2177 517.2177
   517.8695 517.8695 518.1703 518.1703 518.6594 518.6594 519.4273 519.4273
   520.0251 520.0251 520.5611 520.5611 521.1976 521.1976 521.6664 521.6664
   521.6957 521.6957 521.9569 521.9569 522.5086 522.5086 522.5537 522.5537
   523.2735 523.2735 523.5214 523.5214 524.0454 524.0454 524.4841 524.4841
   526.4867 526.4867 527.7211 527.7211 528.1189 528.1189 528.7805 528.7805
   529.1981 529.1981 529.7475 529.7475 529.9981 529.9981 530.5288 530.5288
   531.0183 531.0183 531.3694 531.3694 532.0347 532.0347 532.4873 532.4873
   533.1579 533.1579 533.7380 533.7380 534.0438 534.0438 535.2331 535.2331
   536.1484 536.1484 537.4502 537.4502 538.4750 538.4750 538.5564 538.5564
   539.4338 539.4338 539.5260 539.5260 540.2513 540.2513 540.3316 540.3316
   540.4219 540.4219 541.0094 541.0094 542.1912 542.1912 542.5121 542.5121
   543.0845 543.0845 543.2403 543.2403 543.2925 543.2925 543.4443 543.4443
   543.5761 543.5761 543.7351 543.7351 543.9465 543.9465 545.0831 545.0831
   546.3319 546.3319 547.0603 547.0603 547.1075 547.1075 547.9553 547.9554
   548.0900 548.0900 549.0639 549.0639 549.9292 549.9292 550.4590 550.4590
   551.5247 551.5247 551.5968 551.5968 551.8623 551.8623 552.3014 552.3014
   552.3887 552.3887 552.7487 552.7487 553.4781 553.4781 553.6449 553.6449
   553.7575 553.7575 554.5555 554.5555 554.9519 554.9519 555.1885 555.1885
   555.2153 555.2153 555.3666 555.3667 556.0014 556.0014 557.3208 557.3208
   557.6777 557.6777 557.9306 557.9306 558.1884 558.1884 558.2100 558.2100
   559.2492 559.2492 559.8028 559.8028 561.6048 561.6048 562.7406 562.7406
   563.0140 563.0140 563.3304 563.3304 563.4093 563.4093 563.9485 563.9485
   564.9041 564.9041 565.3102 565.3103 565.4178 565.4178 565.8328 565.8328
   566.1695 566.1695 566.9135 566.9135 567.6472 567.6472 567.7504 567.7504
   568.0681 568.0681 569.8776 569.8776 570.5361 570.5361 571.0014 571.0014
   572.8681 572.8681 572.9319 572.9319 573.7036 573.7036 573.9514 573.9514
   574.2326 574.2326 575.3530 575.3530 575.9842 575.9842 576.4961 576.4961
   576.8849 576.8849 577.2761 577.2761 577.8487 577.8487 578.3358 578.3358
   582.1919 582.1919 582.3493 582.3493 583.4648 583.4648 583.8914 583.8914
   584.1823 584.1823 584.7223 584.7223 584.7633 584.7633 585.7699 585.7699
   585.7723 585.7723 586.1324 586.1324 586.8087 586.8087 587.1230 587.1230
   587.7558 587.7558 587.9737 587.9737 588.3198 588.3198 588.6584 588.6584
   589.4648 589.4648 589.7219 589.7219 590.2828 590.2828 591.0046 591.0046
   591.0065 591.0065 591.8139 591.8139 592.0910 592.0910 592.4359 592.4359
   593.5987 593.5987 593.9857 593.9857 594.1679 594.1679 594.2251 594.2251
   597.7887 597.7887 599.8123 599.8123 599.9031 599.9031 601.0325 601.0325
   601.0506 601.0506 601.6527 601.6527 601.7507 601.7507 602.5300 602.5300
   602.6259 602.6260 603.0700 603.0700 603.5880 603.5880 603.9933 603.9933
   605.3537 605.3537 605.4876 605.4876 606.1216 606.1216 606.4826 606.4826
   606.9414 606.9414 607.0910 607.0910 607.7445 607.7445 607.7881 607.7881
   607.9643 607.9643 608.4640 608.4640 608.4975 608.4975 609.0181 609.0182
   609.0298 609.0298 609.7103 609.7103 609.8028 609.8028 609.9378 609.9378
   610.6296 610.6296 610.8248 610.8248 610.8409 610.8409 611.0851 611.0851
   611.8569 611.8569 612.3254 612.3254 612.3703 612.3703 612.9015 612.9015
   612.9232 612.9232 613.1225 613.1225 614.2447 614.2448 614.4059 614.4059
   616.5055 616.5055 616.8028 616.8028 617.0808 617.0809 617.3806 617.3806
   617.9286 617.9286 618.3656 618.3656 619.1700 619.1700 620.2459 620.2459
   620.3709 620.3709 620.6686 620.6686 621.0873 621.0873 621.7667 621.7667
   621.9437 621.9437 622.1335 622.1335 622.2549 622.2549 622.8223 622.8223
   622.9678 622.9678 623.5397 623.5397 624.5663 624.5663 625.4889 625.4889
   625.5132 625.5132 625.7783 625.7783 625.8812 625.8812 626.8968 626.8968
   627.9031 627.9031 628.1674 628.1674 628.3944 628.3944 628.6777 628.6777
   628.6793 628.6793 629.0273 629.0273 634.1977 634.1977 634.5674 634.5674
   634.7298 634.7298 634.7878 634.7878 634.9751 634.9751 635.0709 635.0709
   635.7465 635.7465 636.0833 636.0833 637.2868 637.2868 637.4356 637.4356
   638.8524 638.8524 638.9332 638.9332 639.5835 639.5835 640.3797 640.3797
   640.6814 640.6814 640.9774 640.9774 641.2283 641.2283 641.2930 641.2930

     the Fermi energy is    12.4392 ev
     (compare with:    10.8393 eV, computed in scf)

     Writing all to output data dir out/mp-804.save/
 
     init_run     :      0.07s CPU      0.08s WALL (       1 calls)
     electrons    :    977.64s CPU   1052.18s WALL (       1 calls)

     Called by init_run:
     wfcinit      :      0.00s CPU      0.00s WALL (       1 calls)
     potinit      :      0.01s CPU      0.02s WALL (       1 calls)
     hinit0       :      0.03s CPU      0.03s WALL (       1 calls)

     Called by electrons:
     c_bands      :    977.64s CPU   1052.17s WALL (       1 calls)
     v_of_rho     :      0.01s CPU      0.01s WALL (       1 calls)

     Called by c_bands:
     init_us_2    :      0.00s CPU      0.00s WALL (       4 calls)
     init_us_2:cp :      0.00s CPU      0.00s WALL (       4 calls)
     paro_k       :    949.91s CPU   1022.45s WALL (       4 calls)

     Called by paro_*:
     h_psi        :      9.73s CPU     10.12s WALL (     567 calls)
     g_psi        :      0.20s CPU      0.22s WALL (   57829 calls)

     Called by h_psi:
     h_psi:calbec :      0.33s CPU      0.35s WALL (     567 calls)
     vloc_psi     :      9.07s CPU      9.43s WALL (     567 calls)
     add_vuspsi   :      0.27s CPU      0.27s WALL (     567 calls)

     General routines
     calbec       :      0.33s CPU      0.35s WALL (     567 calls)
     fft          :      0.00s CPU      0.01s WALL (      10 calls)
     fftw         :      8.07s CPU      8.38s WALL (   94326 calls)
 
     Parallel routines
 
     PWSCF        :  16m18.38s CPU  17m33.19s WALL

 
   This run was terminated on:  14: 0:42  14Nov2023            

=------------------------------------------------------------------------------=
   JOB DONE.
=------------------------------------------------------------------------------=
