
     Program PWSCF v.7.1 starts on 14Nov2023 at 15:24:42 

     This program is part of the open-source Quantum ESPRESSO suite
     for quantum simulation of materials; please cite
         "P. Giannozzi et al., J. Phys.:Condens. Matter 21 395502 (2009);
         "P. Giannozzi et al., J. Phys.:Condens. Matter 29 465901 (2017);
         "P. Giannozzi et al., J. Chem. Phys. 152 154105 (2020);
          URL http://www.quantum-espresso.org", 
     in publications or presentations arising from this work. More details at
     http://www.quantum-espresso.org/quote

     Parallel version (MPI), running on    24 processors

     MPI processes distributed on     1 nodes
     122905 MiB available memory on the printing compute node when the environment starts
 
     Reading input from pw_mp-804_nscf_k290_E76.in
Warning: card &IONS ignored
Warning: card / ignored
Warning: card &CELL ignored
Warning: card / ignored

     Current dimensions of program PWSCF are:
     Max number of different atomic species (ntypx) = 10
     Max number of k-points (npk) =  40000
     Max angular momentum in pseudopotentials (lmaxx) =  4

     Atomic positions and unit cell read from directory:
     out/mp-804.save/
     Atomic positions from file used, from input discarded
 
 
     R & G space division:  proc/nbgrp/npool/nimage =      24
     Subspace diagonalization in iterative solution of the eigenvalue problem:
     one sub-group per band group will be used
     scalapack distributed-memory algorithm (size of sub-group:  4*  4 procs)

 
     Parallelization info
     --------------------
     sticks:   dense  smooth     PW     G-vecs:    dense   smooth      PW
     Min          31      31      8                 1143     1143     172
     Max          32      32      9                 1152     1152     181
     Sum         757     757    211                27487    27487    4271
 
     Using Slab Decomposition
 


     bravais-lattice index     =            4
     lattice parameter (alat)  =       6.0262  a.u.
     unit-cell volume          =     308.5900 (a.u.)^3
     number of atoms/cell      =            4
     number of atomic types    =            2
     number of electrons       =        36.00
     number of Kohn-Sham states=         1240
     kinetic-energy cutoff     =      76.0000  Ry
     charge density cutoff     =     304.0000  Ry
     Exchange-correlation= PBE
                           (   1   4   3   4   0   0   0)

     celldm(1)=   6.026205  celldm(2)=   0.000000  celldm(3)=   1.628244
     celldm(4)=   0.000000  celldm(5)=   0.000000  celldm(6)=   0.000000

     crystal axes: (cart. coord. in units of alat)
               a(1) = (   1.000000   0.000000   0.000000 )  
               a(2) = (  -0.500000   0.866025   0.000000 )  
               a(3) = (   0.000000   0.000000   1.628244 )  

     reciprocal axes: (cart. coord. in units 2 pi/alat)
               b(1) = (  1.000000  0.577350  0.000000 )  
               b(2) = (  0.000000  1.154701  0.000000 )  
               b(3) = (  0.000000  0.000000  0.614159 )  


     PseudoPot. # 1 for Ga read from file:
     /usr/scratch4/magr4985/MG/HTDF/pseudo/SG15/Ga.upf
     MD5 check sum: 9961a622ff199abf6dfec9a0a10b8555
     Pseudo is Norm-conserving, Zval = 13.0
     Generated using ONCVPSP code by D. R. Hamann
     Using radial grid of  602 points,  6 beta functions with: 
                l(1) =   0
                l(2) =   0
                l(3) =   1
                l(4) =   1
                l(5) =   2
                l(6) =   2

     PseudoPot. # 2 for N  read from file:
     /usr/scratch4/magr4985/MG/HTDF/pseudo/SG15/N.upf
     MD5 check sum: c233fa8df51455e992258b7c3dee8a9f
     Pseudo is Norm-conserving, Zval =  5.0
     Generated using ONCVPSP code by D. R. Hamann
     Using radial grid of  602 points,  4 beta functions with: 
                l(1) =   0
                l(2) =   0
                l(3) =   1
                l(4) =   1

     atomic species   valence    mass     pseudopotential
        Ga            13.00    69.72300     Ga( 1.00)
        N              5.00    14.00670     N ( 1.00)

      6 Sym. Ops. (no inversion) found



   Cartesian axes

     site n.     atom                  positions (alat units)
         1           Ga  tau(   1) = (   0.0000000   0.5773502   0.8126302  )
         2           Ga  tau(   2) = (   0.5000000   0.2886752   1.6267523  )
         3           N   tau(   3) = (   0.0000000   0.5773502   1.4262057  )
         4           N   tau(   4) = (   0.5000000   0.2886752   0.6120835  )

     number of k points=    13  Gaussian smearing, width (Ry)=  0.0005
                       cart. coord. in units 2pi/alat
        k(    1) = (   0.0000000   0.0000000   0.0000000), wk =   0.0312500
        k(    2) = (   0.0000000   0.0000000   0.1535396), wk =   0.0625000
        k(    3) = (   0.0000000   0.0000000  -0.3070793), wk =   0.0312500
        k(    4) = (   0.0000000   0.2886751   0.0000000), wk =   0.1875000
        k(    5) = (   0.0000000   0.2886751   0.1535396), wk =   0.1875000
        k(    6) = (   0.0000000   0.2886751  -0.3070793), wk =   0.1875000
        k(    7) = (   0.0000000  -0.5773503   0.0000000), wk =   0.0937500
        k(    8) = (   0.0000000  -0.5773503   0.1535396), wk =   0.1875000
        k(    9) = (   0.0000000  -0.5773503  -0.3070793), wk =   0.0937500
        k(   10) = (   0.2500000   0.4330127   0.0000000), wk =   0.1875000
        k(   11) = (   0.2500000   0.4330127   0.1535396), wk =   0.3750000
        k(   12) = (   0.2500000   0.4330127  -0.3070793), wk =   0.1875000
        k(   13) = (   0.0000000  -0.2886751   0.1535396), wk =   0.1875000

     Dense  grid:    27487 G-vectors     FFT dimensions: (  36,  36,  60)

     Estimated max dynamical RAM per process >      81.86 MB

     Estimated total dynamical RAM >       1.92 GB

     The potential is recalculated from file :
     out/mp-804.save/charge-density

     Starting wfcs are random

     Band Structure Calculation
     Davidson diagonalization with overlap

     ethr =  5.00E-06,  avg # of iterations = 10.8

     total cpu time spent up to now is      664.0 secs

     End of band structure calculation

          k = 0.0000 0.0000 0.0000 (  3441 PWs)   bands (ev):

    -5.2204  -4.3630  -2.8454  -2.8348  -2.8348  -2.7767  -2.7767  -2.5876
    -2.5876  -2.4905  -2.4905  -1.1961   3.6880   9.6807   9.6807  10.6715
    10.7063  10.7063  12.6672  14.9963  19.9123  20.6398  20.6398  21.4810
    22.4465  22.4465  25.3428  26.3923  26.3923  28.6439  28.6439  28.8995
    28.9599  32.4110  34.8742  34.8742  37.4965  38.7963  38.7963  39.8140
    39.8140  39.8347  43.5032  43.5033  45.2413  47.3368  47.3368  49.1592
    49.1592  49.2966  51.9618  52.3405  56.8450  57.7356  57.7356  59.8584
    60.4450  60.5969  60.5969  62.2895  62.4939  62.4939  65.4993  65.4993
    66.1508  66.1508  66.3299  66.3628  66.4780  66.4780  67.8618  69.4992
    69.4992  70.1274  70.5254  70.5254  72.9861  72.9861  73.8062  74.8682
    74.8801  74.8801  77.8115  77.8115  78.0261  78.5678  78.5678  78.6485
    79.8365  80.1317  80.2956  80.2956  80.7789  80.7789  80.8375  81.1513
    81.6143  81.6143  82.8270  82.8270  84.4375  84.8500  85.9223  85.9223
    87.0274  88.0516  88.0516  88.3334  88.8049  90.9912  90.9912  96.8204
    96.8204  97.5878  97.5878  98.2194  99.4754  99.6626 101.1794 101.1794
   101.1812 103.0541 103.7042 103.7042 105.1642 105.1642 105.3906 105.3906
   106.0662 106.0662 106.3704 107.1351 107.1351 107.2783 107.7600 107.8395
   107.8395 108.1118 109.4055 109.4055 109.8674 109.8674 113.3175 113.3175
   114.4762 114.8289 120.6179 120.7321 120.7321 121.6651 124.9123 124.9123
   125.5650 125.5650 127.0329 127.0528 127.0528 127.7627 128.9454 129.3446
   130.3948 130.4196 130.4196 130.5565 131.4160 131.4160 131.6960 133.7714
   133.9711 133.9711 135.1267 136.2892 136.2892 136.8632 138.1403 138.1403
   139.3756 139.3836 139.3836 139.9844 140.0749 140.0749 140.4522 141.6405
   141.6405 142.3053 142.3053 142.3726 143.7318 144.3142 144.3142 144.4667
   144.7542 144.9372 144.9372 145.0246 145.0246 145.4613 145.4613 146.1257
   146.1257 146.4883 146.7471 146.7471 147.2127 147.3826 149.0587 150.1891
   150.1891 151.6643 151.6643 151.7974 153.1308 153.8344 153.8344 153.9274
   154.8587 155.0337 155.0337 155.8683 155.8683 155.9304 156.3458 157.4076
   157.4076 158.0180 158.0180 158.1773 158.1773 158.8416 158.8416 158.9542
   159.1558 159.5669 159.5669 160.3937 160.4611 160.8401 160.8402 161.1402
   161.9209 161.9209 162.5402 163.6384 163.6384 164.0901 165.2332 165.2332
   165.5833 165.5833 165.9213 166.1408 166.3895 166.6008 166.6008 170.5441
   170.5441 171.2045 172.4931 172.4931 173.8237 174.6121 174.6121 174.6255
   175.3055 175.3812 176.5483 176.5483 178.4114 178.4114 179.4473 180.4047
   180.4047 180.5144 180.5144 181.0347 182.0249 182.3678 182.9445 182.9445
   183.5452 183.6944 183.6944 183.8774 183.8774 183.8939 185.8452 185.8452
   186.8696 186.9271 187.0229 187.0229 187.4796 187.4796 188.2262 188.3544
   189.3179 189.3179 190.7052 190.7052 191.6143 193.5608 193.5608 193.9948
   194.6853 195.1423 195.1423 195.1580 195.1580 195.4258 195.4258 195.4286
   195.4727 195.4727 195.7932 197.0989 197.3531 197.3733 197.6943 197.6943
   199.5973 200.1562 200.1562 202.3325 207.3746 207.3746 207.9753 208.2359
   210.5034 210.5034 212.7398 212.7398 213.5141 213.5141 213.5404 214.4091
   214.4132 214.4132 215.0674 215.9237 215.9237 216.9519 217.0305 217.0305
   217.2417 217.2501 217.2501 218.5627 218.5627 218.9519 218.9519 220.3506
   220.4472 220.5692 220.5692 220.8472 220.9287 220.9287 220.9973 221.5894
   221.5894 221.7070 222.3058 222.9713 222.9713 223.5468 223.8773 223.8773
   224.7445 224.7445 225.6645 226.5287 226.5287 226.6325 226.6325 226.9346
   227.1079 227.1079 227.1164 227.2622 227.7919 228.7243 228.7243 228.9846
   228.9846 228.9959 229.9957 231.6485 231.6485 232.9273 232.9273 234.1160
   235.2512 235.2512 236.0185 236.0185 236.4620 236.4620 239.0642 239.4423
   240.2430 241.9141 242.2315 242.2315 246.2339 246.2339 247.8661 247.9692
   249.0519 249.4063 249.6461 249.6461 250.2224 250.2224 250.4163 250.4163
   251.7061 251.9120 252.1839 252.1839 252.4164 252.4164 252.4752 252.5713
   252.8549 252.8549 254.2497 254.2497 254.5338 254.7643 254.9494 254.9494
   255.3064 255.6771 255.6771 255.7819 255.7819 256.2054 256.5989 256.5989
   256.9185 256.9185 257.5537 257.5537 257.6049 257.8346 257.9729 257.9729
   258.3585 258.5330 258.9197 259.8912 259.8912 259.9427 259.9427 260.2154
   261.4966 261.6572 261.6572 261.8457 261.8457 262.0809 262.3063 262.4952
   262.8700 262.8700 263.2341 263.2341 263.3491 264.1384 264.7252 264.7252
   265.1990 265.1990 265.6930 267.3448 267.3448 267.8824 267.8824 268.8461
   268.8936 270.0575 270.0575 270.5955 270.5955 271.6186 271.6186 271.7068
   271.7262 271.7346 272.1648 272.5991 272.5991 272.8019 273.3381 273.6532
   273.9340 273.9340 274.3084 274.8389 275.0301 275.0301 275.0961 275.0961
   275.1730 276.0482 276.0482 276.2539 276.2539 276.7145 276.7145 276.9292
   276.9292 277.2896 277.3976 277.3976 277.8428 277.9576 278.0131 278.0599
   278.0599 278.1905 278.1918 278.1918 278.2013 278.2159 278.2159 278.6342
   279.1931 279.1931 279.6963 279.6963 280.0560 280.1062 280.5597 280.5597
   282.0584 282.0584 282.1839 282.1839 282.3042 282.6336 284.9759 287.1463
   287.1463 287.1546 287.6169 287.6169 287.9746 287.9746 290.0267 290.0268
   290.6760 292.2754 292.2755 293.3420 293.3420 293.6851 295.8390 296.6837
   297.8032 297.8032 299.0953 299.0953 299.8869 301.9501 302.2563 302.5664
   302.7061 302.7061 303.8135 303.8135 304.1808 304.1808 304.9617 304.9617
   305.1932 305.1932 305.3000 305.4032 305.4245 305.6702 305.6702 306.4479
   308.4377 308.4377 309.5541 309.5541 310.0848 310.0848 310.4758 310.4758
   310.4921 310.7760 311.7580 311.7580 311.7918 311.9346 311.9346 311.9453
   312.1894 314.6286 314.6286 314.7224 315.0370 315.9658 315.9658 316.2909
   316.9965 318.9415 318.9415 319.2772 319.2772 320.0484 320.1091 320.1097
   320.1097 320.2662 320.7816 320.7816 320.9824 320.9824 321.4877 324.4043
   324.8887 324.8887 325.1504 325.8349 325.8349 327.1003 327.1003 327.5476
   327.5476 328.3956 328.3956 328.4401 328.4401 329.1102 329.1324 329.3945
   329.3945 330.8085 330.8449 331.5787 331.5787 332.0307 332.0307 332.2337
   333.1618 333.1618 333.4219 334.0460 334.3712 334.3795 335.0905 335.0905
   335.7803 336.1394 336.1394 336.1641 336.4820 336.6927 336.6927 336.8422
   336.8422 338.0009 338.0009 338.0766 338.0766 338.4126 338.4126 339.2133
   339.2277 339.2375 339.6802 339.6802 340.8589 340.8589 340.9766 341.2922
   341.5289 341.5289 341.6157 341.7191 342.4391 343.0578 343.0761 343.0761
   343.9102 343.9102 344.3465 344.3695 344.5914 344.5914 345.7823 345.7823
   346.6832 346.6832 347.5683 348.5629 348.5629 349.2505 349.2997 349.2997
   349.6001 350.6360 351.3433 351.3433 354.7636 354.7636 355.1071 355.1071
   355.5781 355.6141 356.1356 356.1357 359.3349 360.0431 360.8906 361.5306
   361.5306 361.5903 362.4098 362.4098 362.6810 362.6810 363.3643 363.5935
   363.9000 364.4621 364.4621 367.3668 367.3668 367.5936 367.5936 367.6252
   367.6252 367.6541 367.9060 368.6855 368.6855 369.4648 369.7685 369.7685
   369.8061 370.0689 370.0773 370.5037 370.5037 370.7914 370.7914 370.7939
   370.7939 370.8631 371.7282 371.7282 372.3111 372.3111 372.3444 372.3444
   372.9635 372.9635 373.0127 373.1942 373.2838 374.3842 374.3842 374.6473
   375.9308 375.9592 375.9592 376.0742 376.3892 376.3892 377.2508 377.2508
   377.2815 377.2815 377.4783 377.6776 378.1949 378.7563 378.7563 380.3784
   380.3784 381.4879 381.4879 381.5629 381.6451 381.8548 382.1758 382.1758
   383.4150 383.4150 384.1124 385.2737 386.2033 386.2033 386.8195 386.8195
   387.6425 388.5707 388.5707 388.9046 388.9046 388.9357 390.1679 390.4135
   390.7521 390.7853 390.8023 390.8023 391.1585 391.4291 391.9156 391.9156
   392.4958 392.4958 392.9968 392.9968 393.8809 393.8809 393.9002 394.1549
   394.1549 394.2120 394.2120 394.4499 394.7092 394.7676 394.8044 394.8044
   394.9836 394.9836 395.0858 395.2939 395.2939 395.8053 396.0978 396.5847
   396.5847 397.7978 397.7978 398.4043 398.4043 398.4237 399.6297 399.6297
   399.8110 399.8110 399.8856 399.9943 400.1804 401.5095 401.5095 401.9303
   402.1455 402.3743 402.3743 402.8274 402.8274 404.1166 404.1166 404.3183
   404.4247 404.4437 404.7214 404.7214 405.2229 405.8560 405.9046 405.9046
   406.1410 406.1410 407.2419 408.5097 408.5097 408.7277 408.7277 409.1630
   409.1630 409.6261 409.8482 410.1157 410.1157 410.3524 410.5664 410.5664
   410.8263 410.8263 411.6467 411.6573 411.8197 412.1618 412.1618 412.2632
   412.2632 412.8815 412.8815 412.9750 413.0064 413.0064 413.3294 413.3294
   413.5254 414.1251 414.1251 414.2220 414.2220 414.3853 414.3853 415.0359
   415.4671 415.5361 415.5591 416.1759 416.2462 416.2462 416.2679 416.2679
   416.6770 416.8301 418.0783 418.0783 418.2128 419.2782 419.2987 419.4738
   419.4738 420.4269 420.4269 420.7024 421.7712 422.0285 422.0285 422.7015
   422.7015 422.9612 423.1594 423.1594 423.4391 423.4391 423.5462 423.7742
   424.6088 424.6088 425.1352 425.1352 425.5587 426.6123 426.7180 426.7180
   428.5432 428.8293 428.8293 430.1331 430.2334 430.2334 430.5386 430.5386
   431.1590 431.1590 431.3944 431.3944 431.5006 431.5576 431.7890 431.8603
   431.8644 431.8644 432.5920 432.5920 433.0076 433.0076 433.2485 433.2485
   433.5952 433.6972 433.6972 433.7597 433.7597 433.8020 433.9177 433.9979
   434.7602 434.7602 434.9006 434.9382 434.9382 435.1337 435.8789 436.1824
   436.1824 437.4784 438.3333 440.1152 440.1152 442.9179 443.2381 444.0717
   444.0717 444.2645 444.5380 444.5380 444.7134 444.7434 444.7434 444.8646
   445.5145 445.5145 445.6432 445.6432 445.8233 446.6771 448.5341 448.5341
   448.5743 449.1916 449.7419 449.7419 450.1382 451.1858 451.1956 451.4262
   451.4262 451.4313 451.4313 451.6028 452.6680 453.1382 453.1382 453.9483
   453.9483 454.2307 454.2315 454.4182 454.4182 454.5101 454.5101 454.6017
   454.6017 454.6675 455.1859 455.1859 455.4308 455.4308 455.5432 455.5432
   455.7266 455.7382 455.7507 456.0970 456.0970 456.3103 456.3973 456.4597
   456.4597 456.7780 457.4126 457.4126 457.8225 457.9535 457.9535 458.4355
   459.0251 459.0251 459.5728 459.5728 460.2408 460.3113 460.4912 460.4912
   461.0092 461.0092 461.9269 462.0777 462.1837 462.1837 462.2221 462.2991
   462.7974 462.7974 462.8722 462.8722 463.6511 463.6511 463.8390 463.9445
   464.0239 464.7991 464.7991 465.2977 465.2977 466.5886 470.0778 470.0778
   470.3286 470.4572 470.4572 473.8231 473.8231 476.6973 476.6973 476.7034
   476.7034 477.1940 479.5526 479.7632 479.7632 479.7635 482.1597 482.1597
   482.2189 482.2189 485.2998 485.3056 485.3056 486.1999 486.1999 486.4586
   486.6717 486.6717 487.1315 487.6430 487.9508 487.9630 488.7616 490.5387
   490.5387 491.3322 491.3322 492.0584 492.0584 492.7625 492.8448 492.8448
   493.3791 493.3791 493.6607 493.8001 493.8001 494.3549 494.4177 494.4177
   495.0408 495.0408 495.0919 495.2367 495.2402 495.9323 497.6674 497.6674
   497.7138 497.9511 497.9511 498.7323 498.8549 499.0426 499.0426 499.2707
   499.2707 499.3743 499.4447 499.5085 499.5085 499.7915 499.7915 499.9082
   499.9082 500.3589 500.3589 500.4459 500.4560 502.2533 502.2533 503.0603
   503.2606 503.2606 503.4914 503.4914 503.8586 503.8805 503.9444 503.9444
   504.2137 504.2137 504.2491 505.0546 505.2168 505.2168 505.3308 505.3308
   505.6734 505.6734 505.7189 505.8506 506.8029 506.8029 506.9897 507.8942
   508.2076 508.2076 508.3042 508.3042 508.3518 508.3518 508.9595 508.9595
   509.5395 509.8411 509.8757 509.8757 510.0665 510.0665 510.1452 510.2311
   510.4068 510.4088 510.7103 510.7103 511.0011 511.1824 511.3492 511.3492
   512.2398 512.4195 512.4195 512.6801 512.6801 512.7410 512.7551 512.7973
   512.7973 512.8160 512.8343 512.9037 512.9037 513.1711 515.8863 516.3275

          k = 0.0000 0.0000 0.1535 (  3483 PWs)   bands (ev):

    -5.0488  -4.4266  -2.8316  -2.8316  -2.7899  -2.7899  -2.7850  -2.5691
    -2.5691  -2.5009  -2.5009  -1.7447   4.7284   9.1824   9.8244   9.8244
    10.5497  10.5497  13.8563  15.1041  19.5242  20.2859  20.7262  20.7262
    21.9421  21.9421  25.8908  27.2043  27.2043  28.3930  29.5428  29.5428
    31.1063  32.6823  33.1990  33.1990  36.6440  36.6440  38.1001  38.5848
    41.5131  41.5131  43.6044  43.6044  44.2852  45.2969  49.9781  49.9781
    50.0362  50.0362  53.3968  57.1387  57.7208  57.9945  57.9945  58.1309
    58.1309  59.1508  59.9822  59.9822  61.0361  61.6527  62.4408  62.4408
    64.4066  66.8239  66.8239  66.8893  66.8893  67.7256  68.0219  68.7509
    68.7509  69.1806  73.5575  73.5575  74.2810  74.2810  74.3573  75.2246
    75.5280  75.7273  75.7273  75.7566  78.0901  78.0901  78.1869  78.4733
    78.4733  78.6521  80.5130  80.5130  81.1641  81.1641  82.4075  83.4796
    83.4796  84.4043  84.6472  84.6472  85.4746  86.1953  86.7008  87.0593
    87.0593  88.7863  88.7863  88.9656  90.1443  90.1443  93.5961  93.7152
    93.7152  95.3449  95.3449  95.7525  95.8452  96.8576  96.8576  98.8516
    99.9907 100.0560 100.0560 100.8931 100.8931 101.6841 101.6841 103.2599
   104.2126 105.1142 105.1142 107.7449 108.3490 110.2447 110.2447 112.4743
   112.4743 113.2995 114.6726 114.6726 115.1007 116.5313 117.2473 117.2473
   118.1991 118.1991 119.2970 119.7487 119.7487 121.9974 121.9974 122.3313
   122.6417 123.1101 123.1101 125.8239 127.1688 129.2077 129.8513 130.7750
   130.7750 131.2096 131.2096 131.9067 131.9067 134.0284 134.0284 134.1062
   135.3228 135.8609 135.8609 135.9361 136.2652 136.2652 136.3212 137.5002
   137.7715 138.5553 138.5553 138.6257 138.6257 139.0177 139.3333 139.6356
   139.6356 139.6486 140.6091 140.6091 141.7643 141.7643 143.6385 143.8053
   143.8053 143.8770 144.1356 144.1356 144.3862 145.1909 145.1909 146.0126
   146.5991 146.5991 146.6750 147.2418 147.2418 147.9244 147.9978 147.9978
   150.0459 150.1093 150.1093 150.2675 152.3807 152.4508 152.4508 152.8789
   154.0880 154.0880 154.4405 154.5644 154.5644 155.4836 155.5877 155.5877
   155.6449 155.9785 155.9785 156.8119 156.8119 158.0386 158.5506 159.1031
   159.1031 160.5809 160.6928 161.6416 161.6416 163.1269 164.3147 164.3147
   164.9943 166.4447 166.4448 166.7299 167.0292 167.9771 167.9771 169.7070
   169.7070 170.0591 170.0591 171.1332 171.7704 172.3004 172.3004 173.3211
   173.3211 173.3531 173.5295 174.2828 174.5475 174.5670 174.5670 175.3226
   175.3226 175.6856 175.6856 176.1924 176.5539 176.5539 177.1292 177.1292
   177.6362 178.4446 178.4446 178.8725 179.8367 180.0988 180.5999 180.5999
   180.7285 181.0401 181.0401 181.9865 181.9865 183.5041 184.0045 184.0045
   184.0186 185.1368 185.4043 185.4043 186.5380 187.0556 187.0556 189.0781
   189.0781 190.1285 190.8259 190.9871 191.1384 191.1384 193.5150 193.5150
   193.7791 194.9969 194.9969 195.0199 195.8609 196.7504 196.7504 197.0285
   197.9303 197.9303 199.4873 199.4873 200.1903 201.0972 201.0972 201.3685
   201.3685 202.1106 202.8653 203.4069 203.4069 203.4225 204.0443 204.0443
   204.9098 204.9098 204.9637 207.6824 207.6824 208.5693 209.1919 209.1919
   209.7130 210.0647 210.0647 210.1524 211.5543 213.0479 213.4102 213.4102
   214.5464 215.7577 215.7577 216.5163 216.7697 217.0845 217.0845 217.1245
   217.1245 221.4623 221.4623 221.7073 221.7073 222.3569 222.9519 226.9538
   226.9538 227.0666 227.6369 227.8446 228.5683 228.7403 228.7403 228.8554
   228.8554 229.9083 229.9083 229.9545 230.4716 231.3701 231.3701 232.2157
   232.2157 232.5709 232.5709 232.8401 233.0978 233.0978 233.1138 234.2518
   235.2399 235.2399 236.4396 236.4396 236.4968 236.6098 236.6098 237.8465
   237.8465 237.8971 238.0897 238.0897 238.6910 239.1981 239.1981 239.8376
   239.8376 239.8817 240.6067 240.6067 240.6168 242.0547 242.4741 243.3410
   243.3410 245.3358 245.6787 245.6873 246.3721 246.3721 248.1821 248.2798
   248.2798 249.6322 249.6886 249.6886 250.4948 250.4948 251.5541 251.9861
   252.0315 252.0315 252.1745 252.1889 253.0389 253.0389 253.0993 253.0993
   253.1064 254.0769 254.1656 254.1656 254.5634 254.8270 254.8270 255.1296
   255.4844 255.4844 256.0245 256.0245 256.1122 256.1122 256.8189 257.1274
   257.1274 257.2820 258.2022 258.3569 259.1381 259.1381 259.2182 259.2182
   259.7900 259.9430 259.9430 260.5934 260.5934 260.7476 261.2590 262.5114
   262.6705 262.6705 263.2387 263.3500 263.3501 263.4197 264.1932 264.1932
   264.2766 264.3601 264.3601 264.5699 264.5699 264.7988 264.8524 265.4700
   265.4700 267.7226 268.2611 268.2611 268.6952 268.8101 268.8101 268.9486
   268.9486 269.3454 270.1795 270.1795 271.6235 271.6235 271.9584 271.9584
   272.0294 272.2904 272.2904 272.5622 273.0301 273.0301 273.5868 273.6545
   274.3070 274.4866 274.4866 274.8354 275.2909 275.4540 275.4540 275.8360
   276.6948 276.6948 276.7930 276.7930 278.3904 278.3904 279.4700 280.2033
   280.6158 281.2034 281.2034 283.1572 283.1572 283.2443 283.2443 283.3371
   283.3991 284.8949 284.8949 284.9105 284.9522 284.9522 286.2980 288.0226
   288.7132 288.7132 289.6827 290.4769 290.4769 290.7965 291.1469 291.1469
   292.5750 292.5750 292.7482 292.9521 292.9618 293.2643 293.2643 293.9533
   293.9533 294.3465 294.3649 294.8296 294.8296 295.3584 295.3584 295.4588
   296.4338 296.4338 297.2467 297.2467 297.3593 298.1532 299.7704 299.7704
   299.8885 300.0553 300.0553 300.2017 303.5510 305.0105 305.3607 305.3607
   306.9114 306.9114 307.4274 307.4274 307.7201 307.7201 308.6377 308.6377
   309.3217 309.3217 309.3524 309.5087 309.5087 309.8820 310.1413 310.2732
   310.2732 310.5399 310.8611 310.9780 311.1698 311.8113 311.8113 311.8435
   311.8435 312.4107 312.4108 312.9493 313.5975 313.5975 314.0636 314.2906
   314.3156 314.3156 314.6840 315.7757 315.7757 317.2640 317.6472 317.6472
   317.6645 317.6645 318.5154 319.3372 320.2327 320.2327 321.6931 321.6931
   322.2699 322.4798 322.4902 322.4902 322.9135 323.2343 323.2343 324.1646
   324.3098 325.6894 325.6894 325.8282 325.8282 326.1642 327.1998 328.0603
   328.0603 328.2220 328.2220 329.0440 329.2640 329.2640 329.8777 330.0401
   330.0401 330.2276 330.7634 331.1403 331.1403 331.1968 331.1968 331.3498
   331.4956 332.8820 332.8820 333.0841 333.0841 333.5613 334.5584 335.5089
   335.7278 335.7278 336.5968 338.1316 338.1316 339.7368 339.7368 340.2161
   340.7863 340.7863 341.4858 343.0523 344.7633 344.7633 345.9152 345.9152
   346.9872 346.9872 347.1606 348.0097 348.9701 348.9701 349.2238 349.2238
   349.4053 350.9627 350.9996 350.9997 352.4913 352.6901 352.6901 352.9422
   352.9422 353.1433 353.3860 353.3860 353.7045 353.7045 353.8492 353.9212
   353.9212 354.2521 354.4602 354.6636 354.6636 355.0018 355.0018 355.4876
   355.6367 356.1785 356.1785 356.3007 356.4426 357.1230 357.1494 357.1494
   357.2049 357.2049 357.2206 357.9136 357.9136 358.5143 359.0929 359.0929
   362.1137 362.1137 362.1316 362.7485 363.2728 365.2138 365.2138 366.2825
   366.2825 367.3305 367.3305 367.4543 367.6308 367.6308 368.3805 368.3805
   368.7058 368.8384 368.8384 369.1710 369.7225 369.8430 370.9034 370.9034
   370.9062 370.9062 371.0869 371.6514 371.6514 372.1688 372.8868 373.7120
   373.7120 375.0654 376.1373 376.5670 376.5831 376.5831 377.2342 377.4394
   378.1208 378.1208 378.1724 378.1724 378.5067 379.1387 379.1387 379.6734
   379.8341 379.8341 380.7101 380.7101 380.7462 380.9023 380.9023 381.1065
   381.6349 382.7008 382.7008 382.7789 382.8552 382.8552 382.8612 382.8955
   382.8955 383.5198 383.5198 383.8423 383.8765 384.1987 384.1987 384.9394
   385.2838 386.1946 386.1946 386.2109 386.2109 386.8499 386.8499 387.3624
   388.1491 388.1491 388.9247 389.0247 389.0247 389.5382 389.5382 389.7293
   389.9544 390.0695 390.0695 390.1118 390.9293 390.9899 390.9899 391.1432
   391.1432 391.8226 391.8226 392.0144 392.0305 392.0305 392.5007 392.5590
   393.0095 393.0095 393.8421 394.1603 394.1603 394.5290 394.5290 395.0389
   395.2945 397.5105 397.5105 398.0871 398.0871 399.0202 399.0202 399.3871
   399.7294 399.9325 400.5442 400.5442 401.0783 401.4337 401.4337 403.1518
   403.1684 403.1684 403.5112 403.5112 404.1891 404.8576 405.0934 405.8155
   405.8155 406.1548 406.1548 406.1743 406.4891 406.6806 406.6806 407.0544
   407.3084 407.3084 408.3072 408.3072 408.7464 408.8846 409.5004 409.5004
   409.6447 409.6447 410.3103 410.6582 410.6582 410.9457 410.9457 410.9900
   410.9900 411.3170 411.4219 411.6197 411.8405 411.8405 411.9786 412.6008
   412.6008 412.7050 412.9850 413.1211 413.1211 413.8072 413.8072 414.3473
   414.6296 414.6296 415.2245 415.3940 415.4259 415.4259 415.6885 415.9285
   415.9285 415.9832 416.4432 416.5017 416.5017 417.7041 417.7041 418.2269
   418.2269 418.6235 419.5642 419.9468 419.9468 420.0707 420.8910 420.8910
   421.4076 421.4076 421.4755 421.7419 421.7419 421.7932 422.3650 422.3650
   422.4408 424.0011 424.0011 424.1062 424.3968 424.3968 424.4900 424.6919
   424.6919 424.7129 425.1839 425.8514 426.4127 426.6007 426.6082 426.6082
   428.6390 428.6390 428.7775 428.7775 428.8777 428.8777 428.9637 429.3252
   429.3305 429.3305 429.7683 429.7683 430.1306 430.4616 430.4616 430.7006
   430.7006 431.3998 431.5767 431.5767 431.6924 431.7239 432.5870 433.2011
   433.7106 433.7106 433.8239 433.8239 435.6625 435.6625 436.0440 436.0495
   436.0495 436.1792 436.5096 436.5634 436.5634 437.5021 438.0850 438.5277
   438.5277 439.2621 439.2621 439.5032 439.8970 439.8970 439.9748 439.9748
   440.0006 440.0459 440.3263 440.3263 440.4971 440.5188 440.9065 440.9065
   441.2406 441.2406 443.6063 444.5743 444.6945 444.6945 444.9979 444.9979
   445.9521 445.9521 446.8923 446.8923 447.2704 447.4893 447.8657 447.8657
   449.0119 449.0838 449.7009 449.7009 449.9635 449.9635 450.0937 450.0937
   450.3500 451.2666 452.8420 453.6853 453.6853 453.6905 454.0135 454.0358
   454.0358 454.7226 454.7226 454.7330 454.7330 454.9084 456.1079 456.5290
   456.5290 458.0101 458.0101 460.1007 460.2698 460.2698 460.7864 461.5280
   461.7471 461.7471 462.9267 462.9267 463.3715 464.0197 464.0197 464.1576
   464.1669 464.1669 464.3591 465.2518 465.7099 465.7099 466.0810 466.6188
   466.6188 466.8705 467.2042 467.7402 467.7402 467.9207 467.9207 468.8325
   469.3388 469.9061 469.9061 469.9970 470.1433 470.1433 470.8480 470.8480
   470.9607 471.0602 471.0602 471.3380 471.6318 471.7932 472.0702 472.0702
   472.6144 472.6144 473.0360 473.0360 473.1409 473.1409 473.3069 473.3124
   473.7763 474.5153 474.6263 474.7142 474.7142 475.5922 475.5922 476.0513
   476.0513 480.8517 480.8517 481.7903 482.1485 482.1485 482.6621 482.7335
   482.7335 484.0022 484.0022 484.0330 484.5151 484.8312 484.9657 484.9657
   485.0721 485.8665 485.8665 486.4440 486.6351 487.2141 487.2141 487.9157
   488.0600 488.0601 488.5606 488.5606 488.7639 489.5869 489.6522 489.6522
   490.9016 490.9016 491.3559 491.3559 491.4084 492.3363 492.3363 492.5283
   492.5283 492.8400 492.9628 493.6105 494.8005 495.2791 495.7471 495.7471
   495.7624 495.7624 496.2522 496.2522 497.1970 497.1970 497.2361 497.2361
   498.0688 498.0821 498.3920 498.3920 498.4333 499.1274 500.3891 500.4018
   500.4018 500.8612 500.8612 501.6946 501.6966 501.6966 502.4393 502.4393
   502.9915 503.0339 503.0339 504.2137 504.2137 504.3618 504.3618 504.7353
   505.3583 505.3583 505.3680 505.3904 506.9396 507.0350 507.0350 507.0617
   507.1143 507.6463 507.6463 507.8737 508.4882 508.4882 509.2358 509.2358
   509.3494 509.7347 509.7347 510.0546 510.2658 510.4703 510.8130 510.8130
   511.1734 511.5322 511.5322 511.7110 511.7110 512.0275 512.7830 513.0182
   513.0182 513.3213 513.3213 515.1378 515.1378 515.9131 516.9788 517.0370
   517.1114 517.1114 517.1341 517.1341 517.7670 518.4420 518.4420 518.5926

          k = 0.0000 0.0000-0.3071 (  3460 PWs)   bands (ev):

    -4.6788  -4.6788  -2.8153  -2.8153  -2.8153  -2.8153  -2.5306  -2.5306
    -2.5306  -2.5306  -2.4757  -2.4757   6.8832   6.8833  10.1807  10.1807
    10.1807  10.1807  14.9911  14.9911  19.2067  19.2067  21.1546  21.1546
    21.1546  21.1546  27.0464  27.0464  29.1411  29.1411  29.1411  29.1411
    33.4894  33.4894  33.4894  33.4894  33.9424  33.9424  36.9976  36.9976
    43.1659  43.1659  43.1659  43.1659  43.4881  43.4881  52.8456  52.8456
    52.8456  52.8456  55.9255  55.9255  55.9255  55.9255  57.1001  57.1001
    57.9778  57.9778  58.8304  58.8304  58.8305  58.8305  62.1467  62.1467
    65.7801  65.7801  67.8931  67.8931  67.8931  67.8931  69.9614  69.9615
    70.1361  70.1361  70.1361  70.1361  70.9604  70.9604  75.8148  75.8149
    76.0214  76.0214  76.0214  76.0214  77.6350  77.6350  79.3422  79.3422
    79.3422  79.3422  82.3878  82.3878  82.3878  82.3878  84.1118  84.1118
    86.6597  86.6597  86.6597  86.6597  88.5911  88.5911  88.9927  88.9927
    88.9927  88.9927  89.4517  89.4517  89.4517  89.4517  90.6007  90.6007
    92.7379  92.7379  93.0362  93.0362  93.0362  93.0362  93.5796  93.5796
    95.2801  95.2801  95.2801  95.2801 101.2513 101.2513 106.1216 106.1216
   106.1216 106.1216 108.7674 108.7674 111.0977 111.0977 111.4722 111.4722
   111.4722 111.4722 116.2755 116.2755 117.8137 117.8137 118.3875 118.3875
   118.3875 118.3875 123.6211 123.6211 123.6211 123.6211 124.6393 124.6393
   124.6393 124.6393 125.4759 125.4759 128.4788 128.4788 128.4788 128.4788
   130.1834 130.1835 131.2831 131.2831 131.7152 131.7152 131.7152 131.7152
   133.0382 133.0382 133.0382 133.0382 133.9373 133.9373 136.9229 136.9229
   138.3274 138.3274 138.7168 138.7168 138.7168 138.7168 139.8981 139.8981
   139.8981 139.8981 141.1055 141.1055 142.5963 142.5963 142.5963 142.5963
   144.2122 144.2122 144.2122 144.2122 144.3840 144.3840 145.3831 145.3831
   146.1686 146.1686 146.5692 146.5692 146.5692 146.5692 147.0347 147.0347
   147.7447 147.7447 147.7448 147.7448 150.0336 150.0336 150.0336 150.0336
   151.3269 151.3269 151.5640 151.5640 151.5640 151.5640 153.8847 153.8847
   157.0747 157.0747 162.0254 162.0254 162.0254 162.0254 163.5445 163.5445
   165.3066 165.3066 165.3066 165.3066 167.0537 167.0537 167.0537 167.0537
   167.0935 167.0935 167.5818 167.5818 168.3714 168.3714 168.3714 168.3714
   170.3913 170.3913 170.5819 170.5819 171.8308 171.8308 171.8308 171.8308
   173.1651 173.1651 173.2265 173.2265 173.2265 173.2265 173.5989 173.5989
   174.5099 174.5099 174.5099 174.5099 174.6510 174.6510 176.6229 176.6229
   176.6229 176.6229 178.9968 178.9968 182.1172 182.1172 182.1172 182.1172
   183.8957 183.8957 183.8957 183.8957 184.8136 184.8136 186.0478 186.0478
   187.1024 187.1024 187.1024 187.1024 188.0145 188.0145 188.0509 188.0509
   188.0509 188.0510 188.9284 188.9284 188.9284 188.9284 190.2423 190.2423
   190.2423 190.2423 190.2778 190.2778 191.4650 191.4650 196.4918 196.4918
   197.3949 197.3949 197.3949 197.3949 200.1514 200.1514 200.3337 200.3337
   200.3337 200.3337 202.7561 202.7561 202.9093 202.9093 202.9093 202.9093
   206.2342 206.2342 206.2342 206.2342 206.4348 206.4348 208.2135 208.2135
   209.2951 209.2951 209.2951 209.2951 209.8336 209.8336 210.4672 210.4672
   210.4672 210.4672 216.5910 216.5910 219.2228 219.2228 219.2228 219.2228
   223.7297 223.7297 223.7630 223.7630 223.7630 223.7630 224.5639 224.5639
   224.5639 224.5639 226.4525 226.4525 228.2358 228.2358 230.2979 230.2979
   231.1222 231.1222 231.1222 231.1222 232.8046 232.8046 232.8046 232.8046
   236.0840 236.0840 238.1394 238.1394 238.7822 238.7822 238.7823 238.7823
   240.4874 240.4874 240.6373 240.6373 240.6373 240.6373 241.6160 241.6160
   241.9486 241.9486 242.6280 242.6280 242.6280 242.6280 243.1906 243.1906
   243.1906 243.1906 243.7901 243.7901 244.4209 244.4209 244.4209 244.4209
   245.9489 245.9489 245.9937 245.9937 245.9937 245.9937 246.6533 246.6533
   246.9972 246.9972 246.9972 246.9972 247.9903 247.9903 248.9966 248.9966
   248.9966 248.9966 249.5097 249.5097 250.2853 250.2853 250.2853 250.2853
   250.6829 250.6829 250.7966 250.7966 250.7966 250.7966 251.9239 251.9239
   253.2021 253.2021 253.3163 253.3163 253.3163 253.3163 253.9363 253.9363
   253.9364 253.9364 254.5589 254.5589 254.5589 254.5589 254.7491 254.7491
   255.5200 255.5200 255.5200 255.5200 255.6668 255.6668 256.9114 256.9114
   256.9114 256.9114 260.2236 260.2236 262.2982 262.2982 262.2982 262.2982
   263.8294 263.8294 264.0136 264.0136 264.9340 264.9340 264.9340 264.9340
   266.6502 266.6502 266.6502 266.6502 267.9130 267.9130 267.9130 267.9130
   267.9746 267.9746 267.9788 267.9788 268.4355 268.4355 268.4355 268.4355
   268.9208 268.9208 269.3968 269.3968 272.6957 272.6957 272.6957 272.6957
   276.0590 276.0590 280.5235 280.5235 280.5235 280.5235 283.3045 283.3045
   283.3045 283.3045 284.4915 284.4915 285.0685 285.0685 285.5198 285.5198
   285.5198 285.5198 286.9535 286.9535 287.3868 287.3868 288.3035 288.3035
   288.3035 288.3035 289.0201 289.0202 289.0202 289.0202 289.2335 289.2335
   289.2335 289.2335 289.9949 289.9949 290.0439 290.0439 290.3368 290.3368
   290.3368 290.3368 292.7874 292.7874 292.7874 292.7874 292.8368 292.8368
   295.3639 295.3639 297.2630 297.2630 297.2630 297.2630 299.2565 299.2565
   299.2565 299.2565 299.3200 299.3200 301.1003 301.1003 301.1003 301.1003
   301.1423 301.1423 301.2708 301.2708 302.6347 302.6347 302.8096 302.8096
   302.8096 302.8096 306.2512 306.2512 306.2512 306.2512 306.3664 306.3664
   306.7128 306.7128 306.7128 306.7128 307.3740 307.3740 308.9043 308.9043
   309.1544 309.1544 309.1544 309.1544 310.4881 310.4881 310.7162 310.7162
   310.7162 310.7162 311.8002 311.8002 311.8002 311.8002 312.8919 312.8919
   312.8919 312.8919 312.9797 312.9797 314.6305 314.6305 317.7169 317.7169
   319.8484 319.8484 319.8484 319.8484 319.8664 319.8664 320.6087 320.6087
   321.6295 321.6295 321.6295 321.6295 322.2101 322.2101 322.2101 322.2101
   323.0248 323.0248 323.0248 323.0248 323.4638 323.4638 324.0651 324.0651
   325.1533 325.1533 325.3988 325.3988 325.3988 325.3988 327.8069 327.8069
   328.3088 328.3088 328.3088 328.3088 329.5707 329.5707 329.5707 329.5707
   333.0515 333.0515 333.0515 333.0515 335.7510 335.7510 339.2063 339.2063
   339.2063 339.2063 340.1180 340.1181 341.1022 341.1022 341.4098 341.4098
   341.4098 341.4098 343.6009 343.6009 343.9103 343.9103 343.9103 343.9103
   344.9352 344.9352 345.1963 345.1963 345.1963 345.1963 346.2493 346.2493
   347.1884 347.1884 347.1884 347.1884 348.6949 348.6949 349.5368 349.5368
   349.5368 349.5368 355.8275 355.8275 357.2033 357.2033 357.2033 357.2033
   360.7118 360.7118 360.7118 360.7118 362.3888 362.3888 362.4173 362.4173
   362.6960 362.6961 362.6961 362.6961 363.6171 363.6171 363.6171 363.6171
   363.6514 363.6514 363.7058 363.7058 365.0691 365.0691 365.8398 365.8398
   365.8398 365.8398 366.2021 366.2021 366.2021 366.2021 367.2872 367.2872
   367.3355 367.3355 367.3355 367.3355 367.9996 367.9996 368.3938 368.3938
   368.3938 368.3938 368.4433 368.4433 369.0536 369.0536 369.0536 369.0536
   369.9760 369.9760 369.9760 369.9760 371.1335 371.1335 371.1335 371.1335
   371.1942 371.1942 372.9589 372.9589 373.0865 373.0865 373.0865 373.0865
   374.0530 374.0530 374.3549 374.3550 374.6436 374.6436 374.6436 374.6436
   376.9555 376.9555 377.6468 377.6468 377.6468 377.6468 378.7181 378.7181
   378.7181 378.7181 378.9114 378.9114 380.7128 380.7128 380.7128 380.7128
   380.8676 380.8677 381.3202 381.3202 381.7944 381.7944 382.8631 382.8631
   382.8631 382.8631 384.7218 384.7218 384.7218 384.7218 385.2328 385.2328
   385.8479 385.8479 385.8479 385.8479 385.9105 385.9105 388.2043 388.2043
   388.2043 388.2043 388.2505 388.2505 390.2395 390.2395 390.2395 390.2395
   391.3475 391.3475 391.8456 391.8456 391.8456 391.8456 396.4495 396.4495
   396.4495 396.4495 397.5148 397.5148 397.8914 397.8914 398.2694 398.2694
   399.5248 399.5248 399.5248 399.5248 402.0764 402.0764 402.5315 402.5315
   402.5315 402.5315 402.5999 402.5999 403.3448 403.3448 403.3448 403.3448
   404.2028 404.2028 404.3441 404.3441 404.3441 404.3441 405.5107 405.5107
   406.3573 406.3573 406.5557 406.5557 406.5557 406.5557 407.2724 407.2724
   407.2724 407.2724 407.6947 407.6947 408.1111 408.1111 408.1330 408.1330
   408.1330 408.1330 410.4152 410.4152 411.1973 411.1973 411.1973 411.1973
   411.7348 411.7348 412.0936 412.0936 412.0936 412.0936 412.2757 412.2757
   412.2757 412.2757 412.5226 412.5226 414.5326 414.5326 415.1551 415.1551
   415.1551 415.1551 416.4595 416.4595 416.4595 416.4595 417.6693 417.6693
   417.6693 417.6693 418.3689 418.3689 419.3251 419.3251 419.3251 419.3251
   420.0409 420.0409 420.7510 420.7510 420.8945 420.8945 421.2000 421.2000
   421.2000 421.2000 421.7984 421.7984 421.7984 421.7984 422.9466 422.9466
   422.9466 422.9466 423.4217 423.4217 423.8496 423.8496 424.4099 424.4099
   424.4099 424.4099 424.6456 424.6456 424.7042 424.7042 424.7516 424.7516
   424.7516 424.7516 424.9239 424.9239 424.9239 424.9239 425.0746 425.0746
   425.2639 425.2639 425.2639 425.2639 426.4463 426.4463 428.6321 428.6321
   428.6321 428.6321 430.5472 430.5472 432.5252 432.5252 432.5252 432.5252
   434.3127 434.3127 434.6537 434.6537 434.6537 434.6537 436.5638 436.5638
   438.1044 438.1044 438.1044 438.1044 439.3695 439.3695 439.7754 439.7754
   439.7754 439.7754 440.6723 440.6723 441.2063 441.2063 441.2063 441.2063
   441.4960 441.4960 441.9398 441.9398 441.9398 441.9398 442.5638 442.5638
   442.5638 442.5638 444.1894 444.1894 444.8605 444.8605 446.0932 446.0932
   446.5749 446.5749 446.5749 446.5749 446.6383 446.6383 447.0182 447.0182
   447.0182 447.0182 447.2305 447.2305 447.6053 447.6053 447.6053 447.6053
   449.7199 449.7199 451.0215 451.0215 451.0215 451.0215 452.0351 452.0351
   452.0351 452.0351 452.0667 452.0667 458.2882 458.2882 458.2882 458.2882
   460.3756 460.3756 460.3756 460.3756 461.2368 461.2368 461.9778 461.9778
   461.9778 461.9778 464.5133 464.5133 466.0755 466.0755 466.0755 466.0755
   466.8379 466.8379 466.9258 466.9259 467.6746 467.6746 467.6746 467.6746
   471.2683 471.2683 471.2683 471.2683 472.1348 472.1348 474.3403 474.3403
   475.2886 475.2886 475.2886 475.2886 475.6393 475.6393 475.6393 475.6393
   476.3252 476.3252 476.8284 476.8284 477.8266 477.8266 477.8266 477.8266
   478.2564 478.2564 478.8053 478.8053 478.8053 478.8053 478.9585 478.9585
   478.9585 478.9585 479.2804 479.2804 479.3182 479.3182 479.3447 479.3447
   479.3447 479.3447 480.2410 480.2410 480.2410 480.2410 480.5022 480.5022
   481.0598 481.0598 481.2898 481.2898 482.7698 482.7698 482.7698 482.7698
   483.2829 483.2829 483.2829 483.2829 483.9953 483.9953 484.0675 484.0675
   484.0675 484.0675 485.1313 485.1313 485.3290 485.3290 485.3290 485.3290
   486.3450 486.3450 486.4255 486.4255 486.6091 486.6091 486.6091 486.6091
   487.1699 487.1699 487.1699 487.1699 487.6251 487.6251 488.2731 488.2731
   488.2731 488.2731 488.4776 488.4776 488.6636 488.6636 488.7798 488.7798
   488.7798 488.7798 490.0821 490.0821 490.0821 490.0821 490.4052 490.4052
   490.5941 490.5941 490.5941 490.5941 490.9194 490.9194 491.7795 491.7796
   498.0664 498.0664 498.0664 498.0664 498.6567 498.6567 500.2769 500.2769
   500.2769 500.2769 501.3151 501.3151 502.8359 502.8359 508.6102 508.6102
   508.6102 508.6102 512.3961 512.3961 512.3961 512.3961 513.6567 513.6567
   516.5847 516.5847 516.5847 516.5847 517.7780 517.7780 517.7780 517.7780
   518.3945 518.3945 519.0067 519.0067 519.8039 519.8039 519.8039 519.8039
   521.9384 521.9384 521.9384 521.9384 522.5188 522.5188 522.9109 522.9109
   523.0439 523.0439 523.0439 523.0439 523.4969 523.4969 523.6298 523.6298

          k = 0.0000 0.2887 0.0000 (  3466 PWs)   bands (ev):

    -4.7376  -4.2642  -2.7927  -2.7760  -2.7116  -2.6767  -2.6252  -2.5979
    -2.5740  -2.4863  -2.4809  -0.8147   4.4929   6.7345   7.8489   8.7385
    10.0073  10.2134  15.0245  16.6693  18.1126  19.2531  20.8841  21.4675
    22.1580  23.4226  23.5193  26.3313  27.0407  30.0561  32.3147  32.8188
    33.1951  33.8410  34.9771  36.4439  37.3082  37.5670  38.2863  38.8182
    39.8469  41.3920  41.9760  44.3411  46.8691  46.9578  47.4450  48.1738
    50.4358  50.8987  51.3140  52.3430  52.9037  54.4604  54.7685  55.1321
    55.3423  58.9596  59.7904  61.0179  61.9314  62.1933  63.2020  63.8939
    64.8236  65.7673  66.0671  66.4761  66.6295  66.8212  67.9951  68.4092
    68.5861  68.9477  69.4743  70.1098  71.6672  72.2421  72.7495  73.5496
    73.6341  74.2640  74.7187  75.4578  75.5569  77.3471  77.6978  79.3578
    79.9290  80.6488  80.9484  81.0064  81.7556  82.6589  83.5562  84.4975
    84.6820  85.2330  86.3478  87.2771  88.2829  89.0582  89.8111  90.2511
    91.4001  92.2424  93.1724  93.4985  93.5753  94.5436  94.6973  95.0528
    95.4435  95.8788  96.8100  97.9238  98.4234  99.3363  99.5586 100.1869
   100.6407 101.6560 102.0136 103.6080 104.4607 104.5052 105.3606 105.9277
   107.0120 107.8946 108.3120 109.4224 109.5892 110.1100 110.1427 110.5720
   111.0762 111.9323 112.2158 112.7821 113.2406 113.4677 114.5175 115.4634
   116.1229 117.1252 118.0624 118.3600 118.9071 119.1699 119.1943 119.6527
   120.7560 121.1495 121.5332 122.2248 122.6949 122.7672 123.0040 124.2441
   124.3635 125.0646 125.1901 126.8726 127.0033 127.7346 128.6149 130.0278
   130.5823 131.8075 131.9788 132.9628 133.3566 133.7020 134.4453 134.5317
   136.4987 136.7206 137.5033 137.8097 138.0500 138.3363 138.8825 138.9000
   139.6441 140.4475 141.2275 141.8023 141.9651 142.8179 143.3288 143.7817
   144.2826 144.5482 145.6356 146.1650 146.5277 146.7014 147.4097 147.7774
   148.4005 148.6295 148.6740 149.5508 149.9183 150.0808 150.7751 151.2100
   151.6982 151.7590 152.0808 152.6651 153.3666 153.4929 153.5979 154.7697
   154.7862 155.7198 155.9332 156.7878 157.0252 157.1914 157.8748 158.4593
   158.8078 158.9343 159.1979 159.7721 160.1113 160.3482 160.6621 160.7381
   161.2025 161.6827 161.8208 162.6955 162.8142 163.0063 163.5951 163.8647
   164.0873 164.2820 164.3167 164.4883 165.0907 165.3604 165.6207 165.8397
   166.1108 166.3816 167.9268 168.0852 168.5284 168.9996 169.1269 169.3706
   169.5361 170.2022 170.8020 170.8915 172.4987 173.6452 174.1107 174.9399
   175.4255 176.2009 176.6650 177.1116 177.5461 178.0185 179.0150 179.5853
   180.5407 180.6734 181.1224 181.4488 181.8797 182.1262 182.6901 182.7597
   183.7225 183.9011 184.8318 184.9955 185.1588 185.9853 186.4933 187.2368
   187.5648 189.0671 189.5362 189.9666 190.8121 191.6359 192.4654 192.7515
   192.7826 193.6965 194.0081 194.0217 194.8852 195.2844 196.0401 196.4905
   197.3438 197.5269 197.6972 198.6774 199.3044 199.5214 199.5433 200.6119
   201.0790 201.4826 202.4642 202.4720 202.5373 202.6204 202.8288 203.2162
   203.8714 204.4117 204.7544 205.0271 205.5314 206.2441 206.7239 206.9876
   207.2061 207.8031 208.2619 208.6178 209.4308 209.5727 210.0715 210.3269
   210.5202 210.8997 210.9887 211.5899 211.7504 212.1258 212.3883 212.6564
   212.6833 213.0883 213.8356 213.9585 214.1493 214.5258 214.6561 214.9647
   215.4077 216.0324 216.7579 217.4518 218.6627 219.0357 219.0747 220.4367
   220.4734 222.1339 222.1678 222.7892 223.1141 223.3574 223.8355 223.8928
   224.2348 225.0311 225.1463 225.6219 226.2471 226.4428 226.5271 227.3243
   227.4802 227.5914 227.9659 228.6247 228.6618 229.5506 229.8445 230.2944
   230.6795 230.7942 231.3890 231.9436 232.0163 232.8386 232.8814 234.0304
   234.3350 234.9300 235.0451 236.1410 236.5755 237.1169 237.6869 237.8449
   238.3221 239.3452 239.8155 240.0728 240.1016 240.2711 241.4787 241.6724
   242.0834 242.1851 242.8335 243.1137 243.2581 243.3328 243.4631 243.9958
   244.6582 245.4394 245.6632 246.4868 246.8726 247.5262 247.8928 248.2387
   248.7325 249.1810 249.5799 249.6116 250.3794 250.4341 250.5347 251.1576
   251.1668 251.3785 251.9508 252.1310 252.3756 252.8586 252.9701 253.0603
   253.6948 253.8144 254.5960 254.6304 255.0026 255.1295 255.1656 255.2945
   255.8275 256.4446 256.7715 257.1798 257.4108 258.1935 258.5015 258.6026
   258.9870 259.3448 260.9381 261.2852 261.5295 262.4345 262.8707 263.3179
   264.0953 264.3038 264.5326 265.7534 265.9119 266.1797 266.4175 266.5767
   267.1869 267.3655 267.7290 268.1260 268.8071 268.8164 269.4396 269.4510
   269.8726 270.0608 270.6110 270.7806 271.2192 271.5516 271.9197 272.1687
   272.8263 273.4677 273.6084 273.7939 274.0153 274.5763 274.9909 275.8902
   276.1547 276.2128 277.4807 277.5536 278.2267 278.3350 278.3625 278.7772
   279.2659 279.6397 280.3486 280.7201 281.3443 281.7995 282.0870 282.3112
   282.4417 283.1206 283.2485 283.3607 283.7482 284.2324 284.4041 284.4515
   284.8818 284.9341 285.3689 285.3770 285.7550 285.8679 285.8719 286.2349
   286.5142 286.9445 287.5053 287.9227 287.9322 288.1134 288.2434 288.5256
   288.6987 289.5634 290.1725 290.5257 290.6826 291.2610 291.5406 291.6318
   291.7791 291.8200 292.4948 292.5783 293.0373 293.0655 293.6764 293.7764
   293.9771 294.1366 294.6182 294.8016 295.2420 296.1590 296.4072 296.4960
   296.9683 297.6066 297.8036 298.0030 298.0897 298.2862 298.7136 299.3963
   299.7421 300.0854 300.2108 300.5126 301.1728 301.5566 301.8451 302.0092
   302.1319 302.1392 302.4730 302.7562 303.0286 303.3945 303.8420 303.9298
   306.3308 306.4937 308.0554 308.4961 308.8929 309.4724 309.9046 310.1602
   310.3602 310.5916 311.3201 311.4234 311.8797 311.8866 312.1740 312.3139
   312.9927 313.2543 313.7780 314.2855 314.6963 314.8246 315.2283 315.3206
   315.9433 316.4786 317.0081 317.2095 317.3378 317.8165 318.1250 318.7606
   318.9759 319.2882 319.5515 320.1260 320.5085 320.7831 321.8089 323.4249
   323.6084 323.7309 324.2253 324.4068 325.0344 325.7766 326.4011 326.8693
   327.0928 327.7169 327.7250 327.7720 328.1249 329.1790 329.3812 329.7093
   329.8477 330.1606 330.3167 330.7851 331.2136 331.6849 331.9514 332.1456
   332.5558 332.6787 333.1148 333.6583 333.8206 334.0369 334.0807 334.6453
   335.7118 336.1499 336.3363 336.8812 337.7169 337.9034 339.0773 339.2454
   339.3758 339.5998 339.6178 340.2338 340.3002 340.6368 340.7228 341.1654
   341.3345 341.5430 341.6182 341.9302 342.0142 342.4013 342.5382 342.8381
   343.3869 343.8124 343.8676 344.1096 345.1694 345.2770 345.3438 345.6032
   345.7862 346.4791 346.8067 346.9821 347.1088 348.2331 348.7643 349.2345
   349.4526 350.2036 350.5689 351.1345 351.5033 351.9105 352.2763 352.5627
   352.7719 352.8539 353.1070 353.4047 353.6499 354.0476 354.2391 354.4085
   354.9374 355.0751 355.2316 355.8990 355.9669 356.6369 356.7468 357.6912
   357.7162 358.2798 358.3294 358.6533 359.0849 359.5575 359.6435 359.8071
   360.1608 360.3297 360.4981 360.5141 360.9310 361.3270 361.7324 361.7893
   362.4671 362.8074 363.0635 363.2996 363.7395 364.2892 365.0824 365.1270
   365.3242 365.5450 366.2505 366.3825 367.1024 367.3425 367.4483 367.9067
   368.0487 368.8194 368.8703 368.9167 368.9881 369.1770 369.2564 369.8493
   370.0075 370.4502 370.4837 371.1105 371.3623 371.4703 371.7100 371.8113
   372.6641 373.1805 373.6454 374.6045 375.1029 375.2456 376.3294 376.4600
   377.0311 377.1870 377.4197 377.4600 377.4729 378.2185 378.2388 378.6322
   378.7532 378.8295 378.9323 379.7084 379.7102 379.9315 380.2197 380.3646
   380.5418 380.9601 381.1585 381.2975 381.6349 382.0239 382.6435 383.0370
   383.1066 383.1980 383.7444 384.2828 384.4122 384.9495 385.0145 385.5216
   385.7313 385.7808 386.0304 386.6076 386.7682 387.2343 387.3769 387.7901
   387.8763 388.1829 388.2980 388.3383 388.6718 388.8718 389.2541 389.4234
   390.1804 390.7097 390.7834 391.0275 391.4431 391.8006 392.1369 392.1910
   392.6063 393.0742 393.6451 394.2793 394.5860 395.8387 396.0132 396.4761
   396.9584 397.1316 397.9220 397.9272 398.1099 398.6753 398.8121 399.2024
   399.6242 399.8821 400.1748 400.2353 400.4375 400.6764 400.9619 401.1994
   401.6022 402.0130 402.3162 402.4153 402.7363 402.8623 403.1223 403.4210
   403.6056 403.7091 403.8366 404.0314 404.1873 404.6134 404.7391 405.1643
   405.9563 406.2075 406.6284 407.1686 407.4411 408.3053 408.5671 408.7974
   409.7400 410.4194 410.9242 411.1834 411.4837 411.5245 412.7757 412.8090
   413.1426 413.1973 413.4478 413.7834 413.8848 414.1323 414.5388 414.6829
   414.8635 415.0188 415.1598 415.2982 416.3931 416.9176 416.9405 417.4728
   417.5324 417.7921 418.1818 418.2566 418.4572 418.8312 418.9942 419.3863
   419.5203 419.8950 419.8994 420.1686 420.3655 420.6197 420.8158 421.0648
   421.1955 421.2645 421.5550 421.8450 422.0911 422.1933 422.3648 422.5197
   422.6316 423.0255 423.4477 423.8453 423.9245 424.1531 424.2140 424.5025
   424.8097 425.1568 425.3604 425.5202 425.7127 426.4771 426.5367 426.6440
   426.7306 426.8423 427.3574 427.4382 427.6337 427.6637 428.1153 428.2020
   428.6080 428.7084 428.7156 429.2016 429.5703 429.6944 430.0507 430.0927
   430.2177 430.8794 430.9939 431.4227 431.8906 432.1066 432.1389 432.6454
   432.7971 432.8263 432.9455 433.2248 433.4683 433.7035 433.8196 434.4266
   434.4552 434.4883 434.7974 435.1211 435.1824 435.3945 436.0605 436.2321
   437.6414 438.0798 438.3969 438.8142 439.1205 439.6489 440.0918 440.1476
   441.5966 441.6061 441.7532 442.3705 442.4999 443.0498 443.2492 443.5284
   443.6092 444.8548 445.4323 445.5003 445.9540 446.2158 446.6364 446.6988
   446.8469 447.8840 447.9137 448.4095 448.7643 449.2103 449.3872 449.5264
   449.9041 450.7242 451.3442 451.6134 451.8425 452.2785 452.7454 453.0168
   453.1641 453.9642 454.3096 454.6716 455.2070 455.7592 455.9594 456.1964
   456.8798 457.1228 457.8627 457.9967 458.1986 458.5466 459.1277 459.5730
   459.6086 460.1682 460.2258 460.7361 461.0746 461.1366 461.2294 461.9060
   461.9528 462.3367 462.5640 462.7089 462.7841 463.1528 463.2491 463.2809
   463.3740 463.5778 463.8070 463.9141 464.0768 464.2233 464.2540 464.3085
   464.4302 464.6441 464.7575 465.2134 465.4631 465.6702 466.2092 466.3599
   466.5670 466.6521 467.2439 467.4230 467.5837 468.3062 468.3381 469.0192
   469.8551 469.9867 470.2262 470.5068 470.6322 471.1387 471.1535 471.7231
   471.7885 472.0756 472.3629 472.6899 472.8247 473.0428 473.4492 474.0794
   474.2146 474.4356 474.4816 474.5481 474.6390 474.8979 474.9974 475.3112
   475.5265 475.7554 476.1724 476.7947 476.8613 476.9773 477.6273 477.9393
   478.2005 478.4414 478.5625 478.5997 479.1127 479.1328 479.1408 479.5541
   480.0945 480.3704 481.1927 481.4183 482.2284 482.3872 482.8579 483.2528
   483.6545 483.9106 484.0577 484.4019 485.2803 485.7630 485.7987 486.0097
   486.0621 487.2139 487.7431 487.8600 488.3440 488.4340 488.9500 489.0210
   489.4273 489.4609 489.6383 489.6666 490.1064 490.2453 490.2616 490.8553
   490.9298 491.2031 491.2179 491.5712 492.0666 492.8418 492.8521 493.1065
   493.3787 493.3952 493.5086 493.5870 493.9007 494.0792 494.2095 494.4124
   494.7297 495.0770 495.9827 496.7513 497.0588 497.2742 498.2353 498.4627
   498.8643 499.0994 499.7443 500.0938 500.3997 500.6776 500.6785 500.9453
   501.4520 501.8514 502.1396 502.2460 502.3023 502.5926 503.1741 503.3818
   503.6157 503.8101 504.0047 504.6178 504.7805 504.8995 505.3025 505.6658
   505.9325 506.2589 506.3390 506.7913 506.8475 507.2270 507.3859 507.4778
   507.6348 507.8988 507.9614 507.9671 508.1588 508.4109 508.6089 509.2688
   509.2767 509.3945 509.5319 509.8561 510.3777 510.5233 511.2682 511.7379
   511.8038 512.1601 512.4856 512.8123 513.2883 513.6335 513.7492 514.1076
   514.2444 514.3492 514.5030 514.8487 515.4996 515.7341 515.8300 515.8449

          k = 0.0000 0.2887 0.1535 (  3448 PWs)   bands (ev):

    -4.6235  -4.2881  -2.7919  -2.7626  -2.7359  -2.6919  -2.6230  -2.5956
    -2.5604  -2.4945  -2.3787  -1.2701   5.0972   7.0046   7.5074   8.9322
     9.8026   9.9702  15.1314  16.7612  17.9950  18.9680  20.5731  21.6023
    21.7115  23.0795  24.1994  27.0519  27.4316  30.0238  31.6961  32.0377
    33.6254  33.9892  34.4039  36.1208  37.9116  38.0380  38.5383  39.9814
    40.2066  41.4631  42.7090  43.7536  45.3454  45.9402  46.5704  48.5813
    48.9546  50.1185  51.1930  54.1261  54.2217  55.0130  55.2991  56.8469
    56.9883  57.7249  59.2441  59.7720  60.9417  61.4902  61.8170  62.7576
    63.9988  65.0552  65.5072  66.5208  66.6351  67.7051  67.8482  68.4680
    70.1805  70.2191  70.7568  71.3371  71.4796  72.3623  72.7730  73.5570
    73.7195  74.4444  75.2243  76.2127  76.5738  76.5831  77.9041  78.3099
    78.7337  80.2840  81.0777  82.3877  82.4398  82.9892  83.5886  84.9834
    85.4113  86.0419  87.0213  87.1084  87.9567  88.2066  89.1155  89.8911
    89.9572  91.0824  91.4665  92.3324  92.4360  93.3900  94.8583  95.2362
    95.9700  97.4478  97.6528  98.3977  98.5256  98.8263 100.2330 100.7760
   101.2621 101.3295 101.8988 102.8107 103.0630 103.5595 104.6075 104.7800
   105.6266 106.5581 107.5615 108.2364 108.6621 109.9047 110.2287 111.0858
   112.5927 112.6538 114.0615 114.3246 114.4981 115.0909 115.3385 116.4823
   116.6187 117.4417 117.6170 118.2258 118.5226 119.0251 119.8624 119.9591
   120.1734 121.8053 122.3235 122.9590 123.8528 124.2076 124.9213 125.1715
   125.3810 126.6966 127.0957 127.5657 127.8125 128.6761 129.2072 129.3141
   130.2863 131.1442 131.2265 131.5586 131.7689 132.9056 133.7474 133.8371
   134.8457 135.2836 135.8259 137.0531 138.0113 138.0590 138.5872 139.2502
   139.6812 139.8380 140.8632 140.9431 142.1130 142.5194 142.9632 143.2084
   143.2876 144.0430 144.8830 145.0940 145.9153 146.1202 146.4499 146.7829
   147.2400 147.7766 148.0557 148.4722 148.4794 149.1302 150.2547 150.8793
   150.9386 151.5042 151.8077 152.0544 152.7505 153.2261 153.3698 154.4725
   154.5776 155.8640 155.9304 156.3009 156.6546 157.0613 157.7720 158.6822
   158.8207 158.9941 159.7451 159.8199 159.8753 160.7666 160.7906 161.4488
   161.6678 161.9056 162.2292 162.9566 163.3886 163.9860 164.5567 164.7317
   165.2522 165.3229 165.6777 165.9521 166.5521 167.1040 167.4975 168.3974
   168.7988 169.2360 169.2933 169.5547 169.6920 170.3683 170.7643 170.9207
   171.2771 171.8272 172.2801 172.5842 172.7472 173.0673 173.7914 174.8236
   175.1847 175.9507 176.4482 176.4910 177.0972 177.8108 178.0045 178.0729
   179.4196 179.8047 179.9770 180.7848 181.8750 182.1044 182.9792 183.2829
   183.3540 184.9717 185.5044 186.0528 186.5240 186.7007 187.0893 187.7337
   188.6974 188.9010 189.3099 189.3164 189.6772 189.7745 190.3646 190.5806
   191.1841 191.9606 192.3829 192.6888 193.6118 194.1768 194.6678 195.2278
   195.6549 196.1819 196.4126 196.9356 197.5243 197.5999 198.2246 198.6864
   199.6082 200.0390 200.4072 200.8238 200.9546 201.1912 202.5061 202.6325
   202.9798 203.9081 203.9432 204.5943 204.6598 205.6153 205.7672 206.6766
   207.4595 207.4936 208.0544 208.1300 208.6939 208.7137 208.8859 210.0336
   210.8577 211.3468 211.4427 212.1022 212.5978 212.8217 214.0149 214.1333
   214.5528 214.5585 214.8372 215.7129 216.3935 216.9561 217.5275 218.0603
   218.3990 218.9158 219.1310 219.3574 219.6369 220.0571 220.4159 220.6658
   221.1780 221.3298 221.7897 221.9102 223.0590 223.3199 223.5403 224.2724
   224.6759 224.7637 225.4254 226.2520 226.5390 226.9472 227.6116 228.4200
   228.4855 228.8589 229.6782 230.0240 230.0520 230.4723 230.5283 231.1209
   231.3285 231.6437 232.1368 232.8029 233.1604 233.3759 233.8311 233.8784
   234.9218 235.6908 235.8868 236.3552 236.3735 236.7637 237.0345 237.7832
   237.9964 238.2201 238.6183 238.8564 239.5116 239.7117 240.2182 240.7260
   241.1126 241.4061 241.9399 242.2171 242.7855 242.7926 243.2801 243.9284
   244.4373 244.6247 245.2041 245.2818 245.4618 245.7153 246.0331 246.7321
   247.1531 247.3671 248.0964 248.4144 249.0898 249.6102 249.6656 250.0317
   250.6532 250.7770 251.0933 251.2760 252.1305 252.9680 253.2912 253.4865
   254.1861 254.4513 254.5700 254.9695 255.7478 255.9104 256.2831 256.9799
   257.0057 257.6399 258.2107 258.4260 259.0176 259.5111 260.0299 260.5170
   261.1747 261.3239 261.8875 261.9087 262.3796 262.4016 262.6725 263.0107
   263.7586 263.9342 264.3703 264.5382 264.7573 265.2429 265.9914 266.1714
   266.2888 266.9331 267.0186 267.4477 268.2139 268.7873 268.9485 269.8206
   269.9583 270.1336 270.4496 270.5060 270.7923 271.1947 271.5944 272.2439
   272.3311 272.7746 272.9358 273.4652 273.8189 274.1234 274.3026 274.9241
   275.4882 275.5598 275.9605 276.5580 277.1365 277.3332 277.5016 278.1098
   278.2189 278.6908 279.2867 279.3364 280.3157 280.5304 281.0994 281.2029
   281.6129 281.8407 281.9489 282.2838 282.5968 282.9041 283.1300 283.5998
   284.0351 284.1518 284.8070 284.9966 285.4009 285.6566 286.4397 286.7150
   286.9969 287.4335 287.4590 287.6895 288.3752 288.5468 288.7677 289.1162
   289.5236 289.7296 290.0999 290.2555 290.5605 290.6820 291.3682 291.4642
   291.9471 292.0303 292.4315 292.6803 293.2523 293.4822 293.7569 294.0966
   294.8337 295.5299 295.8527 296.5058 296.5145 296.8048 297.2322 297.4565
   298.1194 298.2645 298.7726 299.5109 300.1303 300.3856 300.6503 300.8276
   301.4579 301.6456 302.0539 302.5387 302.6427 303.2037 303.2176 303.7780
   303.9598 304.3996 304.4374 305.1202 305.1232 305.6829 306.0973 306.5193
   306.9039 307.1360 307.4360 307.8415 308.0444 308.0461 308.4933 309.4019
   309.9520 309.9666 310.3150 310.9795 311.3979 311.6441 312.0771 312.3270
   312.9512 313.0683 313.6391 314.4384 314.8493 314.9376 315.6685 316.2657
   316.3757 316.8910 317.4756 317.5389 318.0698 318.1875 318.6602 319.0046
   319.7618 320.4151 320.6085 320.7291 320.9671 321.4035 321.7092 321.8934
   322.3889 322.4888 322.9389 323.6341 324.1764 324.4867 324.5180 324.6110
   325.9805 326.4246 327.0940 327.2973 327.5746 327.8998 328.4303 328.6981
   328.8873 329.3920 329.6125 330.1956 330.3340 330.8294 331.4471 331.7953
   332.0394 332.4458 333.0866 333.3466 333.9639 333.9825 334.2354 334.4010
   334.9331 334.9901 335.9427 336.0789 336.4902 336.6524 337.3835 337.6003
   337.7336 338.8492 339.2814 339.5423 340.0697 340.0928 340.1816 340.6399
   340.9636 341.5991 341.7197 342.1991 342.2263 342.7796 343.3601 343.6586
   344.2971 344.3493 344.5356 344.9791 345.2511 345.7495 345.9584 346.4310
   346.5708 346.9925 347.0161 347.3960 347.4673 347.6049 347.9171 348.0889
   348.2150 349.1933 349.6166 349.6685 349.8251 350.3577 350.6184 351.1088
   351.4756 351.4991 352.2683 353.2234 353.6596 353.7567 354.5208 354.8325
   354.8805 355.5910 355.6202 356.3235 356.4875 356.4934 356.7443 356.9944
   357.0696 358.0402 358.3117 358.6057 358.9705 359.0667 359.5756 359.7422
   360.0026 360.2882 360.8634 361.1913 361.2687 361.5010 362.3928 362.5431
   362.6685 362.8145 363.2803 363.5775 363.7753 364.2958 364.3862 365.2502
   365.6197 366.5687 366.6758 367.0310 367.3804 367.6439 367.6622 368.3548
   368.5237 369.0226 369.0677 369.5488 370.0602 370.3982 370.5038 370.9672
   371.0046 371.4401 371.7025 372.1629 372.6708 372.7015 373.2440 373.2543
   373.8220 373.9668 374.5596 374.8423 375.3935 375.7512 375.8735 376.0602
   376.6513 376.8118 376.8310 377.1239 377.3791 378.0859 378.1328 378.2889
   378.5457 378.6423 378.9992 379.3867 379.6317 380.3980 380.4827 380.6712
   380.7124 381.2136 381.6204 381.9314 382.4717 383.0613 383.1205 383.7779
   383.7896 384.3429 384.6678 385.1641 385.1755 385.6577 385.9602 386.2656
   386.2699 386.5742 387.2052 387.3810 387.6031 387.7383 388.0387 388.4108
   388.4533 388.8172 388.8442 389.4207 390.3114 390.5143 390.5910 391.1056
   391.1083 391.3737 391.4202 391.7219 392.1272 392.4802 392.8568 393.3757
   393.7202 393.7371 394.0715 394.2582 394.7423 394.8896 395.3279 395.3454
   395.8114 396.2564 396.3211 396.9515 397.0494 397.1337 397.4914 397.8433
   397.9316 398.3240 398.5893 398.9054 399.2038 399.6391 400.4063 400.6652
   400.8484 401.0663 401.6863 401.9895 402.4430 402.5276 403.2218 403.3121
   403.7495 404.0583 404.1147 404.8580 405.0756 405.2906 405.6554 405.8353
   406.0665 406.5016 406.7142 406.8813 407.1853 407.7810 408.0043 408.0579
   408.3599 408.6027 408.8476 409.1966 409.3174 409.3299 409.7574 410.3465
   410.3649 411.0601 411.0937 411.3760 411.5524 412.0662 412.1443 412.6848
   413.1500 413.4471 413.8066 414.3037 414.4805 414.8508 414.9262 415.3562
   415.4749 415.6930 416.0347 416.1915 416.2501 416.4160 416.7341 417.3387
   417.7581 418.0646 418.2762 418.6615 418.9306 419.2004 419.2940 419.8808
   420.0302 420.4934 420.8353 420.9151 421.1285 421.4611 421.6586 421.8674
   421.9184 422.3135 422.4781 422.7796 423.2795 423.4598 423.9584 424.3291
   424.4888 425.3110 425.3580 425.7764 425.9673 426.3256 426.9107 426.9764
   427.6024 428.1599 428.5497 428.7841 429.2140 429.3548 430.1215 431.0530
   431.1209 431.2641 431.6009 431.6689 432.6256 432.8148 432.9782 433.3676
   433.5689 433.6924 434.0769 434.5194 434.8187 435.2080 436.2752 436.5781
   436.7532 437.1781 437.2598 437.4400 437.7048 437.7212 438.1813 438.6595
   438.7174 438.8617 438.9349 439.3815 439.5504 439.9562 440.0380 440.1045
   440.4606 440.9777 441.3744 441.4559 441.7379 442.1835 442.2866 442.3933
   442.4600 442.7647 443.0830 443.1684 443.2549 443.9228 444.3970 444.7671
   444.8918 445.2062 445.3056 445.7760 445.8160 446.5168 446.6333 447.1977
   447.2566 447.6931 447.7714 448.1829 448.5677 448.9576 449.0482 449.3324
   449.5912 449.8078 450.3384 450.4966 450.6742 450.9262 451.3338 451.7142
   452.0918 452.1329 452.3855 452.5227 453.1532 453.1689 453.3456 453.5555
   453.7426 453.8828 454.3588 454.3673 454.8136 455.0252 455.4834 455.5697
   456.1572 456.2626 456.4032 456.6521 456.6884 457.1876 457.7556 458.1917
   458.1985 458.8826 459.0045 460.2027 460.3552 460.4014 460.6408 461.0729
   461.2464 461.5474 461.6597 461.8913 462.3440 462.6068 462.7880 463.2693
   463.7657 463.9461 464.2331 464.3575 464.9378 464.9962 465.3914 465.5729
   466.1945 466.6326 466.8193 467.2355 467.3847 467.9363 468.0283 468.2252
   468.7000 468.7354 469.1734 469.5214 469.7197 470.5047 471.4007 471.9725
   472.1469 472.7966 472.8625 473.4079 473.4671 474.0125 474.4140 474.6034
   474.6603 475.0059 475.1283 475.5846 475.6912 476.0801 476.1219 476.3029
   476.9753 476.9837 477.5321 478.0996 478.2765 478.8349 479.2518 479.5021
   479.6166 479.8027 480.1457 480.2616 480.5431 480.6758 480.8870 481.2916
   481.4739 481.7891 481.8312 482.3725 482.7403 482.7967 483.0312 483.2361
   483.8041 484.1289 484.4098 484.4965 485.1358 485.4755 485.6742 485.7886
   486.3008 486.3580 486.8537 487.1937 487.4708 487.7459 487.9604 488.5412
   488.5813 488.8459 488.8889 489.2754 489.4547 490.1282 490.4350 490.4618
   491.1431 491.1605 491.6117 491.8792 491.9495 492.7214 492.9333 493.1401
   493.3846 493.7838 494.0392 494.1952 494.2106 494.6624 494.8826 494.9274
   495.6005 495.6514 496.2952 496.3313 496.6352 496.8026 496.9939 497.7315
   498.0252 498.2272 498.5751 498.8539 498.9523 499.1243 499.1940 499.4010
   499.4025 499.6633 499.8033 500.6333 501.4035 501.9102 502.3411 502.8948
   503.0250 503.1846 503.3688 504.1446 504.4049 504.7880 505.4322 505.9761
   506.3396 506.7124 507.0021 507.4304 507.4641 507.6500 507.8377 508.1311
   508.3948 508.4973 508.7654 509.2623 509.6680 509.9653 510.1101 510.5367
   510.7372 510.8888 511.4300 512.1712 512.2167 512.5062 512.7908 512.9292
   513.0485 513.3462 513.4211 513.5885 513.6029 514.2118 514.3691 514.6651
   514.9214 515.5656 516.0259 516.1778 516.3715 516.6948 516.7583 517.0923

          k = 0.0000 0.2887-0.3071 (  3452 PWs)   bands (ev):

    -4.4075  -4.4075  -2.7703  -2.7703  -2.7281  -2.7281  -2.6139  -2.6139
    -2.5273  -2.5273  -1.9806  -1.9806   6.1609   6.1609   8.6474   8.6474
     9.4270   9.4270  15.9788  15.9788  18.3715  18.3715  20.7422  20.7422
    22.3454  22.3454  25.9374  25.9374  29.1072  29.1072  31.2891  31.2891
    33.4903  33.4903  36.2317  36.2318  38.3289  38.3289  39.1463  39.1463
    41.4746  41.4746  42.0821  42.0821  45.1874  45.1874  48.0112  48.0112
    49.0958  49.0958  52.4117  52.4117  54.8522  54.8522  56.6648  56.6648
    57.7530  57.7530  60.1129  60.1129  60.1801  60.1801  61.8495  61.8495
    63.6916  63.6916  66.2296  66.2296  66.9249  66.9249  67.9139  67.9139
    70.0475  70.0475  71.8664  71.8664  72.2315  72.2315  74.0041  74.0041
    74.1175  74.1175  75.3586  75.3586  76.4964  76.4964  80.3476  80.3476
    80.5838  80.5838  81.0980  81.0980  82.9899  82.9899  83.8701  83.8701
    85.0964  85.0964  85.5749  85.5749  87.9570  87.9570  89.1214  89.1214
    91.2083  91.2083  91.5375  91.5375  93.9114  93.9114  93.9961  93.9961
    95.3452  95.3452  97.3947  97.3947  99.0471  99.0471  99.4960  99.4960
   101.5163 101.5163 102.6541 102.6541 102.8589 102.8589 105.4413 105.4413
   107.5653 107.5654 107.8702 107.8702 108.8685 108.8685 109.4397 109.4397
   111.9451 111.9451 112.0576 112.0576 115.1326 115.1326 115.3966 115.3966
   117.9833 117.9834 119.3890 119.3890 120.1235 120.1235 122.9709 122.9709
   123.4768 123.4768 124.1966 124.1966 125.1004 125.1004 125.5561 125.5561
   126.5414 126.5414 126.9929 126.9929 127.7584 127.7584 128.5487 128.5487
   130.3397 130.3397 131.8140 131.8140 131.8299 131.8299 133.5916 133.5916
   134.5423 134.5423 134.7514 134.7514 136.7346 136.7346 137.3474 137.3474
   139.4690 139.4691 139.8926 139.8926 141.5215 141.5215 141.9530 141.9530
   143.3894 143.3894 144.2333 144.2333 144.5591 144.5591 145.8775 145.8775
   146.4636 146.4636 147.3061 147.3061 149.5750 149.5750 149.9171 149.9171
   151.6743 151.6743 152.7538 152.7538 154.1990 154.1990 154.5381 154.5381
   155.0223 155.0223 155.5938 155.5938 156.7461 156.7461 156.8333 156.8334
   159.0176 159.0176 160.0904 160.0904 160.1068 160.1068 160.8196 160.8196
   162.4578 162.4578 162.5282 162.5282 164.8575 164.8575 165.0080 165.0080
   165.9507 165.9507 167.5444 167.5444 167.5617 167.5617 168.5500 168.5500
   168.8170 168.8170 170.0925 170.0925 171.8420 171.8420 172.8851 172.8851
   173.2100 173.2100 174.9476 174.9476 175.0286 175.0286 175.6679 175.6679
   176.3007 176.3007 176.5214 176.5214 178.3218 178.3218 178.8098 178.8098
   179.9227 179.9227 180.3688 180.3688 181.5518 181.5518 181.9638 181.9638
   183.4803 183.4803 184.0926 184.0926 184.7983 184.7983 185.7102 185.7102
   187.7328 187.7328 187.9254 187.9254 189.7763 189.7763 190.2349 190.2349
   190.7314 190.7314 191.7841 191.7841 193.3407 193.3407 193.9205 193.9205
   194.5278 194.5278 196.4347 196.4347 196.5278 196.5278 197.7965 197.7965
   198.0136 198.0136 198.7410 198.7410 200.2080 200.2080 201.0378 201.0378
   202.1093 202.1093 203.0649 203.0649 204.3438 204.3438 204.3825 204.3825
   206.9404 206.9404 208.2447 208.2447 208.5976 208.5976 209.6747 209.6747
   211.3299 211.3299 211.5208 211.5208 214.2297 214.2297 214.7388 214.7389
   215.8340 215.8340 217.9870 217.9870 218.4694 218.4694 218.9586 218.9587
   220.0373 220.0373 221.2401 221.2401 221.9278 221.9278 222.1625 222.1625
   223.1682 223.1682 223.5173 223.5173 224.4031 224.4031 224.7922 224.7922
   226.2585 226.2585 227.0547 227.0547 228.0302 228.0302 228.7239 228.7239
   228.8324 228.8324 229.5137 229.5137 229.8338 229.8338 230.7212 230.7212
   230.7312 230.7312 231.6971 231.6971 232.0271 232.0271 233.9310 233.9310
   234.1923 234.1923 235.0650 235.0650 235.4651 235.4651 236.7944 236.7944
   237.7650 237.7650 238.5746 238.5746 238.9250 238.9250 240.2244 240.2244
   240.4994 240.4995 240.9716 240.9716 242.6561 242.6561 243.0021 243.0021
   243.8544 243.8544 244.1063 244.1063 245.8152 245.8152 247.4160 247.4160
   247.5075 247.5075 248.4127 248.4127 248.7590 248.7590 250.1695 250.1695
   250.9768 250.9768 251.6233 251.6233 253.9025 253.9025 254.2699 254.2699
   255.4143 255.4143 255.5847 255.5847 256.1565 256.1565 256.4860 256.4860
   258.1081 258.1081 258.2351 258.2351 259.2287 259.2287 259.3938 259.3938
   260.3215 260.3215 260.9739 260.9739 262.0095 262.0095 262.0843 262.0843
   262.7750 262.7750 264.3651 264.3652 265.6019 265.6019 265.6576 265.6576
   266.6246 266.6246 266.7462 266.7462 267.9331 267.9331 268.0891 268.0891
   268.9588 268.9588 270.6527 270.6527 270.9106 270.9106 271.7935 271.7935
   272.5820 272.5820 273.1594 273.1594 274.3745 274.3745 274.3827 274.3827
   275.0523 275.0523 275.6779 275.6779 276.1108 276.1108 277.0713 277.0713
   277.6710 277.6710 277.9415 277.9415 279.1991 279.1991 279.6820 279.6820
   280.3123 280.3123 280.3880 280.3880 281.7949 281.7949 281.8217 281.8217
   283.6385 283.6385 285.5910 285.5910 285.6923 285.6923 286.2676 286.2676
   288.6040 288.6040 288.6487 288.6487 288.9713 288.9713 289.2325 289.2325
   290.2221 290.2222 291.2194 291.2194 291.7559 291.7559 293.0636 293.0636
   293.0902 293.0902 294.2169 294.2169 295.1757 295.1757 295.5663 295.5663
   296.2201 296.2201 296.9780 296.9780 297.6900 297.6900 298.3265 298.3265
   299.1988 299.1988 299.4932 299.4932 300.9117 300.9117 301.3964 301.3964
   301.5044 301.5044 302.0283 302.0283 302.4387 302.4387 303.4259 303.4259
   303.6366 303.6366 305.1185 305.1185 305.4669 305.4669 306.2071 306.2071
   306.3846 306.3847 307.9031 307.9031 308.1916 308.1916 308.5523 308.5523
   310.1398 310.1398 310.9882 310.9882 312.0750 312.0750 312.6995 312.6995
   312.9170 312.9170 314.0823 314.0824 314.1220 314.1220 315.4652 315.4652
   316.4713 316.4713 317.4792 317.4792 318.5563 318.5563 320.7815 320.7815
   321.1150 321.1150 322.2281 322.2281 322.2567 322.2567 323.4172 323.4172
   324.0538 324.0538 324.9101 324.9101 325.1162 325.1162 326.0302 326.0302
   326.1595 326.1595 327.4466 327.4466 327.4762 327.4762 328.3166 328.3166
   329.2220 329.2220 329.3222 329.3222 330.0130 330.0130 330.9198 330.9198
   331.3931 331.3931 331.5623 331.5623 332.3600 332.3600 332.4025 332.4025
   333.8550 333.8550 333.8919 333.8919 335.0254 335.0254 335.2656 335.2656
   336.9785 336.9785 337.2465 337.2465 338.4852 338.4852 339.0625 339.0625
   340.4279 340.4279 341.7780 341.7780 341.9181 341.9181 342.6875 342.6875
   343.6941 343.6941 344.0206 344.0206 344.6648 344.6648 345.1829 345.1829
   345.4619 345.4620 345.8735 345.8735 347.3044 347.3044 347.5626 347.5626
   348.6617 348.6617 349.5071 349.5071 349.5914 349.5914 351.4562 351.4562
   351.8712 351.8712 352.3553 352.3553 353.2347 353.2347 354.6075 354.6075
   354.8362 354.8362 355.9546 355.9546 356.6497 356.6497 357.1474 357.1474
   357.9433 357.9433 358.2995 358.2995 359.1386 359.1386 360.6424 360.6424
   361.0288 361.0288 361.9743 361.9743 362.3120 362.3120 363.7863 363.7863
   364.3871 364.3871 364.7284 364.7284 365.9917 365.9917 366.6215 366.6215
   367.5402 367.5402 368.0224 368.0225 368.4739 368.4739 369.0025 369.0025
   369.6258 369.6258 369.8913 369.8913 370.4612 370.4612 371.2569 371.2569
   371.5688 371.5688 372.3827 372.3827 372.3952 372.3952 373.4731 373.4731
   373.7661 373.7661 374.7795 374.7795 375.5043 375.5043 375.7892 375.7892
   376.7217 376.7217 376.7754 376.7754 377.8289 377.8289 378.2358 378.2358
   378.4544 378.4544 379.7149 379.7149 380.0292 380.0292 380.3554 380.3554
   381.3064 381.3064 381.5384 381.5384 382.3537 382.3537 383.1959 383.1959
   384.2878 384.2878 384.5921 384.5921 385.5417 385.5417 385.6471 385.6471
   387.8614 387.8614 388.3505 388.3505 388.9163 388.9163 389.0036 389.0037
   389.8508 389.8508 389.9478 389.9478 390.8182 390.8182 391.3108 391.3108
   391.6190 391.6190 392.4640 392.4640 393.3143 393.3143 394.1608 394.1608
   394.9390 394.9390 395.1171 395.1171 395.8018 395.8018 396.1253 396.1253
   396.7695 396.7696 396.8218 396.8218 397.2641 397.2641 397.5130 397.5130
   398.1079 398.1079 398.1807 398.1807 398.8640 398.8640 399.0117 399.0118
   399.6345 399.6345 399.8732 399.8732 400.3762 400.3762 401.6560 401.6560
   401.7880 401.7880 402.2792 402.2792 403.0660 403.0660 403.4047 403.4047
   403.9288 403.9288 403.9671 403.9671 405.1046 405.1046 405.5709 405.5709
   407.0802 407.0802 407.4629 407.4629 407.9683 407.9683 408.5756 408.5756
   409.2962 409.2962 410.0031 410.0031 410.8347 410.8347 411.8207 411.8207
   412.3118 412.3118 413.1089 413.1089 413.9606 413.9606 414.5287 414.5287
   414.9235 414.9235 415.2312 415.2312 416.3486 416.3486 417.1442 417.1442
   418.2568 418.2568 418.4057 418.4057 419.4179 419.4180 420.3025 420.3025
   420.4061 420.4061 421.9260 421.9260 422.4752 422.4752 423.3139 423.3139
   424.3570 424.3570 424.6003 424.6003 425.4182 425.4182 425.8980 425.8980
   426.4546 426.4546 427.1551 427.1551 427.5192 427.5192 429.2646 429.2646
   429.3408 429.3408 430.0181 430.0181 430.3190 430.3190 431.0624 431.0624
   432.3089 432.3089 433.0006 433.0006 433.3086 433.3087 434.0307 434.0307
   434.8472 434.8472 435.3697 435.3697 436.1948 436.1948 436.4101 436.4101
   437.0909 437.0909 437.3815 437.3815 438.2427 438.2427 438.6329 438.6329
   439.3056 439.3056 439.8596 439.8596 440.2632 440.2632 440.7263 440.7263
   441.0013 441.0013 441.4776 441.4776 441.4893 441.4893 442.6941 442.6941
   443.1104 443.1104 443.5087 443.5087 444.3938 444.3938 444.7240 444.7240
   444.9980 444.9980 445.3931 445.3931 445.5833 445.5833 446.1858 446.1858
   447.3032 447.3032 447.4492 447.4492 448.3101 448.3101 449.6708 449.6708
   449.7272 449.7272 451.0030 451.0030 451.0457 451.0457 451.8101 451.8101
   452.5142 452.5142 453.0096 453.0096 453.0401 453.0402 453.6616 453.6616
   454.4636 454.4636 455.0163 455.0163 456.4701 456.4701 456.8687 456.8687
   456.9349 456.9349 457.6934 457.6935 457.8012 457.8012 458.2616 458.2616
   458.6116 458.6116 458.7018 458.7018 459.9597 459.9597 460.6436 460.6436
   460.6638 460.6638 461.5264 461.5264 462.5938 462.5938 462.8845 462.8845
   463.8548 463.8548 464.0863 464.0863 465.0368 465.0368 465.0974 465.0974
   465.4959 465.4960 466.1756 466.1756 466.9231 466.9231 467.8240 467.8240
   467.9869 467.9869 468.2708 468.2708 468.7573 468.7573 469.6098 469.6098
   470.1553 470.1553 470.8024 470.8024 471.5281 471.5281 471.8340 471.8340
   472.6466 472.6466 473.2873 473.2873 474.6348 474.6348 474.8341 474.8341
   475.3929 475.3929 475.4256 475.4256 476.1924 476.1924 476.4958 476.4958
   476.8571 476.8571 477.2032 477.2032 478.1983 478.1983 478.2299 478.2299
   479.6930 479.6930 479.8313 479.8313 480.2602 480.2602 480.5059 480.5059
   480.7560 480.7560 483.2431 483.2431 484.5757 484.5757 484.9723 484.9723
   487.1399 487.1399 487.4368 487.4368 488.5688 488.5688 488.6415 488.6415
   489.8822 489.8822 490.7333 490.7333 490.7929 490.7929 492.1967 492.1967
   492.8992 492.8992 493.0160 493.0160 493.9167 493.9167 495.0031 495.0031
   495.5393 495.5393 496.4756 496.4756 496.6871 496.6871 497.5540 497.5540
   497.5921 497.5921 498.2574 498.2574 498.5341 498.5341 499.1830 499.1830
   499.2532 499.2532 499.6952 499.6952 500.2375 500.2375 500.4260 500.4260
   501.7723 501.7723 502.7326 502.7326 503.4939 503.4939 504.4647 504.4647
   504.8647 504.8647 505.5287 505.5287 505.6484 505.6484 507.0480 507.0480
   507.5373 507.5373 507.8320 507.8320 508.1236 508.1236 508.3504 508.3504
   508.7100 508.7100 509.4144 509.4144 509.9750 509.9750 511.2839 511.2839
   512.0193 512.0193 512.2598 512.2598 512.6501 512.6501 513.1729 513.1729
   513.4306 513.4306 514.2197 514.2197 514.6169 514.6169 515.0129 515.0129
   515.5903 515.5903 515.9220 515.9220 516.2663 516.2664 516.8824 516.8824

          k = 0.0000-0.5774 0.0000 (  3434 PWs)   bands (ev):

    -4.3718  -4.2140  -2.7844  -2.7603  -2.6643  -2.6269  -2.5839  -2.5722
    -2.5027  -2.4665  -1.3070  -0.7521   4.2810   5.4413   6.5330   7.9851
     8.5245   9.7168  15.7991  16.2976  16.7831  19.3100  21.0628  21.1428
    23.1592  24.0352  24.7262  27.5550  28.2677  30.0743  32.1249  34.1561
    34.6531  34.7567  36.0905  37.0739  37.1890  39.0893  39.7014  41.5949
    41.6488  42.8969  43.1508  44.1423  44.4769  45.5586  45.8126  48.3644
    48.5047  51.3130  51.5339  51.5669  52.6843  53.2441  55.5217  55.5423
    55.9502  57.1157  57.1263  57.9837  58.1144  58.9458  60.3900  61.7052
    61.7575  61.9787  63.1873  63.8376  64.6167  65.3831  65.7730  66.0244
    67.1115  68.2673  69.0428  69.5036  71.7092  71.7502  72.2055  72.4014
    73.7049  75.4426  75.7404  77.0081  77.2491  78.7912  81.3745  82.0595
    82.0845  83.5390  84.4642  84.5742  84.7424  84.9729  86.6209  86.8634
    87.3445  87.3897  88.8259  89.4125  90.4140  90.7046  91.3286  91.3575
    91.7909  92.9936  93.7782  93.8012  94.2984  95.4675  96.4183  96.6933
    97.3199  98.5677  98.9064  99.5750  99.8648 100.5223 101.0518 101.1163
   102.3928 103.0241 103.1568 103.3971 103.6382 104.9394 105.3431 105.8506
   106.6211 108.6336 108.7349 108.7417 109.6394 109.8754 110.4166 110.6834
   110.9012 110.9155 111.1573 112.7694 113.3251 113.3823 114.0477 114.5589
   115.0772 115.3506 115.4826 117.8556 117.9275 118.3486 118.4302 119.0682
   119.2453 120.0857 120.9605 121.6014 121.8777 122.2953 122.3822 122.5959
   122.7102 123.2024 124.3263 125.0372 125.2620 125.8411 126.1363 127.1178
   128.2472 128.3933 128.8508 129.2622 129.6894 130.4534 132.1718 132.4242
   134.0814 135.1677 136.0935 136.2646 136.8780 137.5152 137.9879 138.5315
   138.8117 139.5206 139.5442 140.2378 140.4592 140.9088 141.5554 142.4537
   142.4892 143.5187 143.5911 144.0607 145.2679 145.9821 146.6317 146.8054
   148.3398 148.8441 148.8915 149.1389 149.4799 149.8304 150.3187 150.4251
   150.7820 151.2002 151.4918 151.6719 151.8022 152.2315 152.3681 152.6432
   152.6749 152.9042 152.9211 153.5852 153.6204 153.7412 154.5170 154.5889
   154.8287 155.7197 155.9221 156.4076 158.3346 158.6033 158.6521 159.9095
   161.2104 161.7107 162.1855 164.7727 166.5835 167.6438 169.1272 169.2469
   169.2732 169.3719 169.7660 170.0703 170.8797 171.0336 171.4350 171.8143
   171.9583 172.1034 172.8326 173.0017 173.2483 173.7819 174.0565 174.6367
   176.1007 176.1451 177.0320 177.0954 177.1656 177.7463 178.2338 178.3129
   178.5534 178.8958 179.2780 179.4579 179.6452 179.9660 180.2156 180.5134
   180.9795 182.0443 182.4047 183.0226 183.4143 183.7101 185.1691 185.4887
   186.3074 186.9364 187.4887 188.4035 188.4329 188.7575 188.9231 188.9681
   189.8602 190.4024 190.8220 190.8303 190.9468 190.9605 191.5342 191.9325
   192.1951 192.2207 194.6386 195.3813 196.4209 196.5105 196.8889 196.9594
   197.3072 197.8097 197.8273 197.9253 198.5074 198.5185 198.5847 199.3496
   199.4640 199.4656 199.4856 199.5763 199.8255 200.3782 201.2775 201.5428
   201.9968 202.0771 202.5003 203.7628 203.8073 203.8728 204.0244 204.5802
   205.6472 206.5524 206.5625 207.7240 207.7249 207.7880 208.0140 208.1639
   208.4451 208.9950 209.3350 209.6934 210.6122 210.6565 211.3869 211.4292
   211.7289 212.1340 212.2646 213.1650 213.2320 213.3311 213.4654 213.8621
   215.6523 215.9848 217.0275 217.5542 217.6551 218.9181 218.9974 219.5223
   220.1096 220.3975 220.9696 221.3536 222.8844 224.9165 225.1003 225.8483
   226.2595 226.6384 226.8744 227.0558 227.6463 227.8521 228.0257 228.2302
   228.5868 228.9187 229.6881 229.8243 229.9231 230.0664 230.3318 230.4101
[...]
   301.6326 301.6326 302.4794 302.4794 303.4294 303.4294 304.1275 304.1275
   304.8428 304.8428 306.0596 306.0596 306.7658 306.7658 307.2980 307.2980
   307.7076 307.7076 308.4946 308.4946 309.7092 309.7092 310.2223 310.2223
   310.8481 310.8481 311.7249 311.7249 312.5397 312.5397 312.9631 312.9631
   313.7248 313.7248 314.0443 314.0443 314.8338 314.8338 314.9996 314.9996
   315.7776 315.7776 316.2656 316.2656 316.9529 316.9529 318.3467 318.3467
   318.8444 318.8444 319.3074 319.3074 320.6013 320.6013 321.0735 321.0735
   321.8986 321.8986 322.2668 322.2668 322.8255 322.8255 323.9490 323.9490
   324.4447 324.4447 325.2560 325.2560 326.2258 326.2258 327.1601 327.1601
   327.4022 327.4022 327.6219 327.6219 328.3006 328.3006 328.7396 328.7396
   329.4940 329.4940 329.8851 329.8851 330.1824 330.1824 330.8743 330.8743
   331.8670 331.8670 332.7540 332.7540 333.0207 333.0207 334.1486 334.1486
   334.6460 334.6460 335.0898 335.0898 335.6315 335.6316 336.4279 336.4279
   336.6599 336.6599 338.0120 338.0120 338.5486 338.5486 338.8057 338.8057
   339.3191 339.3191 339.7424 339.7424 340.4397 340.4397 340.9947 340.9947
   341.4348 341.4348 342.1964 342.1965 342.8081 342.8081 343.4929 343.4929
   344.2758 344.2758 344.7008 344.7008 345.0453 345.0453 346.1454 346.1454
   346.4885 346.4885 347.3094 347.3094 347.9224 347.9224 348.1603 348.1603
   349.2099 349.2099 349.8217 349.8217 350.7834 350.7834 351.3750 351.3750
   351.7026 351.7026 352.2325 352.2325 352.7842 352.7842 353.1708 353.1708
   354.0288 354.0288 354.2928 354.2928 355.1171 355.1171 355.6538 355.6538
   356.4720 356.4720 357.4117 357.4117 357.9133 357.9133 358.7945 358.7945
   359.7491 359.7491 360.2604 360.2604 361.1261 361.1261 361.9696 361.9696
   362.8179 362.8179 363.3374 363.3374 364.2974 364.2974 364.5393 364.5393
   364.7814 364.7814 365.7899 365.7899 366.8140 366.8140 367.1819 367.1819
   368.2657 368.2657 368.5709 368.5709 369.2166 369.2166 370.0603 370.0604
   370.3905 370.3905 370.8766 370.8766 371.2869 371.2869 372.1458 372.1458
   372.9900 372.9900 373.4084 373.4084 374.3347 374.3347 375.1805 375.1805
   375.9654 375.9654 376.3896 376.3896 378.1081 378.1081 378.8580 378.8580
   379.7183 379.7183 380.3075 380.3075 380.9997 380.9997 381.5348 381.5348
   382.4134 382.4134 382.9882 382.9882 383.5844 383.5844 384.4013 384.4013
   384.8016 384.8016 385.6685 385.6685 386.1794 386.1794 386.6775 386.6775
   387.4863 387.4864 388.4430 388.4430 389.0814 389.0814 389.5079 389.5079
   389.9058 389.9058 390.7198 390.7198 391.5065 391.5065 392.0117 392.0117
   393.6221 393.6221 394.5747 394.5747 395.7769 395.7769 397.0772 397.0772
   397.8518 397.8518 398.7153 398.7153 399.6167 399.6167 399.8088 399.8088
   400.4134 400.4134 400.7885 400.7885 401.8155 401.8155 402.7512 402.7512
   403.4784 403.4784 404.7489 404.7489 406.1204 406.1204 406.7115 406.7115
   407.0514 407.0514 408.1265 408.1265 408.5495 408.5495 408.9015 408.9015
   409.6727 409.6727 410.0408 410.0408 410.6557 410.6557 411.0476 411.0476
   411.4556 411.4556 411.8169 411.8169 412.4453 412.4453 412.8033 412.8033
   413.2160 413.2160 413.3368 413.3368 413.7819 413.7819 414.4097 414.4097
   414.8801 414.8801 415.9899 415.9899 416.2840 416.2840 416.7699 416.7699
   418.1198 418.1198 418.3572 418.3572 418.6404 418.6404 419.3004 419.3004
   419.8157 419.8157 420.5296 420.5296 420.7038 420.7038 421.3412 421.3412
   421.9080 421.9080 422.2365 422.2365 422.9164 422.9164 423.2628 423.2628
   424.4043 424.4043 425.3634 425.3634 425.5205 425.5205 426.8401 426.8401
   426.9926 426.9926 427.8188 427.8188 427.9509 427.9509 428.7497 428.7497
   429.0472 429.0472 429.8397 429.8397 430.5526 430.5526 431.0183 431.0183
   431.2545 431.2545 431.8546 431.8546 432.5020 432.5020 432.8711 432.8711
   433.0894 433.0894 433.7243 433.7243 434.2565 434.2565 435.0845 435.0845
   436.3717 436.3717 437.1541 437.1541 437.5385 437.5385 437.9194 437.9194
   438.2358 438.2358 438.4114 438.4114 439.0686 439.0686 439.6032 439.6032
   439.8295 439.8295 440.2828 440.2828 440.7077 440.7077 440.9671 440.9671
   441.7247 441.7248 441.9411 441.9411 442.9875 442.9875 444.4743 444.4743
   444.8774 444.8774 445.3893 445.3893 445.9766 445.9766 446.7571 446.7571
   447.3939 447.3939 448.0729 448.0729 449.5262 449.5262 449.9024 449.9024
   450.8461 450.8461 451.6037 451.6037 452.0463 452.0463 452.4783 452.4783
   453.0363 453.0363 453.5357 453.5357 454.0837 454.0837 454.4086 454.4086
   455.2198 455.2198 456.1217 456.1217 457.4207 457.4207 458.0553 458.0554
   458.7163 458.7163 459.5484 459.5484 460.1527 460.1527 461.1150 461.1150
   461.9758 461.9758 462.1057 462.1057 462.9401 462.9401 463.3839 463.3839
   463.9452 463.9453 464.1524 464.1524 464.9403 464.9403 466.1496 466.1496
   466.4306 466.4306 466.9782 466.9782 467.6591 467.6591 468.4204 468.4204
   469.2336 469.2336 469.5172 469.5172 470.3753 470.3753 471.3280 471.3280
   472.2870 472.2870 472.6595 472.6595 473.3458 473.3458 474.1273 474.1273
   474.6883 474.6883 475.1458 475.1458 475.7385 475.7385 476.3559 476.3559
   476.8757 476.8757 477.9041 477.9041 478.2514 478.2514 479.5296 479.5296
   480.1879 480.1879 480.9512 480.9512 481.3806 481.3806 481.8582 481.8582
   482.4117 482.4117 482.6500 482.6501 483.4636 483.4636 483.7712 483.7712
   483.9403 483.9403 484.3639 484.3639 485.0078 485.0078 485.5103 485.5103
   485.8152 485.8152 486.1855 486.1855 487.1102 487.1102 487.5552 487.5552
   487.6896 487.6896 488.1480 488.1480 488.2911 488.2911 488.6488 488.6488
   488.8994 488.8994 489.0785 489.0785 489.7244 489.7244 490.1167 490.1167
   490.3280 490.3280 491.0438 491.0438 491.5903 491.5903 492.9954 492.9954
   493.4833 493.4833 493.8124 493.8124 494.5758 494.5758 495.2152 495.2152
   495.3302 495.3302 496.0679 496.0679 496.2330 496.2330 496.9275 496.9275
   497.1744 497.1744 498.0867 498.0867 498.3192 498.3192 498.6609 498.6609
   499.0491 499.0491 499.3029 499.3029 500.5132 500.5132 500.6829 500.6829
   502.2028 502.2028 503.2468 503.2468 503.6637 503.6637 504.2905 504.2905
   504.6983 504.6983 505.2376 505.2376 505.7343 505.7343 506.0563 506.0563
   506.3147 506.3147 506.7978 506.7978 507.1260 507.1260 507.7043 507.7043
   508.0766 508.0766 508.6354 508.6354 508.9743 508.9743 509.3190 509.3190
   510.0977 510.0977 510.5976 510.5976 510.7909 510.7909 511.1884 511.1884
   511.5324 511.5324 512.2452 512.2452 513.0048 513.0048 513.7522 513.7522

          k = 0.0000-0.2887 0.1535 (  3448 PWs)   bands (ev):

    -4.6235  -4.2881  -2.7919  -2.7626  -2.7359  -2.6919  -2.6230  -2.5956
    -2.5604  -2.4945  -2.3787  -1.2701   5.0972   7.0046   7.5074   8.9322
     9.8026   9.9702  15.1314  16.7612  17.9950  18.9680  20.5731  21.6023
    21.7115  23.0795  24.1994  27.0519  27.4316  30.0238  31.6961  32.0377
    33.6254  33.9892  34.4039  36.1208  37.9116  38.0380  38.5383  39.9814
    40.2066  41.4631  42.7090  43.7536  45.3454  45.9402  46.5704  48.5813
    48.9546  50.1185  51.1930  54.1261  54.2217  55.0130  55.2991  56.8469
    56.9883  57.7249  59.2441  59.7720  60.9417  61.4902  61.8170  62.7576
    63.9988  65.0552  65.5072  66.5208  66.6351  67.7051  67.8482  68.4680
    70.1805  70.2191  70.7568  71.3371  71.4796  72.3623  72.7730  73.5570
    73.7195  74.4444  75.2243  76.2127  76.5738  76.5831  77.9041  78.3099
    78.7337  80.2840  81.0777  82.3877  82.4398  82.9892  83.5886  84.9834
    85.4113  86.0419  87.0213  87.1084  87.9567  88.2066  89.1155  89.8911
    89.9572  91.0824  91.4665  92.3324  92.4360  93.3900  94.8583  95.2362
    95.9700  97.4478  97.6528  98.3977  98.5256  98.8263 100.2330 100.7760
   101.2621 101.3295 101.8988 102.8107 103.0630 103.5595 104.6075 104.7800
   105.6266 106.5581 107.5615 108.2364 108.6621 109.9047 110.2287 111.0858
   112.5927 112.6538 114.0615 114.3246 114.4981 115.0909 115.3385 116.4823
   116.6187 117.4417 117.6170 118.2258 118.5226 119.0251 119.8624 119.9591
   120.1734 121.8053 122.3235 122.9590 123.8528 124.2076 124.9213 125.1715
   125.3810 126.6966 127.0957 127.5657 127.8125 128.6761 129.2072 129.3141
   130.2863 131.1442 131.2265 131.5586 131.7689 132.9056 133.7474 133.8371
   134.8457 135.2836 135.8259 137.0531 138.0113 138.0590 138.5872 139.2502
   139.6812 139.8380 140.8632 140.9431 142.1130 142.5194 142.9632 143.2084
   143.2876 144.0430 144.8830 145.0940 145.9153 146.1202 146.4499 146.7829
   147.2400 147.7766 148.0557 148.4722 148.4794 149.1302 150.2547 150.8793
   150.9386 151.5042 151.8077 152.0544 152.7505 153.2261 153.3698 154.4725
   154.5776 155.8640 155.9304 156.3009 156.6546 157.0613 157.7720 158.6822
   158.8207 158.9941 159.7451 159.8199 159.8753 160.7666 160.7906 161.4488
   161.6678 161.9056 162.2292 162.9566 163.3886 163.9860 164.5567 164.7317
   165.2522 165.3229 165.6777 165.9521 166.5521 167.1040 167.4975 168.3974
   168.7988 169.2360 169.2933 169.5547 169.6920 170.3683 170.7643 170.9207
   171.2771 171.8272 172.2801 172.5842 172.7472 173.0673 173.7914 174.8236
   175.1847 175.9507 176.4482 176.4910 177.0972 177.8108 178.0045 178.0729
   179.4196 179.8047 179.9770 180.7848 181.8750 182.1044 182.9792 183.2829
   183.3540 184.9717 185.5044 186.0528 186.5240 186.7007 187.0893 187.7337
   188.6974 188.9010 189.3099 189.3164 189.6772 189.7745 190.3646 190.5806
   191.1841 191.9606 192.3829 192.6888 193.6118 194.1768 194.6678 195.2278
   195.6549 196.1819 196.4126 196.9356 197.5243 197.5999 198.2246 198.6864
   199.6082 200.0390 200.4072 200.8238 200.9546 201.1912 202.5061 202.6325
   202.9798 203.9081 203.9432 204.5943 204.6598 205.6153 205.7672 206.6766
   207.4595 207.4936 208.0544 208.1300 208.6939 208.7137 208.8859 210.0336
   210.8577 211.3468 211.4427 212.1022 212.5978 212.8217 214.0149 214.1333
   214.5528 214.5585 214.8372 215.7129 216.3935 216.9561 217.5275 218.0603
   218.3990 218.9158 219.1310 219.3574 219.6369 220.0571 220.4159 220.6658
   221.1780 221.3298 221.7897 221.9102 223.0590 223.3199 223.5403 224.2724
   224.6759 224.7637 225.4254 226.2520 226.5390 226.9472 227.6116 228.4200
   228.4855 228.8589 229.6781 230.0240 230.0520 230.4723 230.5284 231.1209
   231.3285 231.6437 232.1368 232.8029 233.1604 233.3759 233.8311 233.8784
   234.9218 235.6908 235.8868 236.3552 236.3735 236.7637 237.0345 237.7832
   237.9964 238.2201 238.6183 238.8564 239.5116 239.7117 240.2182 240.7260
   241.1126 241.4061 241.9399 242.2171 242.7855 242.7926 243.2801 243.9284
   244.4373 244.6247 245.2041 245.2818 245.4618 245.7153 246.0331 246.7321
   247.1531 247.3671 248.0964 248.4144 249.0898 249.6102 249.6656 250.0317
   250.6532 250.7770 251.0933 251.2760 252.1305 252.9680 253.2913 253.4865
   254.1861 254.4513 254.5700 254.9695 255.7478 255.9104 256.2831 256.9799
   257.0057 257.6399 258.2107 258.4260 259.0176 259.5111 260.0299 260.5170
   261.1747 261.3239 261.8875 261.9087 262.3796 262.4016 262.6725 263.0107
   263.7586 263.9342 264.3703 264.5382 264.7573 265.2429 265.9914 266.1714
   266.2888 266.9331 267.0186 267.4477 268.2139 268.7873 268.9485 269.8206
   269.9583 270.1336 270.4496 270.5060 270.7923 271.1947 271.5944 272.2439
   272.3311 272.7746 272.9358 273.4652 273.8189 274.1234 274.3026 274.9241
   275.4882 275.5598 275.9605 276.5580 277.1365 277.3332 277.5016 278.1098
   278.2189 278.6908 279.2867 279.3364 280.3157 280.5304 281.0994 281.2029
   281.6129 281.8407 281.9489 282.2838 282.5968 282.9041 283.1300 283.5998
   284.0351 284.1518 284.8070 284.9966 285.4009 285.6566 286.4397 286.7150
   286.9969 287.4335 287.4590 287.6895 288.3752 288.5468 288.7677 289.1162
   289.5236 289.7296 290.0999 290.2555 290.5605 290.6820 291.3682 291.4642
   291.9471 292.0303 292.4315 292.6803 293.2523 293.4822 293.7569 294.0966
   294.8337 295.5299 295.8527 296.5058 296.5145 296.8048 297.2322 297.4565
   298.1194 298.2645 298.7726 299.5109 300.1303 300.3856 300.6503 300.8276
   301.4579 301.6456 302.0539 302.5387 302.6427 303.2037 303.2176 303.7780
   303.9598 304.3996 304.4374 305.1202 305.1232 305.6829 306.0973 306.5193
   306.9039 307.1360 307.4360 307.8415 308.0444 308.0461 308.4933 309.4019
   309.9520 309.9666 310.3150 310.9795 311.3979 311.6441 312.0771 312.3270
   312.9512 313.0683 313.6391 314.4384 314.8493 314.9376 315.6685 316.2657
   316.3757 316.8910 317.4756 317.5389 318.0698 318.1875 318.6602 319.0046
   319.7618 320.4151 320.6085 320.7291 320.9671 321.4035 321.7092 321.8934
   322.3889 322.4888 322.9389 323.6341 324.1764 324.4867 324.5180 324.6110
   325.9805 326.4246 327.0940 327.2973 327.5746 327.8998 328.4303 328.6981
   328.8873 329.3920 329.6125 330.1956 330.3340 330.8294 331.4471 331.7953
   332.0394 332.4458 333.0866 333.3466 333.9639 333.9825 334.2354 334.4010
   334.9331 334.9901 335.9427 336.0789 336.4902 336.6524 337.3835 337.6003
   337.7336 338.8492 339.2814 339.5423 340.0697 340.0928 340.1816 340.6399
   340.9636 341.5991 341.7197 342.1991 342.2263 342.7796 343.3601 343.6586
   344.2971 344.3493 344.5356 344.9790 345.2511 345.7495 345.9584 346.4310
   346.5708 346.9925 347.0161 347.3960 347.4673 347.6049 347.9171 348.0889
   348.2150 349.1933 349.6166 349.6685 349.8251 350.3577 350.6184 351.1088
   351.4756 351.4991 352.2683 353.2234 353.6596 353.7567 354.5208 354.8325
   354.8805 355.5910 355.6202 356.3235 356.4875 356.4934 356.7443 356.9944
   357.0696 358.0402 358.3117 358.6057 358.9705 359.0667 359.5756 359.7422
   360.0026 360.2882 360.8634 361.1913 361.2687 361.5010 362.3928 362.5431
   362.6685 362.8145 363.2803 363.5775 363.7753 364.2958 364.3862 365.2502
   365.6197 366.5687 366.6758 367.0310 367.3804 367.6439 367.6622 368.3548
   368.5237 369.0226 369.0677 369.5488 370.0602 370.3982 370.5038 370.9672
   371.0046 371.4401 371.7025 372.1629 372.6708 372.7015 373.2440 373.2543
   373.8220 373.9668 374.5596 374.8423 375.3935 375.7512 375.8735 376.0602
   376.6513 376.8118 376.8310 377.1239 377.3791 378.0859 378.1329 378.2889
   378.5457 378.6423 378.9992 379.3867 379.6317 380.3980 380.4827 380.6712
   380.7124 381.2136 381.6204 381.9314 382.4717 383.0613 383.1205 383.7779
   383.7896 384.3429 384.6678 385.1641 385.1755 385.6577 385.9602 386.2656
   386.2699 386.5742 387.2052 387.3810 387.6031 387.7383 388.0387 388.4108
   388.4533 388.8172 388.8442 389.4207 390.3114 390.5143 390.5910 391.1056
   391.1083 391.3737 391.4202 391.7219 392.1272 392.4802 392.8568 393.3757
   393.7202 393.7371 394.0715 394.2582 394.7423 394.8896 395.3279 395.3454
   395.8114 396.2564 396.3211 396.9515 397.0494 397.1337 397.4914 397.8433
   397.9316 398.3240 398.5893 398.9054 399.2038 399.6391 400.4063 400.6652
   400.8484 401.0663 401.6863 401.9895 402.4430 402.5276 403.2218 403.3121
   403.7495 404.0583 404.1147 404.8580 405.0756 405.2906 405.6554 405.8353
   406.0665 406.5016 406.7142 406.8813 407.1853 407.7810 408.0043 408.0579
   408.3599 408.6027 408.8476 409.1966 409.3174 409.3299 409.7574 410.3465
   410.3649 411.0601 411.0937 411.3760 411.5524 412.0662 412.1443 412.6848
   413.1500 413.4471 413.8066 414.3037 414.4805 414.8508 414.9262 415.3562
   415.4749 415.6930 416.0347 416.1915 416.2501 416.4160 416.7341 417.3387
   417.7581 418.0646 418.2762 418.6615 418.9306 419.2004 419.2940 419.8808
   420.0302 420.4934 420.8353 420.9151 421.1285 421.4611 421.6586 421.8674
   421.9184 422.3135 422.4781 422.7796 423.2795 423.4598 423.9584 424.3291
   424.4888 425.3110 425.3580 425.7764 425.9673 426.3256 426.9107 426.9764
   427.6024 428.1599 428.5497 428.7841 429.2140 429.3548 430.1215 431.0530
   431.1209 431.2641 431.6009 431.6689 432.6256 432.8148 432.9782 433.3676
   433.5689 433.6924 434.0769 434.5194 434.8187 435.2080 436.2752 436.5781
   436.7532 437.1781 437.2598 437.4400 437.7048 437.7212 438.1813 438.6595
   438.7174 438.8617 438.9349 439.3815 439.5504 439.9562 440.0380 440.1045
   440.4606 440.9777 441.3744 441.4559 441.7379 442.1835 442.2866 442.3933
   442.4600 442.7647 443.0830 443.1684 443.2549 443.9228 444.3970 444.7671
   444.8918 445.2062 445.3056 445.7760 445.8160 446.5168 446.6333 447.1977
   447.2566 447.6931 447.7714 448.1829 448.5677 448.9576 449.0482 449.3324
   449.5912 449.8078 450.3384 450.4966 450.6742 450.9262 451.3338 451.7142
   452.0918 452.1329 452.3855 452.5227 453.1532 453.1689 453.3456 453.5555
   453.7426 453.8828 454.3588 454.3673 454.8136 455.0252 455.4834 455.5697
   456.1572 456.2626 456.4032 456.6521 456.6884 457.1876 457.7556 458.1917
   458.1985 458.8826 459.0045 460.2027 460.3552 460.4014 460.6408 461.0729
   461.2464 461.5474 461.6597 461.8913 462.3440 462.6068 462.7880 463.2693
   463.7657 463.9461 464.2331 464.3575 464.9378 464.9962 465.3914 465.5729
   466.1945 466.6326 466.8193 467.2355 467.3847 467.9363 468.0283 468.2252
   468.7000 468.7354 469.1734 469.5214 469.7197 470.5047 471.4007 471.9725
   472.1469 472.7966 472.8625 473.4079 473.4671 474.0125 474.4140 474.6034
   474.6603 475.0059 475.1283 475.5846 475.6912 476.0801 476.1219 476.3029
   476.9753 476.9837 477.5321 478.0996 478.2765 478.8349 479.2518 479.5021
   479.6166 479.8027 480.1457 480.2616 480.5431 480.6758 480.8870 481.2916
   481.4739 481.7891 481.8312 482.3725 482.7403 482.7967 483.0312 483.2361
   483.8041 484.1289 484.4098 484.4965 485.1358 485.4755 485.6742 485.7886
   486.3008 486.3580 486.8537 487.1937 487.4708 487.7459 487.9604 488.5412
   488.5813 488.8459 488.8889 489.2754 489.4547 490.1282 490.4350 490.4618
   491.1431 491.1605 491.6117 491.8792 491.9495 492.7214 492.9333 493.1401
   493.3846 493.7838 494.0392 494.1952 494.2106 494.6624 494.8826 494.9274
   495.6005 495.6514 496.2952 496.3313 496.6352 496.8026 496.9939 497.7315
   498.0252 498.2272 498.5751 498.8539 498.9523 499.1243 499.1940 499.4010
   499.4025 499.6633 499.8033 500.6333 501.4035 501.9102 502.3411 502.8948
   503.0250 503.1846 503.3688 504.1446 504.4049 504.7880 505.4323 505.9761
   506.3396 506.7124 507.0021 507.4304 507.4641 507.6500 507.8377 508.1311
   508.3948 508.4973 508.7654 509.2623 509.6680 509.9653 510.1101 510.5367
   510.7372 510.8888 511.4300 512.1712 512.2167 512.5062 512.7908 512.9292
   513.0485 513.3462 513.4211 513.5885 513.6029 514.2118 514.3691 514.6651
   514.9214 515.5656 516.0259 516.1778 516.3715 516.6948 516.7583 517.0923

     the Fermi energy is    11.2475 ev
     (compare with:    11.2475 eV, computed in scf)

     Writing all to output data dir out/mp-804.save/
 
     init_run     :      0.01s CPU      0.05s WALL (       1 calls)
     electrons    :    617.42s CPU    663.37s WALL (       1 calls)

     Called by init_run:
     wfcinit      :      0.00s CPU      0.00s WALL (       1 calls)
     potinit      :      0.00s CPU      0.01s WALL (       1 calls)
     hinit0       :      0.01s CPU      0.03s WALL (       1 calls)

     Called by electrons:
     c_bands      :    617.41s CPU    663.35s WALL (       1 calls)
     v_of_rho     :      0.00s CPU      0.00s WALL (       1 calls)

     Called by c_bands:
     init_us_2    :      0.00s CPU      0.00s WALL (      13 calls)
     init_us_2:cp :      0.00s CPU      0.00s WALL (      13 calls)
     cegterg      :    603.38s CPU    648.19s WALL (      13 calls)

     Called by *egterg:
     cdiaghg      :    563.39s CPU    605.92s WALL (     153 calls)
     h_psi        :     11.10s CPU     11.76s WALL (     166 calls)
     g_psi        :      0.07s CPU      0.07s WALL (     140 calls)

     Called by h_psi:
     h_psi:calbec :      0.32s CPU      0.34s WALL (     166 calls)
     vloc_psi     :     10.39s CPU     11.02s WALL (     166 calls)
     add_vuspsi   :      0.25s CPU      0.25s WALL (     166 calls)

     General routines
     calbec       :      0.32s CPU      0.34s WALL (     166 calls)
     fft          :      0.00s CPU      0.02s WALL (      10 calls)
     fftw         :      9.51s CPU     10.09s WALL (  200270 calls)
 
     Parallel routines
 
     PWSCF        :  10m19.40s CPU  11m 6.06s WALL

 
   This run was terminated on:  15:35:48  14Nov2023            

=------------------------------------------------------------------------------=
   JOB DONE.
=------------------------------------------------------------------------------=
