
     Program PWSCF v.7.1 starts on 14Nov2023 at 16: 4:22 

     This program is part of the open-source Quantum ESPRESSO suite
     for quantum simulation of materials; please cite
         "P. Giannozzi et al., J. Phys.:Condens. Matter 21 395502 (2009);
         "P. Giannozzi et al., J. Phys.:Condens. Matter 29 465901 (2017);
         "P. Giannozzi et al., J. Chem. Phys. 152 154105 (2020);
          URL http://www.quantum-espresso.org", 
     in publications or presentations arising from this work. More details at
     http://www.quantum-espresso.org/quote

     Parallel version (MPI), running on    24 processors

     MPI processes distributed on     1 nodes
     122804 MiB available memory on the printing compute node when the environment starts
 
     Reading input from pw_mp-804_scf_k3000_E76.in
Warning: card &CELL ignored
Warning: card / ignored

     Current dimensions of program PWSCF are:
     Max number of different atomic species (ntypx) = 10
     Max number of k-points (npk) =  40000
     Max angular momentum in pseudopotentials (lmaxx) =  4
 
     R & G space division:  proc/nbgrp/npool/nimage =      24
     Subspace diagonalization in iterative solution of the eigenvalue problem:
     a serial algorithm will be used

 
     Parallelization info
     --------------------
     sticks:   dense  smooth     PW     G-vecs:    dense   smooth      PW
     Min          31      31      9                 1143     1143     179
     Max          32      32     10                 1152     1152     183
     Sum         757     757    223                27487    27487    4343
 
     Using Slab Decomposition
 


     bravais-lattice index     =            4
     lattice parameter (alat)  =       6.0262  a.u.
     unit-cell volume          =     308.5900 (a.u.)^3
     number of atoms/cell      =            4
     number of atomic types    =            2
     number of electrons       =        36.00
     number of Kohn-Sham states=           36
     kinetic-energy cutoff     =      76.0000  Ry
     charge density cutoff     =     304.0000  Ry
     scf convergence threshold =      1.0E-10
     mixing beta               =       0.7000
     number of iterations used =            8  plain     mixing
     Exchange-correlation= PBE
                           (   1   4   3   4   0   0   0)

     celldm(1)=   6.026205  celldm(2)=   0.000000  celldm(3)=   1.628244
     celldm(4)=   0.000000  celldm(5)=   0.000000  celldm(6)=   0.000000

     crystal axes: (cart. coord. in units of alat)
               a(1) = (   1.000000   0.000000   0.000000 )  
               a(2) = (  -0.500000   0.866025   0.000000 )  
               a(3) = (   0.000000   0.000000   1.628244 )  

     reciprocal axes: (cart. coord. in units 2 pi/alat)
               b(1) = (  1.000000  0.577350  0.000000 )  
               b(2) = (  0.000000  1.154701  0.000000 )  
               b(3) = (  0.000000  0.000000  0.614159 )  


     PseudoPot. # 1 for Ga read from file:
     /usr/scratch4/magr4985/MG/HTDF/pseudo/SG15/Ga.upf
     MD5 check sum: 9961a622ff199abf6dfec9a0a10b8555
     Pseudo is Norm-conserving, Zval = 13.0
     Generated using ONCVPSP code by D. R. Hamann
     Using radial grid of  602 points,  6 beta functions with: 
                l(1) =   0
                l(2) =   0
                l(3) =   1
                l(4) =   1
                l(5) =   2
                l(6) =   2

     PseudoPot. # 2 for N  read from file:
     /usr/scratch4/magr4985/MG/HTDF/pseudo/SG15/N.upf
     MD5 check sum: c233fa8df51455e992258b7c3dee8a9f
     Pseudo is Norm-conserving, Zval =  5.0
     Generated using ONCVPSP code by D. R. Hamann
     Using radial grid of  602 points,  4 beta functions with: 
                l(1) =   0
                l(2) =   0
                l(3) =   1
                l(4) =   1

     atomic species   valence    mass     pseudopotential
        Ga            13.00    69.72300     Ga( 1.00)
        N              5.00    14.00670     N ( 1.00)

      6 Sym. Ops. (no inversion) found



   Cartesian axes

     site n.     atom                  positions (alat units)
         1           Ga  tau(   1) = (   0.0000000   0.5773502   0.8126302  )
         2           Ga  tau(   2) = (   0.5000000   0.2886752   1.6267523  )
         3           N   tau(   3) = (   0.0000000   0.5773502   1.4262057  )
         4           N   tau(   4) = (   0.5000000   0.2886752   0.6120835  )

     number of k points=    72  Gaussian smearing, width (Ry)=  0.0005
                       cart. coord. in units 2pi/alat
        k(    1) = (   0.0000000   0.0000000   0.0000000), wk =   0.0033333
        k(    2) = (   0.0000000   0.0000000   0.1023598), wk =   0.0066667
        k(    3) = (   0.0000000   0.0000000   0.2047195), wk =   0.0066667
        k(    4) = (   0.0000000   0.0000000  -0.3070793), wk =   0.0033333
        k(    5) = (   0.0000000   0.1154701   0.0000000), wk =   0.0200000
        k(    6) = (   0.0000000   0.1154701   0.1023598), wk =   0.0200000
        k(    7) = (   0.0000000   0.1154701   0.2047195), wk =   0.0200000
        k(    8) = (   0.0000000   0.1154701  -0.3070793), wk =   0.0200000
        k(    9) = (   0.0000000   0.2309401   0.0000000), wk =   0.0200000
        k(   10) = (   0.0000000   0.2309401   0.1023598), wk =   0.0200000
        k(   11) = (   0.0000000   0.2309401   0.2047195), wk =   0.0200000
        k(   12) = (   0.0000000   0.2309401  -0.3070793), wk =   0.0200000
        k(   13) = (   0.0000000   0.3464102   0.0000000), wk =   0.0200000
        k(   14) = (   0.0000000   0.3464102   0.1023598), wk =   0.0200000
        k(   15) = (   0.0000000   0.3464102   0.2047195), wk =   0.0200000
        k(   16) = (   0.0000000   0.3464102  -0.3070793), wk =   0.0200000
        k(   17) = (   0.0000000   0.4618802   0.0000000), wk =   0.0200000
        k(   18) = (   0.0000000   0.4618802   0.1023598), wk =   0.0200000
        k(   19) = (   0.0000000   0.4618802   0.2047195), wk =   0.0200000
        k(   20) = (   0.0000000   0.4618802  -0.3070793), wk =   0.0200000
        k(   21) = (   0.0000000  -0.5773503   0.0000000), wk =   0.0100000
        k(   22) = (   0.0000000  -0.5773503   0.1023598), wk =   0.0200000
        k(   23) = (   0.0000000  -0.5773503   0.2047195), wk =   0.0200000
        k(   24) = (   0.0000000  -0.5773503  -0.3070793), wk =   0.0100000
        k(   25) = (   0.1000000   0.1732051   0.0000000), wk =   0.0200000
        k(   26) = (   0.1000000   0.1732051   0.1023598), wk =   0.0400000
        k(   27) = (   0.1000000   0.1732051   0.2047195), wk =   0.0400000
        k(   28) = (   0.1000000   0.1732051  -0.3070793), wk =   0.0200000
        k(   29) = (   0.1000000   0.2886751   0.0000000), wk =   0.0400000
        k(   30) = (   0.1000000   0.2886751   0.1023598), wk =   0.0400000
        k(   31) = (   0.1000000   0.2886751   0.2047195), wk =   0.0400000
        k(   32) = (   0.1000000   0.2886751  -0.3070793), wk =   0.0400000
        k(   33) = (   0.1000000   0.4041452   0.0000000), wk =   0.0400000
        k(   34) = (   0.1000000   0.4041452   0.1023598), wk =   0.0400000
        k(   35) = (   0.1000000   0.4041452   0.2047195), wk =   0.0400000
        k(   36) = (   0.1000000   0.4041452  -0.3070793), wk =   0.0400000
        k(   37) = (   0.1000000   0.5196152   0.0000000), wk =   0.0400000
        k(   38) = (   0.1000000   0.5196152   0.1023598), wk =   0.0400000
        k(   39) = (   0.1000000   0.5196152   0.2047195), wk =   0.0400000
        k(   40) = (   0.1000000   0.5196152  -0.3070793), wk =   0.0400000
        k(   41) = (   0.2000000   0.3464102   0.0000000), wk =   0.0200000
        k(   42) = (   0.2000000   0.3464102   0.1023598), wk =   0.0400000
        k(   43) = (   0.2000000   0.3464102   0.2047195), wk =   0.0400000
        k(   44) = (   0.2000000   0.3464102  -0.3070793), wk =   0.0200000
        k(   45) = (   0.2000000   0.4618802   0.0000000), wk =   0.0400000
        k(   46) = (   0.2000000   0.4618802   0.1023598), wk =   0.0400000
        k(   47) = (   0.2000000   0.4618802   0.2047195), wk =   0.0400000
        k(   48) = (   0.2000000   0.4618802  -0.3070793), wk =   0.0400000
        k(   49) = (   0.2000000   0.5773503   0.0000000), wk =   0.0200000
        k(   50) = (   0.2000000   0.5773503   0.1023598), wk =   0.0400000
        k(   51) = (   0.2000000   0.5773503   0.2047195), wk =   0.0400000
        k(   52) = (   0.2000000   0.5773503  -0.3070793), wk =   0.0200000
        k(   53) = (   0.3000000   0.5196152   0.0000000), wk =   0.0200000
        k(   54) = (   0.3000000   0.5196152   0.1023598), wk =   0.0400000
        k(   55) = (   0.3000000   0.5196152   0.2047195), wk =   0.0400000
        k(   56) = (   0.3000000   0.5196152  -0.3070793), wk =   0.0200000
        k(   57) = (   0.0000000  -0.1154701   0.1023598), wk =   0.0200000
        k(   58) = (   0.0000000  -0.1154701   0.2047195), wk =   0.0200000
        k(   59) = (   0.0000000  -0.2309401   0.1023598), wk =   0.0200000
        k(   60) = (   0.0000000  -0.2309401   0.2047195), wk =   0.0200000
        k(   61) = (   0.0000000  -0.3464102   0.1023598), wk =   0.0200000
        k(   62) = (   0.0000000  -0.3464102   0.2047195), wk =   0.0200000
        k(   63) = (   0.0000000  -0.4618802   0.1023598), wk =   0.0200000
        k(   64) = (   0.0000000  -0.4618802   0.2047195), wk =   0.0200000
        k(   65) = (  -0.1000000  -0.2886751   0.1023598), wk =   0.0400000
        k(   66) = (  -0.1000000  -0.2886751   0.2047195), wk =   0.0400000
        k(   67) = (  -0.1000000  -0.4041452   0.1023598), wk =   0.0400000
        k(   68) = (  -0.1000000  -0.4041452   0.2047195), wk =   0.0400000
        k(   69) = (  -0.1000000  -0.5196152   0.1023598), wk =   0.0400000
        k(   70) = (  -0.1000000  -0.5196152   0.2047195), wk =   0.0400000
        k(   71) = (  -0.2000000  -0.4618802   0.1023598), wk =   0.0400000
        k(   72) = (  -0.2000000  -0.4618802   0.2047195), wk =   0.0400000

     Dense  grid:    27487 G-vectors     FFT dimensions: (  36,  36,  60)

     Estimated max dynamical RAM per process >       4.35 MB

     Estimated total dynamical RAM >     104.41 MB

     Initial potential from superposition of free atoms

     starting charge      35.8431, renormalised to      36.0000
     Starting wfcs are random

     total cpu time spent up to now is        0.5 secs

     Self-consistent Calculation

     iteration #  1     ecut=    76.00 Ry     beta= 0.70
     Davidson diagonalization with overlap
     ethr =  1.00E-02,  avg # of iterations =  9.9

     total cpu time spent up to now is        5.2 secs

     total energy              =    -302.03105865 Ry
     estimated scf accuracy    <       1.04957152 Ry

     iteration #  2     ecut=    76.00 Ry     beta= 0.70
     Davidson diagonalization with overlap
     ethr =  2.92E-03,  avg # of iterations =  2.0

     total cpu time spent up to now is        6.6 secs

     total energy              =    -302.33980775 Ry
     estimated scf accuracy    <       1.02257510 Ry

     iteration #  3     ecut=    76.00 Ry     beta= 0.70
     Davidson diagonalization with overlap
     ethr =  2.84E-03,  avg # of iterations =  1.8

     total cpu time spent up to now is        7.9 secs

     total energy              =    -302.52913861 Ry
     estimated scf accuracy    <       0.00554565 Ry

     iteration #  4     ecut=    76.00 Ry     beta= 0.70
     Davidson diagonalization with overlap
     ethr =  1.54E-05,  avg # of iterations =  6.0

     total cpu time spent up to now is       10.1 secs

     total energy              =    -302.53058062 Ry
     estimated scf accuracy    <       0.00024993 Ry

     iteration #  5     ecut=    76.00 Ry     beta= 0.70
     Davidson diagonalization with overlap
     ethr =  6.94E-07,  avg # of iterations =  3.1

     total cpu time spent up to now is       11.6 secs

     total energy              =    -302.53061394 Ry
     estimated scf accuracy    <       0.00002589 Ry

     iteration #  6     ecut=    76.00 Ry     beta= 0.70
     Davidson diagonalization with overlap
     ethr =  7.19E-08,  avg # of iterations =  2.0

     total cpu time spent up to now is       12.9 secs

     total energy              =    -302.53061710 Ry
     estimated scf accuracy    <       0.00000152 Ry

     iteration #  7     ecut=    76.00 Ry     beta= 0.70
     Davidson diagonalization with overlap
     ethr =  4.21E-09,  avg # of iterations =  2.0

     total cpu time spent up to now is       14.4 secs

     total energy              =    -302.53061754 Ry
     estimated scf accuracy    <       0.00000092 Ry

     iteration #  8     ecut=    76.00 Ry     beta= 0.70
     Davidson diagonalization with overlap
     ethr =  2.57E-09,  avg # of iterations =  1.4

     total cpu time spent up to now is       15.6 secs

     total energy              =    -302.53061768 Ry
     estimated scf accuracy    <       0.00000014 Ry

     iteration #  9     ecut=    76.00 Ry     beta= 0.70
     Davidson diagonalization with overlap
     ethr =  3.94E-10,  avg # of iterations =  1.0

     total cpu time spent up to now is       16.8 secs

     total energy              =    -302.53061769 Ry
     estimated scf accuracy    <       0.00000002 Ry

     iteration # 10     ecut=    76.00 Ry     beta= 0.70
     Davidson diagonalization with overlap
     ethr =  5.71E-11,  avg # of iterations =  1.3

     total cpu time spent up to now is       18.0 secs

     total energy              =    -302.53061769 Ry
     estimated scf accuracy    <          2.9E-09 Ry

     iteration # 11     ecut=    76.00 Ry     beta= 0.70
     Davidson diagonalization with overlap
     ethr =  8.04E-12,  avg # of iterations =  2.0

     total cpu time spent up to now is       19.4 secs

     End of self-consistent calculation

          k = 0.0000 0.0000 0.0000 (  3441 PWs)   bands (ev):

    -5.2205  -4.3630  -2.8454  -2.8348  -2.8348  -2.7766  -2.7766  -2.5876
    -2.5876  -2.4905  -2.4905  -1.1961   3.6880   9.6807   9.6807  10.6715
    10.7063  10.7063  12.6672  14.9963  19.9123  20.6398  20.6398  21.4810
    22.4465  22.4465  25.3428  26.3923  26.3923  28.6439  28.6439  28.8995
    28.9599  32.4110  34.8742  34.8742

          k = 0.0000 0.0000 0.1024 (  3477 PWs)   bands (ev):

    -5.1412  -4.3894  -2.8337  -2.8337  -2.8214  -2.7831  -2.7831  -2.5791
    -2.5791  -2.4952  -2.4952  -1.4757   4.1866   9.7461   9.7461   9.8687
    10.6343  10.6343  13.3424  15.0517  19.7207  20.6722  20.6722  20.8368
    22.1961  22.1961  25.6202  26.7643  26.7643  28.6913  29.0999  29.0999
    30.0008  32.4649  33.9416  33.9416

          k = 0.0000 0.0000 0.2047 (  3495 PWs)   bands (ev):

    -4.9321  -4.4859  -2.8279  -2.8279  -2.7984  -2.7984  -2.7228  -2.5570
    -2.5570  -2.5088  -2.5088  -2.0240   5.3863   8.4376   9.9274   9.9274
    10.4403  10.4403  14.3351  15.1411  19.3260  19.7788  20.8202  20.8202
    21.6624  21.6624  26.2209  27.7779  27.7779  27.9821  29.8647  29.8647
    32.3781  32.6918  32.6918  33.0835

          k = 0.0000 0.0000-0.3071 (  3460 PWs)   bands (ev):

    -4.6788  -4.6788  -2.8153  -2.8153  -2.8153  -2.8153  -2.5306  -2.5306
    -2.5306  -2.5306  -2.4757  -2.4757   6.8832   6.8832  10.1807  10.1807
    10.1807  10.1807  14.9910  14.9910  19.2067  19.2067  21.1546  21.1546
    21.1546  21.1546  27.0464  27.0464  29.1411  29.1411  29.1411  29.1411
    33.4894  33.4894  33.4894  33.4894

          k = 0.0000 0.1155 0.0000 (  3455 PWs)   bands (ev):

    -5.1250  -4.3400  -2.8360  -2.8209  -2.8010  -2.7648  -2.7575  -2.5958
    -2.5888  -2.5068  -2.4885  -1.1260   3.8300   8.9671   9.4766   9.8808
    10.5739  10.6177  13.4199  15.5932  19.6144  20.0137  20.8953  21.5629
    22.0210  22.6604  24.4471  25.9034  27.2383  28.5457  29.7652  29.8561
    30.1721  33.1458  34.3508  34.8278

          k = 0.0000 0.1155 0.1024 (  3462 PWs)   bands (ev):

    -5.0497  -4.3627  -2.8295  -2.8190  -2.7854  -2.7689  -2.7638  -2.5830
    -2.5802  -2.5129  -2.4935  -1.3976   4.3073   9.0408   9.4155   9.5480
    10.4012  10.5356  13.8666  15.6399  19.3952  19.9626  20.9306  20.9615
    21.8692  22.4210  25.0888  26.3272  27.4467  28.7313  29.7773  30.1161
    30.7834  32.9993  33.8293  34.2773

          k = 0.0000 0.1155 0.2047 (  3473 PWs)   bands (ev):

    -4.8530  -4.4469  -2.8188  -2.8119  -2.7881  -2.7798  -2.6993  -2.5580
    -2.5458  -2.5281  -2.5081  -1.9356   5.4527   8.2474   9.3118   9.7463
    10.0617  10.3159  14.7284  15.6902  18.9348  19.4351  20.6277  21.0843
    21.5098  21.9113  26.1240  27.4432  27.8697  28.5753  30.0246  30.3269
    31.8893  32.7751  32.8954  34.7642

          k = 0.0000 0.1155-0.3071 (  3466 PWs)   bands (ev):

    -4.6198  -4.6198  -2.8050  -2.8050  -2.7980  -2.7980  -2.5819  -2.5819
    -2.5311  -2.5311  -2.3714  -2.3714   6.8569   6.8569   9.6662   9.6662
    10.0257  10.0257  15.4415  15.4415  18.8477  18.8477  21.0112  21.0112
    21.4183  21.4183  27.1215  27.1215  28.9769  28.9769  29.5014  29.5014
    32.3560  32.3560  34.0979  34.0979

          k = 0.0000 0.2309 0.0000 (  3463 PWs)   bands (ev):

    -4.8803  -4.2892  -2.8058  -2.7898  -2.7369  -2.7073  -2.6711  -2.6159
    -2.5838  -2.5314  -2.4838  -0.9356   4.2303   7.4868   8.5322   9.0019
    10.2577  10.3698  14.5363  16.5245  18.5498  19.4716  20.9795  21.3671
    22.1850  23.1220  23.4693  25.8770  27.2054  30.2048  31.5434  31.7864
    31.9416  33.0680  34.8465  36.3360

          k = 0.0000 0.2309 0.1024 (  3463 PWs)   bands (ev):

    -4.8175  -4.3030  -2.8043  -2.7858  -2.7455  -2.7142  -2.6655  -2.5905
    -2.5764  -2.5240  -2.4896  -1.1822   4.6240   7.6063   8.2596   9.0845
    10.1277  10.2670  14.7166  16.5762  18.4556  19.2515  20.8267  21.4348
    21.7386  22.9393  24.0857  26.2588  27.5101  30.2084  30.7443  32.0347
    32.6763  33.2112  33.8238  35.7731

          k = 0.0000 0.2309 0.2047 (  3455 PWs)   bands (ev):

    -4.6584  -4.3583  -2.7955  -2.7732  -2.7613  -2.7317  -2.6468  -2.5857
    -2.5562  -2.5062  -2.4204  -1.6932   5.5385   7.4299   8.1734   9.3157
     9.6182   9.9961  15.2606  16.5421  18.1885  18.8794  20.4989  21.3522
    21.6545  22.5078  25.1020  27.3244  27.4017  30.3549  30.7929  31.0075
    32.3521  33.2992  34.0457  35.9946

          k = 0.0000 0.2309-0.3071 (  3466 PWs)   bands (ev):

    -4.4807  -4.4807  -2.7791  -2.7791  -2.7538  -2.7538  -2.6150  -2.6150
    -2.5303  -2.5302  -2.1486  -2.1486   6.5570   6.5570   8.8445   8.8445
     9.6461   9.6461  16.0077  16.0077  18.3660  18.3660  20.8116  20.8116
    22.0319  22.0319  26.3376  26.3376  28.9107  28.9107  31.0286  31.0286
    32.4418  32.4418  35.4920  35.4920

          k = 0.0000 0.3464 0.0000 (  3456 PWs)   bands (ev):

    -4.6064  -4.2440  -2.7838  -2.7668  -2.6907  -2.6463  -2.6275  -2.5903
    -2.5581  -2.4776  -2.3086  -0.6991   4.7287   6.1081   7.2029   8.4917
     9.6961  10.0577  15.4175  16.5740  17.7119  19.1625  20.9495  21.4383
    22.1852  23.7471  23.7835  26.9762  27.0445  29.5107  32.5683  33.9343
    34.4667  34.6119  35.2514  36.7838

          k = 0.0000 0.3464 0.1024 (  3450 PWs)   bands (ev):

    -4.5625  -4.2493  -2.7867  -2.7585  -2.7072  -2.6536  -2.6225  -2.5879
    -2.5537  -2.4840  -2.2560  -0.8949   4.8447   6.3691   7.0292   8.5840
     9.7282   9.9364  15.2461  16.6442  17.8211  19.0303  20.7599  21.5985
    21.9575  23.6212  23.8013  27.3118  27.3576  29.5693  32.1820  33.4633
    34.0373  34.9929  35.2747  36.3814

          k = 0.0000 0.3464 0.2047 (  3448 PWs)   bands (ev):

    -4.4557  -4.2759  -2.7863  -2.7387  -2.7359  -2.6748  -2.6139  -2.5903
    -2.5409  -2.5008  -2.0850  -1.3332   5.1610   6.1911   7.5465   8.8435
     9.4531   9.6199  15.2479  16.4635  17.9966  18.8464  20.5363  21.3018
    22.0263  23.1829  24.4512  27.0157  28.1366  30.3219  31.3522  31.8917
    34.3095  34.9916  35.7932  37.5389

          k = 0.0000 0.3464-0.3071 (  3440 PWs)   bands (ev):

    -4.3449  -4.3449  -2.7693  -2.7693  -2.7049  -2.7049  -2.6015  -2.6015
    -2.5217  -2.5217  -1.7723  -1.7723   5.6347   5.6347   8.6119   8.6120
     9.2178   9.2178  15.7810  15.7810  18.4672  18.4672  20.7021  20.7021
    22.6010  22.6010  25.7055  25.7055  29.5117  29.5117  31.3784  31.3784
    34.6311  34.6311  36.7822  36.7822

          k = 0.0000 0.4619 0.0000 (  3454 PWs)   bands (ev):

    -4.4275  -4.2204  -2.7813  -2.7606  -2.6709  -2.6236  -2.6003  -2.5842
    -2.5205  -2.4705  -1.7510  -0.6075   4.5443   5.7314   6.3555   8.1198
     8.9674   9.8098  15.7873  16.3420  17.0248  19.2187  21.0506  21.2406
    22.7948  23.9962  24.4562  27.2625  28.5880  28.8729  32.3403  34.2445
    35.0213  35.9396  36.0460  36.2887

          k = 0.0000 0.4619 0.1024 (  3457 PWs)   bands (ev):

    -4.3992  -4.2204  -2.7876  -2.7490  -2.6839  -2.6392  -2.6086  -2.5586
    -2.5191  -2.4768  -1.7046  -0.7182   4.3956   5.5913   6.7274   8.2182
     9.1716   9.6766  15.3737  16.1368  17.7415  18.9144  20.9576  21.4697
    22.2125  23.9876  24.2480  27.8172  29.0051  29.0818  31.7139  34.3426
    34.4195  35.4700  36.0393  36.7463

          k = 0.0000 0.4619 0.2047 (  3441 PWs)   bands (ev):

    -4.3320  -4.2296  -2.7937  -2.7382  -2.7172  -2.6343  -2.6074  -2.5486
    -2.5140  -2.4908  -1.5587  -0.9941   4.3456   5.0762   7.7245   8.4954
     9.2881   9.3316  14.9809  15.9494  18.1835  18.7473  20.7894  21.1086
    22.0803  23.6767  24.5936  27.1905  29.7306  30.4624  31.6116  32.4249
    34.6274  35.5324  36.1572  36.7399

          k = 0.0000 0.4619-0.3071 (  3440 PWs)   bands (ev):

    -4.2660  -4.2660  -2.7797  -2.7797  -2.6745  -2.6745  -2.5691  -2.5691
    -2.5046  -2.5046  -1.3091  -1.3091   4.5951   4.5951   8.7437   8.7437
     8.8969   8.8969  15.3319  15.3319  18.5301  18.5301  20.6882  20.6882
    22.8879  22.8879  25.7719  25.7719  30.8491  30.8491  31.5400  31.5400
    35.1175  35.1175  36.4434  36.4434

          k = 0.0000-0.5774 0.0000 (  3434 PWs)   bands (ev):

    -4.3718  -4.2140  -2.7844  -2.7603  -2.6643  -2.6269  -2.5839  -2.5722
    -2.5027  -2.4665  -1.3070  -0.7521   4.2810   5.4413   6.5330   7.9851
     8.5245   9.7168  15.7990  16.2976  16.7830  19.3100  21.0627  21.1428
    23.1592  24.0352  24.7262  27.5550  28.2677  30.0743  32.1249  34.1561
    34.6531  34.7567  36.0904  37.0740

          k = 0.0000-0.5774 0.1024 (  3462 PWs)   bands (ev):

    -4.3489  -4.2124  -2.7915  -2.7479  -2.6757  -2.6458  -2.5931  -2.5441
    -2.5022  -2.4729  -1.2814  -0.7962   4.1201   5.1392   6.9904   8.0856
     8.8190   9.5795  15.4217  15.8408  17.7713  18.8939  21.0431  21.3926
    22.2179  24.2386  24.4894  28.2873  28.7282  30.2738  31.4091  34.1472
    34.6566  35.0769  35.1759  36.7328

          k = 0.0000-0.5774 0.2047 (  3444 PWs)   bands (ev):

    -4.2948  -4.2161  -2.7989  -2.7413  -2.7130  -2.6213  -2.6014  -2.5319
    -2.4998  -2.4853  -1.2019  -0.9168   3.9807   4.5771   7.9421   8.3687
     9.1556   9.2249  14.8689  15.7238  18.3175  18.6141  20.9166  20.9494
    22.0628  23.8434  24.8507  27.4125  30.6709  30.8768  31.3568  33.2851
    34.2349  35.0661  35.1208  36.0605

          k = 0.0000-0.5774-0.3071 (  3428 PWs)   bands (ev):

    -4.2425  -4.2425  -2.7856  -2.7856  -2.6657  -2.6657  -2.5553  -2.5553
    -2.4947  -2.4947  -1.0707  -1.0707   4.1365   4.1365   8.7795   8.7795
     8.8315   8.8315  15.1475  15.1475  18.4902  18.4902  20.6906  20.6906
    22.9587  22.9588  25.9708  25.9708  31.6354  31.6354  31.8892  31.8892
    34.7101  34.7101  35.4525  35.4525

          k = 0.1000 0.1732 0.0000 (  3465 PWs)   bands (ev):

    -4.9546  -4.3034  -2.8118  -2.8002  -2.7459  -2.7459  -2.6960  -2.6080
    -2.5887  -2.5301  -2.4839  -0.9950   4.1022   8.0419   8.6153   9.3259
    10.3542  10.3724  14.2805  16.4259  19.1195  19.1609  21.3866  21.4335
    21.5066  23.0814  24.2163  24.8490  28.8747  29.0724  30.0186  31.1838
    32.3606  32.8565  34.7316  35.6760

          k = 0.1000 0.1732 0.1024 (  3461 PWs)   bands (ev):

    -4.8876  -4.3199  -2.8094  -2.7968  -2.7516  -2.7450  -2.6913  -2.5824
    -2.5810  -2.5370  -2.4877  -1.2504   4.5286   8.1631   8.4374   9.2391
    10.2373  10.2548  14.5442  16.4643  18.8525  19.1622  20.9198  21.3128
    21.5884  22.8061  24.9130  25.1763  28.8719  29.2707  30.4751  31.0345
    32.0554  32.9234  34.0624  36.0407

          k = 0.1000 0.1732 0.2047 (  3460 PWs)   bands (ev):

    -4.7161  -4.3836  -2.8002  -2.7864  -2.7661  -2.7517  -2.6609  -2.5775
    -2.5473  -2.5183  -2.4630  -1.7710   5.5362   7.7428   8.5215   9.3222
     9.7868   9.9948  15.2178  16.4463  18.3705  18.9567  20.4382  21.2146
    21.6370  22.3209  25.9991  26.1352  28.3143  29.7684  30.4577  31.2646
    31.9507  32.4288  34.2402  36.0667

          k = 0.1000 0.1732-0.3071 (  3474 PWs)   bands (ev):

    -4.5210  -4.5210  -2.7852  -2.7852  -2.7683  -2.7683  -2.6115  -2.6115
    -2.5309  -2.5309  -2.2207  -2.2207   6.7031   6.7031   9.0747   9.0747
     9.6765   9.6765  15.9949  15.9949  18.4255  18.4255  20.7796  20.7796
    21.8809  21.8809  26.8043  26.8043  28.3718  28.3719  31.1033  31.1033
    32.3000  32.3000  34.6666  34.6666

          k = 0.1000 0.2887 0.0000 (  3455 PWs)   bands (ev):

    -4.6952  -4.2575  -2.7825  -2.7787  -2.7066  -2.6836  -2.6248  -2.5750
    -2.5662  -2.5107  -2.4231  -0.7736   4.5755   6.7533   7.5093   8.5671
     9.9457   9.9531  15.3098  17.1517  18.0741  18.8507  20.7099  21.4106
    21.7592  23.7592  24.0697  25.3445  28.5255  30.4000  31.0598  32.5468
    34.1586  34.1805  35.0325  36.0941

          k = 0.1000 0.2887 0.1024 (  3448 PWs)   bands (ev):

    -4.6444  -4.2653  -2.7808  -2.7746  -2.7178  -2.6918  -2.6162  -2.5882
    -2.5549  -2.5087  -2.3815  -0.9917   4.8417   6.9345   7.3689   8.5646
     9.8035   9.9564  15.3266  17.2027  17.9746  18.8180  20.5573  21.2627
    21.8166  23.3854  24.4164  25.7246  28.5458  30.3682  31.4946  32.1300
    33.1014  34.2555  35.5837  36.4985

          k = 0.1000 0.2887 0.2047 (  3457 PWs)   bands (ev):

    -4.5193  -4.3007  -2.7772  -2.7554  -2.7373  -2.7076  -2.6177  -2.6061
    -2.5399  -2.5129  -2.2249  -1.4646   5.4307   6.7127   7.7530   8.7282
     9.4452   9.6394  15.5924  16.9661  17.9500  18.7285  20.2818  20.9929
    22.0045  22.8980  25.1082  26.4001  28.2037  29.9082  31.4079  32.0674
    33.6386  34.3792  35.1242  36.7396

          k = 0.1000 0.2887-0.3071 (  3464 PWs)   bands (ev):

    -4.3864  -4.3864  -2.7605  -2.7605  -2.7289  -2.7289  -2.6187  -2.6187
    -2.5248  -2.5248  -1.9182  -1.9182   6.0848   6.0848   8.6606   8.6606
     9.1481   9.1481  16.2357  16.2357  18.3525  18.3525  20.5084  20.5084
    22.4124  22.4124  26.1168  26.1168  28.5453  28.5453  32.0898  32.0898
    34.0320  34.0320  35.7605  35.7605

          k = 0.1000 0.4041 0.0000 (  3458 PWs)   bands (ev):

    -4.4752  -4.2270  -2.7833  -2.7586  -2.6652  -2.6335  -2.6224  -2.5856
    -2.5377  -2.4850  -1.9813  -0.5846   4.8261   5.8763   6.5918   7.8883
     9.3050   9.5795  16.1031  16.9392  17.2218  19.0619  20.5734  21.4257
    22.0358  24.1139  24.4827  26.5820  28.5644  29.6164  32.0819  34.1905
    34.5033  35.0400  35.8518  36.5395

          k = 0.1000 0.4041 0.1024 (  3456 PWs)   bands (ev):

    -4.4423  -4.2282  -2.7765  -2.7600  -2.6867  -2.6361  -2.6206  -2.5802
    -2.5305  -2.4929  -1.9292  -0.7343   4.7316   5.9843   6.7366   7.9625
     9.3619   9.5198  15.7365  16.9259  17.6047  18.9553  20.5106  21.1784
    22.0956  23.7878  24.5907  26.8065  28.6815  29.9768  31.8246  33.1692
    34.5647  35.1957  36.3170  37.0834

          k = 0.1000 0.4041 0.2047 (  3438 PWs)   bands (ev):

    -4.3637  -4.2414  -2.7759  -2.7403  -2.7196  -2.6574  -2.6107  -2.5785
    -2.5213  -2.5040  -1.7630  -1.0894   4.7785   5.5747   7.6099   8.2646
     8.9983   9.4913  15.4968  16.6049  18.0473  18.9297  20.3845  20.6553
    22.2641  23.3861  24.9549  26.6921  28.8713  30.3407  31.6706  32.4991
    34.8941  35.5574  36.2278  36.9726

          k = 0.1000 0.4041-0.3071 (  3442 PWs)   bands (ev):

    -4.2858  -4.2858  -2.7627  -2.7627  -2.6911  -2.6911  -2.5948  -2.5948
    -2.5119  -2.5119  -1.4722  -1.4722   5.0895   5.0895   8.4203   8.4203
     8.9380   8.9380  15.8974  15.8974  18.6153  18.6153  20.3432  20.3432
    22.8000  22.8000  25.8049  25.8049  29.5696  29.5696  32.2064  32.2065
    35.4131  35.4131  36.5290  36.5290

          k = 0.1000 0.5196 0.0000 (  3454 PWs)   bands (ev):

    -4.3663  -4.2157  -2.7911  -2.7527  -2.6504  -2.6261  -2.5912  -2.5796
    -2.5152  -2.4776  -1.3951  -0.6446   4.4477   5.5713   6.5134   7.5867
     8.6173   9.3647  16.4039  16.6570  16.7985  19.2260  20.7194  21.0840
    23.0430  24.1682  24.4758  27.8263  28.5208  29.6146  31.8528  33.9531
    34.6983  35.4167  36.0696  36.6134

          k = 0.1000 0.5196 0.1024 (  3454 PWs)   bands (ev):

    -4.3436  -4.2135  -2.7844  -2.7536  -2.6720  -2.6318  -2.6024  -2.5526
    -2.5131  -2.4857  -1.3600  -0.7066   4.2885   5.2974   6.9110   7.7411
     8.8725   9.2285  15.7517  16.5245  17.7321  18.8748  20.6833  20.9383
    22.7092  24.0768  24.5624  27.9139  28.9190  30.0310  31.4728  33.4530
    34.6569  35.3291  36.2528  36.7580

          k = 0.1000 0.5196 0.2047 (  3445 PWs)   bands (ev):

    -4.2903  -4.2156  -2.7838  -2.7339  -2.7218  -2.6298  -2.5984  -2.5439
    -2.5096  -2.4980  -1.2526  -0.8719   4.1620   4.7601   7.6080   8.2872
     8.7232   9.2985  15.2961  16.2893  18.2977  18.7765  20.2538  20.6411
    22.5712  23.7360  25.0331  27.1359  29.7179  31.0182  31.6793  32.3556
    34.6928  35.1656  36.3507  36.5976

          k = 0.1000 0.5196-0.3071 (  3440 PWs)   bands (ev):

    -4.2399  -4.2399  -2.7716  -2.7716  -2.6748  -2.6748  -2.5646  -2.5646
    -2.5044  -2.5044  -1.0777  -1.0777   4.3264   4.3264   8.1863   8.1863
     9.0320   9.0320  15.5987  15.5987  18.6646  18.6646  20.2570  20.2570
    23.0682  23.0682  25.9824  25.9824  30.6292  30.6292  32.0689  32.0689
    35.0555  35.0555  36.4104  36.4104

          k = 0.2000 0.3464 0.0000 (  3452 PWs)   bands (ev):

    -4.4935  -4.2299  -2.7951  -2.7355  -2.6768  -2.6481  -2.6309  -2.5744
    -2.5439  -2.5020  -2.0512  -0.5787   4.9339   6.3728   6.3776   7.7109
     9.2692   9.4516  16.3629  17.2940  18.1780  18.3196  20.4650  21.0763
    21.5602  24.5115  24.6571  25.5523  30.2788  30.4627  30.6100  33.1302
    33.7873  35.1826  35.3553  36.8926

          k = 0.2000 0.3464 0.1024 (  3440 PWs)   bands (ev):

    -4.4586  -4.2314  -2.7830  -2.7440  -2.6843  -2.6695  -2.6024  -2.5937
    -2.5295  -2.5123  -1.9980  -0.7425   4.9215   6.2409   6.8159   7.6595
     9.1030   9.5872  16.2088  17.2315  18.2985  18.4070  20.3379  20.6879
    21.7896  24.1369  24.8328  25.8429  29.4592  30.7795  31.7602  31.7635
    34.0507  35.4196  36.1424  36.8662

          k = 0.2000 0.3464 0.2047 (  3449 PWs)   bands (ev):

    -4.3756  -4.2459  -2.7528  -2.7527  -2.7057  -2.6863  -2.6156  -2.5972
    -2.5197  -2.5156  -1.8280  -1.1243   5.0496   5.8477   7.7872   7.7875
     8.6996   9.5415  16.1011  16.9527  18.4898  18.5627  20.0977  20.2474
    22.1195  23.4432  25.3055  26.2048  29.0247  29.4844  32.5938  32.6640
    34.3625  35.7098  36.2336  36.5371

          k = 0.2000 0.3464-0.3071 (  3450 PWs)   bands (ev):

    -4.2931  -4.2931  -2.7428  -2.7428  -2.7068  -2.7068  -2.6168  -2.6168
    -2.5132  -2.5132  -1.5270  -1.5270   5.3868   5.3868   8.1542   8.1542
     8.8977   8.8977  16.4374  16.4374  18.6015  18.6015  20.0348  20.0348
    22.7066  22.7066  25.9345  25.9345  28.9217  28.9217  32.8725  32.8725
    35.4035  35.4035  36.4161  36.4161

          k = 0.2000 0.4619 0.0000 (  3447 PWs)   bands (ev):

    -4.3566  -4.2193  -2.8111  -2.7098  -2.6375  -2.6299  -2.6155  -2.5862
    -2.5305  -2.4990  -1.4930  -0.5153   4.8754   5.6564   6.6000   6.9134
     8.7268   8.8052  16.5276  17.2618  17.9726  18.9239  20.3111  21.0955
    22.0393  24.3240  24.5891  26.8882  30.0505  30.3927  31.4372  32.6351
    33.9826  35.4073  35.7357  36.8452

          k = 0.2000 0.4619 0.1024 (  3448 PWs)   bands (ev):

    -4.3343  -4.2160  -2.7962  -2.7233  -2.6640  -2.6323  -2.6049  -2.5804
    -2.5218  -2.5108  -1.4480  -0.6013   4.6992   5.4976   6.7471   7.2484
     8.5420   9.0618  16.4359  17.2407  18.0586  18.8643  20.2302  20.5022
    22.3543  24.2778  24.7783  26.7347  29.5620  30.4997  31.6277  32.6621
    34.2726  35.3296  36.5533  36.8506

          k = 0.2000 0.4619 0.2047 (  3453 PWs)   bands (ev):

    -4.2827  -4.2153  -2.7594  -2.7386  -2.7018  -2.6503  -2.6007  -2.5783
    -2.5239  -2.5094  -1.3110  -0.8226   4.5643   5.0861   7.0022   7.9877
     8.2644   9.3657  16.2172  16.9908  18.3309  18.9652  19.6711  20.1018
    22.6798  23.8815  25.2580  26.3846  29.2087  29.9852  32.5371  32.7775
    34.8661  35.1800  36.6891  37.1318

          k = 0.2000 0.4619-0.3071 (  3454 PWs)   bands (ev):

    -4.2356  -4.2356  -2.7420  -2.7420  -2.6894  -2.6894  -2.5948  -2.5948
    -2.5123  -2.5123  -1.0884  -1.0884   4.7098   4.7098   7.4709   7.4709
     9.0794   9.0794  16.4174  16.4174  18.7738  18.7738  19.7297  19.7297
    23.1930  23.1930  25.8304  25.8304  29.5243  29.5243  32.7453  32.7453
    35.2597  35.2597  37.0846  37.0846

          k = 0.2000 0.5774 0.0000 (  3452 PWs)   bands (ev):

    -4.3086  -4.2204  -2.8179  -2.7055  -2.6241  -2.6234  -2.5966  -2.5867
    -2.5351  -2.4971  -1.0841  -0.6467   4.6884   5.5572   6.3092   7.1954
     8.2825   8.5790  16.2275  17.6328  17.8417  19.0905  20.4195  20.8546
    23.3270  23.5027  24.3096  28.6250  28.6930  30.4344  31.1457  32.2565
    35.2154  36.0092  36.1279  36.9927

          k = 0.2000 0.5774 0.1024 (  3449 PWs)   bands (ev):

    -4.2910  -4.2149  -2.8018  -2.7189  -2.6589  -2.6122  -2.6097  -2.5559
    -2.5335  -2.5098  -1.0595  -0.6767   4.5291   5.2672   6.3906   7.6418
     8.3065   8.6883  16.2108  17.7723  17.8279  18.7420  20.2200  20.5759
    23.2235  23.7786  24.6386  27.9771  28.5117  30.7412  31.1853  32.5905
    35.1009  35.4922  36.9705  37.0063

          k = 0.2000 0.5774 0.2047 (  3450 PWs)   bands (ev):

    -4.2514  -4.2077  -2.7631  -2.7308  -2.7099  -2.6367  -2.5875  -2.5525
    -2.5285  -2.5215  -0.9873  -0.7616   4.3406   4.7599   6.7075   7.8139
     8.5068   9.1856  16.1013  17.2389  18.3426  18.5363  19.7744  20.1280
    23.2274  23.9115  25.2513  26.7234  28.7686  30.2804  32.2461  32.5830
    35.2563  35.2853  37.0871  37.6473

          k = 0.2000 0.5774-0.3071 (  3440 PWs)   bands (ev):

    -4.2175  -4.2175  -2.7428  -2.7428  -2.6876  -2.6876  -2.5701  -2.5701
    -2.5220  -2.5220  -0.8781  -0.8781   4.4068   4.4068   7.2194   7.2194
     9.1712   9.1712  16.3792  16.3792  18.7577  18.7578  19.6437  19.6437
    23.5472  23.5472  25.8733  25.8733  29.5119  29.5119  32.5651  32.5651
    35.4409  35.4409  37.4642  37.4642

          k = 0.3000 0.5196 0.0000 (  3456 PWs)   bands (ev):

    -4.2783  -4.2304  -2.8298  -2.6560  -2.6243  -2.6224  -2.6072  -2.5945
    -2.5496  -2.5087  -0.9895  -0.6087   5.1830   5.3086   5.9070   7.3316
     8.1288   8.1562  16.0101  18.1786  18.6860  18.9503  20.4020  20.7478
    22.6946  23.8611  23.9022  28.1386  29.7623  30.1668  31.4307  32.5502
    33.9404  35.8658  36.2757  36.8681

          k = 0.3000 0.5196 0.1024 (  3465 PWs)   bands (ev):

    -4.2638  -4.2225  -2.8127  -2.6824  -2.6556  -2.6246  -2.5844  -2.5809
    -2.5432  -2.5252  -0.9660  -0.6331   4.9368   5.1828   5.8844   7.7670
     7.9239   8.5219  16.3204  17.8505  18.5398  18.8783  20.1558  20.2352
    23.1264  24.1552  24.1960  27.5815  29.0499  29.5910  32.4332  32.7538
    34.5302  35.5887  37.1461  37.2336

          k = 0.3000 0.5196 0.2047 (  3449 PWs)   bands (ev):

    -4.2321  -4.2085  -2.7652  -2.7130  -2.6958  -2.6431  -2.5776  -2.5702
    -2.5437  -2.5320  -0.8987  -0.7030   4.6225   4.8179   6.1655   7.3375
     8.6508   9.1081  16.9301  17.1970  18.0720  18.6909  19.6910  19.9550
    23.5575  24.5115  24.7975  26.2426  28.6373  29.2874  32.9494  32.9496
    35.4668  35.5422  37.5081  37.5760

          k = 0.3000 0.5196-0.3071 (  3450 PWs)   bands (ev):

    -4.2087  -4.2087  -2.7221  -2.7221  -2.6961  -2.6961  -2.5784  -2.5784
    -2.5321  -2.5321  -0.8017  -0.8017   4.5736   4.5736   6.7016   6.7016
     9.2212   9.2212  16.9530  16.9530  18.2830  18.2830  19.7228  19.7228
    24.0938  24.0938  25.3906  25.3906  28.9247  28.9247  32.9887  32.9887
    35.6794  35.6794  37.5343  37.5343

          k = 0.0000-0.1155 0.1024 (  3462 PWs)   bands (ev):

    -5.0497  -4.3627  -2.8295  -2.8190  -2.7854  -2.7689  -2.7638  -2.5830
    -2.5802  -2.5129  -2.4935  -1.3976   4.3073   9.0408   9.4155   9.5480
    10.4012  10.5356  13.8666  15.6399  19.3952  19.9626  20.9306  20.9615
    21.8692  22.4210  25.0888  26.3272  27.4467  28.7313  29.7773  30.1161
    30.7834  32.9993  33.8293  34.2773

          k = 0.0000-0.1155 0.2047 (  3473 PWs)   bands (ev):

    -4.8530  -4.4469  -2.8188  -2.8119  -2.7881  -2.7798  -2.6993  -2.5580
    -2.5458  -2.5281  -2.5081  -1.9356   5.4527   8.2474   9.3118   9.7463
    10.0617  10.3159  14.7284  15.6902  18.9348  19.4351  20.6277  21.0843
    21.5098  21.9113  26.1240  27.4432  27.8697  28.5753  30.0246  30.3269
    31.8893  32.7751  32.8954  34.7641

          k = 0.0000-0.2309 0.1024 (  3463 PWs)   bands (ev):

    -4.8175  -4.3030  -2.8043  -2.7858  -2.7455  -2.7142  -2.6655  -2.5905
    -2.5764  -2.5240  -2.4896  -1.1822   4.6240   7.6063   8.2596   9.0845
    10.1277  10.2670  14.7166  16.5762  18.4556  19.2515  20.8267  21.4348
    21.7386  22.9393  24.0857  26.2588  27.5101  30.2084  30.7443  32.0347
    32.6763  33.2112  33.8238  35.7731

          k = 0.0000-0.2309 0.2047 (  3455 PWs)   bands (ev):

    -4.6584  -4.3583  -2.7955  -2.7732  -2.7613  -2.7317  -2.6468  -2.5857
    -2.5562  -2.5062  -2.4204  -1.6932   5.5385   7.4299   8.1734   9.3157
     9.6182   9.9961  15.2606  16.5421  18.1885  18.8794  20.4989  21.3522
    21.6545  22.5078  25.1020  27.3244  27.4017  30.3549  30.7929  31.0075
    32.3521  33.2992  34.0457  35.9945

          k = 0.0000-0.3464 0.1024 (  3450 PWs)   bands (ev):

    -4.5625  -4.2493  -2.7867  -2.7585  -2.7072  -2.6536  -2.6225  -2.5879
    -2.5537  -2.4840  -2.2560  -0.8949   4.8447   6.3691   7.0292   8.5840
     9.7282   9.9364  15.2461  16.6442  17.8211  19.0303  20.7599  21.5985
    21.9575  23.6212  23.8013  27.3118  27.3576  29.5693  32.1820  33.4633
    34.0373  34.9929  35.2747  36.3814

          k = 0.0000-0.3464 0.2047 (  3448 PWs)   bands (ev):

    -4.4557  -4.2759  -2.7863  -2.7387  -2.7359  -2.6748  -2.6139  -2.5903
    -2.5409  -2.5008  -2.0850  -1.3332   5.1610   6.1911   7.5465   8.8435
     9.4531   9.6199  15.2479  16.4635  17.9966  18.8464  20.5363  21.3018
    22.0263  23.1829  24.4512  27.0157  28.1366  30.3219  31.3522  31.8917
    34.3095  34.9916  35.7932  37.5397

          k = 0.0000-0.4619 0.1024 (  3457 PWs)   bands (ev):

    -4.3992  -4.2204  -2.7876  -2.7490  -2.6839  -2.6392  -2.6086  -2.5586
    -2.5191  -2.4768  -1.7046  -0.7182   4.3956   5.5913   6.7274   8.2182
     9.1716   9.6766  15.3737  16.1368  17.7415  18.9144  20.9576  21.4697
    22.2125  23.9876  24.2480  27.8172  29.0051  29.0818  31.7139  34.3426
    34.4195  35.4701  36.0393  36.7463

          k = 0.0000-0.4619 0.2047 (  3441 PWs)   bands (ev):

    -4.3320  -4.2296  -2.7937  -2.7382  -2.7172  -2.6343  -2.6074  -2.5486
    -2.5140  -2.4908  -1.5587  -0.9941   4.3456   5.0762   7.7245   8.4954
     9.2881   9.3316  14.9809  15.9494  18.1835  18.7473  20.7894  21.1086
    22.0803  23.6767  24.5936  27.1905  29.7306  30.4624  31.6116  32.4249
    34.6274  35.5324  36.1572  36.7399

          k =-0.1000-0.2887 0.1024 (  3448 PWs)   bands (ev):

    -4.6444  -4.2653  -2.7808  -2.7746  -2.7178  -2.6918  -2.6162  -2.5882
    -2.5549  -2.5087  -2.3815  -0.9917   4.8417   6.9345   7.3689   8.5646
     9.8035   9.9564  15.3266  17.2027  17.9746  18.8180  20.5573  21.2627
    21.8166  23.3854  24.4164  25.7246  28.5457  30.3682  31.4946  32.1300
    33.1014  34.2555  35.5837  36.4985

          k =-0.1000-0.2887 0.2047 (  3457 PWs)   bands (ev):

    -4.5193  -4.3007  -2.7772  -2.7554  -2.7373  -2.7076  -2.6177  -2.6061
    -2.5399  -2.5129  -2.2249  -1.4646   5.4307   6.7127   7.7530   8.7282
     9.4452   9.6394  15.5924  16.9661  17.9500  18.7285  20.2818  20.9929
    22.0045  22.8980  25.1082  26.4001  28.2037  29.9082  31.4079  32.0674
    33.6386  34.3792  35.1242  36.7396

          k =-0.1000-0.4041 0.1024 (  3456 PWs)   bands (ev):

    -4.4423  -4.2282  -2.7765  -2.7600  -2.6867  -2.6361  -2.6206  -2.5802
    -2.5305  -2.4929  -1.9292  -0.7343   4.7316   5.9843   6.7366   7.9625
     9.3619   9.5198  15.7365  16.9259  17.6047  18.9553  20.5106  21.1784
    22.0956  23.7878  24.5907  26.8065  28.6815  29.9768  31.8246  33.1692
    34.5647  35.1957  36.3170  37.0834

          k =-0.1000-0.4041 0.2047 (  3438 PWs)   bands (ev):

    -4.3637  -4.2414  -2.7759  -2.7403  -2.7196  -2.6574  -2.6107  -2.5785
    -2.5213  -2.5040  -1.7630  -1.0894   4.7785   5.5747   7.6099   8.2646
     8.9983   9.4913  15.4968  16.6049  18.0473  18.9297  20.3845  20.6553
    22.2641  23.3861  24.9549  26.6921  28.8713  30.3407  31.6706  32.4991
    34.8941  35.5574  36.2278  36.9726

          k =-0.1000-0.5196 0.1024 (  3454 PWs)   bands (ev):

    -4.3436  -4.2135  -2.7844  -2.7536  -2.6720  -2.6318  -2.6024  -2.5526
    -2.5131  -2.4857  -1.3600  -0.7066   4.2885   5.2974   6.9110   7.7411
     8.8725   9.2285  15.7517  16.5245  17.7321  18.8748  20.6833  20.9383
    22.7092  24.0768  24.5624  27.9139  28.9190  30.0310  31.4728  33.4530
    34.6569  35.3291  36.2529  36.7580

          k =-0.1000-0.5196 0.2047 (  3445 PWs)   bands (ev):

    -4.2903  -4.2156  -2.7838  -2.7339  -2.7218  -2.6298  -2.5984  -2.5439
    -2.5096  -2.4980  -1.2526  -0.8719   4.1620   4.7601   7.6080   8.2872
     8.7232   9.2985  15.2961  16.2893  18.2977  18.7765  20.2538  20.6411
    22.5712  23.7360  25.0332  27.1359  29.7179  31.0182  31.6793  32.3556
    34.6928  35.1656  36.3507  36.5976

          k =-0.2000-0.4619 0.1024 (  3448 PWs)   bands (ev):

    -4.3343  -4.2160  -2.7962  -2.7233  -2.6640  -2.6323  -2.6049  -2.5803
    -2.5218  -2.5108  -1.4480  -0.6013   4.6992   5.4976   6.7471   7.2484
     8.5420   9.0618  16.4359  17.2407  18.0586  18.8643  20.2302  20.5022
    22.3543  24.2778  24.7783  26.7347  29.5620  30.4997  31.6277  32.6621
    34.2726  35.3296  36.5533  36.8505

          k =-0.2000-0.4619 0.2047 (  3453 PWs)   bands (ev):

    -4.2827  -4.2153  -2.7594  -2.7386  -2.7018  -2.6503  -2.6007  -2.5783
    -2.5239  -2.5094  -1.3110  -0.8226   4.5643   5.0861   7.0022   7.9877
     8.2644   9.3657  16.2172  16.9908  18.3309  18.9653  19.6711  20.1018
    22.6798  23.8815  25.2580  26.3846  29.2087  29.9852  32.5371  32.7775
    34.8661  35.1800  36.6891  37.1318

     the Fermi energy is    10.8393 ev

!    total energy              =    -302.53061769 Ry
     estimated scf accuracy    <          3.3E-11 Ry
     smearing contrib. (-TS)   =      -0.00000000 Ry
     internal energy E=F+TS    =    -302.53061769 Ry

     The total energy is F=E-TS. E is the sum of the following terms:
     one-electron contribution =    -107.89456765 Ry
     hartree contribution      =      85.10643157 Ry
     xc contribution           =     -46.56764696 Ry
     ewald contribution        =    -233.17483464 Ry

     convergence has been achieved in  11 iterations

     Writing all to output data dir out/mp-804.save/
 
     init_run     :      0.42s CPU      0.49s WALL (       1 calls)
     electrons    :     17.28s CPU     18.86s WALL (       1 calls)

     Called by init_run:
     wfcinit      :      0.39s CPU      0.44s WALL (       1 calls)
     potinit      :      0.01s CPU      0.01s WALL (       1 calls)
     hinit0       :      0.01s CPU      0.03s WALL (       1 calls)

     Called by electrons:
     c_bands      :     15.35s CPU     16.66s WALL (      11 calls)
     sum_band     :      1.88s CPU      2.12s WALL (      11 calls)
     v_of_rho     :      0.03s CPU      0.03s WALL (      12 calls)
     mix_rho      :      0.01s CPU      0.02s WALL (      11 calls)

     Called by c_bands:
     init_us_2    :      0.09s CPU      0.10s WALL (    1656 calls)
     init_us_2:cp :      0.09s CPU      0.10s WALL (    1656 calls)
     cegterg      :     14.68s CPU     15.35s WALL (     792 calls)

     Called by *egterg:
     cdiaghg      :      4.36s CPU      4.45s WALL (    3135 calls)
     h_psi        :      9.28s CPU      9.85s WALL (    3207 calls)
     g_psi        :      0.04s CPU      0.05s WALL (    2343 calls)

     Called by h_psi:
     h_psi:calbec :      0.33s CPU      0.35s WALL (    3207 calls)
     vloc_psi     :      8.72s CPU      9.25s WALL (    3207 calls)
     add_vuspsi   :      0.19s CPU      0.21s WALL (    3207 calls)

     General routines
     calbec       :      0.32s CPU      0.34s WALL (    3207 calls)
     fft          :      0.01s CPU      0.03s WALL (     119 calls)
     ffts         :      0.00s CPU      0.00s WALL (      11 calls)
     fftw         :      9.63s CPU     10.25s WALL (  189462 calls)
     davcio       :      0.16s CPU      0.74s WALL (    2646 calls)
 
     Parallel routines
 
     PWSCF        :     18.00s CPU     19.93s WALL

 
   This run was terminated on:  16: 4:42  14Nov2023            

=------------------------------------------------------------------------------=
   JOB DONE.
=------------------------------------------------------------------------------=
