
     Program PWSCF v.7.1 starts on 18Dec2023 at 13:36:49 

     This program is part of the open-source Quantum ESPRESSO suite
     for quantum simulation of materials; please cite
         "P. Giannozzi et al., J. Phys.:Condens. Matter 21 395502 (2009);
         "P. Giannozzi et al., J. Phys.:Condens. Matter 29 465901 (2017);
         "P. Giannozzi et al., J. Chem. Phys. 152 154105 (2020);
          URL http://www.quantum-espresso.org", 
     in publications or presentations arising from this work. More details at
     http://www.quantum-espresso.org/quote

     Parallel version (MPI), running on    24 processors

     MPI processes distributed on     1 nodes
     123703 MiB available memory on the printing compute node when the environment starts
 
     Reading input from aiida_nscf.in

     Current dimensions of program PWSCF are:
     Max number of different atomic species (ntypx) = 10
     Max number of k-points (npk) =  40000
     Max angular momentum in pseudopotentials (lmaxx) =  4

     Atomic positions and unit cell read from directory:
     ./out/aiida.save/
     Atomic positions from file used, from input discarded
 
     Message from routine setup:
     using ibrav=0 with symmetry is DISCOURAGED, use correct ibrav instead
 
     K-points division:     npool     =       2
     R & G space division:  proc/nbgrp/npool/nimage =      12
     Subspace diagonalization in iterative solution of the eigenvalue problem:
     one sub-group per band group will be used
     scalapack distributed-memory algorithm (size of sub-group:  3*  3 procs)

 
     Parallelization info
     --------------------
     sticks:   dense  smooth     PW     G-vecs:    dense   smooth      PW
     Min          86      86     26                 1839     1839     293
     Max          87      87     27                 1841     1841     295
     Sum        1039    1039    313                22075    22075    3527
 
     Using Slab Decomposition
 


     bravais-lattice index     =            0
     lattice parameter (alat)  =       7.2005  a.u.
     unit-cell volume          =     263.9777 (a.u.)^3
     number of atoms/cell      =            2
     number of atomic types    =            1
     number of electrons       =         8.00
     number of Kohn-Sham states=         1000
     kinetic-energy cutoff     =      72.0000  Ry
     charge density cutoff     =     288.0000  Ry
     Exchange-correlation= PBE
                           (   1   4   3   4   0   0   0)

     celldm(1)=   7.200468  celldm(2)=   0.000000  celldm(3)=   0.000000
     celldm(4)=   0.000000  celldm(5)=   0.000000  celldm(6)=   0.000000

     crystal axes: (cart. coord. in units of alat)
               a(1) = (  -0.707107   0.000000   0.707107 )  
               a(2) = (   0.000000   0.707107   0.707107 )  
               a(3) = (  -0.707107   0.707107   0.000000 )  

     reciprocal axes: (cart. coord. in units 2 pi/alat)
               b(1) = ( -0.707107 -0.707107  0.707107 )  
               b(2) = (  0.707107  0.707107  0.707107 )  
               b(3) = ( -0.707107  0.707107 -0.707107 )  


     PseudoPot. # 1 for Si read from file:
     /usr/scratch4/magr4985/MG/HTDF/pseudo/SG15/Si.upf
     MD5 check sum: 7f029a58b69e3aa87b46a36c608bf45e
     Pseudo is Norm-conserving, Zval =  4.0
     Generated using ONCVPSP code by D. R. Hamann
     Using radial grid of  602 points,  4 beta functions with: 
                l(1) =   0
                l(2) =   0
                l(3) =   1
                l(4) =   1

     atomic species   valence    mass     pseudopotential
        Si             4.00    28.08500     Si( 1.00)

     24 Sym. Ops. (no inversion) found


                                    s                        frac. trans.

      isym =  1     identity                                     

 cryst.   s( 1) = (     1          0          0      )
                  (     0          1          0      )
                  (     0          0          1      )

 cart.    s( 1) = (  1.0000000  0.0000000  0.0000000 )
                  (  0.0000000  1.0000000  0.0000000 )
                  (  0.0000000  0.0000000  1.0000000 )


      isym =  2     180 deg rotation - cart. axis [0,0,1]        

 cryst.   s( 2) = (     0          1         -1      )
                  (     1          0         -1      )
                  (     0          0         -1      )

 cart.    s( 2) = ( -1.0000000  0.0000000  0.0000000 )
                  (  0.0000000 -1.0000000  0.0000000 )
                  (  0.0000000  0.0000000  1.0000000 )


      isym =  3     180 deg rotation - cart. axis [0,1,0]        

 cryst.   s( 3) = (    -1          0          0      )
                  (    -1          0          1      )
                  (    -1          1          0      )

 cart.    s( 3) = ( -1.0000000  0.0000000  0.0000000 )
                  (  0.0000000  1.0000000  0.0000000 )
                  (  0.0000000  0.0000000 -1.0000000 )


      isym =  4     180 deg rotation - cart. axis [1,0,0]        

 cryst.   s( 4) = (     0         -1          1      )
                  (     0         -1          0      )
                  (     1         -1          0      )

 cart.    s( 4) = (  1.0000000  0.0000000  0.0000000 )
                  (  0.0000000 -1.0000000  0.0000000 )
                  (  0.0000000  0.0000000 -1.0000000 )


      isym =  5     120 deg rotation - cart. axis [-1,-1,-1]     

 cryst.   s( 5) = (    -1          0          1      )
                  (    -1          1          0      )
                  (    -1          0          0      )

 cart.    s( 5) = (  0.0000000  1.0000000  0.0000000 )
                  (  0.0000000  0.0000000  1.0000000 )
                  (  1.0000000  0.0000000  0.0000000 )


      isym =  6     120 deg rotation - cart. axis [-1,1,1]       

 cryst.   s( 6) = (     0          1          0      )
                  (     0          0          1      )
                  (     1          0          0      )

 cart.    s( 6) = (  0.0000000 -1.0000000  0.0000000 )
                  (  0.0000000  0.0000000  1.0000000 )
                  ( -1.0000000  0.0000000  0.0000000 )


      isym =  7     120 deg rotation - cart. axis [1,1,-1]       

 cryst.   s( 7) = (     1          0         -1      )
                  (     0          0         -1      )
                  (     0          1         -1      )

 cart.    s( 7) = (  0.0000000  1.0000000  0.0000000 )
                  (  0.0000000  0.0000000 -1.0000000 )
                  ( -1.0000000  0.0000000  0.0000000 )


      isym =  8     120 deg rotation - cart. axis [1,-1,1]       

 cryst.   s( 8) = (     0         -1          0      )
                  (     1         -1          0      )
                  (     0         -1          1      )

 cart.    s( 8) = (  0.0000000 -1.0000000  0.0000000 )
                  (  0.0000000  0.0000000 -1.0000000 )
                  (  1.0000000  0.0000000  0.0000000 )


      isym =  9     120 deg rotation - cart. axis [1,1,1]        

 cryst.   s( 9) = (     0          0         -1      )
                  (     0          1         -1      )
                  (     1          0         -1      )

 cart.    s( 9) = (  0.0000000  0.0000000  1.0000000 )
                  (  1.0000000  0.0000000  0.0000000 )
                  (  0.0000000  1.0000000  0.0000000 )


      isym = 10     120 deg rotation - cart. axis [-1,1,-1]      

 cryst.   s(10) = (    -1          1          0      )
                  (    -1          0          0      )
                  (    -1          0          1      )

 cart.    s(10) = (  0.0000000  0.0000000  1.0000000 )
                  ( -1.0000000  0.0000000  0.0000000 )
                  (  0.0000000 -1.0000000  0.0000000 )


      isym = 11     120 deg rotation - cart. axis [1,-1,-1]      

 cryst.   s(11) = (     0          0          1      )
                  (     1          0          0      )
                  (     0          1          0      )

 cart.    s(11) = (  0.0000000  0.0000000 -1.0000000 )
                  ( -1.0000000  0.0000000  0.0000000 )
                  (  0.0000000  1.0000000  0.0000000 )


      isym = 12     120 deg rotation - cart. axis [-1,-1,1]      

 cryst.   s(12) = (     1         -1          0      )
                  (     0         -1          1      )
                  (     0         -1          0      )

 cart.    s(12) = (  0.0000000  0.0000000 -1.0000000 )
                  (  1.0000000  0.0000000  0.0000000 )
                  (  0.0000000 -1.0000000  0.0000000 )


      isym = 13     inv. 180 deg rotation - cart. axis [1,1,0]   

 cryst.   s(13) = (     0          1          0      )
                  (     1          0          0      )
                  (     0          0          1      )

 cart.    s(13) = (  0.0000000 -1.0000000  0.0000000 )
                  ( -1.0000000  0.0000000  0.0000000 )
                  (  0.0000000  0.0000000  1.0000000 )


      isym = 14     inv. 180 deg rotation - cart. axis [1,-1,0]  

 cryst.   s(14) = (     1          0         -1      )
                  (     0          1         -1      )
                  (     0          0         -1      )

 cart.    s(14) = (  0.0000000  1.0000000  0.0000000 )
                  (  1.0000000  0.0000000  0.0000000 )
                  (  0.0000000  0.0000000  1.0000000 )


      isym = 15     inv.  90 deg rotation - cart. axis [0,0,-1]  

 cryst.   s(15) = (     0         -1          0      )
                  (     0         -1          1      )
                  (     1         -1          0      )

 cart.    s(15) = (  0.0000000 -1.0000000  0.0000000 )
                  (  1.0000000  0.0000000  0.0000000 )
                  (  0.0000000  0.0000000 -1.0000000 )


      isym = 16     inv.  90 deg rotation - cart. axis [0,0,1]   

 cryst.   s(16) = (    -1          0          1      )
                  (    -1          0          0      )
                  (    -1          1          0      )

 cart.    s(16) = (  0.0000000  1.0000000  0.0000000 )
                  ( -1.0000000  0.0000000  0.0000000 )
                  (  0.0000000  0.0000000 -1.0000000 )


      isym = 17     inv. 180 deg rotation - cart. axis [1,0,1]   

 cryst.   s(17) = (     1          0          0      )
                  (     0          0          1      )
                  (     0          1          0      )

 cart.    s(17) = (  0.0000000  0.0000000 -1.0000000 )
                  (  0.0000000  1.0000000  0.0000000 )
                  ( -1.0000000  0.0000000  0.0000000 )


      isym = 18     inv. 180 deg rotation - cart. axis [-1,0,1]  

 cryst.   s(18) = (    -1          0          0      )
                  (    -1          1          0      )
                  (    -1          0          1      )

 cart.    s(18) = (  0.0000000  0.0000000  1.0000000 )
                  (  0.0000000  1.0000000  0.0000000 )
                  (  1.0000000  0.0000000  0.0000000 )


      isym = 19     inv.  90 deg rotation - cart. axis [0,1,0]   

 cryst.   s(19) = (     0         -1          1      )
                  (     1         -1          0      )
                  (     0         -1          0      )

 cart.    s(19) = (  0.0000000  0.0000000 -1.0000000 )
                  (  0.0000000 -1.0000000  0.0000000 )
                  (  1.0000000  0.0000000  0.0000000 )


      isym = 20     inv.  90 deg rotation - cart. axis [0,-1,0]  

 cryst.   s(20) = (     0          1         -1      )
                  (     0          0         -1      )
                  (     1          0         -1      )

 cart.    s(20) = (  0.0000000  0.0000000  1.0000000 )
                  (  0.0000000 -1.0000000  0.0000000 )
                  ( -1.0000000  0.0000000  0.0000000 )


      isym = 21     inv. 180 deg rotation - cart. axis [0,1,1]   

 cryst.   s(21) = (     1         -1          0      )
                  (     0         -1          0      )
                  (     0         -1          1      )

 cart.    s(21) = (  1.0000000  0.0000000  0.0000000 )
                  (  0.0000000  0.0000000 -1.0000000 )
                  (  0.0000000 -1.0000000  0.0000000 )


      isym = 22     inv. 180 deg rotation - cart. axis [0,1,-1]  

 cryst.   s(22) = (     0          0          1      )
                  (     0          1          0      )
                  (     1          0          0      )

 cart.    s(22) = (  1.0000000  0.0000000  0.0000000 )
                  (  0.0000000  0.0000000  1.0000000 )
                  (  0.0000000  1.0000000  0.0000000 )


      isym = 23     inv.  90 deg rotation - cart. axis [-1,0,0]  

 cryst.   s(23) = (     0          0         -1      )
                  (     1          0         -1      )
                  (     0          1         -1      )

 cart.    s(23) = ( -1.0000000  0.0000000  0.0000000 )
                  (  0.0000000  0.0000000 -1.0000000 )
                  (  0.0000000  1.0000000  0.0000000 )


      isym = 24     inv.  90 deg rotation - cart. axis [1,0,0]   

 cryst.   s(24) = (    -1          1          0      )
                  (    -1          0          1      )
                  (    -1          0          0      )

 cart.    s(24) = ( -1.0000000  0.0000000  0.0000000 )
                  (  0.0000000  0.0000000  1.0000000 )
                  (  0.0000000 -1.0000000  0.0000000 )


   Cartesian axes

     site n.     atom                  positions (alat units)
         1           Si  tau(   1) = (   0.0000000   0.0000000   0.0000000  )
         2           Si  tau(   2) = (  -0.3535534   0.3535534   0.3535534  )

   Crystallographic axes

     site n.     atom                  positions (cryst. coord.)
         1           Si  tau(   1) = (  0.0000000  0.0000000  0.0000000  )
         2           Si  tau(   2) = (  0.2500000  0.2500000  0.2500000  )

     number of k points=    29
                       cart. coord. in units 2pi/alat
        k(    1) = (   0.0000000   0.0000000   0.0000000), wk =   0.0039062
        k(    2) = (  -0.0883883   0.0883883  -0.0883883), wk =   0.0312500
        k(    3) = (  -0.1767767   0.1767767  -0.1767767), wk =   0.0312500
        k(    4) = (  -0.2651650   0.2651650  -0.2651650), wk =   0.0312500
        k(    5) = (   0.3535534  -0.3535534   0.3535534), wk =   0.0156250
        k(    6) = (   0.0000000   0.1767767   0.0000000), wk =   0.0234375
        k(    7) = (  -0.0883883   0.2651650  -0.0883883), wk =   0.0937500
        k(    8) = (  -0.1767767   0.3535534  -0.1767767), wk =   0.0937500
        k(    9) = (   0.4419417  -0.2651650   0.4419417), wk =   0.0937500
        k(   10) = (   0.3535534  -0.1767767   0.3535534), wk =   0.0937500
        k(   11) = (   0.2651650  -0.0883883   0.2651650), wk =   0.0937500
        k(   12) = (   0.1767767   0.0000000   0.1767767), wk =   0.0468750
        k(   13) = (   0.0000000   0.3535534   0.0000000), wk =   0.0234375
        k(   14) = (  -0.0883883   0.4419417  -0.0883883), wk =   0.0937500
        k(   15) = (   0.5303301  -0.1767767   0.5303301), wk =   0.0937500
        k(   16) = (   0.4419417  -0.0883883   0.4419417), wk =   0.0937500
        k(   17) = (   0.3535534   0.0000000   0.3535534), wk =   0.0468750
        k(   18) = (   0.0000000   0.5303301   0.0000000), wk =   0.0234375
        k(   19) = (   0.6187184  -0.0883883   0.6187184), wk =   0.0937500
        k(   20) = (   0.5303301   0.0000000   0.5303301), wk =   0.0468750
        k(   21) = (   0.0000000  -0.7071068   0.0000000), wk =   0.0117188
        k(   22) = (  -0.1767767   0.3535534   0.0000000), wk =   0.0937500
        k(   23) = (   0.4419417  -0.2651650   0.6187184), wk =   0.1875000
        k(   24) = (   0.3535534  -0.1767767   0.5303301), wk =   0.0937500
        k(   25) = (   0.5303301  -0.1767767   0.7071068), wk =   0.0937500
        k(   26) = (   0.4419417  -0.0883883   0.6187184), wk =   0.1875000
        k(   27) = (   0.3535534   0.0000000   0.5303301), wk =   0.0937500
        k(   28) = (  -0.1767767  -0.7071068   0.0000000), wk =   0.0468750
        k(   29) = (  -0.3535534  -0.7071068   0.0000000), wk =   0.0234375

                       cryst. coord.
        k(    1) = (   0.0000000   0.0000000   0.0000000), wk =   0.0039062
        k(    2) = (   0.0000000   0.0000000   0.1250000), wk =   0.0312500
        k(    3) = (   0.0000000   0.0000000   0.2500000), wk =   0.0312500
        k(    4) = (   0.0000000   0.0000000   0.3750000), wk =   0.0312500
        k(    5) = (   0.0000000   0.0000000  -0.5000000), wk =   0.0156250
        k(    6) = (   0.0000000   0.1250000   0.1250000), wk =   0.0234375
        k(    7) = (   0.0000000   0.1250000   0.2500000), wk =   0.0937500
        k(    8) = (   0.0000000   0.1250000   0.3750000), wk =   0.0937500
        k(    9) = (   0.0000000   0.1250000  -0.5000000), wk =   0.0937500
        k(   10) = (   0.0000000   0.1250000  -0.3750000), wk =   0.0937500
        k(   11) = (   0.0000000   0.1250000  -0.2500000), wk =   0.0937500
        k(   12) = (   0.0000000   0.1250000  -0.1250000), wk =   0.0468750
        k(   13) = (   0.0000000   0.2500000   0.2500000), wk =   0.0234375
        k(   14) = (   0.0000000   0.2500000   0.3750000), wk =   0.0937500
        k(   15) = (   0.0000000   0.2500000  -0.5000000), wk =   0.0937500
        k(   16) = (   0.0000000   0.2500000  -0.3750000), wk =   0.0937500
        k(   17) = (   0.0000000   0.2500000  -0.2500000), wk =   0.0468750
        k(   18) = (   0.0000000   0.3750000   0.3750000), wk =   0.0234375
        k(   19) = (   0.0000000   0.3750000  -0.5000000), wk =   0.0937500
        k(   20) = (   0.0000000   0.3750000  -0.3750000), wk =   0.0468750
        k(   21) = (   0.0000000  -0.5000000  -0.5000000), wk =   0.0117188
        k(   22) = (   0.1250000   0.2500000   0.3750000), wk =   0.0937500
        k(   23) = (   0.1250000   0.2500000  -0.5000000), wk =   0.1875000
        k(   24) = (   0.1250000   0.2500000  -0.3750000), wk =   0.0937500
        k(   25) = (   0.1250000   0.3750000  -0.5000000), wk =   0.0937500
        k(   26) = (   0.1250000   0.3750000  -0.3750000), wk =   0.1875000
        k(   27) = (   0.1250000   0.3750000  -0.2500000), wk =   0.0937500
        k(   28) = (   0.1250000  -0.5000000  -0.3750000), wk =   0.0468750
        k(   29) = (   0.2500000  -0.5000000  -0.2500000), wk =   0.0234375

     Dense  grid:    22075 G-vectors     FFT dimensions: (  40,  40,  40)

     Dynamical RAM for                 wfc:       3.45 MB

     Dynamical RAM for     wfc (w. buffer):       3.45 MB

     Dynamical RAM for           str. fact:       0.03 MB

     Dynamical RAM for           local pot:       0.00 MB

     Dynamical RAM for          nlocal pot:       0.06 MB

     Dynamical RAM for                qrad:       0.39 MB

     Dynamical RAM for          rho,v,vnew:       0.23 MB

     Dynamical RAM for           G-vectors:       0.12 MB

     Dynamical RAM for          h,s,v(r/c):      20.30 MB

     Dynamical RAM for          <psi|beta>:       0.24 MB

     Dynamical RAM for                 psi:       6.90 MB

     Dynamical RAM for                hpsi:       6.90 MB

     Dynamical RAM for      wfcinit/wfcrot:      29.79 MB

     Estimated static dynamical RAM per process >       4.57 MB

     Estimated max dynamical RAM per process >      38.91 MB

     Estimated total dynamical RAM >     933.93 MB

     The potential is recalculated from file :
     ./out/aiida.save/charge-density

     Starting wfcs are random

     Band Structure Calculation
     Davidson diagonalization with overlap

     Computing kpt #:     1  of    15 on this pool
     total cpu time spent up to now is       50.1 secs

     Computing kpt #:     2  of    15 on this pool
     total cpu time spent up to now is       90.6 secs

     Computing kpt #:     3  of    15 on this pool
     total cpu time spent up to now is      131.7 secs

     Computing kpt #:     4  of    15 on this pool
     total cpu time spent up to now is      175.3 secs

     Computing kpt #:     5  of    15 on this pool
     total cpu time spent up to now is      219.6 secs

     Computing kpt #:     6  of    15 on this pool
     total cpu time spent up to now is      263.9 secs

     Computing kpt #:     7  of    15 on this pool
     total cpu time spent up to now is      304.4 secs

     Computing kpt #:     8  of    15 on this pool
     total cpu time spent up to now is      346.8 secs

     Computing kpt #:     9  of    15 on this pool
     total cpu time spent up to now is      389.8 secs

     Computing kpt #:    10  of    15 on this pool
     total cpu time spent up to now is      430.9 secs

     Computing kpt #:    11  of    15 on this pool
     total cpu time spent up to now is      472.1 secs

     Computing kpt #:    12  of    15 on this pool
     total cpu time spent up to now is      513.3 secs

     Computing kpt #:    13  of    15 on this pool
     total cpu time spent up to now is      563.5 secs

     Computing kpt #:    14  of    15 on this pool
     total cpu time spent up to now is      602.9 secs

     Computing kpt #:    15  of    15 on this pool
     total cpu time spent up to now is      645.2 secs

     ethr =  5.00E-06,  avg # of iterations = 10.9

     total cpu time spent up to now is      645.2 secs

     End of band structure calculation

          k = 0.0000 0.0000 0.0000 (  2733 PWs)   bands (ev):

    -5.6506   6.4689   6.4689   6.4689   9.0385   9.0385   9.0385  10.0723
    14.1501  14.1501  14.5014  17.7756  17.7756  17.7756  22.0084  29.6340
    29.6340  29.6340  30.6772  30.6772  32.6225  32.6225  32.6225  36.0414
    36.0414  36.0414  41.3377  41.3377  41.3377  45.1495  45.1495  45.4097
    47.3327  47.3327  49.4079  49.4079  49.4079  51.0580  51.0580  51.0580
    51.7172  52.0755  52.0755  52.0755  52.1192  52.1192  52.1192  53.4930
    53.4930  53.4930  57.5584  58.5671  58.5671  58.5671  58.9405  58.9405
    58.9405  64.0235  64.9137  72.9965  72.9965  76.2678  76.6216  76.6667
    76.6667  76.6667  77.4959  77.4959  77.7548  77.7548  77.7548  78.5109
    78.5109  78.5109  80.7444  84.8770  84.8770  84.8770  89.1533  89.1533
    89.1533  90.0313  90.0313  90.6672  90.6672  90.6672  90.7330  90.7330
    90.7330  93.8812  93.8812  94.0228  94.7339  94.7339  94.7339  98.0174
    98.0174  98.0174  99.0288  99.0288  99.0288  99.2149  99.2149  99.2149
    99.8225  99.8225  99.8225 100.6562 101.7445 101.7445 101.7445 101.8195
   101.8195 102.1946 107.1444 107.1444 107.1444 108.7489 108.7489 108.9304
   108.9304 108.9304 110.3649 114.6416 114.6416 114.6416 116.6410 116.6410
   116.6410 117.6424 117.6424 117.6424 118.3176 118.3176 118.3176 119.0887
   119.0887 121.7329 125.8874 125.8874 125.8874 126.0900 126.0900 127.5435
   127.5435 127.5435 128.3504 129.6339 129.6339 130.4667 130.4667 130.4667
   131.5761 131.5761 131.5761 132.2187 133.9391 134.7591 134.7591 134.7591
   134.8716 134.8716 134.8716 135.0230 135.0230 135.0230 135.2462 135.2462
   135.2462 147.6979 147.7373 147.7373 147.7373 148.0272 148.0272 148.0272
   149.5199 150.1846 150.1846 150.6988 150.6988 150.6988 150.9922 150.9922
   150.9922 152.6316 152.6316 152.6316 158.5207 158.5207 162.8617 162.8617
   162.8617 164.1599 167.4430 167.4430 167.8715 167.8715 167.8715 168.6081
   168.6081 168.6081 171.0870 171.0870 171.0870 172.7121 173.2526 173.2526
   173.3866 173.3866 173.3866 173.9272 173.9272 173.9272 174.1617 174.1617
   174.1617 174.1820 174.1820 174.1820 175.2688 175.2688 175.7931 175.7931
   175.7931 176.1353 176.1353 176.1353 176.5645 176.7026 176.7026 176.7026
   177.0662 177.0662 177.0662 177.1376 177.4355 179.0037 179.1325 179.1325
   179.1325 179.3375 179.3375 181.8813 181.8813 182.3329 182.3329 182.3329
   182.8851 182.8851 182.8851 183.0177 183.0177 183.0177 183.4678 183.4678
   183.4678 183.5030 183.5030 190.6845 190.6845 191.0157 191.0157 191.0157
   192.1099 197.2649 197.2649 197.2649 198.2810 198.2810 198.2810 199.8650
   199.8650 199.8650 200.3316 200.3316 200.3316 200.9559 202.5541 202.5541
   202.5541 203.4012 203.4012 203.4585 203.4585 203.4585 203.5557 203.6713
   203.6713 203.6713 204.8177 207.2217 207.2217 209.3704 209.3704 209.3704
   212.0031 212.0031 212.0031 212.9497 212.9497 212.9497 213.0744 213.0744
   213.0744 214.2111 214.2111 215.7391 217.4227 217.4227 217.4227 219.1526
   219.1526 219.1526 220.3116 220.3116 221.0885 221.0885 221.0885 221.4211
   222.2015 222.2015 222.2015 222.2677 222.2677 222.2677 223.1755 223.1755
   223.1755 223.4132 223.4132 235.1100 235.1100 235.1100 236.2115 236.2115
   236.2115 236.2842 238.1436 241.2378 241.2378 241.2378 242.1296 242.1296
   242.1296 242.4397 242.5312 242.5312 243.1465 243.1465 243.1465 244.3498
   244.3498 245.6241 245.6241 245.6241 246.9710 248.3952 248.3952 248.3952
   248.6748 248.6748 248.6748 250.7788 250.7788 251.1459 251.1459 251.1459
   252.4556 252.4556 252.4556 253.0429 253.0429 253.1244 254.1542 257.9102
   257.9102 257.9102 257.9118 257.9118 257.9118 258.1379 258.1379 258.1379
   258.1413 258.1413 258.1413 262.7040 262.7040 262.7040 262.7300 262.7300
   262.7300 262.8325 262.8325 262.8787 262.8787 262.8787 263.0711 263.4780
   264.0839 264.0839 264.0839 264.6870 264.6870 264.6870 265.5408 265.5408
   265.5408 265.5797 265.5797 268.4516 268.6425 268.6425 268.6425 269.3874
   269.3874 269.3874 270.9416 272.9183 272.9183 274.1246 274.1246 274.1246
   274.8726 274.8726 274.8726 276.7835 276.7835 276.7835 276.8632 276.8632
   276.8632 278.9253 278.9253 281.6863 281.6863 282.5836 282.5836 282.5836
   282.9466 282.9466 282.9466 283.2432 283.2432 283.2432 283.9595 283.9595
   283.9595 284.2483 284.2483 284.6605 285.4182 285.4182 285.4182 285.8190
   285.8190 285.8190 286.1047 286.6970 286.6970 286.6970 286.9312 286.9312
   286.9312 287.0817 287.6172 291.3358 291.3358 292.7438 292.7438 292.7438
   294.5549 294.5549 294.5549 294.6008 294.6008 294.6008 294.7712 294.7712
   295.3403 295.3403 295.3403 296.6368 296.8162 297.3427 297.3427 297.3427
   297.5604 297.5604 297.5604 299.4143 299.4143 299.4143 299.4181 299.4181
   299.4558 299.4558 299.4558 299.7440 299.7440 299.7440 300.0535 300.0535
   300.0535 300.0653 300.0653 300.5343 300.5343 300.5343 300.5647 300.5647
   300.5647 300.6869 300.9182 301.3573 301.3573 301.3573 301.3748 301.3748
   301.3748 301.4229 301.4229 301.5723 301.5723 301.5723 301.7211 301.7211
   301.7438 301.7438 301.7438 321.0154 321.0154 321.0556 321.0556 321.0556
   321.2834 325.3799 325.3799 325.3799 325.7150 326.3085 326.3085 326.3085
   327.4396 328.2767 328.2767 330.0878 330.0878 330.0878 332.9543 332.9543
   332.9543 333.4774 333.4774 333.4774 334.0119 334.0119 334.0119 334.4629
   334.4629 335.8820 337.8294 337.8294 337.8294 338.6736 338.7397 338.7397
   338.7397 339.3241 339.3241 340.3175 340.3175 340.3175 341.3031 344.8863
   344.8863 344.8863 344.9723 344.9723 344.9723 344.9927 344.9927 344.9927
   345.0648 345.0648 345.0648 347.0295 347.0295 347.2304 347.2304 347.2304
   347.3593 347.3593 347.3593 347.3595 347.3595 347.3595 347.5322 347.5322
   347.6320 347.6320 347.6320 348.1464 348.1464 348.1464 348.1515 348.1515
   348.2171 353.5784 353.5784 353.5784 353.7157 353.7906 353.7906 353.7906
   353.9252 353.9252 354.0712 354.0712 354.0712 359.9168 359.9168 360.1435
   360.1435 360.1435 362.4015 363.7497 363.7497 363.7497 364.6833 364.6833
   364.6833 364.7422 364.7422 364.7422 365.0828 365.0828 365.0828 365.0964
   365.0964 365.0964 365.1800 365.1800 365.1800 365.3961 365.3961 365.4896
   365.4896 365.4896 365.7991 366.2984 366.5919 366.5919 366.5919 366.7363
   366.7363 375.0973 375.9346 375.9346 375.9346 376.3797 376.3797 376.3797
   376.4624 378.3490 378.3490 378.3490 378.3783 378.3783 378.3783 378.4894
   378.5230 378.5230 378.5230 378.6133 378.6133 380.6850 380.6850 380.6850
   380.7175 380.7175 380.7175 380.7505 380.7505 380.9335 380.9335 380.9335
   381.1649 381.3634 381.3634 381.3634 381.3664 381.3664 381.7373 381.7373
   381.7373 382.1162 382.1162 382.1162 382.4323 386.8925 386.8925 386.8925
   386.9341 386.9341 386.9411 386.9411 386.9411 387.0244 387.0244 387.0244
   387.0785 389.0068 389.0544 389.0544 389.0544 389.0980 389.0980 389.0980
   389.1366 389.1366 389.1366 389.1423 389.1423 402.4402 402.5657 402.5657
   402.5657 402.7185 402.7185 403.8136 403.8136 403.8136 404.1826 404.4559
   404.4559 404.4559 405.1155 405.1155 405.1155 405.5754 405.5754 405.5754
   405.9114 405.9114 405.9114 406.5013 406.5013 406.7001 406.7001 407.0076
   407.0076 407.0076 407.2862 408.7740 408.7740 408.7740 409.4986 409.6904
   409.6904 409.6904 412.1425 412.1425 412.1425 412.8936 412.8936 412.8936
   413.6653 413.9076 413.9076 413.9076 415.0669 415.0669 417.1645 417.1645
   417.1645 417.5867 417.5867 417.6313 417.7640 417.7640 417.7640 417.9122
   417.9122 420.1406 420.1406 420.1406 420.7895 420.7895 420.7895 421.3125
   421.3125 421.3125 421.6472 421.6472 421.8416 421.8416 421.8416 422.0895
   422.0895 422.3648 422.3648 422.3648 423.1006 423.1006 423.1006 423.6440
   423.6575 423.7538 423.7538 423.7538 424.0832 424.0832 424.0832 424.2889
   424.2889 424.2889 424.4014 424.4822 424.4822 424.4822 424.5244 424.9006
   424.9006 424.9006 425.0703 425.0703 425.0703 426.7263 426.7263 426.7263
   426.8266 426.8266 427.2450 427.2450 427.2450 427.3379 427.3379 427.3379
   427.4572 427.4572 427.4572 428.0112 428.0112 429.9695 429.9695 430.2023
   430.2023 430.2023 430.6867 430.6867 430.6867 430.7108 430.8782 430.8782
   430.8782 430.9441 430.9441 430.9441 431.2690 431.2690 431.2690 431.3150
   431.3150 431.5797 431.5797 431.5797 431.7286 439.9218 440.0542 440.0542
   440.0542 440.1594 440.1594 440.1594 440.1910 449.9665 449.9665 449.9734
   449.9734 449.9734 450.0834 450.0834 450.0834 450.1813 450.1813 450.1813
   450.2931 450.2931 450.2931 450.3144 450.3144 456.7055 456.7055 456.7704
   456.7704 456.7704 456.8585 458.2490 458.2490 458.2812 458.2812 458.2812
   458.3150 459.2302 459.2302 459.2302 459.2426 459.2426 459.2426 459.3064
   459.3064 459.3064 459.3350 459.3350 459.3350 465.1083 465.1083 465.1083
   465.1188 465.1188 465.1188 465.1907 465.1907 465.1907 465.2039 465.2039
   465.2039 465.6262 465.6262 465.6590 465.6590 465.7317 465.7317 465.7317
   465.7696 465.7696 465.7696 465.8702 465.9145 479.8577 480.1644 480.1644
   480.1644 480.5191 480.5191 480.5191 481.0837 483.8730 483.8730 483.8991
   483.8991 483.8991 484.4838 484.4838 484.4838 484.5819 484.5819 484.5819
   484.6528 484.6528 484.6528 485.1822 485.1822 486.7419 487.2622 487.2622
   487.2622 488.0181 488.0181 488.0181 489.3971 489.3971 489.4449 489.4449
   489.4449 493.8036 495.6969 495.6969 495.6969 496.7117 496.7117 496.8137
   496.8137 496.8137 496.8413 496.8413 496.8413 498.1503 498.1503 498.1503
   498.3084 498.3084 498.3084 498.6258 498.6553 501.2960 501.2960 501.5214

     occupation numbers 
     1.0000   1.0000   1.0000   1.0000   0.0000   0.0000   0.0000   0.0000
     0.0000   0.0000   0.0000   0.0000   0.0000   0.0000   0.0000   0.0000
     0.0000   0.0000   0.0000   0.0000   0.0000   0.0000   0.0000   0.0000
     0.0000   0.0000   0.0000   0.0000   0.0000   0.0000   0.0000   0.0000
     0.0000   0.0000   0.0000   0.0000   0.0000   0.0000   0.0000   0.0000
     0.0000   0.0000   0.0000   0.0000   0.0000   0.0000   0.0000   0.0000
     0.0000   0.0000   0.0000   0.0000   0.0000   0.0000   0.0000   0.0000
     0.0000   0.0000   0.0000   0.0000   0.0000   0.0000   0.0000   0.0000
     0.0000   0.0000   0.0000   0.0000   0.0000   0.0000   0.0000   0.0000
     0.0000   0.0000   0.0000   0.0000   0.0000   0.0000   0.0000   0.0000
     0.0000   0.0000   0.0000   0.0000   0.0000   0.0000   0.0000   0.0000
     0.0000   0.0000   0.0000   0.0000   0.0000   0.0000   0.0000   0.0000
     0.0000   0.0000   0.0000   0.0000   0.0000   0.0000   0.0000   0.0000
     0.0000   0.0000   0.0000   0.0000   0.0000   0.0000   0.0000   0.0000
     0.0000   0.0000   0.0000   0.0000   0.0000   0.0000   0.0000   0.0000
     0.0000   0.0000   0.0000   0.0000   0.0000   0.0000   0.0000   0.0000
     0.0000   0.0000   0.0000   0.0000   0.0000   0.0000   0.0000   0.0000
     0.0000   0.0000   0.0000   0.0000   0.0000   0.0000   0.0000   0.0000
     0.0000   0.0000   0.0000   0.0000   0.0000   0.0000   0.0000   0.0000
     0.0000   0.0000   0.0000   0.0000   0.0000   0.0000   0.0000   0.0000
     0.0000   0.0000   0.0000   0.0000   0.0000   0.0000   0.0000   0.0000
     0.0000   0.0000   0.0000   0.0000   0.0000   0.0000   0.0000   0.0000
     0.0000   0.0000   0.0000   0.0000   0.0000   0.0000   0.0000   0.0000
     0.0000   0.0000   0.0000   0.0000   0.0000   0.0000   0.0000   0.0000
     0.0000   0.0000   0.0000   0.0000   0.0000   0.0000   0.0000   0.0000
     0.0000   0.0000   0.0000   0.0000   0.0000   0.0000   0.0000   0.0000
     0.0000   0.0000   0.0000   0.0000   0.0000   0.0000   0.0000   0.0000
     0.0000   0.0000   0.0000   0.0000   0.0000   0.0000   0.0000   0.0000
     0.0000   0.0000   0.0000   0.0000   0.0000   0.0000   0.0000   0.0000
     0.0000   0.0000   0.0000   0.0000   0.0000   0.0000   0.0000   0.0000
     0.0000   0.0000   0.0000   0.0000   0.0000   0.0000   0.0000   0.0000
     0.0000   0.0000   0.0000   0.0000   0.0000   0.0000   0.0000   0.0000
     0.0000   0.0000   0.0000   0.0000   0.0000   0.0000   0.0000   0.0000
     0.0000   0.0000   0.0000   0.0000   0.0000   0.0000   0.0000   0.0000
     0.0000   0.0000   0.0000   0.0000   0.0000   0.0000   0.0000   0.0000
     0.0000   0.0000   0.0000   0.0000   0.0000   0.0000   0.0000   0.0000
     0.0000   0.0000   0.0000   0.0000   0.0000   0.0000   0.0000   0.0000
     0.0000   0.0000   0.0000   0.0000   0.0000   0.0000   0.0000   0.0000
     0.0000   0.0000   0.0000   0.0000   0.0000   0.0000   0.0000   0.0000
     0.0000   0.0000   0.0000   0.0000   0.0000   0.0000   0.0000   0.0000
     0.0000   0.0000   0.0000   0.0000   0.0000   0.0000   0.0000   0.0000
     0.0000   0.0000   0.0000   0.0000   0.0000   0.0000   0.0000   0.0000
     0.0000   0.0000   0.0000   0.0000   0.0000   0.0000   0.0000   0.0000
     0.0000   0.0000   0.0000   0.0000   0.0000   0.0000   0.0000   0.0000
     0.0000   0.0000   0.0000   0.0000   0.0000   0.0000   0.0000   0.0000
     0.0000   0.0000   0.0000   0.0000   0.0000   0.0000   0.0000   0.0000
     0.0000   0.0000   0.0000   0.0000   0.0000   0.0000   0.0000   0.0000
     0.0000   0.0000   0.0000   0.0000   0.0000   0.0000   0.0000   0.0000
     0.0000   0.0000   0.0000   0.0000   0.0000   0.0000   0.0000   0.0000
     0.0000   0.0000   0.0000   0.0000   0.0000   0.0000   0.0000   0.0000
     0.0000   0.0000   0.0000   0.0000   0.0000   0.0000   0.0000   0.0000
     0.0000   0.0000   0.0000   0.0000   0.0000   0.0000   0.0000   0.0000
     0.0000   0.0000   0.0000   0.0000   0.0000   0.0000   0.0000   0.0000
     0.0000   0.0000   0.0000   0.0000   0.0000   0.0000   0.0000   0.0000
     0.0000   0.0000   0.0000   0.0000   0.0000   0.0000   0.0000   0.0000
     0.0000   0.0000   0.0000   0.0000   0.0000   0.0000   0.0000   0.0000
     0.0000   0.0000   0.0000   0.0000   0.0000   0.0000   0.0000   0.0000
     0.0000   0.0000   0.0000   0.0000   0.0000   0.0000   0.0000   0.0000
     0.0000   0.0000   0.0000   0.0000   0.0000   0.0000   0.0000   0.0000
     0.0000   0.0000   0.0000   0.0000   0.0000   0.0000   0.0000   0.0000
     0.0000   0.0000   0.0000   0.0000   0.0000   0.0000   0.0000   0.0000
     0.0000   0.0000   0.0000   0.0000   0.0000   0.0000   0.0000   0.0000
     0.0000   0.0000   0.0000   0.0000   0.0000   0.0000   0.0000   0.0000
     0.0000   0.0000   0.0000   0.0000   0.0000   0.0000   0.0000   0.0000
     0.0000   0.0000   0.0000   0.0000   0.0000   0.0000   0.0000   0.0000
     0.0000   0.0000   0.0000   0.0000   0.0000   0.0000   0.0000   0.0000
     0.0000   0.0000   0.0000   0.0000   0.0000   0.0000   0.0000   0.0000
     0.0000   0.0000   0.0000   0.0000   0.0000   0.0000   0.0000   0.0000
     0.0000   0.0000   0.0000   0.0000   0.0000   0.0000   0.0000   0.0000
     0.0000   0.0000   0.0000   0.0000   0.0000   0.0000   0.0000   0.0000
     0.0000   0.0000   0.0000   0.0000   0.0000   0.0000   0.0000   0.0000
     0.0000   0.0000   0.0000   0.0000   0.0000   0.0000   0.0000   0.0000
     0.0000   0.0000   0.0000   0.0000   0.0000   0.0000   0.0000   0.0000
     0.0000   0.0000   0.0000   0.0000   0.0000   0.0000   0.0000   0.0000
     0.0000   0.0000   0.0000   0.0000   0.0000   0.0000   0.0000   0.0000
     0.0000   0.0000   0.0000   0.0000   0.0000   0.0000   0.0000   0.0000
     0.0000   0.0000   0.0000   0.0000   0.0000   0.0000   0.0000   0.0000
     0.0000   0.0000   0.0000   0.0000   0.0000   0.0000   0.0000   0.0000
     0.0000   0.0000   0.0000   0.0000   0.0000   0.0000   0.0000   0.0000
     0.0000   0.0000   0.0000   0.0000   0.0000   0.0000   0.0000   0.0000
     0.0000   0.0000   0.0000   0.0000   0.0000   0.0000   0.0000   0.0000
     0.0000   0.0000   0.0000   0.0000   0.0000   0.0000   0.0000   0.0000
     0.0000   0.0000   0.0000   0.0000   0.0000   0.0000   0.0000   0.0000
     0.0000   0.0000   0.0000   0.0000   0.0000   0.0000   0.0000   0.0000
     0.0000   0.0000   0.0000   0.0000   0.0000   0.0000   0.0000   0.0000
     0.0000   0.0000   0.0000   0.0000   0.0000   0.0000   0.0000   0.0000
     0.0000   0.0000   0.0000   0.0000   0.0000   0.0000   0.0000   0.0000
     0.0000   0.0000   0.0000   0.0000   0.0000   0.0000   0.0000   0.0000
     0.0000   0.0000   0.0000   0.0000   0.0000   0.0000   0.0000   0.0000
     0.0000   0.0000   0.0000   0.0000   0.0000   0.0000   0.0000   0.0000
     0.0000   0.0000   0.0000   0.0000   0.0000   0.0000   0.0000   0.0000
     0.0000   0.0000   0.0000   0.0000   0.0000   0.0000   0.0000   0.0000
     0.0000   0.0000   0.0000   0.0000   0.0000   0.0000   0.0000   0.0000
     0.0000   0.0000   0.0000   0.0000   0.0000   0.0000   0.0000   0.0000
     0.0000   0.0000   0.0000   0.0000   0.0000   0.0000   0.0000   0.0000
     0.0000   0.0000   0.0000   0.0000   0.0000   0.0000   0.0000   0.0000
     0.0000   0.0000   0.0000   0.0000   0.0000   0.0000   0.0000   0.0000
     0.0000   0.0000   0.0000   0.0000   0.0000   0.0000   0.0000   0.0000
     0.0000   0.0000   0.0000   0.0000   0.0000   0.0000   0.0000   0.0000
     0.0000   0.0000   0.0000   0.0000   0.0000   0.0000   0.0000   0.0000
     0.0000   0.0000   0.0000   0.0000   0.0000   0.0000   0.0000   0.0000
     0.0000   0.0000   0.0000   0.0000   0.0000   0.0000   0.0000   0.0000
     0.0000   0.0000   0.0000   0.0000   0.0000   0.0000   0.0000   0.0000
     0.0000   0.0000   0.0000   0.0000   0.0000   0.0000   0.0000   0.0000
     0.0000   0.0000   0.0000   0.0000   0.0000   0.0000   0.0000   0.0000
     0.0000   0.0000   0.0000   0.0000   0.0000   0.0000   0.0000   0.0000
     0.0000   0.0000   0.0000   0.0000   0.0000   0.0000   0.0000   0.0000
     0.0000   0.0000   0.0000   0.0000   0.0000   0.0000   0.0000   0.0000
     0.0000   0.0000   0.0000   0.0000   0.0000   0.0000   0.0000   0.0000
     0.0000   0.0000   0.0000   0.0000   0.0000   0.0000   0.0000   0.0000
     0.0000   0.0000   0.0000   0.0000   0.0000   0.0000   0.0000   0.0000
     0.0000   0.0000   0.0000   0.0000   0.0000   0.0000   0.0000   0.0000
     0.0000   0.0000   0.0000   0.0000   0.0000   0.0000   0.0000   0.0000
     0.0000   0.0000   0.0000   0.0000   0.0000   0.0000   0.0000   0.0000
     0.0000   0.0000   0.0000   0.0000   0.0000   0.0000   0.0000   0.0000
     0.0000   0.0000   0.0000   0.0000   0.0000   0.0000   0.0000   0.0000
     0.0000   0.0000   0.0000   0.0000   0.0000   0.0000   0.0000   0.0000
     0.0000   0.0000   0.0000   0.0000   0.0000   0.0000   0.0000   0.0000
     0.0000   0.0000   0.0000   0.0000   0.0000   0.0000   0.0000   0.0000
     0.0000   0.0000   0.0000   0.0000   0.0000   0.0000   0.0000   0.0000
     0.0000   0.0000   0.0000   0.0000   0.0000   0.0000   0.0000   0.0000
     0.0000   0.0000   0.0000   0.0000   0.0000   0.0000   0.0000   0.0000
     0.0000   0.0000   0.0000   0.0000   0.0000   0.0000   0.0000   0.0000
     0.0000   0.0000   0.0000   0.0000   0.0000   0.0000   0.0000   0.0000
     0.0000   0.0000   0.0000   0.0000   0.0000   0.0000   0.0000   0.0000

          k =-0.0884 0.0884-0.0884 (  2719 PWs)   bands (ev):

    -5.4424   4.8624   6.1753   6.1753   9.0213   9.4704   9.4704  11.3692
    13.6652  13.6652  15.3019  17.2109  18.9475  18.9475  23.2548  27.6656
    27.6656  28.0506  30.3594  30.3594  33.0903  33.0903  33.8830  36.2299
    38.1480  38.1480  39.1210  40.8947  40.8947  43.4216  43.4216  45.5039
    45.5039  45.9619  48.9074  48.9074  48.9923  49.2214  50.4226  50.8798
    50.8798  51.5638  51.7721  51.7721  53.3863  54.2119  54.3510  54.3510
    56.7064  56.7064  56.8776  58.2326  58.2326  58.4579  61.3941  61.3941
    62.5624  65.6511  66.9089  70.3620  70.3620  73.0638  74.5105  74.5105
    74.9277  76.2591  76.2591  76.5779  77.5661  78.0526  78.0526  79.2935
    80.2422  80.2422  83.5653  84.5661  85.2648  85.2648  86.1453  86.1453
    88.2672  89.1887  89.1887  90.4271  90.4271  90.9556  90.9556  91.0727
    91.3322  92.0216  92.6562  93.6114  93.6114  95.2172  95.8380  95.8380
    96.2836  96.2836  97.5499  97.8619  97.8619  98.5744  99.7660 100.2102
   100.2102 101.9554 101.9554 102.7855 102.8192 103.9519 103.9519 104.8886
   104.8886 105.7965 105.9093 105.9093 107.5912 108.6201 108.6201 109.9468
   109.9468 110.6503 112.2904 112.3292 112.3292 114.1094 114.1094 114.1974
   116.1156 116.6263 118.5892 118.5892 120.4153 120.5542 120.5542 121.0108
   121.0108 121.3614 122.4939 123.5490 123.6228 123.6228 125.1938 125.1938
   127.2707 127.2707 127.4474 128.7197 128.8380 128.8380 129.1590 129.4754
   129.4754 131.3586 132.1302 132.1302 134.7076 134.7076 134.9757 135.9983
   135.9983 137.0449 138.0598 138.9521 140.0585 140.0585 141.0779 141.2410
   141.2410 141.3742 142.3410 142.3410 144.5333 145.9835 145.9835 148.0926
   148.6694 148.6694 149.8475 149.8475 150.2301 151.0656 153.3418 153.3418
   155.4324 155.4324 158.0561 158.9479 159.4209 159.4209 160.3621 160.3621
   161.4805 161.4842 163.0555 163.0555 163.4417 163.9273 163.9273 165.2817
   166.3834 166.8120 166.8120 167.1953 169.4758 169.4758 169.5062 169.7578
   169.7578 170.5417 170.8193 170.8193 171.7053 171.7053 171.8553 171.8553
   172.2223 172.3114 172.3114 172.6123 174.0172 175.0738 175.0738 176.2464
   176.2915 176.2915 176.7820 176.8185 176.8185 176.8767 177.8864 177.8864
   178.9664 178.9664 180.0267 181.1484 181.3146 181.3760 181.3760 181.5244
   181.5244 182.7557 183.2773 183.2773 183.5145 183.5145 184.5365 185.5913
   185.5913 185.7348 185.8749 185.9868 185.9868 186.8701 187.9385 187.9385
   188.5396 188.7716 189.8328 189.8328 190.4292 190.4292 190.6935 191.4083
   193.2478 193.2478 193.7473 195.2869 195.2869 195.6625 195.6625 196.7709
   197.3420 197.4853 197.4853 197.8414 197.8414 198.8513 199.2161 199.2161
   203.1389 203.1389 204.0958 204.7215 204.7215 205.8590 206.4189 206.5235
   207.6483 207.8067 207.8067 208.1196 208.1196 208.9847 208.9847 209.8109
   210.2584 210.2584 212.2081 212.2081 212.7881 212.7881 212.8739 212.9593
   214.0354 214.0354 214.6190 215.2511 215.8975 215.8975 216.8996 217.7067
   217.7067 219.5203 220.2477 220.3443 220.3443 221.5365 222.3363 222.9479
   222.9479 225.0416 225.0416 227.0630 227.9786 227.9786 229.3340 229.3340
   229.3778 229.6919 229.9222 229.9222 230.9734 230.9734 231.2968 232.3784
   235.3762 235.7587 235.7587 236.1573 236.1573 238.7333 238.7333 239.2881
   239.2881 240.6084 240.9928 241.9830 241.9830 242.6639 242.6639 242.9935
   243.4235 244.3388 244.3388 244.3488 246.8171 246.8171 247.4980 248.8469
   249.4864 249.4864 249.6917 249.6917 249.7734 250.4628 250.4628 250.6091
   250.8539 251.3780 251.6717 251.7608 251.7608 252.9163 252.9163 254.3761
   254.7975 254.7975 254.9144 256.9063 256.9063 257.8590 258.6656 258.6656
   259.3451 259.7329 259.7329 261.5531 261.5890 261.5890 262.0151 262.0151
   262.1331 262.2562 262.2562 263.0661 263.0661 263.1465 264.0750 265.7327
   265.7726 265.7726 266.7918 266.8622 266.8622 267.2738 267.2738 267.9240
   268.1021 268.1021 268.4461 268.4461 268.6562 268.8264 269.4239 269.4239
   270.7072 271.0209 271.8276 271.8581 271.8581 272.8696 272.8696 273.3537
   275.7232 275.7232 275.8710 276.1766 276.7686 276.7686 276.9807 277.8071
   277.8071 278.1840 278.5924 278.5924 279.1567 279.1567 280.3284 280.3284
   280.5991 280.6305 281.0367 281.0367 281.5861 281.8646 281.8646 282.7810
   283.5598 283.5598 283.7072 284.2630 284.2630 284.6507 284.9083 284.9083
   285.7908 285.7908 285.7975 286.1591 286.7230 286.7230 286.7743 287.4169
   288.0933 288.0933 288.8821 288.8821 289.5317 289.8503 289.8503 290.7003
   291.6040 291.6040 292.3377 292.3377 292.3469 292.5876 292.5876 292.5999
   293.8827 294.0316 294.0494 294.0494 294.3971 294.3971 295.6620 295.7171
   295.7171 296.6064 296.7988 296.7988 297.2788 297.2788 297.4014 298.7351
   298.7351 299.0841 299.0841 299.1783 301.1338 301.5132 301.5132 302.2782
   302.3614 303.3590 303.9696 303.9696 304.5583 304.5865 304.5865 305.5042
   305.5042 305.7543 307.6722 307.6722 308.0775 308.8773 308.8773 308.9813
   310.7447 310.7447 310.9831 310.9831 311.1192 311.1444 311.4537 311.4537
   311.5453 312.5994 314.5439 314.5439 315.1093 315.7342 315.7342 317.9927
   317.9927 318.8486 319.3753 319.3753 321.8542 321.8542 322.1649 324.7014
   325.0891 327.6170 327.6170 329.0118 329.0118 329.4719 329.9633 329.9633
   330.3397 330.3397 330.6155 331.5118 331.5118 331.9210 333.3744 333.3744
   333.7063 334.6609 334.6889 334.6889 335.8272 335.8272 335.9741 337.7626
   337.7626 337.8961 339.0333 339.2058 339.3247 339.3247 339.4737 339.4737
   339.8372 339.8372 339.8449 340.3421 340.3421 342.1100 342.3544 344.4090
   344.4090 344.5502 344.5570 344.5570 344.8112 346.8364 346.8364 347.1086
   347.1086 347.6094 348.6908 349.8947 350.2546 350.2546 350.7245 350.7245
   351.9053 351.9080 351.9996 351.9996 352.4767 352.4767 352.7233 352.7574
   352.7574 353.9901 354.0305 354.0305 355.2654 355.2654 355.2756 355.9626
   356.1726 356.3323 356.3323 356.6691 356.6691 356.9443 357.0240 357.0240
   357.1422 358.0807 360.0047 360.0047 360.1079 360.2203 360.3340 360.3340
   362.8840 363.1279 363.1279 364.5782 364.5782 364.7945 364.8712 364.8712
   365.0479 365.0568 365.0568 365.1115 365.2957 365.2957 367.2665 367.3193
   367.3193 367.5142 367.5142 367.6417 368.9639 368.9639 369.1959 369.7162
   369.7162 369.8156 370.8537 371.0629 371.0629 373.7961 373.7961 374.3498
   375.5152 375.6965 375.6965 375.8522 375.8603 375.8603 377.1804 377.2654
   377.2654 377.7384 377.7384 377.7716 379.7121 379.7121 379.9246 380.2236
   380.2236 380.3980 380.5034 380.5034 380.7761 380.9861 380.9861 381.1870
   382.5855 382.5994 382.5994 383.3343 383.3357 383.3357 383.8953 383.8953
   383.9137 385.9617 385.9617 386.1459 386.1491 386.1926 386.3888 386.3888
   388.6227 388.6227 390.6379 390.7581 390.7581 390.9890 390.9890 390.9996
   391.2954 391.3190 391.3282 391.3282 392.8661 392.8661 393.2424 394.3314
   394.3314 395.5909 395.5909 395.7196 395.7884 397.0656 398.0860 398.0860
   398.2615 398.2615 398.7402 399.0402 399.1220 399.1220 399.4572 399.4572
   400.9069 401.1106 401.1106 401.2848 401.9676 401.9852 401.9852 403.2152
   403.2152 403.5280 405.4421 405.6200 406.0877 406.0877 406.1758 406.1758
   406.3231 406.3981 406.4922 406.4922 407.6695 407.7037 407.7037 408.4875
   408.4875 409.9939 410.4326 410.4326 410.9583 410.9583 411.2263 411.2693
   411.2693 411.6206 411.7865 411.7865 412.6724 412.7393 412.7393 413.0690
   413.3856 413.8756 413.8756 413.9294 414.0510 414.0510 414.3740 414.3740
   414.4198 415.1860 415.1860 415.2494 416.4054 416.6320 416.6320 418.3667
   418.3667 418.4688 418.7555 418.7555 419.3140 419.8034 419.8550 419.8550
   420.1080 421.0105 421.0698 421.2352 421.2352 421.6941 421.6941 422.1963
   422.1963 422.4060 422.6533 422.6533 423.0839 423.0839 423.1426 423.6701
   424.2868 425.0557 425.0557 425.7005 426.2264 426.2264 426.7024 427.9354
   427.9354 428.9466 429.1884 429.1884 429.4407 429.6446 429.7542 429.7542
   429.7690 429.7690 430.5944 430.5944 430.9878 432.2577 432.2577 432.4264
   432.4264 432.5521 433.3620 433.4170 433.5574 433.5574 433.7310 433.7310
   434.5716 434.5716 434.7727 435.7897 436.2075 436.2075 436.7308 436.7926
   436.7926 436.9364 437.5042 437.5042 440.5487 440.5487 440.8349 441.5761
   441.5761 441.6059 441.6059 441.6854 442.3413 442.5902 442.5902 442.6181
   442.6896 442.9414 442.9414 443.6698 444.7923 444.7923 444.9980 445.4635
   445.8207 445.8207 445.9699 445.9699 446.7798 446.8132 446.8132 447.1219
   447.1219 447.3113 448.8311 448.8311 449.0395 449.3456 449.3456 449.9809
   452.4601 452.4916 452.4916 454.6309 454.6781 454.6781 455.2091 455.2091
   455.2358 455.6419 455.6419 455.6430 459.2573 459.2655 459.2655 459.5412
   459.5464 459.5464 460.0737 460.6104 464.2389 464.2389 464.6235 464.6319
   464.6319 468.4740 468.4740 468.5624 468.7877 469.9887 470.1131 470.1131
   470.9808 470.9808 471.0811 471.0811 471.3415 471.3524 471.3524 472.1132
   472.1181 472.1181 474.4257 474.5612 474.5612 475.4578 475.4578 475.5839
   476.4944 477.7900 477.8768 477.8768 478.4346 478.4346 478.6116 479.3461
   479.3461 479.8766 482.4078 482.4078 482.6221 482.8184 482.8583 482.8583
   482.9978 482.9978 483.3713 483.3713 483.4011 485.6847 485.7445 485.8494
   485.8494 486.5859 486.5859 487.8095 487.8095 488.4307 490.6729 490.8743
   490.8743 491.6554 491.6554 491.9100 492.4048 492.4628 492.4628 492.6316
   493.2766 493.3132 493.3132 493.6375 493.6375 494.1461 494.2288 494.2288
   495.3756 495.3756 495.3831 495.9532 495.9532 496.0667 497.2071 497.2071

     occupation numbers 
     1.0000   1.0000   1.0000   1.0000   0.0000   0.0000   0.0000   0.0000
     0.0000   0.0000   0.0000   0.0000   0.0000   0.0000   0.0000   0.0000
     0.0000   0.0000   0.0000   0.0000   0.0000   0.0000   0.0000   0.0000
     0.0000   0.0000   0.0000   0.0000   0.0000   0.0000   0.0000   0.0000
     0.0000   0.0000   0.0000   0.0000   0.0000   0.0000   0.0000   0.0000
     0.0000   0.0000   0.0000   0.0000   0.0000   0.0000   0.0000   0.0000
     0.0000   0.0000   0.0000   0.0000   0.0000   0.0000   0.0000   0.0000
     0.0000   0.0000   0.0000   0.0000   0.0000   0.0000   0.0000   0.0000
     0.0000   0.0000   0.0000   0.0000   0.0000   0.0000   0.0000   0.0000
     0.0000   0.0000   0.0000   0.0000   0.0000   0.0000   0.0000   0.0000
     0.0000   0.0000   0.0000   0.0000   0.0000   0.0000   0.0000   0.0000
     0.0000   0.0000   0.0000   0.0000   0.0000   0.0000   0.0000   0.0000
     0.0000   0.0000   0.0000   0.0000   0.0000   0.0000   0.0000   0.0000
     0.0000   0.0000   0.0000   0.0000   0.0000   0.0000   0.0000   0.0000
     0.0000   0.0000   0.0000   0.0000   0.0000   0.0000   0.0000   0.0000
     0.0000   0.0000   0.0000   0.0000   0.0000   0.0000   0.0000   0.0000
     0.0000   0.0000   0.0000   0.0000   0.0000   0.0000   0.0000   0.0000
     0.0000   0.0000   0.0000   0.0000   0.0000   0.0000   0.0000   0.0000
     0.0000   0.0000   0.0000   0.0000   0.0000   0.0000   0.0000   0.0000
     0.0000   0.0000   0.0000   0.0000   0.0000   0.0000   0.0000   0.0000
     0.0000   0.0000   0.0000   0.0000   0.0000   0.0000   0.0000   0.0000
     0.0000   0.0000   0.0000   0.0000   0.0000   0.0000   0.0000   0.0000
     0.0000   0.0000   0.0000   0.0000   0.0000   0.0000   0.0000   0.0000
     0.0000   0.0000   0.0000   0.0000   0.0000   0.0000   0.0000   0.0000
     0.0000   0.0000   0.0000   0.0000   0.0000   0.0000   0.0000   0.0000
     0.0000   0.0000   0.0000   0.0000   0.0000   0.0000   0.0000   0.0000
     0.0000   0.0000   0.0000   0.0000   0.0000   0.0000   0.0000   0.0000
     0.0000   0.0000   0.0000   0.0000   0.0000   0.0000   0.0000   0.0000
     0.0000   0.0000   0.0000   0.0000   0.0000   0.0000   0.0000   0.0000
     0.0000   0.0000   0.0000   0.0000   0.0000   0.0000   0.0000   0.0000
     0.0000   0.0000   0.0000   0.0000   0.0000   0.0000   0.0000   0.0000
     0.0000   0.0000   0.0000   0.0000   0.0000   0.0000   0.0000   0.0000
     0.0000   0.0000   0.0000   0.0000   0.0000   0.0000   0.0000   0.0000
     0.0000   0.0000   0.0000   0.0000   0.0000   0.0000   0.0000   0.0000
     0.0000   0.0000   0.0000   0.0000   0.0000   0.0000   0.0000   0.0000
     0.0000   0.0000   0.0000   0.0000   0.0000   0.0000   0.0000   0.0000
     0.0000   0.0000   0.0000   0.0000   0.0000   0.0000   0.0000   0.0000
     0.0000   0.0000   0.0000   0.0000   0.0000   0.0000   0.0000   0.0000
     0.0000   0.0000   0.0000   0.0000   0.0000   0.0000   0.0000   0.0000
     0.0000   0.0000   0.0000   0.0000   0.0000   0.0000   0.0000   0.0000
     0.0000   0.0000   0.0000   0.0000   0.0000   0.0000   0.0000   0.0000
     0.0000   0.0000   0.0000   0.0000   0.0000   0.0000   0.0000   0.0000
     0.0000   0.0000   0.0000   0.0000   0.0000   0.0000   0.0000   0.0000
     0.0000   0.0000   0.0000   0.0000   0.0000   0.0000   0.0000   0.0000
     0.0000   0.0000   0.0000   0.0000   0.0000   0.0000   0.0000   0.0000
     0.0000   0.0000   0.0000   0.0000   0.0000   0.0000   0.0000   0.0000
     0.0000   0.0000   0.0000   0.0000   0.0000   0.0000   0.0000   0.0000
     0.0000   0.0000   0.0000   0.0000   0.0000   0.0000   0.0000   0.0000
     0.0000   0.0000   0.0000   0.0000   0.0000   0.0000   0.0000   0.0000
     0.0000   0.0000   0.0000   0.0000   0.0000   0.0000   0.0000   0.0000
     0.0000   0.0000   0.0000   0.0000   0.0000   0.0000   0.0000   0.0000
     0.0000   0.0000   0.0000   0.0000   0.0000   0.0000   0.0000   0.0000
     0.0000   0.0000   0.0000   0.0000   0.0000   0.0000   0.0000   0.0000
     0.0000   0.0000   0.0000   0.0000   0.0000   0.0000   0.0000   0.0000
     0.0000   0.0000   0.0000   0.0000   0.0000   0.0000   0.0000   0.0000
     0.0000   0.0000   0.0000   0.0000   0.0000   0.0000   0.0000   0.0000
     0.0000   0.0000   0.0000   0.0000   0.0000   0.0000   0.0000   0.0000
     0.0000   0.0000   0.0000   0.0000   0.0000   0.0000   0.0000   0.0000
     0.0000   0.0000   0.0000   0.0000   0.0000   0.0000   0.0000   0.0000
     0.0000   0.0000   0.0000   0.0000   0.0000   0.0000   0.0000   0.0000
     0.0000   0.0000   0.0000   0.0000   0.0000   0.0000   0.0000   0.0000
     0.0000   0.0000   0.0000   0.0000   0.0000   0.0000   0.0000   0.0000
     0.0000   0.0000   0.0000   0.0000   0.0000   0.0000   0.0000   0.0000
     0.0000   0.0000   0.0000   0.0000   0.0000   0.0000   0.0000   0.0000
     0.0000   0.0000   0.0000   0.0000   0.0000   0.0000   0.0000   0.0000
     0.0000   0.0000   0.0000   0.0000   0.0000   0.0000   0.0000   0.0000
     0.0000   0.0000   0.0000   0.0000   0.0000   0.0000   0.0000   0.0000
     0.0000   0.0000   0.0000   0.0000   0.0000   0.0000   0.0000   0.0000
     0.0000   0.0000   0.0000   0.0000   0.0000   0.0000   0.0000   0.0000
     0.0000   0.0000   0.0000   0.0000   0.0000   0.0000   0.0000   0.0000
     0.0000   0.0000   0.0000   0.0000   0.0000   0.0000   0.0000   0.0000
     0.0000   0.0000   0.0000   0.0000   0.0000   0.0000   0.0000   0.0000
     0.0000   0.0000   0.0000   0.0000   0.0000   0.0000   0.0000   0.0000
     0.0000   0.0000   0.0000   0.0000   0.0000   0.0000   0.0000   0.0000
     0.0000   0.0000   0.0000   0.0000   0.0000   0.0000   0.0000   0.0000
     0.0000   0.0000   0.0000   0.0000   0.0000   0.0000   0.0000   0.0000
     0.0000   0.0000   0.0000   0.0000   0.0000   0.0000   0.0000   0.0000
     0.0000   0.0000   0.0000   0.0000   0.0000   0.0000   0.0000   0.0000
     0.0000   0.0000   0.0000   0.0000   0.0000   0.0000   0.0000   0.0000
     0.0000   0.0000   0.0000   0.0000   0.0000   0.0000   0.0000   0.0000
     0.0000   0.0000   0.0000   0.0000   0.0000   0.0000   0.0000   0.0000
     0.0000   0.0000   0.0000   0.0000   0.0000   0.0000   0.0000   0.0000
     0.0000   0.0000   0.0000   0.0000   0.0000   0.0000   0.0000   0.0000
     0.0000   0.0000   0.0000   0.0000   0.0000   0.0000   0.0000   0.0000
     0.0000   0.0000   0.0000   0.0000   0.0000   0.0000   0.0000   0.0000
     0.0000   0.0000   0.0000   0.0000   0.0000   0.0000   0.0000   0.0000
     0.0000   0.0000   0.0000   0.0000   0.0000   0.0000   0.0000   0.0000
     0.0000   0.0000   0.0000   0.0000   0.0000   0.0000   0.0000   0.0000
     0.0000   0.0000   0.0000   0.0000   0.0000   0.0000   0.0000   0.0000
     0.0000   0.0000   0.0000   0.0000   0.0000   0.0000   0.0000   0.0000
     0.0000   0.0000   0.0000   0.0000   0.0000   0.0000   0.0000   0.0000
     0.0000   0.0000   0.0000   0.0000   0.0000   0.0000   0.0000   0.0000
     0.0000   0.0000   0.0000   0.0000   0.0000   0.0000   0.0000   0.0000
     0.0000   0.0000   0.0000   0.0000   0.0000   0.0000   0.0000   0.0000
     0.0000   0.0000   0.0000   0.0000   0.0000   0.0000   0.0000   0.0000
     0.0000   0.0000   0.0000   0.0000   0.0000   0.0000   0.0000   0.0000
     0.0000   0.0000   0.0000   0.0000   0.0000   0.0000   0.0000   0.0000
     0.0000   0.0000   0.0000   0.0000   0.0000   0.0000   0.0000   0.0000
     0.0000   0.0000   0.0000   0.0000   0.0000   0.0000   0.0000   0.0000
     0.0000   0.0000   0.0000   0.0000   0.0000   0.0000   0.0000   0.0000
     0.0000   0.0000   0.0000   0.0000   0.0000   0.0000   0.0000   0.0000
     0.0000   0.0000   0.0000   0.0000   0.0000   0.0000   0.0000   0.0000
     0.0000   0.0000   0.0000   0.0000   0.0000   0.0000   0.0000   0.0000
     0.0000   0.0000   0.0000   0.0000   0.0000   0.0000   0.0000   0.0000
     0.0000   0.0000   0.0000   0.0000   0.0000   0.0000   0.0000   0.0000
     0.0000   0.0000   0.0000   0.0000   0.0000   0.0000   0.0000   0.0000
     0.0000   0.0000   0.0000   0.0000   0.0000   0.0000   0.0000   0.0000
     0.0000   0.0000   0.0000   0.0000   0.0000   0.0000   0.0000   0.0000
     0.0000   0.0000   0.0000   0.0000   0.0000   0.0000   0.0000   0.0000
     0.0000   0.0000   0.0000   0.0000   0.0000   0.0000   0.0000   0.0000
     0.0000   0.0000   0.0000   0.0000   0.0000   0.0000   0.0000   0.0000
     0.0000   0.0000   0.0000   0.0000   0.0000   0.0000   0.0000   0.0000
     0.0000   0.0000   0.0000   0.0000   0.0000   0.0000   0.0000   0.0000
     0.0000   0.0000   0.0000   0.0000   0.0000   0.0000   0.0000   0.0000
     0.0000   0.0000   0.0000   0.0000   0.0000   0.0000   0.0000   0.0000
     0.0000   0.0000   0.0000   0.0000   0.0000   0.0000   0.0000   0.0000
     0.0000   0.0000   0.0000   0.0000   0.0000   0.0000   0.0000   0.0000
     0.0000   0.0000   0.0000   0.0000   0.0000   0.0000   0.0000   0.0000
     0.0000   0.0000   0.0000   0.0000   0.0000   0.0000   0.0000   0.0000
     0.0000   0.0000   0.0000   0.0000   0.0000   0.0000   0.0000   0.0000
     0.0000   0.0000   0.0000   0.0000   0.0000   0.0000   0.0000   0.0000
     0.0000   0.0000   0.0000   0.0000   0.0000   0.0000   0.0000   0.0000
     0.0000   0.0000   0.0000   0.0000   0.0000   0.0000   0.0000   0.0000
     0.0000   0.0000   0.0000   0.0000   0.0000   0.0000   0.0000   0.0000
     0.0000   0.0000   0.0000   0.0000   0.0000   0.0000   0.0000   0.0000

          k =-0.1768 0.1768-0.1768 (  2716 PWs)   bands (ev):

    -4.8347   2.5004   5.6997   5.6997   8.5576   9.9832   9.9832  13.5591
    13.6322  13.6322  15.5211  18.4365  21.1917  21.1917  24.4550  24.4550
    24.6572  26.7742  30.5336  30.5336  33.4070  33.4070  34.4092  36.2272
    36.7590  38.6172  38.6172  40.1246  40.1246  41.1200  41.1200  45.1017
    45.1017  45.3503  45.9334  46.3505  48.1979  48.1979  50.5507  50.9010
    50.9010  51.2213  51.8185  53.7882  53.7882  56.6833  56.6833  57.7984
    57.9097  57.9097  59.7538  61.3743  64.0105  64.0105  64.7214  64.7214
    64.9328  67.0262  67.0262  67.7470  68.6315  69.6924  69.6924  72.4101
    72.8893  73.2162  73.2162  76.2041  76.4948  76.4948  77.5275  78.8678
    81.6807  81.6807  82.9216  83.3046  83.3046  84.0402  85.5417  85.5417
    86.3632  87.0220  87.0220  87.4914  88.4920  88.4920  90.0464  91.5984
    91.5984  91.9351  92.3585  92.3585  92.8847  95.2954  96.3399  96.3399
    96.8640  96.8640  97.9586  98.6398  99.0043  99.0043 100.2250 100.2250
   100.7179 101.9211 103.3927 103.3927 104.0968 104.0968 105.5811 105.5811
   105.7069 106.4526 106.4526 108.0558 108.2991 111.2500 112.6071 112.6071
   112.8200 112.8200 113.2380 113.8345 113.8926 113.8926 114.2202 114.2202
   114.9154 115.9139 117.5900 117.5900 117.8924 118.2260 118.2260 121.0520
   121.0520 121.3331 122.0524 122.0524 123.0994 124.6315 125.0526 125.0526
   126.4477 126.4805 126.4805 126.7829 126.7829 128.2801 128.2973 128.7672
   131.2893 131.2893 132.0419 135.8419 136.7211 136.7211 136.8186 136.8186
   138.8374 138.8374 139.5828 139.5828 139.9106 142.1308 142.1308 142.7755
   145.5578 146.5225 146.5225 147.8960 147.8960 148.1075 148.3985 149.5989
   149.6217 149.6217 150.6486 150.6486 151.2275 151.5964 151.5964 151.6231
   151.6231 151.7546 153.1950 153.1950 154.5480 155.3709 156.1678 156.1678
   156.2488 156.7217 158.9075 158.9075 159.0300 159.0300 161.9723 163.1831
   164.0340 164.0340 164.2141 165.0225 165.0225 166.8278 167.1131 167.1131
   168.6183 169.4041 169.4041 170.1679 170.1679 170.4701 171.0364 171.9053
   171.9053 172.0152 172.5320 173.2213 173.2213 174.9156 174.9156 175.9977
   175.9977 176.1142 176.2270 176.3520 176.3520 177.5503 178.0550 178.0550
   179.2288 179.6021 181.0753 181.0753 181.1186 181.7840 181.7840 182.2885
   183.3628 183.7789 183.7789 184.0171 184.0171 185.3567 185.3567 188.5016
   188.5016 188.6544 188.8949 188.8949 188.9680 190.3366 190.6459 190.6459
   190.8696 191.4538 191.4538 192.4551 192.4551 192.8512 193.4107 193.4107
   193.9198 194.1241 194.8876 195.2015 195.2015 196.1313 196.1313 196.6853
   198.1361 198.1361 199.1396 199.1396 199.2599 199.2599 199.7315 201.0667
   201.2457 202.8617 202.8617 203.0063 205.2603 205.2603 205.3448 206.9098
   206.9098 207.4869 208.4659 208.8586 209.0499 209.0499 209.3310 209.3310
   211.1504 211.1504 211.6594 212.4019 212.4019 212.5650 216.4471 216.4471
   216.5300 217.2118 218.0086 218.0086 218.4537 218.8740 218.8740 220.9210
   221.0973 221.0973 222.6976 222.6976 223.0736 223.1624 223.1624 223.6274
   224.9367 224.9367 225.2950 226.9393 227.7235 227.7235 229.2085 229.4003
   229.4003 230.2751 230.4947 230.4947 231.4945 231.4945 232.5870 233.8089
   234.1636 234.1636 235.2332 236.4636 236.4636 237.1950 237.6439 238.0324
   238.2313 238.2313 239.7415 239.7415 240.1419 240.1419 240.8855 241.2393
   241.2393 241.3374 241.7663 241.7663 241.8997 243.1765 243.1765 243.4060
   244.9125 245.2437 245.2437 245.9592 246.2821 246.2821 246.6643 246.6643
   246.9043 248.1326 248.1326 249.8823 249.8823 249.9971 250.9635 252.3041
   252.3041 252.7849 252.7849 254.9066 255.2072 255.2960 255.2960 256.8756
   260.6598 260.7920 260.7920 260.9355 260.9355 261.1888 261.6032 261.6032
   261.8644 263.8326 264.5128 264.5128 265.2169 265.5756 265.5756 265.7810
   265.7810 266.2946 267.5469 267.5469 268.3857 268.4277 268.4277 268.9585
   268.9787 268.9787 269.2052 269.4997 269.5622 269.5622 270.1799 270.1799
   271.0994 271.2296 271.4478 271.4478 271.7800 271.7800 272.5219 273.0357
   273.0649 273.0649 273.3787 273.3787 274.2150 274.7600 274.7600 275.5813
   275.5813 275.7857 277.0968 277.2535 277.7092 277.7092 277.9119 278.5934
   278.5934 279.5783 279.5783 279.9755 280.0968 280.0968 280.8086 282.6212
   282.9870 282.9870 283.8688 283.8688 284.0770 284.4792 284.4792 284.6537
   286.3262 286.5784 286.5784 286.7694 286.7694 286.8913 289.1831 289.1831
   289.3772 289.6493 289.6666 289.6666 290.4238 290.4412 290.4412 290.4738
   290.7246 290.7246 291.8692 292.5173 292.5173 292.6643 293.8328 294.0370
   294.0370 294.3634 294.3634 294.4933 298.1105 298.7792 298.7792 299.6227
   299.6227 300.3443 300.7850 300.7850 301.7059 302.1248 302.5631 302.5631
   302.8312 302.8312 303.1671 303.6857 303.6857 304.6052 306.1433 307.9466
   307.9466 307.9816 308.0616 308.0616 309.0333 309.0333 309.2155 309.7833
   310.3323 310.3323 310.4007 310.7741 310.7741 311.6518 311.6518 311.9655
   312.3981 312.3981 313.1152 313.1152 314.9013 314.9013 316.2261 316.3880
   317.1402 317.2546 317.3035 317.3035 318.7823 318.7823 318.7997 321.2131
   321.2131 321.7140 321.7140 321.7625 321.8920 321.8920 322.0765 322.7408
   323.0561 323.1062 323.1062 324.2052 324.2052 325.5072 325.6302 325.6302
   326.1525 326.8264 326.8264 328.6816 329.5844 329.5844 330.0954 331.6484
   331.6484 332.0128 332.2550 332.2550 332.7076 332.9417 333.1138 333.2889
   333.2889 333.4209 333.4209 333.5530 333.5530 334.2539 335.1011 335.2871
   335.2871 335.8735 335.8735 340.2902 341.5599 341.5599 341.6396 341.9623
   341.9623 342.3797 343.6284 343.7331 343.7331 344.1266 344.1266 344.1543
   344.8159 344.8159 344.9778 348.6050 348.6050 348.8992 349.1762 349.1862
   349.1862 349.2389 349.2389 350.0530 350.6680 350.6680 350.7457 353.2426
   353.5351 353.5351 353.9594 353.9594 354.0143 354.0476 354.4200 354.4200
   355.0150 355.0150 355.3004 355.8169 356.7467 356.7467 356.8889 356.9994
   356.9994 360.3118 360.3118 360.3272 360.8559 361.1002 361.1002 361.6579
   362.3631 362.4795 362.4795 363.7422 363.7422 364.2158 364.4577 364.5173
   364.5173 365.2105 365.2105 365.5092 365.9731 365.9731 367.3299 367.6495
   367.6495 368.5415 369.8514 371.4647 371.4647 373.0614 373.0614 373.3167
   373.4213 373.4213 373.5885 373.5885 373.6360 374.4355 375.7068 375.9432
   375.9432 376.3513 376.4404 376.4404 376.6402 376.8593 376.8593 377.0693
   377.0693 377.0910 379.4207 379.7525 379.7525 380.3618 380.3618 380.6107
   381.8618 381.8618 382.8506 383.5571 383.5571 383.6619 383.7244 383.7244
   384.4360 384.7395 384.7395 384.7986 384.7986 384.9539 385.4214 385.4214
   385.8184 386.1106 386.3052 386.3052 386.6824 387.1106 387.1106 387.2380
   387.2380 387.5732 388.3788 388.8279 388.8279 389.1861 389.5507 389.5507
   389.8877 389.8877 389.9155 391.5809 391.5841 391.5841 392.6921 392.6921
   392.8072 393.8166 394.2225 394.2225 394.2852 394.9659 394.9659 395.0462
   395.0462 395.2571 395.7538 396.1472 396.1472 396.5417 396.5417 396.6796
   396.8031 396.8031 397.4979 397.6487 397.6661 397.6661 397.7629 397.8351
   397.8351 400.6713 400.8948 400.8948 402.1182 402.1649 402.8179 402.8179
   403.3808 403.5947 403.5947 404.8174 404.8174 405.2509 405.3002 405.4237
   405.4237 406.6018 406.7957 406.7957 409.8793 409.8793 410.0918 410.4948
   410.4948 410.6479 410.6934 410.8295 410.8295 411.0652 411.0652 412.3981
   412.3981 412.8027 414.3931 414.5449 414.8492 414.8492 415.0546 415.0546
   415.1813 415.2830 415.2830 415.5931 415.5931 416.0430 416.1229 417.0279
   417.0279 417.2257 417.2632 417.3275 417.3275 421.5072 421.6571 421.6571
   422.1942 422.1942 422.3698 422.5378 422.7207 422.7207 423.3934 423.3934
   423.4089 424.4449 424.4449 425.0697 425.6330 425.6413 425.6413 427.0427
   427.0427 427.6772 428.0431 428.8957 428.8957 429.9654 429.9654 430.6417
   431.3971 431.9321 431.9321 432.6163 432.6163 432.6704 432.7387 432.7387
   432.9114 434.2458 434.2458 434.2725 435.1992 435.1992 435.3598 435.7421
   435.7421 435.9610 436.8118 436.8723 436.8723 437.9841 437.9841 438.4075
   438.4391 438.4391 438.6398 440.1555 440.4960 440.9023 440.9023 440.9350
   440.9777 440.9777 441.4315 441.8110 441.8110 442.0270 442.0270 442.7059
   443.9953 444.5045 444.5045 444.7460 444.7460 445.3930 445.4858 445.4858
   446.3939 446.4022 446.4022 446.4073 446.6542 446.6542 446.8105 446.8313
   446.8313 446.8316 448.7003 448.7003 448.8263 449.0498 449.0498 449.8865
   451.1808 452.2259 452.2259 452.3592 453.4595 453.4595 453.5053 453.8608
   453.8608 453.9313 453.9313 455.5940 455.5940 455.6381 455.8219 456.1282
   456.1282 457.3423 458.8977 458.8977 459.6552 460.5676 460.5676 461.0176
   461.5717 461.5717 461.5726 462.9807 463.3752 463.3752 464.8313 464.9141
   464.9141 464.9513 464.9513 464.9698 465.2045 465.2045 466.7246 466.7246
   467.1015 468.5383 468.5383 469.3041 469.9909 470.0075 470.0075 471.4045
   471.4115 471.4115 475.0608 475.0608 475.2085 476.5803 476.8468 476.8468
   478.5601 478.5601 478.6142 478.8294 478.9079 478.9079 479.1966 479.1966
   479.2001 479.8379 479.8379 480.1353 480.4214 480.4214 481.1445 481.3025
   481.7083 482.4826 482.4826 482.5676 482.6962 482.6962 483.5257 484.0076
   484.0076 484.5362 484.5362 484.7517 486.0435 486.1516 486.1516 488.8105
   488.8105 489.4353 489.6200 489.8039 489.8039 490.1268 490.1268 490.6038
   490.6038 490.7162 490.9010 491.4480 491.4480 491.8049 492.4543 492.4543
   492.6839 492.6839 492.8679 492.8785 493.3443 493.5130 493.5130 493.6204

     occupation numbers 
     1.0000   1.0000   1.0000   1.0000   0.0000   0.0000   0.0000   0.0000
     0.0000   0.0000   0.0000   0.0000   0.0000   0.0000   0.0000   0.0000
     0.0000   0.0000   0.0000   0.0000   0.0000   0.0000   0.0000   0.0000
     0.0000   0.0000   0.0000   0.0000   0.0000   0.0000   0.0000   0.0000
     0.0000   0.0000   0.0000   0.0000   0.0000   0.0000   0.0000   0.0000
     0.0000   0.0000   0.0000   0.0000   0.0000   0.0000   0.0000   0.0000
     0.0000   0.0000   0.0000   0.0000   0.0000   0.0000   0.0000   0.0000
     0.0000   0.0000   0.0000   0.0000   0.0000   0.0000   0.0000   0.0000
     0.0000   0.0000   0.0000   0.0000   0.0000   0.0000   0.0000   0.0000
     0.0000   0.0000   0.0000   0.0000   0.0000   0.0000   0.0000   0.0000
     0.0000   0.0000   0.0000   0.0000   0.0000   0.0000   0.0000   0.0000
     0.0000   0.0000   0.0000   0.0000   0.0000   0.0000   0.0000   0.0000
     0.0000   0.0000   0.0000   0.0000   0.0000   0.0000   0.0000   0.0000
     0.0000   0.0000   0.0000   0.0000   0.0000   0.0000   0.0000   0.0000
     0.0000   0.0000   0.0000   0.0000   0.0000   0.0000   0.0000   0.0000
     0.0000   0.0000   0.0000   0.0000   0.0000   0.0000   0.0000   0.0000
     0.0000   0.0000   0.0000   0.0000   0.0000   0.0000   0.0000   0.0000
     0.0000   0.0000   0.0000   0.0000   0.0000   0.0000   0.0000   0.0000
     0.0000   0.0000   0.0000   0.0000   0.0000   0.0000   0.0000   0.0000
     0.0000   0.0000   0.0000   0.0000   0.0000   0.0000   0.0000   0.0000
     0.0000   0.0000   0.0000   0.0000   0.0000   0.0000   0.0000   0.0000
     0.0000   0.0000   0.0000   0.0000   0.0000   0.0000   0.0000   0.0000
     0.0000   0.0000   0.0000   0.0000   0.0000   0.0000   0.0000   0.0000
     0.0000   0.0000   0.0000   0.0000   0.0000   0.0000   0.0000   0.0000
     0.0000   0.0000   0.0000   0.0000   0.0000   0.0000   0.0000   0.0000
     0.0000   0.0000   0.0000   0.0000   0.0000   0.0000   0.0000   0.0000
     0.0000   0.0000   0.0000   0.0000   0.0000   0.0000   0.0000   0.0000
     0.0000   0.0000   0.0000   0.0000   0.0000   0.0000   0.0000   0.0000
     0.0000   0.0000   0.0000   0.0000   0.0000   0.0000   0.0000   0.0000
     0.0000   0.0000   0.0000   0.0000   0.0000   0.0000   0.0000   0.0000
     0.0000   0.0000   0.0000   0.0000   0.0000   0.0000   0.0000   0.0000
     0.0000   0.0000   0.0000   0.0000   0.0000   0.0000   0.0000   0.0000
     0.0000   0.0000   0.0000   0.0000   0.0000   0.0000   0.0000   0.0000
     0.0000   0.0000   0.0000   0.0000   0.0000   0.0000   0.0000   0.0000
     0.0000   0.0000   0.0000   0.0000   0.0000   0.0000   0.0000   0.0000
     0.0000   0.0000   0.0000   0.0000   0.0000   0.0000   0.0000   0.0000
     0.0000   0.0000   0.0000   0.0000   0.0000   0.0000   0.0000   0.0000
     0.0000   0.0000   0.0000   0.0000   0.0000   0.0000   0.0000   0.0000
     0.0000   0.0000   0.0000   0.0000   0.0000   0.0000   0.0000   0.0000
     0.0000   0.0000   0.0000   0.0000   0.0000   0.0000   0.0000   0.0000
     0.0000   0.0000   0.0000   0.0000   0.0000   0.0000   0.0000   0.0000
     0.0000   0.0000   0.0000   0.0000   0.0000   0.0000   0.0000   0.0000
     0.0000   0.0000   0.0000   0.0000   0.0000   0.0000   0.0000   0.0000
     0.0000   0.0000   0.0000   0.0000   0.0000   0.0000   0.0000   0.0000
     0.0000   0.0000   0.0000   0.0000   0.0000   0.0000   0.0000   0.0000
     0.0000   0.0000   0.0000   0.0000   0.0000   0.0000   0.0000   0.0000
     0.0000   0.0000   0.0000   0.0000   0.0000   0.0000   0.0000   0.0000
     0.0000   0.0000   0.0000   0.0000   0.0000   0.0000   0.0000   0.0000
     0.0000   0.0000   0.0000   0.0000   0.0000   0.0000   0.0000   0.0000
     0.0000   0.0000   0.0000   0.0000   0.0000   0.0000   0.0000   0.0000
     0.0000   0.0000   0.0000   0.0000   0.0000   0.0000   0.0000   0.0000
     0.0000   0.0000   0.0000   0.0000   0.0000   0.0000   0.0000   0.0000
     0.0000   0.0000   0.0000   0.0000   0.0000   0.0000   0.0000   0.0000
     0.0000   0.0000   0.0000   0.0000   0.0000   0.0000   0.0000   0.0000
     0.0000   0.0000   0.0000   0.0000   0.0000   0.0000   0.0000   0.0000
     0.0000   0.0000   0.0000   0.0000   0.0000   0.0000   0.0000   0.0000
     0.0000   0.0000   0.0000   0.0000   0.0000   0.0000   0.0000   0.0000
     0.0000   0.0000   0.0000   0.0000   0.0000   0.0000   0.0000   0.0000
     0.0000   0.0000   0.0000   0.0000   0.0000   0.0000   0.0000   0.0000
     0.0000   0.0000   0.0000   0.0000   0.0000   0.0000   0.0000   0.0000
     0.0000   0.0000   0.0000   0.0000   0.0000   0.0000   0.0000   0.0000
     0.0000   0.0000   0.0000   0.0000   0.0000   0.0000   0.0000   0.0000
     0.0000   0.0000   0.0000   0.0000   0.0000   0.0000   0.0000   0.0000
     0.0000   0.0000   0.0000   0.0000   0.0000   0.0000   0.0000   0.0000
     0.0000   0.0000   0.0000   0.0000   0.0000   0.0000   0.0000   0.0000
     0.0000   0.0000   0.0000   0.0000   0.0000   0.0000   0.0000   0.0000
     0.0000   0.0000   0.0000   0.0000   0.0000   0.0000   0.0000   0.0000
     0.0000   0.0000   0.0000   0.0000   0.0000   0.0000   0.0000   0.0000
     0.0000   0.0000   0.0000   0.0000   0.0000   0.0000   0.0000   0.0000
     0.0000   0.0000   0.0000   0.0000   0.0000   0.0000   0.0000   0.0000
     0.0000   0.0000   0.0000   0.0000   0.0000   0.0000   0.0000   0.0000
     0.0000   0.0000   0.0000   0.0000   0.0000   0.0000   0.0000   0.0000
     0.0000   0.0000   0.0000   0.0000   0.0000   0.0000   0.0000   0.0000
     0.0000   0.0000   0.0000   0.0000   0.0000   0.0000   0.0000   0.0000
     0.0000   0.0000   0.0000   0.0000   0.0000   0.0000   0.0000   0.0000
     0.0000   0.0000   0.0000   0.0000   0.0000   0.0000   0.0000   0.0000
     0.0000   0.0000   0.0000   0.0000   0.0000   0.0000   0.0000   0.0000
     0.0000   0.0000   0.0000   0.0000   0.0000   0.0000   0.0000   0.0000
     0.0000   0.0000   0.0000   0.0000   0.0000   0.0000   0.0000   0.0000
     0.0000   0.0000   0.0000   0.0000   0.0000   0.0000   0.0000   0.0000
     0.0000   0.0000   0.0000   0.0000   0.0000   0.0000   0.0000   0.0000
     0.0000   0.0000   0.0000   0.0000   0.0000   0.0000   0.0000   0.0000
     0.0000   0.0000   0.0000   0.0000   0.0000   0.0000   0.0000   0.0000
     0.0000   0.0000   0.0000   0.0000   0.0000   0.0000   0.0000   0.0000
     0.0000   0.0000   0.0000   0.0000   0.0000   0.0000   0.0000   0.0000
     0.0000   0.0000   0.0000   0.0000   0.0000   0.0000   0.0000   0.0000
     0.0000   0.0000   0.0000   0.0000   0.0000   0.0000   0.0000   0.0000
     0.0000   0.0000   0.0000   0.0000   0.0000   0.0000   0.0000   0.0000
     0.0000   0.0000   0.0000   0.0000   0.0000   0.0000   0.0000   0.0000
     0.0000   0.0000   0.0000   0.0000   0.0000   0.0000   0.0000   0.0000
     0.0000   0.0000   0.0000   0.0000   0.0000   0.0000   0.0000   0.0000
     0.0000   0.0000   0.0000   0.0000   0.0000   0.0000   0.0000   0.0000
     0.0000   0.0000   0.0000   0.0000   0.0000   0.0000   0.0000   0.0000
     0.0000   0.0000   0.0000   0.0000   0.0000   0.0000   0.0000   0.0000
     0.0000   0.0000   0.0000   0.0000   0.0000   0.0000   0.0000   0.0000
     0.0000   0.0000   0.0000   0.0000   0.0000   0.0000   0.0000   0.0000
     0.0000   0.0000   0.0000   0.0000   0.0000   0.0000   0.0000   0.0000
     0.0000   0.0000   0.0000   0.0000   0.0000   0.0000   0.0000   0.0000
     0.0000   0.0000   0.0000   0.0000   0.0000   0.0000   0.0000   0.0000
     0.0000   0.0000   0.0000   0.0000   0.0000   0.0000   0.0000   0.0000
     0.0000   0.0000   0.0000   0.0000   0.0000   0.0000   0.0000   0.0000
     0.0000   0.0000   0.0000   0.0000   0.0000   0.0000   0.0000   0.0000
     0.0000   0.0000   0.0000   0.0000   0.0000   0.0000   0.0000   0.0000
     0.0000   0.0000   0.0000   0.0000   0.0000   0.0000   0.0000   0.0000
     0.0000   0.0000   0.0000   0.0000   0.0000   0.0000   0.0000   0.0000
     0.0000   0.0000   0.0000   0.0000   0.0000   0.0000   0.0000   0.0000
     0.0000   0.0000   0.0000   0.0000   0.0000   0.0000   0.0000   0.0000
     0.0000   0.0000   0.0000   0.0000   0.0000   0.0000   0.0000   0.0000
     0.0000   0.0000   0.0000   0.0000   0.0000   0.0000   0.0000   0.0000
     0.0000   0.0000   0.0000   0.0000   0.0000   0.0000   0.0000   0.0000
     0.0000   0.0000   0.0000   0.0000   0.0000   0.0000   0.0000   0.0000
     0.0000   0.0000   0.0000   0.0000   0.0000   0.0000   0.0000   0.0000
     0.0000   0.0000   0.0000   0.0000   0.0000   0.0000   0.0000   0.0000
     0.0000   0.0000   0.0000   0.0000   0.0000   0.0000   0.0000   0.0000
     0.0000   0.0000   0.0000   0.0000   0.0000   0.0000   0.0000   0.0000
     0.0000   0.0000   0.0000   0.0000   0.0000   0.0000   0.0000   0.0000
     0.0000   0.0000   0.0000   0.0000   0.0000   0.0000   0.0000   0.0000
     0.0000   0.0000   0.0000   0.0000   0.0000   0.0000   0.0000   0.0000
     0.0000   0.0000   0.0000   0.0000   0.0000   0.0000   0.0000   0.0000
     0.0000   0.0000   0.0000   0.0000   0.0000   0.0000   0.0000   0.0000
     0.0000   0.0000   0.0000   0.0000   0.0000   0.0000   0.0000   0.0000
     0.0000   0.0000   0.0000   0.0000   0.0000   0.0000   0.0000   0.0000
     0.0000   0.0000   0.0000   0.0000   0.0000   0.0000   0.0000   0.0000
     0.0000   0.0000   0.0000   0.0000   0.0000   0.0000   0.0000   0.0000
     0.0000   0.0000   0.0000   0.0000   0.0000   0.0000   0.0000   0.0000

          k =-0.2652 0.2652-0.2652 (  2734 PWs)   bands (ev):

    -3.9199   0.4422   5.3707   5.3707   8.1934   9.9030   9.9030  14.3875
    15.0531  15.0531  16.3321  20.3088  20.3088  20.8172  23.2885  25.1427
    25.1427  29.7137  30.3815  30.3815  30.5020  33.5029  33.5029  35.1282
    35.1282  36.5508  37.4625  39.3205  39.3205  40.3107  40.3107  41.6412
    44.2285  44.5830  47.5862  47.5862  48.6373  48.6373  50.0124  50.8896
    51.1084  51.1084  54.0548  55.4668  55.4668  58.2127  58.2127  60.2216
    61.3851  61.5865  61.5865  63.4189  63.4189  64.8784  64.8784  66.0488
    66.3736  67.7261  68.1639  68.1639  68.4578  69.9043  69.9043  71.5195
    71.5195  72.5267  73.4345  73.4345  74.6544  75.5026  77.2585  77.6765
    79.0753  79.0753  79.6012  80.8932  80.8932  81.8837  83.5181  83.5181
    83.9618  84.8634  87.1372  87.1372  87.9664  87.9664  91.5535  91.5535
    92.1164  92.1164  92.5041  92.5076  94.2898  94.2898  94.4504  96.6917
    96.9172  96.9172  97.8248  98.6200  99.3068  99.3068 101.3454 102.0341
   102.0341 103.3036 103.3036 104.2954 104.9618 106.0116 106.6564 106.6564
   107.2299 107.2299 108.0683 108.1905 108.1905 109.3363 110.5773 110.9506
   110.9506 112.7535 112.7535 112.8459 114.7479 114.7479 116.0740 116.0740
   116.2424 117.3997 117.3997 118.0015 119.6194 120.7295 120.7295 120.7442
   121.5151 121.5151 122.8104 123.1742 123.3192 123.3192 124.0178 124.0178
   124.8120 124.9426 127.0644 127.0644 128.5429 128.9224 128.9224 131.3885
   131.3885 132.3237 132.3237 134.5217 138.0931 138.7975 139.3187 139.3187
   141.2849 141.2849 141.5675 142.0579 142.7026 142.7026 143.2122 143.2122
   144.0991 144.2066 144.2066 144.9475 146.7590 146.7590 147.3509 147.4641
   147.4641 147.6176 149.3727 149.3727 151.0533 151.0533 151.6368 152.4237
   152.4237 152.8300 152.8329 153.5158 153.5158 154.5006 154.5006 156.0646
   156.3106 156.3106 156.4934 158.4465 160.2138 160.2311 160.2311 160.8460
   160.8460 161.1053 161.5129 161.9604 161.9604 163.9892 163.9892 165.7197
   167.7711 168.2839 168.2839 168.6104 168.6830 168.6830 169.6799 171.3925
[...]
   132.9120 132.9120 132.9944 132.9944 134.2564 134.2564 135.1170 135.1170
   137.7165 137.7165 138.3275 138.3275 141.6408 141.6408 141.9530 141.9530
   144.1192 144.1192 145.1866 145.1866 145.5527 145.5527 145.7373 145.7373
   146.9182 146.9182 147.0883 147.0883 148.5286 148.5286 149.4719 149.4719
   151.1210 151.1210 151.3143 151.3143 153.5745 153.5745 154.0364 154.0364
   155.4849 155.4849 155.9545 155.9545 156.8061 156.8061 157.0383 157.0383
   160.3346 160.3346 160.3937 160.3937 162.6465 162.6465 162.6765 162.6765
   166.9675 166.9675 167.4539 167.4539 170.3436 170.3436 170.5612 170.5612
   172.2346 172.2346 172.6851 172.6851 173.7222 173.7222 174.7714 174.7714
   175.0647 175.0647 175.7132 175.7132 176.7146 176.7146 176.8220 176.8220
   180.7499 180.7499 180.9765 180.9765 182.5115 182.5115 182.8153 182.8153
   183.6720 183.6720 184.5726 184.5726 185.2361 185.2361 185.4044 185.4044
   189.7409 189.7409 189.7617 189.7617 190.7780 190.7780 191.7970 191.7970
   194.5759 194.5759 194.7675 194.7675 196.0996 196.0996 196.2808 196.2808
   196.8371 196.8371 197.4745 197.4745 198.0519 198.0519 198.1021 198.1021
   199.9933 199.9933 202.1728 202.1728 204.5413 204.5413 205.9073 205.9073
   206.4194 206.4194 206.7146 206.7146 210.9272 210.9272 211.0454 211.0454
   213.1245 213.1245 213.1533 213.1533 214.0366 214.0366 214.9698 214.9698
   215.1359 215.1359 215.4256 215.4256 216.3062 216.3062 216.5331 216.5331
   217.0817 217.0817 217.1918 217.1918 217.5223 217.5223 217.9312 217.9312
   220.6924 220.6924 221.5649 221.5649 222.9785 222.9785 223.6059 223.6059
   227.1052 227.1052 227.2054 227.2054 227.5404 227.5404 227.6762 227.6762
   228.1805 228.1805 228.7997 228.7997 230.8713 230.8713 231.1823 231.1823
   232.3502 232.3502 233.0294 233.0294 233.7333 233.7333 233.7964 233.7964
   237.4218 237.4218 237.4572 237.4572 238.1114 238.1114 238.1708 238.1708
   238.4466 238.4466 238.7508 238.7508 239.3446 239.3446 239.7385 239.7385
   242.9870 242.9870 243.1094 243.1094 244.9712 244.9712 245.0070 245.0070
   246.2803 246.2803 246.2852 246.2852 248.4366 248.4366 248.5849 248.5849
   248.9628 248.9628 250.1228 250.1228 251.4812 251.4812 251.5913 251.5913
   252.7978 252.7978 252.9276 252.9276 256.9846 256.9846 257.0560 257.0560
   257.7263 257.7263 257.9112 257.9112 261.7701 261.7701 262.2085 262.2085
   262.9607 262.9607 263.6827 263.6827 265.7106 265.7106 265.8306 265.8306
   266.5456 266.5456 266.6360 266.6360 268.3554 268.3554 268.4314 268.4314
   270.1470 270.1470 270.1848 270.1848 273.2462 273.2462 273.2792 273.2792
   275.0624 275.0624 275.5108 275.5108 277.7987 277.7987 277.8469 277.8469
   278.5455 278.5455 278.8547 278.8547 279.3709 279.3709 279.5792 279.5792
   279.8198 279.8198 279.9198 279.9198 281.2640 281.2640 281.3318 281.3318
   284.3757 284.3757 284.5611 284.5611 285.8862 285.8862 285.9638 285.9638
   286.7431 286.7431 286.7647 286.7647 289.0775 289.0775 289.0828 289.0828
   293.8105 293.8105 293.9410 293.9410 295.3416 295.3416 295.5001 295.5001
   295.5508 295.5508 296.0000 296.0000 296.4054 296.4054 298.2054 298.2054
   298.9207 298.9207 298.9731 298.9731 300.3858 300.3858 300.9727 300.9727
   301.3445 301.3445 301.9518 301.9518 303.2560 303.2560 304.0234 304.0234
   306.6024 306.6024 306.8078 306.8078 307.2530 307.2530 307.3083 307.3083
   307.9185 307.9185 308.3581 308.3581 309.4065 309.4065 309.4780 309.4780
   309.7445 309.7445 309.9197 309.9197 316.3113 316.3113 316.3213 316.3213
   317.0962 317.0962 318.9737 318.9737 319.6115 319.6115 319.6474 319.6474
   322.1955 322.1955 323.0717 323.0717 324.6115 324.6115 324.8228 324.8228
   325.8885 325.8885 326.5878 326.5878 326.6744 326.6744 326.7130 326.7130
   328.1926 328.1926 328.5572 328.5572 329.0629 329.0629 329.4219 329.4219
   330.1597 330.1597 330.8964 330.8964 331.3008 331.3008 331.7370 331.7370
   331.8986 331.8986 332.4947 332.4947 332.8320 332.8320 332.8615 332.8615
   335.5267 335.5267 335.5743 335.5743 336.3531 336.3531 336.5634 336.5634
   336.9170 336.9170 337.0554 337.0554 338.0702 338.0702 338.2706 338.2706
   339.6817 339.6817 339.8872 339.8872 339.9385 339.9385 340.0684 340.0684
   342.7692 342.7692 343.1313 343.1313 343.5088 343.5088 343.6339 343.6339
   344.2167 344.2167 344.3404 344.3404 347.9512 347.9512 347.9730 347.9730
   350.7641 350.7641 350.9787 350.9787 351.4777 351.4777 351.5638 351.5638
   352.8997 352.8997 353.1217 353.1217 354.6527 354.6527 354.6975 354.6975
   357.3348 357.3348 357.3737 357.3737 357.6195 357.6195 358.0339 358.0339
   359.0002 359.0002 359.0896 359.0896 359.6647 359.6647 359.8804 359.8804
   360.1022 360.1022 360.2595 360.2595 361.1833 361.1833 361.2034 361.2034
   367.3191 367.3191 367.3197 367.3197 368.7051 368.7051 368.7095 368.7095
   369.8370 369.8370 369.8542 369.8542 370.0453 370.0453 370.5108 370.5108
   370.8856 370.8856 371.3756 371.3756 371.5266 371.5266 371.5731 371.5731
   371.9399 371.9399 372.0659 372.0659 372.0966 372.0966 372.2073 372.2073
   373.8002 373.8002 373.8056 373.8056 379.4886 379.4886 379.7260 379.7260
   380.0144 380.0144 380.1833 380.1833 382.6340 382.6340 382.6688 382.6688
   382.7315 382.7315 382.7604 382.7604 385.4501 385.4501 385.6291 385.6291
   385.7019 385.7019 385.7337 385.7337 387.6987 387.6987 387.7107 387.7107
   388.7263 388.7263 388.7640 388.7640 392.0848 392.0848 392.0974 392.0974
   392.1060 392.1060 392.1066 392.1066 392.6501 392.6501 392.6709 392.6709
   395.7405 395.7405 395.8223 395.8223 400.6332 400.6332 400.6543 400.6543
   400.7939 400.7939 400.8221 400.8221 405.0671 405.0671 405.0690 405.0690
   406.0265 406.0265 406.0303 406.0303 406.7360 406.7360 406.8039 406.8039
   409.8262 409.8262 409.9636 409.9636 410.2733 410.2733 410.2983 410.2983
   410.8502 410.8502 410.9435 410.9435 413.7079 413.7079 413.7182 413.7182
   414.0268 414.0268 414.0528 414.0528 416.4465 416.4465 416.8502 416.8502
   418.8780 418.8780 419.3032 419.3032 419.7632 419.7632 419.8292 419.8292
   421.6590 421.6590 421.7155 421.7155 421.9985 421.9985 422.0024 422.0024
   422.1529 422.1529 422.1821 422.1821 423.5184 423.5184 424.1857 424.1857
   425.8040 425.8040 425.9555 425.9555 428.4725 428.4725 428.4885 428.4885
   430.3063 430.3063 430.5070 430.5070 430.7838 430.7838 430.8210 430.8210
   431.6270 431.6270 431.6445 431.6445 432.3095 432.3095 432.3523 432.3523
   433.5731 433.5731 433.5815 433.5815 434.0520 434.0520 434.3593 434.3593
   434.7083 434.7083 434.7191 434.7191 435.3233 435.3233 435.3352 435.3352
   435.7040 435.7040 436.0518 436.0518 436.5723 436.5723 436.8790 436.8790
   440.4760 440.4760 440.7124 440.7124 441.2946 441.2946 441.6224 441.6224
   443.1368 443.1368 443.2136 443.2136 443.7012 443.7012 443.9250 443.9250
   444.1426 444.1426 444.1648 444.1648 444.3337 444.3337 444.3469 444.3469
   444.5536 444.5536 444.6055 444.6055 452.5175 452.5175 452.5951 452.5951
   453.2094 453.2094 453.2549 453.2549 453.3034 453.3034 453.4638 453.4638
   454.2100 454.2100 454.2117 454.2117 455.4098 455.4098 455.4613 455.4613
   457.7665 457.7665 457.9994 457.9994 459.3040 459.3040 459.3148 459.3148
   460.0822 460.0822 460.0931 460.0931 460.5720 460.5720 460.6766 460.6766
   461.9650 461.9650 461.9675 461.9675 462.6393 462.6393 462.6406 462.6406
   463.5758 463.5758 463.6256 463.6256 465.2431 465.2431 465.2954 465.2954
   467.1851 467.1851 467.4062 467.4062 468.4202 468.4202 468.7169 468.7169
   469.1427 469.1427 469.2936 469.2936 469.6460 469.6460 470.0204 470.0204
   474.8755 474.8755 474.8775 474.8775 475.5003 475.5003 475.5375 475.5375
   479.8362 479.8362 479.8529 479.8529 480.8950 480.8950 480.9206 480.9206
   481.3070 481.3070 481.3222 481.3222 482.4818 482.4818 482.5257 482.5257
   482.8176 482.8176 482.8847 482.8847 483.1773 483.1773 483.1914 483.1914
   483.5356 483.5356 483.5664 483.5664 484.7733 484.7733 484.7786 484.7786
   487.1203 487.1203 487.1448 487.1448 488.9401 488.9401 488.9971 488.9971
   489.4572 489.4572 489.4812 489.4812 490.6065 490.6065 490.6118 490.6118

     occupation numbers 
     1.0000   1.0000   1.0000   1.0000   0.0000   0.0000   0.0000   0.0000
     0.0000   0.0000   0.0000   0.0000   0.0000   0.0000   0.0000   0.0000
     0.0000   0.0000   0.0000   0.0000   0.0000   0.0000   0.0000   0.0000
     0.0000   0.0000   0.0000   0.0000   0.0000   0.0000   0.0000   0.0000
     0.0000   0.0000   0.0000   0.0000   0.0000   0.0000   0.0000   0.0000
     0.0000   0.0000   0.0000   0.0000   0.0000   0.0000   0.0000   0.0000
     0.0000   0.0000   0.0000   0.0000   0.0000   0.0000   0.0000   0.0000
     0.0000   0.0000   0.0000   0.0000   0.0000   0.0000   0.0000   0.0000
     0.0000   0.0000   0.0000   0.0000   0.0000   0.0000   0.0000   0.0000
     0.0000   0.0000   0.0000   0.0000   0.0000   0.0000   0.0000   0.0000
     0.0000   0.0000   0.0000   0.0000   0.0000   0.0000   0.0000   0.0000
     0.0000   0.0000   0.0000   0.0000   0.0000   0.0000   0.0000   0.0000
     0.0000   0.0000   0.0000   0.0000   0.0000   0.0000   0.0000   0.0000
     0.0000   0.0000   0.0000   0.0000   0.0000   0.0000   0.0000   0.0000
     0.0000   0.0000   0.0000   0.0000   0.0000   0.0000   0.0000   0.0000
     0.0000   0.0000   0.0000   0.0000   0.0000   0.0000   0.0000   0.0000
     0.0000   0.0000   0.0000   0.0000   0.0000   0.0000   0.0000   0.0000
     0.0000   0.0000   0.0000   0.0000   0.0000   0.0000   0.0000   0.0000
     0.0000   0.0000   0.0000   0.0000   0.0000   0.0000   0.0000   0.0000
     0.0000   0.0000   0.0000   0.0000   0.0000   0.0000   0.0000   0.0000
     0.0000   0.0000   0.0000   0.0000   0.0000   0.0000   0.0000   0.0000
     0.0000   0.0000   0.0000   0.0000   0.0000   0.0000   0.0000   0.0000
     0.0000   0.0000   0.0000   0.0000   0.0000   0.0000   0.0000   0.0000
     0.0000   0.0000   0.0000   0.0000   0.0000   0.0000   0.0000   0.0000
     0.0000   0.0000   0.0000   0.0000   0.0000   0.0000   0.0000   0.0000
     0.0000   0.0000   0.0000   0.0000   0.0000   0.0000   0.0000   0.0000
     0.0000   0.0000   0.0000   0.0000   0.0000   0.0000   0.0000   0.0000
     0.0000   0.0000   0.0000   0.0000   0.0000   0.0000   0.0000   0.0000
     0.0000   0.0000   0.0000   0.0000   0.0000   0.0000   0.0000   0.0000
     0.0000   0.0000   0.0000   0.0000   0.0000   0.0000   0.0000   0.0000
     0.0000   0.0000   0.0000   0.0000   0.0000   0.0000   0.0000   0.0000
     0.0000   0.0000   0.0000   0.0000   0.0000   0.0000   0.0000   0.0000
     0.0000   0.0000   0.0000   0.0000   0.0000   0.0000   0.0000   0.0000
     0.0000   0.0000   0.0000   0.0000   0.0000   0.0000   0.0000   0.0000
     0.0000   0.0000   0.0000   0.0000   0.0000   0.0000   0.0000   0.0000
     0.0000   0.0000   0.0000   0.0000   0.0000   0.0000   0.0000   0.0000
     0.0000   0.0000   0.0000   0.0000   0.0000   0.0000   0.0000   0.0000
     0.0000   0.0000   0.0000   0.0000   0.0000   0.0000   0.0000   0.0000
     0.0000   0.0000   0.0000   0.0000   0.0000   0.0000   0.0000   0.0000
     0.0000   0.0000   0.0000   0.0000   0.0000   0.0000   0.0000   0.0000
     0.0000   0.0000   0.0000   0.0000   0.0000   0.0000   0.0000   0.0000
     0.0000   0.0000   0.0000   0.0000   0.0000   0.0000   0.0000   0.0000
     0.0000   0.0000   0.0000   0.0000   0.0000   0.0000   0.0000   0.0000
     0.0000   0.0000   0.0000   0.0000   0.0000   0.0000   0.0000   0.0000
     0.0000   0.0000   0.0000   0.0000   0.0000   0.0000   0.0000   0.0000
     0.0000   0.0000   0.0000   0.0000   0.0000   0.0000   0.0000   0.0000
     0.0000   0.0000   0.0000   0.0000   0.0000   0.0000   0.0000   0.0000
     0.0000   0.0000   0.0000   0.0000   0.0000   0.0000   0.0000   0.0000
     0.0000   0.0000   0.0000   0.0000   0.0000   0.0000   0.0000   0.0000
     0.0000   0.0000   0.0000   0.0000   0.0000   0.0000   0.0000   0.0000
     0.0000   0.0000   0.0000   0.0000   0.0000   0.0000   0.0000   0.0000
     0.0000   0.0000   0.0000   0.0000   0.0000   0.0000   0.0000   0.0000
     0.0000   0.0000   0.0000   0.0000   0.0000   0.0000   0.0000   0.0000
     0.0000   0.0000   0.0000   0.0000   0.0000   0.0000   0.0000   0.0000
     0.0000   0.0000   0.0000   0.0000   0.0000   0.0000   0.0000   0.0000
     0.0000   0.0000   0.0000   0.0000   0.0000   0.0000   0.0000   0.0000
     0.0000   0.0000   0.0000   0.0000   0.0000   0.0000   0.0000   0.0000
     0.0000   0.0000   0.0000   0.0000   0.0000   0.0000   0.0000   0.0000
     0.0000   0.0000   0.0000   0.0000   0.0000   0.0000   0.0000   0.0000
     0.0000   0.0000   0.0000   0.0000   0.0000   0.0000   0.0000   0.0000
     0.0000   0.0000   0.0000   0.0000   0.0000   0.0000   0.0000   0.0000
     0.0000   0.0000   0.0000   0.0000   0.0000   0.0000   0.0000   0.0000
     0.0000   0.0000   0.0000   0.0000   0.0000   0.0000   0.0000   0.0000
     0.0000   0.0000   0.0000   0.0000   0.0000   0.0000   0.0000   0.0000
     0.0000   0.0000   0.0000   0.0000   0.0000   0.0000   0.0000   0.0000
     0.0000   0.0000   0.0000   0.0000   0.0000   0.0000   0.0000   0.0000
     0.0000   0.0000   0.0000   0.0000   0.0000   0.0000   0.0000   0.0000
     0.0000   0.0000   0.0000   0.0000   0.0000   0.0000   0.0000   0.0000
     0.0000   0.0000   0.0000   0.0000   0.0000   0.0000   0.0000   0.0000
     0.0000   0.0000   0.0000   0.0000   0.0000   0.0000   0.0000   0.0000
     0.0000   0.0000   0.0000   0.0000   0.0000   0.0000   0.0000   0.0000
     0.0000   0.0000   0.0000   0.0000   0.0000   0.0000   0.0000   0.0000
     0.0000   0.0000   0.0000   0.0000   0.0000   0.0000   0.0000   0.0000
     0.0000   0.0000   0.0000   0.0000   0.0000   0.0000   0.0000   0.0000
     0.0000   0.0000   0.0000   0.0000   0.0000   0.0000   0.0000   0.0000
     0.0000   0.0000   0.0000   0.0000   0.0000   0.0000   0.0000   0.0000
     0.0000   0.0000   0.0000   0.0000   0.0000   0.0000   0.0000   0.0000
     0.0000   0.0000   0.0000   0.0000   0.0000   0.0000   0.0000   0.0000
     0.0000   0.0000   0.0000   0.0000   0.0000   0.0000   0.0000   0.0000
     0.0000   0.0000   0.0000   0.0000   0.0000   0.0000   0.0000   0.0000
     0.0000   0.0000   0.0000   0.0000   0.0000   0.0000   0.0000   0.0000
     0.0000   0.0000   0.0000   0.0000   0.0000   0.0000   0.0000   0.0000
     0.0000   0.0000   0.0000   0.0000   0.0000   0.0000   0.0000   0.0000
     0.0000   0.0000   0.0000   0.0000   0.0000   0.0000   0.0000   0.0000
     0.0000   0.0000   0.0000   0.0000   0.0000   0.0000   0.0000   0.0000
     0.0000   0.0000   0.0000   0.0000   0.0000   0.0000   0.0000   0.0000
     0.0000   0.0000   0.0000   0.0000   0.0000   0.0000   0.0000   0.0000
     0.0000   0.0000   0.0000   0.0000   0.0000   0.0000   0.0000   0.0000
     0.0000   0.0000   0.0000   0.0000   0.0000   0.0000   0.0000   0.0000
     0.0000   0.0000   0.0000   0.0000   0.0000   0.0000   0.0000   0.0000
     0.0000   0.0000   0.0000   0.0000   0.0000   0.0000   0.0000   0.0000
     0.0000   0.0000   0.0000   0.0000   0.0000   0.0000   0.0000   0.0000
     0.0000   0.0000   0.0000   0.0000   0.0000   0.0000   0.0000   0.0000
     0.0000   0.0000   0.0000   0.0000   0.0000   0.0000   0.0000   0.0000
     0.0000   0.0000   0.0000   0.0000   0.0000   0.0000   0.0000   0.0000
     0.0000   0.0000   0.0000   0.0000   0.0000   0.0000   0.0000   0.0000
     0.0000   0.0000   0.0000   0.0000   0.0000   0.0000   0.0000   0.0000
     0.0000   0.0000   0.0000   0.0000   0.0000   0.0000   0.0000   0.0000
     0.0000   0.0000   0.0000   0.0000   0.0000   0.0000   0.0000   0.0000
     0.0000   0.0000   0.0000   0.0000   0.0000   0.0000   0.0000   0.0000
     0.0000   0.0000   0.0000   0.0000   0.0000   0.0000   0.0000   0.0000
     0.0000   0.0000   0.0000   0.0000   0.0000   0.0000   0.0000   0.0000
     0.0000   0.0000   0.0000   0.0000   0.0000   0.0000   0.0000   0.0000
     0.0000   0.0000   0.0000   0.0000   0.0000   0.0000   0.0000   0.0000
     0.0000   0.0000   0.0000   0.0000   0.0000   0.0000   0.0000   0.0000
     0.0000   0.0000   0.0000   0.0000   0.0000   0.0000   0.0000   0.0000
     0.0000   0.0000   0.0000   0.0000   0.0000   0.0000   0.0000   0.0000
     0.0000   0.0000   0.0000   0.0000   0.0000   0.0000   0.0000   0.0000
     0.0000   0.0000   0.0000   0.0000   0.0000   0.0000   0.0000   0.0000
     0.0000   0.0000   0.0000   0.0000   0.0000   0.0000   0.0000   0.0000
     0.0000   0.0000   0.0000   0.0000   0.0000   0.0000   0.0000   0.0000
     0.0000   0.0000   0.0000   0.0000   0.0000   0.0000   0.0000   0.0000
     0.0000   0.0000   0.0000   0.0000   0.0000   0.0000   0.0000   0.0000
     0.0000   0.0000   0.0000   0.0000   0.0000   0.0000   0.0000   0.0000
     0.0000   0.0000   0.0000   0.0000   0.0000   0.0000   0.0000   0.0000
     0.0000   0.0000   0.0000   0.0000   0.0000   0.0000   0.0000   0.0000
     0.0000   0.0000   0.0000   0.0000   0.0000   0.0000   0.0000   0.0000
     0.0000   0.0000   0.0000   0.0000   0.0000   0.0000   0.0000   0.0000
     0.0000   0.0000   0.0000   0.0000   0.0000   0.0000   0.0000   0.0000
     0.0000   0.0000   0.0000   0.0000   0.0000   0.0000   0.0000   0.0000
     0.0000   0.0000   0.0000   0.0000   0.0000   0.0000   0.0000   0.0000
     0.0000   0.0000   0.0000   0.0000   0.0000   0.0000   0.0000   0.0000
     0.0000   0.0000   0.0000   0.0000   0.0000   0.0000   0.0000   0.0000
     0.0000   0.0000   0.0000   0.0000   0.0000   0.0000   0.0000   0.0000
     0.0000   0.0000   0.0000   0.0000   0.0000   0.0000   0.0000   0.0000

     highest occupied, lowest unoccupied level (ev):     6.4689    7.0306

     Writing all to output data dir ./out/aiida.save/
 
     init_run     :      0.02s CPU      0.05s WALL (       1 calls)
     electrons    :    605.85s CPU    644.82s WALL (       1 calls)

     Called by init_run:
     wfcinit      :      0.00s CPU      0.00s WALL (       1 calls)
     wfcinit:wfcr :     14.00s CPU     15.02s WALL (      15 calls)
     potinit      :      0.00s CPU      0.01s WALL (       1 calls)
     hinit0       :      0.00s CPU      0.02s WALL (       1 calls)

     Called by electrons:
     c_bands      :    605.81s CPU    644.75s WALL (       1 calls)
     v_of_rho     :      0.00s CPU      0.00s WALL (       1 calls)
     v_h          :      0.00s CPU      0.00s WALL (       1 calls)
     v_xc         :      0.00s CPU      0.00s WALL (       1 calls)

     Called by c_bands:
     init_us_2    :      0.00s CPU      0.00s WALL (      15 calls)
     init_us_2:cp :      0.00s CPU      0.00s WALL (      15 calls)
     cegterg      :    562.08s CPU    597.46s WALL (      15 calls)

     Called by sum_band:

     Called by *egterg:
     cdiaghg      :    516.44s CPU    550.41s WALL (     169 calls)
     cegterg:over :     17.74s CPU     18.16s WALL (     154 calls)
     cegterg:upda :      7.78s CPU      8.06s WALL (     154 calls)
     cegterg:last :     17.92s CPU     18.93s WALL (      75 calls)
     cdiaghg:chol :     17.18s CPU     19.26s WALL (     169 calls)
     cdiaghg:inve :     25.72s CPU     27.42s WALL (     169 calls)
     cdiaghg:para :     61.09s CPU     67.40s WALL (     338 calls)
     h_psi        :     12.05s CPU     12.66s WALL (     184 calls)
     g_psi        :      0.09s CPU      0.10s WALL (     154 calls)

     Called by h_psi:
     h_psi:calbec :      0.19s CPU      0.19s WALL (     184 calls)
     vloc_psi     :     11.54s CPU     12.14s WALL (     184 calls)
     add_vuspsi   :      0.13s CPU      0.14s WALL (     184 calls)

     General routines
     calbec       :      0.19s CPU      0.19s WALL (     184 calls)
     fft          :      0.00s CPU      0.02s WALL (      10 calls)
     fftw         :     10.33s CPU     10.86s WALL (  184870 calls)
     davcio       :      0.02s CPU      0.27s WALL (      30 calls)
 
     Parallel routines
 
     PWSCF        :  10m 6.72s CPU  10m46.52s WALL

 
   This run was terminated on:  13:47:35  18Dec2023            

=------------------------------------------------------------------------------=
   JOB DONE.
=------------------------------------------------------------------------------=
