
     Program PWSCF v.7.1 starts on 18Dec2023 at 13:36:44 

     This program is part of the open-source Quantum ESPRESSO suite
     for quantum simulation of materials; please cite
         "P. Giannozzi et al., J. Phys.:Condens. Matter 21 395502 (2009);
         "P. Giannozzi et al., J. Phys.:Condens. Matter 29 465901 (2017);
         "P. Giannozzi et al., J. Chem. Phys. 152 154105 (2020);
          URL http://www.quantum-espresso.org", 
     in publications or presentations arising from this work. More details at
     http://www.quantum-espresso.org/quote

     Parallel version (MPI), running on    24 processors

     MPI processes distributed on     1 nodes
     123730 MiB available memory on the printing compute node when the environment starts
 
     Reading input from aiida_scf.in

     Current dimensions of program PWSCF are:
     Max number of different atomic species (ntypx) = 10
     Max number of k-points (npk) =  40000
     Max angular momentum in pseudopotentials (lmaxx) =  4
     Message from routine setup:
     using ibrav=0 with symmetry is DISCOURAGED, use correct ibrav instead
 
     K-points division:     npool     =       2
     R & G space division:  proc/nbgrp/npool/nimage =      12
     Subspace diagonalization in iterative solution of the eigenvalue problem:
     a serial algorithm will be used

 
     Parallelization info
     --------------------
     sticks:   dense  smooth     PW     G-vecs:    dense   smooth      PW
     Min          86      86     26                 1839     1839     293
     Max          87      87     27                 1841     1841     295
     Sum        1039    1039    313                22075    22075    3527
 
     Using Slab Decomposition
 


     bravais-lattice index     =            0
     lattice parameter (alat)  =       7.2005  a.u.
     unit-cell volume          =     263.9777 (a.u.)^3
     number of atoms/cell      =            2
     number of atomic types    =            1
     number of electrons       =         8.00
     number of Kohn-Sham states=           40
     kinetic-energy cutoff     =      72.0000  Ry
     charge density cutoff     =     288.0000  Ry
     scf convergence threshold =      1.0E-08
     mixing beta               =       0.6000
     number of iterations used =            8  plain     mixing
     Exchange-correlation= PBE
                           (   1   4   3   4   0   0   0)

     celldm(1)=   7.200468  celldm(2)=   0.000000  celldm(3)=   0.000000
     celldm(4)=   0.000000  celldm(5)=   0.000000  celldm(6)=   0.000000

     crystal axes: (cart. coord. in units of alat)
               a(1) = (  -0.707107   0.000000   0.707107 )  
               a(2) = (   0.000000   0.707107   0.707107 )  
               a(3) = (  -0.707107   0.707107   0.000000 )  

     reciprocal axes: (cart. coord. in units 2 pi/alat)
               b(1) = ( -0.707107 -0.707107  0.707107 )  
               b(2) = (  0.707107  0.707107  0.707107 )  
               b(3) = ( -0.707107  0.707107 -0.707107 )  


     PseudoPot. # 1 for Si read from file:
     /usr/scratch4/magr4985/MG/HTDF/pseudo/SG15/Si.upf
     MD5 check sum: 7f029a58b69e3aa87b46a36c608bf45e
     Pseudo is Norm-conserving, Zval =  4.0
     Generated using ONCVPSP code by D. R. Hamann
     Using radial grid of  602 points,  4 beta functions with: 
                l(1) =   0
                l(2) =   0
                l(3) =   1
                l(4) =   1

     atomic species   valence    mass     pseudopotential
        Si             4.00    28.08500     Si( 1.00)

     24 Sym. Ops. (no inversion) found


                                    s                        frac. trans.

      isym =  1     identity                                     

 cryst.   s( 1) = (     1          0          0      )
                  (     0          1          0      )
                  (     0          0          1      )

 cart.    s( 1) = (  1.0000000  0.0000000  0.0000000 )
                  (  0.0000000  1.0000000  0.0000000 )
                  (  0.0000000  0.0000000  1.0000000 )


      isym =  2     180 deg rotation - cart. axis [0,0,1]        

 cryst.   s( 2) = (     0          1         -1      )
                  (     1          0         -1      )
                  (     0          0         -1      )

 cart.    s( 2) = ( -1.0000000  0.0000000  0.0000000 )
                  (  0.0000000 -1.0000000  0.0000000 )
                  (  0.0000000  0.0000000  1.0000000 )


      isym =  3     180 deg rotation - cart. axis [0,1,0]        

 cryst.   s( 3) = (    -1          0          0      )
                  (    -1          0          1      )
                  (    -1          1          0      )

 cart.    s( 3) = ( -1.0000000  0.0000000  0.0000000 )
                  (  0.0000000  1.0000000  0.0000000 )
                  (  0.0000000  0.0000000 -1.0000000 )


      isym =  4     180 deg rotation - cart. axis [1,0,0]        

 cryst.   s( 4) = (     0         -1          1      )
                  (     0         -1          0      )
                  (     1         -1          0      )

 cart.    s( 4) = (  1.0000000  0.0000000  0.0000000 )
                  (  0.0000000 -1.0000000  0.0000000 )
                  (  0.0000000  0.0000000 -1.0000000 )


      isym =  5     120 deg rotation - cart. axis [-1,-1,-1]     

 cryst.   s( 5) = (    -1          0          1      )
                  (    -1          1          0      )
                  (    -1          0          0      )

 cart.    s( 5) = (  0.0000000  1.0000000  0.0000000 )
                  (  0.0000000  0.0000000  1.0000000 )
                  (  1.0000000  0.0000000  0.0000000 )


      isym =  6     120 deg rotation - cart. axis [-1,1,1]       

 cryst.   s( 6) = (     0          1          0      )
                  (     0          0          1      )
                  (     1          0          0      )

 cart.    s( 6) = (  0.0000000 -1.0000000  0.0000000 )
                  (  0.0000000  0.0000000  1.0000000 )
                  ( -1.0000000  0.0000000  0.0000000 )


      isym =  7     120 deg rotation - cart. axis [1,1,-1]       

 cryst.   s( 7) = (     1          0         -1      )
                  (     0          0         -1      )
                  (     0          1         -1      )

 cart.    s( 7) = (  0.0000000  1.0000000  0.0000000 )
                  (  0.0000000  0.0000000 -1.0000000 )
                  ( -1.0000000  0.0000000  0.0000000 )


      isym =  8     120 deg rotation - cart. axis [1,-1,1]       

 cryst.   s( 8) = (     0         -1          0      )
                  (     1         -1          0      )
                  (     0         -1          1      )

 cart.    s( 8) = (  0.0000000 -1.0000000  0.0000000 )
                  (  0.0000000  0.0000000 -1.0000000 )
                  (  1.0000000  0.0000000  0.0000000 )


      isym =  9     120 deg rotation - cart. axis [1,1,1]        

 cryst.   s( 9) = (     0          0         -1      )
                  (     0          1         -1      )
                  (     1          0         -1      )

 cart.    s( 9) = (  0.0000000  0.0000000  1.0000000 )
                  (  1.0000000  0.0000000  0.0000000 )
                  (  0.0000000  1.0000000  0.0000000 )


      isym = 10     120 deg rotation - cart. axis [-1,1,-1]      

 cryst.   s(10) = (    -1          1          0      )
                  (    -1          0          0      )
                  (    -1          0          1      )

 cart.    s(10) = (  0.0000000  0.0000000  1.0000000 )
                  ( -1.0000000  0.0000000  0.0000000 )
                  (  0.0000000 -1.0000000  0.0000000 )


      isym = 11     120 deg rotation - cart. axis [1,-1,-1]      

 cryst.   s(11) = (     0          0          1      )
                  (     1          0          0      )
                  (     0          1          0      )

 cart.    s(11) = (  0.0000000  0.0000000 -1.0000000 )
                  ( -1.0000000  0.0000000  0.0000000 )
                  (  0.0000000  1.0000000  0.0000000 )


      isym = 12     120 deg rotation - cart. axis [-1,-1,1]      

 cryst.   s(12) = (     1         -1          0      )
                  (     0         -1          1      )
                  (     0         -1          0      )

 cart.    s(12) = (  0.0000000  0.0000000 -1.0000000 )
                  (  1.0000000  0.0000000  0.0000000 )
                  (  0.0000000 -1.0000000  0.0000000 )


      isym = 13     inv. 180 deg rotation - cart. axis [1,1,0]   

 cryst.   s(13) = (     0          1          0      )
                  (     1          0          0      )
                  (     0          0          1      )

 cart.    s(13) = (  0.0000000 -1.0000000  0.0000000 )
                  ( -1.0000000  0.0000000  0.0000000 )
                  (  0.0000000  0.0000000  1.0000000 )


      isym = 14     inv. 180 deg rotation - cart. axis [1,-1,0]  

 cryst.   s(14) = (     1          0         -1      )
                  (     0          1         -1      )
                  (     0          0         -1      )

 cart.    s(14) = (  0.0000000  1.0000000  0.0000000 )
                  (  1.0000000  0.0000000  0.0000000 )
                  (  0.0000000  0.0000000  1.0000000 )


      isym = 15     inv.  90 deg rotation - cart. axis [0,0,-1]  

 cryst.   s(15) = (     0         -1          0      )
                  (     0         -1          1      )
                  (     1         -1          0      )

 cart.    s(15) = (  0.0000000 -1.0000000  0.0000000 )
                  (  1.0000000  0.0000000  0.0000000 )
                  (  0.0000000  0.0000000 -1.0000000 )


      isym = 16     inv.  90 deg rotation - cart. axis [0,0,1]   

 cryst.   s(16) = (    -1          0          1      )
                  (    -1          0          0      )
                  (    -1          1          0      )

 cart.    s(16) = (  0.0000000  1.0000000  0.0000000 )
                  ( -1.0000000  0.0000000  0.0000000 )
                  (  0.0000000  0.0000000 -1.0000000 )


      isym = 17     inv. 180 deg rotation - cart. axis [1,0,1]   

 cryst.   s(17) = (     1          0          0      )
                  (     0          0          1      )
                  (     0          1          0      )

 cart.    s(17) = (  0.0000000  0.0000000 -1.0000000 )
                  (  0.0000000  1.0000000  0.0000000 )
                  ( -1.0000000  0.0000000  0.0000000 )


      isym = 18     inv. 180 deg rotation - cart. axis [-1,0,1]  

 cryst.   s(18) = (    -1          0          0      )
                  (    -1          1          0      )
                  (    -1          0          1      )

 cart.    s(18) = (  0.0000000  0.0000000  1.0000000 )
                  (  0.0000000  1.0000000  0.0000000 )
                  (  1.0000000  0.0000000  0.0000000 )


      isym = 19     inv.  90 deg rotation - cart. axis [0,1,0]   

 cryst.   s(19) = (     0         -1          1      )
                  (     1         -1          0      )
                  (     0         -1          0      )

 cart.    s(19) = (  0.0000000  0.0000000 -1.0000000 )
                  (  0.0000000 -1.0000000  0.0000000 )
                  (  1.0000000  0.0000000  0.0000000 )


      isym = 20     inv.  90 deg rotation - cart. axis [0,-1,0]  

 cryst.   s(20) = (     0          1         -1      )
                  (     0          0         -1      )
                  (     1          0         -1      )

 cart.    s(20) = (  0.0000000  0.0000000  1.0000000 )
                  (  0.0000000 -1.0000000  0.0000000 )
                  ( -1.0000000  0.0000000  0.0000000 )


      isym = 21     inv. 180 deg rotation - cart. axis [0,1,1]   

 cryst.   s(21) = (     1         -1          0      )
                  (     0         -1          0      )
                  (     0         -1          1      )

 cart.    s(21) = (  1.0000000  0.0000000  0.0000000 )
                  (  0.0000000  0.0000000 -1.0000000 )
                  (  0.0000000 -1.0000000  0.0000000 )


      isym = 22     inv. 180 deg rotation - cart. axis [0,1,-1]  

 cryst.   s(22) = (     0          0          1      )
                  (     0          1          0      )
                  (     1          0          0      )

 cart.    s(22) = (  1.0000000  0.0000000  0.0000000 )
                  (  0.0000000  0.0000000  1.0000000 )
                  (  0.0000000  1.0000000  0.0000000 )


      isym = 23     inv.  90 deg rotation - cart. axis [-1,0,0]  

 cryst.   s(23) = (     0          0         -1      )
                  (     1          0         -1      )
                  (     0          1         -1      )

 cart.    s(23) = ( -1.0000000  0.0000000  0.0000000 )
                  (  0.0000000  0.0000000 -1.0000000 )
                  (  0.0000000  1.0000000  0.0000000 )


      isym = 24     inv.  90 deg rotation - cart. axis [1,0,0]   

 cryst.   s(24) = (    -1          1          0      )
                  (    -1          0          1      )
                  (    -1          0          0      )

 cart.    s(24) = ( -1.0000000  0.0000000  0.0000000 )
                  (  0.0000000  0.0000000  1.0000000 )
                  (  0.0000000 -1.0000000  0.0000000 )


   Cartesian axes

     site n.     atom                  positions (alat units)
         1           Si  tau(   1) = (   0.0000000   0.0000000   0.0000000  )
         2           Si  tau(   2) = (  -0.3535534   0.3535534   0.3535534  )

   Crystallographic axes

     site n.     atom                  positions (cryst. coord.)
         1           Si  tau(   1) = (  0.0000000  0.0000000  0.0000000  )
         2           Si  tau(   2) = (  0.2500000  0.2500000  0.2500000  )

     number of k points=    29
                       cart. coord. in units 2pi/alat
        k(    1) = (   0.0000000   0.0000000   0.0000000), wk =   0.0039062
        k(    2) = (  -0.0883883   0.0883883  -0.0883883), wk =   0.0312500
        k(    3) = (  -0.1767767   0.1767767  -0.1767767), wk =   0.0312500
        k(    4) = (  -0.2651650   0.2651650  -0.2651650), wk =   0.0312500
        k(    5) = (   0.3535534  -0.3535534   0.3535534), wk =   0.0156250
        k(    6) = (   0.0000000   0.1767767   0.0000000), wk =   0.0234375
        k(    7) = (  -0.0883883   0.2651650  -0.0883883), wk =   0.0937500
        k(    8) = (  -0.1767767   0.3535534  -0.1767767), wk =   0.0937500
        k(    9) = (   0.4419417  -0.2651650   0.4419417), wk =   0.0937500
        k(   10) = (   0.3535534  -0.1767767   0.3535534), wk =   0.0937500
        k(   11) = (   0.2651650  -0.0883883   0.2651650), wk =   0.0937500
        k(   12) = (   0.1767767   0.0000000   0.1767767), wk =   0.0468750
        k(   13) = (   0.0000000   0.3535534   0.0000000), wk =   0.0234375
        k(   14) = (  -0.0883883   0.4419417  -0.0883883), wk =   0.0937500
        k(   15) = (   0.5303301  -0.1767767   0.5303301), wk =   0.0937500
        k(   16) = (   0.4419417  -0.0883883   0.4419417), wk =   0.0937500
        k(   17) = (   0.3535534   0.0000000   0.3535534), wk =   0.0468750
        k(   18) = (   0.0000000   0.5303301   0.0000000), wk =   0.0234375
        k(   19) = (   0.6187184  -0.0883883   0.6187184), wk =   0.0937500
        k(   20) = (   0.5303301   0.0000000   0.5303301), wk =   0.0468750
        k(   21) = (   0.0000000  -0.7071068   0.0000000), wk =   0.0117188
        k(   22) = (  -0.1767767   0.3535534   0.0000000), wk =   0.0937500
        k(   23) = (   0.4419417  -0.2651650   0.6187184), wk =   0.1875000
        k(   24) = (   0.3535534  -0.1767767   0.5303301), wk =   0.0937500
        k(   25) = (   0.5303301  -0.1767767   0.7071068), wk =   0.0937500
        k(   26) = (   0.4419417  -0.0883883   0.6187184), wk =   0.1875000
        k(   27) = (   0.3535534   0.0000000   0.5303301), wk =   0.0937500
        k(   28) = (  -0.1767767  -0.7071068   0.0000000), wk =   0.0468750
        k(   29) = (  -0.3535534  -0.7071068   0.0000000), wk =   0.0234375

                       cryst. coord.
        k(    1) = (   0.0000000   0.0000000   0.0000000), wk =   0.0039062
        k(    2) = (   0.0000000   0.0000000   0.1250000), wk =   0.0312500
        k(    3) = (   0.0000000   0.0000000   0.2500000), wk =   0.0312500
        k(    4) = (   0.0000000   0.0000000   0.3750000), wk =   0.0312500
        k(    5) = (   0.0000000   0.0000000  -0.5000000), wk =   0.0156250
        k(    6) = (   0.0000000   0.1250000   0.1250000), wk =   0.0234375
        k(    7) = (   0.0000000   0.1250000   0.2500000), wk =   0.0937500
        k(    8) = (   0.0000000   0.1250000   0.3750000), wk =   0.0937500
        k(    9) = (   0.0000000   0.1250000  -0.5000000), wk =   0.0937500
        k(   10) = (   0.0000000   0.1250000  -0.3750000), wk =   0.0937500
        k(   11) = (   0.0000000   0.1250000  -0.2500000), wk =   0.0937500
        k(   12) = (   0.0000000   0.1250000  -0.1250000), wk =   0.0468750
        k(   13) = (   0.0000000   0.2500000   0.2500000), wk =   0.0234375
        k(   14) = (   0.0000000   0.2500000   0.3750000), wk =   0.0937500
        k(   15) = (   0.0000000   0.2500000  -0.5000000), wk =   0.0937500
        k(   16) = (   0.0000000   0.2500000  -0.3750000), wk =   0.0937500
        k(   17) = (   0.0000000   0.2500000  -0.2500000), wk =   0.0468750
        k(   18) = (   0.0000000   0.3750000   0.3750000), wk =   0.0234375
        k(   19) = (   0.0000000   0.3750000  -0.5000000), wk =   0.0937500
        k(   20) = (   0.0000000   0.3750000  -0.3750000), wk =   0.0468750
        k(   21) = (   0.0000000  -0.5000000  -0.5000000), wk =   0.0117188
        k(   22) = (   0.1250000   0.2500000   0.3750000), wk =   0.0937500
        k(   23) = (   0.1250000   0.2500000  -0.5000000), wk =   0.1875000
        k(   24) = (   0.1250000   0.2500000  -0.3750000), wk =   0.0937500
        k(   25) = (   0.1250000   0.3750000  -0.5000000), wk =   0.0937500
        k(   26) = (   0.1250000   0.3750000  -0.3750000), wk =   0.1875000
        k(   27) = (   0.1250000   0.3750000  -0.2500000), wk =   0.0937500
        k(   28) = (   0.1250000  -0.5000000  -0.3750000), wk =   0.0468750
        k(   29) = (   0.2500000  -0.5000000  -0.2500000), wk =   0.0234375

     Dense  grid:    22075 G-vectors     FFT dimensions: (  40,  40,  40)

     Dynamical RAM for                 wfc:       0.14 MB

     Dynamical RAM for     wfc (w. buffer):       2.21 MB

     Dynamical RAM for           str. fact:       0.03 MB

     Dynamical RAM for           local pot:       0.00 MB

     Dynamical RAM for          nlocal pot:       0.06 MB

     Dynamical RAM for                qrad:       0.39 MB

     Dynamical RAM for          rho,v,vnew:       0.23 MB

     Dynamical RAM for               rhoin:       0.08 MB

     Dynamical RAM for            rho*nmix:       0.45 MB

     Dynamical RAM for           G-vectors:       0.12 MB

     Dynamical RAM for          h,s,v(r/c):       0.29 MB

     Dynamical RAM for          <psi|beta>:       0.01 MB

     Dynamical RAM for                 psi:       0.28 MB

     Dynamical RAM for                hpsi:       0.28 MB

     Dynamical RAM for      wfcinit/wfcrot:       0.31 MB

     Estimated static dynamical RAM per process >       3.41 MB

     Estimated max dynamical RAM per process >       4.71 MB

     Estimated total dynamical RAM >     107.66 MB

     Initial potential from superposition of free atoms

     starting charge       7.9075, renormalised to       8.0000
     Starting wfcs are random

     total cpu time spent up to now is        0.5 secs

     Self-consistent Calculation

     iteration #  1     ecut=    72.00 Ry     beta= 0.60
     Davidson diagonalization with overlap

---- Real-time Memory Report at c_bands before calling an iterative solver
            40 MiB given to the printing process from OS
             0 MiB allocation reported by mallinfo(arena+hblkhd)
        123117 MiB available memory on the node where the printing process lives
------------------
     c_bands:  1 eigenvalues not converged
     c_bands:  1 eigenvalues not converged
     ethr =  5.00E-06,  avg # of iterations = 16.6

     total cpu time spent up to now is        2.2 secs

     total energy              =     -15.76262849 Ry
     estimated scf accuracy    <       0.05561549 Ry

     iteration #  2     ecut=    72.00 Ry     beta= 0.60
     Davidson diagonalization with overlap

---- Real-time Memory Report at c_bands before calling an iterative solver
            45 MiB given to the printing process from OS
             0 MiB allocation reported by mallinfo(arena+hblkhd)
        122973 MiB available memory on the node where the printing process lives
------------------
     ethr =  6.95E-04,  avg # of iterations =  1.0

     total cpu time spent up to now is        2.5 secs

     total energy              =     -15.76415493 Ry
     estimated scf accuracy    <       0.00466211 Ry

     iteration #  3     ecut=    72.00 Ry     beta= 0.60
     Davidson diagonalization with overlap

---- Real-time Memory Report at c_bands before calling an iterative solver
            45 MiB given to the printing process from OS
             0 MiB allocation reported by mallinfo(arena+hblkhd)
        122971 MiB available memory on the node where the printing process lives
------------------
     ethr =  5.83E-05,  avg # of iterations =  1.8

     total cpu time spent up to now is        2.8 secs

     total energy              =     -15.76432125 Ry
     estimated scf accuracy    <       0.00009922 Ry

     iteration #  4     ecut=    72.00 Ry     beta= 0.60
     Davidson diagonalization with overlap

---- Real-time Memory Report at c_bands before calling an iterative solver
            45 MiB given to the printing process from OS
             0 MiB allocation reported by mallinfo(arena+hblkhd)
        122971 MiB available memory on the node where the printing process lives
------------------
     ethr =  1.24E-06,  avg # of iterations =  4.6

     total cpu time spent up to now is        3.2 secs

     total energy              =     -15.76432684 Ry
     estimated scf accuracy    <       0.00000015 Ry

     iteration #  5     ecut=    72.00 Ry     beta= 0.60
     Davidson diagonalization with overlap

---- Real-time Memory Report at c_bands before calling an iterative solver
            45 MiB given to the printing process from OS
             0 MiB allocation reported by mallinfo(arena+hblkhd)
        122973 MiB available memory on the node where the printing process lives
------------------
     ethr =  1.83E-09,  avg # of iterations =  7.5

     total cpu time spent up to now is        4.0 secs

     total energy              =     -15.76432706 Ry
     estimated scf accuracy    <       0.00000001 Ry

     iteration #  6     ecut=    72.00 Ry     beta= 0.60
     Davidson diagonalization with overlap

---- Real-time Memory Report at c_bands before calling an iterative solver
            45 MiB given to the printing process from OS
             0 MiB allocation reported by mallinfo(arena+hblkhd)
        122971 MiB available memory on the node where the printing process lives
------------------
     ethr =  1.29E-10,  avg # of iterations =  5.3

     total cpu time spent up to now is        4.6 secs

     End of self-consistent calculation

          k = 0.0000 0.0000 0.0000 (  2733 PWs)   bands (ev):

    -5.6506   6.4689   6.4689   6.4689   9.0385   9.0385   9.0385  10.0722
    14.1501  14.1501  14.5013  17.7756  17.7756  17.7756  22.0082  29.6340
    29.6340  29.6340  30.6772  30.6772  32.6225  32.6225  32.6225  36.0414
    36.0414  36.0414  41.3376  41.3376  41.3376  45.1495  45.1495  45.4095
    47.3327  47.3327  49.4079  49.4079  49.4079  51.0580  51.0580  51.0580

     occupation numbers 
     1.0000   1.0000   1.0000   1.0000   0.0000   0.0000   0.0000   0.0000
     0.0000   0.0000   0.0000   0.0000   0.0000   0.0000   0.0000   0.0000
     0.0000   0.0000   0.0000   0.0000   0.0000   0.0000   0.0000   0.0000
     0.0000   0.0000   0.0000   0.0000   0.0000   0.0000   0.0000   0.0000
     0.0000   0.0000   0.0000   0.0000   0.0000   0.0000   0.0000   0.0000

          k =-0.0884 0.0884-0.0884 (  2719 PWs)   bands (ev):

    -5.4425   4.8623   6.1753   6.1753   9.0213   9.4703   9.4703  11.3691
    13.6651  13.6651  15.3018  17.2108  18.9475  18.9475  23.2546  27.6655
    27.6655  28.0506  30.3593  30.3593  33.0903  33.0903  33.8829  36.2299
    38.1480  38.1480  39.1210  40.8947  40.8947  43.4216  43.4216  45.5039
    45.5039  45.9618  48.9074  48.9074  48.9922  49.2214  50.4226  50.8797

     occupation numbers 
     1.0000   1.0000   1.0000   1.0000   0.0000   0.0000   0.0000   0.0000
     0.0000   0.0000   0.0000   0.0000   0.0000   0.0000   0.0000   0.0000
     0.0000   0.0000   0.0000   0.0000   0.0000   0.0000   0.0000   0.0000
     0.0000   0.0000   0.0000   0.0000   0.0000   0.0000   0.0000   0.0000
     0.0000   0.0000   0.0000   0.0000   0.0000   0.0000   0.0000   0.0000

          k =-0.1768 0.1768-0.1768 (  2716 PWs)   bands (ev):

    -4.8347   2.5003   5.6996   5.6996   8.5575   9.9832   9.9832  13.5590
    13.6322  13.6322  15.5210  18.4365  21.1917  21.1917  24.4550  24.4550
    24.6571  26.7741  30.5335  30.5335  33.4070  33.4070  34.4091  36.2271
    36.7590  38.6172  38.6172  40.1246  40.1246  41.1199  41.1199  45.1016
    45.1016  45.3503  45.9333  46.3505  48.1978  48.1978  50.5507  50.9010

     occupation numbers 
     1.0000   1.0000   1.0000   1.0000   0.0000   0.0000   0.0000   0.0000
     0.0000   0.0000   0.0000   0.0000   0.0000   0.0000   0.0000   0.0000
     0.0000   0.0000   0.0000   0.0000   0.0000   0.0000   0.0000   0.0000
     0.0000   0.0000   0.0000   0.0000   0.0000   0.0000   0.0000   0.0000
     0.0000   0.0000   0.0000   0.0000   0.0000   0.0000   0.0000   0.0000

          k =-0.2652 0.2652-0.2652 (  2734 PWs)   bands (ev):

    -3.9200   0.4422   5.3707   5.3707   8.1934   9.9030   9.9030  14.3874
    15.0530  15.0530  16.3320  20.3087  20.3087  20.8171  23.2885  25.1426
    25.1426  29.7135  30.3814  30.3814  30.5019  33.5029  33.5029  35.1281
    35.1281  36.5507  37.4625  39.3204  39.3204  40.3107  40.3107  41.6411
    44.2285  44.5829  47.5862  47.5862  48.6373  48.6373  50.0123  50.8895

     occupation numbers 
     1.0000   1.0000   1.0000   1.0000   0.0000   0.0000   0.0000   0.0000
     0.0000   0.0000   0.0000   0.0000   0.0000   0.0000   0.0000   0.0000
     0.0000   0.0000   0.0000   0.0000   0.0000   0.0000   0.0000   0.0000
     0.0000   0.0000   0.0000   0.0000   0.0000   0.0000   0.0000   0.0000
     0.0000   0.0000   0.0000   0.0000   0.0000   0.0000   0.0000   0.0000

          k = 0.3536-0.3536 0.3536 (  2764 PWs)   bands (ev):

    -3.2616  -0.6069   5.2585   5.2585   8.0649   9.7822   9.7822  14.2125
    17.0055  17.0055  17.9174  17.9174  17.9829  19.7963  25.9995  26.6378
    28.2347  28.2347  28.4076  28.4076  32.3692  33.0588  33.0588  34.1894
    34.1894  35.1506  37.8528  39.1785  39.1785  39.6592  39.6592  40.6784
    43.3642  43.7554  47.6039  47.6039  49.6254  49.6254  49.9123  50.6928

     occupation numbers 
     1.0000   1.0000   1.0000   1.0000   0.0000   0.0000   0.0000   0.0000
     0.0000   0.0000   0.0000   0.0000   0.0000   0.0000   0.0000   0.0000
     0.0000   0.0000   0.0000   0.0000   0.0000   0.0000   0.0000   0.0000
     0.0000   0.0000   0.0000   0.0000   0.0000   0.0000   0.0000   0.0000
     0.0000   0.0000   0.0000   0.0000   0.0000   0.0000   0.0000   0.0000

          k = 0.0000 0.1768 0.0000 (  2722 PWs)   bands (ev):

    -5.3724   5.1534   5.6450   5.6450   8.4719  10.2003  10.2003  11.0404
    12.9708  14.4566  15.6096  18.2514  18.2514  18.7370  23.8442  27.2210
    27.2210  28.3592  29.3312  30.0026  33.1427  33.6446  33.6446  37.9734
    37.9734  38.4265  39.7595  39.7781  39.7781  42.1134  44.0538  44.6011
    46.8164  47.2000  47.4786  47.4786  48.9102  49.2199  49.2199  50.6739

     occupation numbers 
     1.0000   1.0000   1.0000   1.0000   0.0000   0.0000   0.0000   0.0000
     0.0000   0.0000   0.0000   0.0000   0.0000   0.0000   0.0000   0.0000
     0.0000   0.0000   0.0000   0.0000   0.0000   0.0000   0.0000   0.0000
     0.0000   0.0000   0.0000   0.0000   0.0000   0.0000   0.0000   0.0000
     0.0000   0.0000   0.0000   0.0000   0.0000   0.0000   0.0000   0.0000

          k =-0.0884 0.2652-0.0884 (  2725 PWs)   bands (ev):

    -4.8943   3.2263   5.1258   5.2131   8.6109  10.2569  10.9691  11.2022
    14.1127  14.6326  16.5855  18.1440  19.6773  20.9556  24.1928  24.7353
    25.8974  28.1261  28.2569  29.6644  32.8718  33.9906  34.8214  36.5856
    38.1563  38.5333  38.8373  39.6559  40.2043  40.8733  42.4851  42.7379
    45.2103  45.7593  47.0206  47.3049  47.5781  49.0587  50.3353  50.6338

     occupation numbers 
     1.0000   1.0000   1.0000   1.0000   0.0000   0.0000   0.0000   0.0000
     0.0000   0.0000   0.0000   0.0000   0.0000   0.0000   0.0000   0.0000
     0.0000   0.0000   0.0000   0.0000   0.0000   0.0000   0.0000   0.0000
     0.0000   0.0000   0.0000   0.0000   0.0000   0.0000   0.0000   0.0000
     0.0000   0.0000   0.0000   0.0000   0.0000   0.0000   0.0000   0.0000

          k =-0.1768 0.3536-0.1768 (  2718 PWs)   bands (ev):

    -4.0614   1.1251   4.6136   4.8563   8.7193  10.1518  10.9409  11.9421
    15.7949  15.8735  16.5859  19.9486  20.1206  21.7627  23.2694  24.2792
    25.2450  28.4450  29.2541  30.2542  31.4594  32.1513  34.1865  35.8153
    36.9510  37.0785  37.1523  38.4779  39.5013  39.9620  41.6062  43.2240
    44.5208  44.8153  45.8513  46.5093  49.1924  49.3492  49.6768  51.0319

     occupation numbers 
     1.0000   1.0000   1.0000   1.0000   0.0000   0.0000   0.0000   0.0000
     0.0000   0.0000   0.0000   0.0000   0.0000   0.0000   0.0000   0.0000
     0.0000   0.0000   0.0000   0.0000   0.0000   0.0000   0.0000   0.0000
     0.0000   0.0000   0.0000   0.0000   0.0000   0.0000   0.0000   0.0000
     0.0000   0.0000   0.0000   0.0000   0.0000   0.0000   0.0000   0.0000

          k = 0.4419-0.2652 0.4419 (  2725 PWs)   bands (ev):

    -3.1753  -0.3740   4.1593   4.8844   8.6761   9.9983  10.5591  13.8872
    15.4959  16.9587  18.1362  18.2076  19.1977  21.7174  24.9422  26.2526
    26.9535  27.6826  28.5079  28.9134  31.4181  32.7010  33.1131  34.2036
    34.7468  36.4448  36.8567  37.2116  39.4914  39.9261  40.5948  41.7456
    43.9847  44.5428  45.6983  47.4567  48.3205  50.6234  51.0169  52.5888

     occupation numbers 
     1.0000   1.0000   1.0000   1.0000   0.0000   0.0000   0.0000   0.0000
     0.0000   0.0000   0.0000   0.0000   0.0000   0.0000   0.0000   0.0000
     0.0000   0.0000   0.0000   0.0000   0.0000   0.0000   0.0000   0.0000
     0.0000   0.0000   0.0000   0.0000   0.0000   0.0000   0.0000   0.0000
     0.0000   0.0000   0.0000   0.0000   0.0000   0.0000   0.0000   0.0000

          k = 0.3536-0.1768 0.3536 (  2731 PWs)   bands (ev):

    -3.4279   0.0069   3.9707   5.1882   8.8625  10.0934  10.3266  14.4643
    14.5638  15.7337  17.7460  19.0501  20.8192  21.4370  23.4869  25.2474
    27.1145  28.8208  28.9687  29.1548  31.4255  31.8297  34.0534  34.2426
    34.5834  35.9880  37.1698  38.0432  40.0865  40.2849  40.3313  41.8286
    44.0523  44.8598  46.0278  47.3964  47.8027  48.9543  50.9486  52.3349

     occupation numbers 
     1.0000   1.0000   1.0000   1.0000   0.0000   0.0000   0.0000   0.0000
     0.0000   0.0000   0.0000   0.0000   0.0000   0.0000   0.0000   0.0000
     0.0000   0.0000   0.0000   0.0000   0.0000   0.0000   0.0000   0.0000
     0.0000   0.0000   0.0000   0.0000   0.0000   0.0000   0.0000   0.0000
     0.0000   0.0000   0.0000   0.0000   0.0000   0.0000   0.0000   0.0000

          k = 0.2652-0.0884 0.2652 (  2729 PWs)   bands (ev):

    -4.3746   1.7981   4.1175   5.6889   9.2416  10.1551  10.3305  12.8434
    12.8992  16.3940  16.6477  19.0231  20.5396  22.0419  22.9414  24.7154
    25.4558  28.4517  28.5753  29.5116  32.6522  33.1850  34.1037  36.3060
    36.3074  37.7325  37.8729  38.9298  40.0365  40.8380  41.2432  43.8714
    44.6434  45.4526  45.7122  46.8693  47.1906  48.5030  48.6351  51.0553

     occupation numbers 
     1.0000   1.0000   1.0000   1.0000   0.0000   0.0000   0.0000   0.0000
     0.0000   0.0000   0.0000   0.0000   0.0000   0.0000   0.0000   0.0000
     0.0000   0.0000   0.0000   0.0000   0.0000   0.0000   0.0000   0.0000
     0.0000   0.0000   0.0000   0.0000   0.0000   0.0000   0.0000   0.0000
     0.0000   0.0000   0.0000   0.0000   0.0000   0.0000   0.0000   0.0000

          k = 0.1768 0.0000 0.1768 (  2721 PWs)   bands (ev):

    -5.0996   3.7760   4.8038   6.1769   9.5806   9.6069   9.8453  12.1316
    12.7555  14.5401  16.3375  17.6956  18.9036  21.0300  24.3242  24.7786
    27.6535  27.7229  28.3444  29.6176  33.2192  33.4533  35.3792  37.1221
    37.4570  38.8222  39.0642  40.4293  40.5818  41.0263  42.5827  42.7873
    45.4159  46.3931  46.5977  47.9386  48.1572  49.0197  49.4918  50.8100

     occupation numbers 
     1.0000   1.0000   1.0000   1.0000   0.0000   0.0000   0.0000   0.0000
     0.0000   0.0000   0.0000   0.0000   0.0000   0.0000   0.0000   0.0000
     0.0000   0.0000   0.0000   0.0000   0.0000   0.0000   0.0000   0.0000
     0.0000   0.0000   0.0000   0.0000   0.0000   0.0000   0.0000   0.0000
     0.0000   0.0000   0.0000   0.0000   0.0000   0.0000   0.0000   0.0000

          k = 0.0000 0.3536 0.0000 (  2706 PWs)   bands (ev):

    -4.5474   2.9540   4.5440   4.5440   7.5656   9.5726  12.2826  12.2826
    14.7256  15.3743  18.0459  19.5455  19.5455  20.2582  24.0512  24.0512
    24.8781  27.0941  27.5729  31.5091  32.8348  33.9808  33.9808  36.2262
    36.3296  36.3296  37.1312  41.2612  42.0644  42.0644  42.0829  43.6086
    44.3110  44.3110  47.8060  47.8060  47.8454  48.3234  48.4815  51.0028

     occupation numbers 
     1.0000   1.0000   1.0000   1.0000   0.0000   0.0000   0.0000   0.0000
     0.0000   0.0000   0.0000   0.0000   0.0000   0.0000   0.0000   0.0000
     0.0000   0.0000   0.0000   0.0000   0.0000   0.0000   0.0000   0.0000
     0.0000   0.0000   0.0000   0.0000   0.0000   0.0000   0.0000   0.0000
     0.0000   0.0000   0.0000   0.0000   0.0000   0.0000   0.0000   0.0000

          k =-0.0884 0.4419-0.0884 (  2729 PWs)   bands (ev):

    -3.8225   1.5024   3.7464   4.2218   7.7841   9.3309  12.5451  12.7823
    16.4526  16.8593  18.2361  19.7460  20.3635  21.4061  22.4766  23.7295
    24.9868  26.6073  28.4761  30.8150  31.8379  32.9826  33.0647  34.1823
    35.7626  35.8325  37.2330  40.0308  40.0957  41.9290  43.2821  43.6465
    43.9740  44.2539  46.3633  46.9209  48.8549  48.8942  49.9658  51.1227

     occupation numbers 
     1.0000   1.0000   1.0000   1.0000   0.0000   0.0000   0.0000   0.0000
     0.0000   0.0000   0.0000   0.0000   0.0000   0.0000   0.0000   0.0000
     0.0000   0.0000   0.0000   0.0000   0.0000   0.0000   0.0000   0.0000
     0.0000   0.0000   0.0000   0.0000   0.0000   0.0000   0.0000   0.0000
     0.0000   0.0000   0.0000   0.0000   0.0000   0.0000   0.0000   0.0000

          k = 0.5303-0.1768 0.5303 (  2713 PWs)   bands (ev):

    -2.8733   0.0243   2.8652   4.2268   7.9471  10.9084  12.3078  12.4104
    16.7917  17.0327  18.6914  19.3183  19.6920  23.4549  24.2940  25.2911
    25.9829  26.2107  26.5643  29.6043  30.3335  31.8569  32.2827  34.5805
    35.8373  35.9511  36.1852  37.9813  38.7939  41.0746  42.3745  42.9253
    43.8968  44.0050  45.6306  47.5978  49.9515  51.0912  51.3361  52.0455

     occupation numbers 
     1.0000   1.0000   1.0000   1.0000   0.0000   0.0000   0.0000   0.0000
     0.0000   0.0000   0.0000   0.0000   0.0000   0.0000   0.0000   0.0000
     0.0000   0.0000   0.0000   0.0000   0.0000   0.0000   0.0000   0.0000
     0.0000   0.0000   0.0000   0.0000   0.0000   0.0000   0.0000   0.0000
     0.0000   0.0000   0.0000   0.0000   0.0000   0.0000   0.0000   0.0000

          k = 0.4419-0.0884 0.4419 (  2721 PWs)   bands (ev):

    -2.6613  -0.2434   2.3946   4.5526   8.2822  11.9706  11.9711  13.4942
    14.4445  14.6102  19.1236  21.3686  21.8543  22.6462  23.0580  24.9767
    26.0734  26.6130  28.4323  28.7246  31.3435  32.1086  32.5763  33.0389
    34.6188  35.3802  36.1539  36.8477  40.2185  40.8066  42.6806  42.7734
    43.8228  44.1337  45.0785  46.9431  48.9874  49.8576  51.4164  51.6194

     occupation numbers 
     1.0000   1.0000   1.0000   1.0000   0.0000   0.0000   0.0000   0.0000
     0.0000   0.0000   0.0000   0.0000   0.0000   0.0000   0.0000   0.0000
     0.0000   0.0000   0.0000   0.0000   0.0000   0.0000   0.0000   0.0000
     0.0000   0.0000   0.0000   0.0000   0.0000   0.0000   0.0000   0.0000
     0.0000   0.0000   0.0000   0.0000   0.0000   0.0000   0.0000   0.0000

          k = 0.3536 0.0000 0.3536 (  2720 PWs)   bands (ev):

    -3.5634   0.9467   2.6339   5.1231   8.9142  11.2958  11.6248  12.7225
    12.8623  16.2107  19.1756  19.8030  20.0313  23.2906  23.5725  24.1309
    25.3388  27.8721  28.3193  30.5326  31.5412  31.8790  33.5267  33.8543
    34.4889  36.1959  36.9457  37.9957  40.7041  40.8707  43.0177  43.6826
    44.4446  44.8679  45.3720  45.4627  45.6426  49.1408  50.8080  51.9028

     occupation numbers 
     1.0000   1.0000   1.0000   1.0000   0.0000   0.0000   0.0000   0.0000
     0.0000   0.0000   0.0000   0.0000   0.0000   0.0000   0.0000   0.0000
     0.0000   0.0000   0.0000   0.0000   0.0000   0.0000   0.0000   0.0000
     0.0000   0.0000   0.0000   0.0000   0.0000   0.0000   0.0000   0.0000
     0.0000   0.0000   0.0000   0.0000   0.0000   0.0000   0.0000   0.0000

          k = 0.0000 0.5303 0.0000 (  2730 PWs)   bands (ev):

    -3.2084   0.6897   3.8167   3.8167   7.0306   7.9469  14.5956  14.5956
    16.8971  17.4388  19.5534  19.5534  20.3368  21.6928  22.5088  23.4837
    23.4837  25.5368  30.0678  30.1614  30.7519  30.7519  32.1635  33.6586
    35.7676  35.8368  35.8368  41.9941  41.9941  42.0949  42.1372  42.8124
    46.1441  46.1441  46.4377  46.8985  46.8985  48.1736  49.2250  50.5656

     occupation numbers 
     1.0000   1.0000   1.0000   1.0000   0.0000   0.0000   0.0000   0.0000
     0.0000   0.0000   0.0000   0.0000   0.0000   0.0000   0.0000   0.0000
     0.0000   0.0000   0.0000   0.0000   0.0000   0.0000   0.0000   0.0000
     0.0000   0.0000   0.0000   0.0000   0.0000   0.0000   0.0000   0.0000
     0.0000   0.0000   0.0000   0.0000   0.0000   0.0000   0.0000   0.0000

          k = 0.6187-0.0884 0.6187 (  2724 PWs)   bands (ev):

    -2.2913  -0.4152   2.9593   3.7399   7.3056   8.3986  14.8044  14.9314
    17.3142  17.3536  18.8213  19.5892  21.4702  21.6195  22.5155  25.3459
    25.4250  26.0419  27.4789  28.9682  29.4592  30.1255  30.7416  32.4132
    36.1065  36.7790  38.6188  39.6485  39.7372  41.4719  42.1774  43.6533
    44.3968  45.7709  46.7239  46.8312  47.4008  49.0721  49.2765  50.1130

     occupation numbers 
     1.0000   1.0000   1.0000   1.0000   0.0000   0.0000   0.0000   0.0000
     0.0000   0.0000   0.0000   0.0000   0.0000   0.0000   0.0000   0.0000
     0.0000   0.0000   0.0000   0.0000   0.0000   0.0000   0.0000   0.0000
     0.0000   0.0000   0.0000   0.0000   0.0000   0.0000   0.0000   0.0000
     0.0000   0.0000   0.0000   0.0000   0.0000   0.0000   0.0000   0.0000

          k = 0.5303 0.0000 0.5303 (  2702 PWs)   bands (ev):

    -1.8354  -0.8242   2.0658   4.0029   7.6211  10.5923  14.0205  14.5484
    14.8667  14.9507  21.3860  21.4582  22.0704  22.2634  22.5273  23.7130
    26.2448  26.5707  28.1475  28.3113  29.6069  29.6597  31.8061  32.6366
    35.6930  36.1933  36.4034  37.6922  41.4420  41.7303  41.8588  42.1508
    43.4945  44.7597  45.7989  46.6449  49.7758  49.8541  50.5142  51.9469

     occupation numbers 
     1.0000   1.0000   1.0000   1.0000   0.0000   0.0000   0.0000   0.0000
     0.0000   0.0000   0.0000   0.0000   0.0000   0.0000   0.0000   0.0000
     0.0000   0.0000   0.0000   0.0000   0.0000   0.0000   0.0000   0.0000
     0.0000   0.0000   0.0000   0.0000   0.0000   0.0000   0.0000   0.0000
     0.0000   0.0000   0.0000   0.0000   0.0000   0.0000   0.0000   0.0000

          k = 0.0000-0.7071 0.0000 (  2762 PWs)   bands (ev):

    -1.4228  -1.4228   3.5674   3.5674   7.1142   7.1142  16.7665  16.7665
    17.4325  17.4325  19.0119  19.0119  19.7845  19.7845  25.4074  25.4074
    26.4133  26.4133  26.8531  26.8531  28.2836  28.2836  31.9643  31.9643
    36.2033  36.2033  41.0724  41.0724  41.1579  41.1579  42.3721  42.3721
    45.2679  45.2679  46.5832  46.5832  47.4174  47.4174  48.7839  48.7839

     occupation numbers 
     1.0000   1.0000   1.0000   1.0000   0.0000   0.0000   0.0000   0.0000
     0.0000   0.0000   0.0000   0.0000   0.0000   0.0000   0.0000   0.0000
     0.0000   0.0000   0.0000   0.0000   0.0000   0.0000   0.0000   0.0000
     0.0000   0.0000   0.0000   0.0000   0.0000   0.0000   0.0000   0.0000
     0.0000   0.0000   0.0000   0.0000   0.0000   0.0000   0.0000   0.0000

          k =-0.1768 0.3536 0.0000 (  2724 PWs)   bands (ev):

    -4.2943   2.1583   3.6981   5.0196   8.9108  10.4291  10.6355  12.0189
    14.3029  16.8471  17.6807  18.6278  20.4218  21.6946  22.4256  24.8626
    25.9421  27.1406  28.3598  30.1349  31.9262  32.6870  34.5513  35.5096
    36.2791  38.2824  38.4730  38.5880  40.6019  40.6538  42.3111  42.3604
    43.6095  45.9982  47.1408  47.1733  47.4765  48.6468  49.7171  50.4269

     occupation numbers 
     1.0000   1.0000   1.0000   1.0000   0.0000   0.0000   0.0000   0.0000
     0.0000   0.0000   0.0000   0.0000   0.0000   0.0000   0.0000   0.0000
     0.0000   0.0000   0.0000   0.0000   0.0000   0.0000   0.0000   0.0000
     0.0000   0.0000   0.0000   0.0000   0.0000   0.0000   0.0000   0.0000
     0.0000   0.0000   0.0000   0.0000   0.0000   0.0000   0.0000   0.0000

          k = 0.4419-0.2652 0.6187 (  2726 PWs)   bands (ev):

    -3.3854   0.5716   3.0858   4.5038   9.3422  10.0317  11.5117  12.4455
    15.5479  16.2920  18.5381  19.5612  20.8545  21.7127  23.8693  24.8962
    25.5926  27.6131  28.4478  29.4667  30.8885  32.3961  32.7890  33.9832
    35.4760  36.3944  37.8882  38.1256  39.0940  39.9323  41.8587  42.7555
    43.3218  45.7689  46.1164  47.6931  48.5942  49.2642  50.1304  51.8626

     occupation numbers 
     1.0000   1.0000   1.0000   1.0000   0.0000   0.0000   0.0000   0.0000
     0.0000   0.0000   0.0000   0.0000   0.0000   0.0000   0.0000   0.0000
     0.0000   0.0000   0.0000   0.0000   0.0000   0.0000   0.0000   0.0000
     0.0000   0.0000   0.0000   0.0000   0.0000   0.0000   0.0000   0.0000
     0.0000   0.0000   0.0000   0.0000   0.0000   0.0000   0.0000   0.0000

          k = 0.3536-0.1768 0.5303 (  2724 PWs)   bands (ev):

    -2.7130  -0.4011   2.9595   4.2673   9.5659   9.5666  12.4239  13.6120
    13.9446  17.0833  18.2940  18.9779  22.1394  22.2650  24.7373  25.0584
    26.0860  27.4579  27.5546  28.6220  31.6744  32.0866  32.1961  33.0151
    35.0228  36.4911  36.7040  37.8947  38.6610  39.1318  41.6259  42.1318
    43.2557  45.7009  46.6509  47.5077  49.6104  50.2731  50.9856  52.1891

     occupation numbers 
     1.0000   1.0000   1.0000   1.0000   0.0000   0.0000   0.0000   0.0000
     0.0000   0.0000   0.0000   0.0000   0.0000   0.0000   0.0000   0.0000
     0.0000   0.0000   0.0000   0.0000   0.0000   0.0000   0.0000   0.0000
     0.0000   0.0000   0.0000   0.0000   0.0000   0.0000   0.0000   0.0000
     0.0000   0.0000   0.0000   0.0000   0.0000   0.0000   0.0000   0.0000

          k = 0.5303-0.1768 0.7071 (  2719 PWs)   bands (ev):

    -3.0040   0.4671   3.0358   3.6512   8.3926   9.0793  12.2772  14.5401
    16.7291  16.7783  19.5309  19.8565  20.8324  21.2136  23.3176  23.6266
    26.1848  26.6550  28.4388  28.5485  30.1370  30.8379  33.0055  34.2184
    34.9670  35.9438  38.4664  39.3106  39.4594  39.9176  40.8261  44.3335
    45.2057  45.5495  47.1464  47.2946  48.4524  48.7681  49.6527  50.7353

     occupation numbers 
     1.0000   1.0000   1.0000   1.0000   0.0000   0.0000   0.0000   0.0000
     0.0000   0.0000   0.0000   0.0000   0.0000   0.0000   0.0000   0.0000
     0.0000   0.0000   0.0000   0.0000   0.0000   0.0000   0.0000   0.0000
     0.0000   0.0000   0.0000   0.0000   0.0000   0.0000   0.0000   0.0000
     0.0000   0.0000   0.0000   0.0000   0.0000   0.0000   0.0000   0.0000

          k = 0.4419-0.0884 0.6187 (  2720 PWs)   bands (ev):

    -2.1059  -0.5221   2.3171   3.4451   8.8319  10.7377  11.7985  13.9765
    14.9454  17.6359  18.8219  20.9223  21.9730  22.6231  24.1174  24.9949
    25.3603  26.0140  27.7311  28.4036  29.3881  30.8340  31.7522  34.2635
    34.9039  35.7831  37.3472  38.1148  38.7234  39.2424  41.3967  43.2743
    45.1265  46.0406  46.6207  47.5330  49.3019  49.7677  50.0109  51.7121

     occupation numbers 
     1.0000   1.0000   1.0000   1.0000   0.0000   0.0000   0.0000   0.0000
     0.0000   0.0000   0.0000   0.0000   0.0000   0.0000   0.0000   0.0000
     0.0000   0.0000   0.0000   0.0000   0.0000   0.0000   0.0000   0.0000
     0.0000   0.0000   0.0000   0.0000   0.0000   0.0000   0.0000   0.0000
     0.0000   0.0000   0.0000   0.0000   0.0000   0.0000   0.0000   0.0000

          k = 0.3536 0.0000 0.5303 (  2715 PWs)   bands (ev):

    -2.4642  -0.1529   2.1451   3.8310   9.3218  11.0249  11.7134  13.5392
    14.4357  15.7892  20.6253  20.9242  21.2249  22.9265  23.1590  24.9536
    25.7611  26.6572  27.7311  28.7992  29.9168  31.2093  32.6841  34.1746
    34.7341  35.9649  36.0273  37.8170  38.2724  39.7274  41.7042  44.3575
    44.5436  45.2260  46.1108  47.0074  49.3414  50.3941  50.5952  51.4784

     occupation numbers 
     1.0000   1.0000   1.0000   1.0000   0.0000   0.0000   0.0000   0.0000
     0.0000   0.0000   0.0000   0.0000   0.0000   0.0000   0.0000   0.0000
     0.0000   0.0000   0.0000   0.0000   0.0000   0.0000   0.0000   0.0000
     0.0000   0.0000   0.0000   0.0000   0.0000   0.0000   0.0000   0.0000
     0.0000   0.0000   0.0000   0.0000   0.0000   0.0000   0.0000   0.0000

          k =-0.1768-0.7071 0.0000 (  2722 PWs)   bands (ev):

    -1.3401  -1.3401   2.9785   2.9785   8.4049   8.4049  14.3904  14.3904
    17.1303  17.1303  19.4740  19.4740  22.2184  22.2184  23.9510  23.9510
    25.7452  25.7452  28.3133  28.3133  29.7906  29.7906  30.6978  30.6978
    37.0474  37.0474  38.8459  38.8459  39.2111  39.2111  43.1676  43.1676
    44.9711  44.9711  46.9656  46.9656  48.6566  48.6566  49.6028  49.6028

     occupation numbers 
     1.0000   1.0000   1.0000   1.0000   0.0000   0.0000   0.0000   0.0000
     0.0000   0.0000   0.0000   0.0000   0.0000   0.0000   0.0000   0.0000
     0.0000   0.0000   0.0000   0.0000   0.0000   0.0000   0.0000   0.0000
     0.0000   0.0000   0.0000   0.0000   0.0000   0.0000   0.0000   0.0000
     0.0000   0.0000   0.0000   0.0000   0.0000   0.0000   0.0000   0.0000

          k =-0.3536-0.7071 0.0000 (  2720 PWs)   bands (ev):

    -1.2486  -1.2486   2.5258   2.5258  10.7108  10.7108  11.5355  11.5355
    17.1418  17.1418  19.6487  19.6487  23.0135  23.0135  25.2513  25.2513
    25.5855  25.5855  26.3651  26.3651  30.3700  30.3700  34.1671  34.1671
    34.4163  34.4163  36.3532  36.3532  39.1937  39.1937  43.7204  43.7204
    44.7745  44.7745  46.9771  46.9771  50.0135  50.0135  51.1046  51.1046

     occupation numbers 
     1.0000   1.0000   1.0000   1.0000   0.0000   0.0000   0.0000   0.0000
     0.0000   0.0000   0.0000   0.0000   0.0000   0.0000   0.0000   0.0000
     0.0000   0.0000   0.0000   0.0000   0.0000   0.0000   0.0000   0.0000
     0.0000   0.0000   0.0000   0.0000   0.0000   0.0000   0.0000   0.0000
     0.0000   0.0000   0.0000   0.0000   0.0000   0.0000   0.0000   0.0000

     highest occupied, lowest unoccupied level (ev):     6.4689    7.0306

!    total energy              =     -15.76432706 Ry
     estimated scf accuracy    <          2.0E-10 Ry

     The total energy is the sum of the following terms:
     one-electron contribution =       4.92195263 Ry
     hartree contribution      =       1.08209020 Ry
     xc contribution           =      -4.84039795 Ry
     ewald contribution        =     -16.92797194 Ry

     convergence has been achieved in   6 iterations

     Writing all to output data dir ./out/aiida.save/
 
     init_run     :      0.12s CPU      0.17s WALL (       1 calls)
     electrons    :      3.88s CPU      4.16s WALL (       1 calls)

     Called by init_run:
     wfcinit      :      0.10s CPU      0.12s WALL (       1 calls)
     wfcinit:wfcr :      0.09s CPU      0.11s WALL (      15 calls)
     potinit      :      0.01s CPU      0.01s WALL (       1 calls)
     hinit0       :      0.01s CPU      0.02s WALL (       1 calls)

     Called by electrons:
     c_bands      :      3.61s CPU      3.85s WALL (       6 calls)
     sum_band     :      0.25s CPU      0.27s WALL (       6 calls)
     v_of_rho     :      0.02s CPU      0.02s WALL (       7 calls)
     v_h          :      0.00s CPU      0.00s WALL (       7 calls)
     v_xc         :      0.02s CPU      0.02s WALL (       7 calls)
     mix_rho      :      0.00s CPU      0.00s WALL (       6 calls)

     Called by c_bands:
     init_us_2    :      0.01s CPU      0.01s WALL (     195 calls)
     init_us_2:cp :      0.01s CPU      0.01s WALL (     195 calls)
     cegterg      :      3.49s CPU      3.72s WALL (      90 calls)

     Called by sum_band:
     sum_band:wei :      0.00s CPU      0.00s WALL (       6 calls)
     sum_band:loo :      0.25s CPU      0.27s WALL (       6 calls)
     sum_band:buf :      0.00s CPU      0.00s WALL (      90 calls)
     sum_band:ini :      0.00s CPU      0.00s WALL (      90 calls)

     Called by *egterg:
     cdiaghg      :      1.25s CPU      1.31s WALL (     687 calls)
     cegterg:over :      0.15s CPU      0.17s WALL (     597 calls)
     cegterg:upda :      0.06s CPU      0.07s WALL (     597 calls)
     cegterg:last :      0.10s CPU      0.10s WALL (     320 calls)
     h_psi        :      1.92s CPU      2.08s WALL (     702 calls)
     g_psi        :      0.01s CPU      0.02s WALL (     597 calls)

     Called by h_psi:
     h_psi:calbec :      0.04s CPU      0.04s WALL (     702 calls)
     vloc_psi     :      1.85s CPU      2.00s WALL (     702 calls)
     add_vuspsi   :      0.02s CPU      0.02s WALL (     702 calls)

     General routines
     calbec       :      0.03s CPU      0.04s WALL (     702 calls)
     fft          :      0.01s CPU      0.02s WALL (      69 calls)
     ffts         :      0.00s CPU      0.00s WALL (       6 calls)
     fftw         :      1.86s CPU      2.01s WALL (   33726 calls)
 
     Parallel routines
 
     PWSCF        :      4.06s CPU      4.72s WALL

 
   This run was terminated on:  13:36:48  18Dec2023            

=------------------------------------------------------------------------------=
   JOB DONE.
=------------------------------------------------------------------------------=
