
     Program PWSCF v.7.1 starts on 29Dec2023 at  2:27:30 

     This program is part of the open-source Quantum ESPRESSO suite
     for quantum simulation of materials; please cite
         "P. Giannozzi et al., J. Phys.:Condens. Matter 21 395502 (2009);
         "P. Giannozzi et al., J. Phys.:Condens. Matter 29 465901 (2017);
         "P. Giannozzi et al., J. Chem. Phys. 152 154105 (2020);
          URL http://www.quantum-espresso.org", 
     in publications or presentations arising from this work. More details at
     http://www.quantum-espresso.org/quote

     Parallel version (MPI), running on    24 processors

     MPI processes distributed on     1 nodes
     122883 MiB available memory on the printing compute node when the environment starts
 
     Reading input from pw_mp-1415_scf_k3000_E55.in
Warning: card &CELL ignored
Warning: card / ignored

     Current dimensions of program PWSCF are:
     Max number of different atomic species (ntypx) = 10
     Max number of k-points (npk) =  40000
     Max angular momentum in pseudopotentials (lmaxx) =  4
 
     K-points division:     npool     =       2
     R & G space division:  proc/nbgrp/npool/nimage =      12
     Subspace diagonalization in iterative solution of the eigenvalue problem:
     a serial algorithm will be used

 
     Parallelization info
     --------------------
     sticks:   dense  smooth     PW     G-vecs:    dense   smooth      PW
     Min          79      79     24                 1629     1629     273
     Max          80      80     25                 1633     1633     275
     Sum         955     955    295                19579    19579    3287
 
     Using Slab Decomposition
 


     bravais-lattice index     =            2
     lattice parameter (alat)  =      11.2259  a.u.
     unit-cell volume          =     353.6717 (a.u.)^3
     number of atoms/cell      =            2
     number of atomic types    =            2
     number of electrons       =        16.00
     number of Kohn-Sham states=           16
     kinetic-energy cutoff     =      55.0000  Ry
     charge density cutoff     =     220.0000  Ry
     scf convergence threshold =      1.0E-10
     mixing beta               =       0.7000
     number of iterations used =            8  plain     mixing
     Exchange-correlation= PBE
                           (   1   4   3   4   0   0   0)

     celldm(1)=  11.225872  celldm(2)=   0.000000  celldm(3)=   0.000000
     celldm(4)=   0.000000  celldm(5)=   0.000000  celldm(6)=   0.000000

     crystal axes: (cart. coord. in units of alat)
               a(1) = (  -0.500000   0.000000   0.500000 )  
               a(2) = (   0.000000   0.500000   0.500000 )  
               a(3) = (  -0.500000   0.500000   0.000000 )  

     reciprocal axes: (cart. coord. in units 2 pi/alat)
               b(1) = ( -1.000000 -1.000000  1.000000 )  
               b(2) = (  1.000000  1.000000  1.000000 )  
               b(3) = ( -1.000000  1.000000 -1.000000 )  


     PseudoPot. # 1 for Ca read from file:
     /usr/scratch4/magr4985/MG/HTDF/pseudo/SG15/Ca.upf
     MD5 check sum: b43c970dc090f2312d256360aabdb6f1
     Pseudo is Norm-conserving, Zval = 10.0
     Generated using ONCVPSP code by D. R. Hamann
     Using radial grid of  602 points,  6 beta functions with: 
                l(1) =   0
                l(2) =   0
                l(3) =   1
                l(4) =   1
                l(5) =   2
                l(6) =   2

     PseudoPot. # 2 for Se read from file:
     /usr/scratch4/magr4985/MG/HTDF/pseudo/SG15/Se.upf
     MD5 check sum: e78e48a4f5d8ce1f8dc76ec1271f249c
     Pseudo is Norm-conserving, Zval =  6.0
     Generated using ONCVPSP code by D. R. Hamann
     Using radial grid of  602 points,  6 beta functions with: 
                l(1) =   0
                l(2) =   0
                l(3) =   1
                l(4) =   1
                l(5) =   2
                l(6) =   2

     atomic species   valence    mass     pseudopotential
        Ca            10.00    40.07800     Ca( 1.00)
        Se             6.00    78.96000     Se( 1.00)

     48 Sym. Ops., with inversion, found



   Cartesian axes

     site n.     atom                  positions (alat units)
         1           Ca  tau(   1) = (   0.0000000   0.0000000   0.0000000  )
         2           Se  tau(   2) = (  -0.5000000   0.5000000   0.5000000  )

     number of k points=    72  Gaussian smearing, width (Ry)=  0.0005
                       cart. coord. in units 2pi/alat
        k(    1) = (   0.0000000   0.0000000   0.0000000), wk =   0.0011574
        k(    2) = (  -0.0833333   0.0833333  -0.0833333), wk =   0.0092593
        k(    3) = (  -0.1666667   0.1666667  -0.1666667), wk =   0.0092593
        k(    4) = (  -0.2500000   0.2500000  -0.2500000), wk =   0.0092593
        k(    5) = (  -0.3333333   0.3333333  -0.3333333), wk =   0.0092593
        k(    6) = (  -0.4166667   0.4166667  -0.4166667), wk =   0.0092593
        k(    7) = (   0.5000000  -0.5000000   0.5000000), wk =   0.0046296
        k(    8) = (   0.0000000   0.1666667   0.0000000), wk =   0.0069444
        k(    9) = (  -0.0833333   0.2500000  -0.0833333), wk =   0.0277778
        k(   10) = (  -0.1666667   0.3333333  -0.1666667), wk =   0.0277778
        k(   11) = (  -0.2500000   0.4166667  -0.2500000), wk =   0.0277778
        k(   12) = (  -0.3333333   0.5000000  -0.3333333), wk =   0.0277778
        k(   13) = (   0.5833333  -0.4166667   0.5833333), wk =   0.0277778
        k(   14) = (   0.5000000  -0.3333333   0.5000000), wk =   0.0277778
        k(   15) = (   0.4166667  -0.2500000   0.4166667), wk =   0.0277778
        k(   16) = (   0.3333333  -0.1666667   0.3333333), wk =   0.0277778
        k(   17) = (   0.2500000  -0.0833333   0.2500000), wk =   0.0277778
        k(   18) = (   0.1666667  -0.0000000   0.1666667), wk =   0.0138889
        k(   19) = (   0.0000000   0.3333333   0.0000000), wk =   0.0069444
        k(   20) = (  -0.0833333   0.4166667  -0.0833333), wk =   0.0277778
        k(   21) = (  -0.1666667   0.5000000  -0.1666667), wk =   0.0277778
        k(   22) = (  -0.2500000   0.5833333  -0.2500000), wk =   0.0277778
        k(   23) = (   0.6666667  -0.3333333   0.6666667), wk =   0.0277778
        k(   24) = (   0.5833333  -0.2500000   0.5833333), wk =   0.0277778
        k(   25) = (   0.5000000  -0.1666667   0.5000000), wk =   0.0277778
        k(   26) = (   0.4166667  -0.0833333   0.4166667), wk =   0.0277778
        k(   27) = (   0.3333333   0.0000000   0.3333333), wk =   0.0138889
        k(   28) = (   0.0000000   0.5000000   0.0000000), wk =   0.0069444
        k(   29) = (  -0.0833333   0.5833333  -0.0833333), wk =   0.0277778
        k(   30) = (  -0.1666667   0.6666667  -0.1666667), wk =   0.0277778
        k(   31) = (   0.7500000  -0.2500000   0.7500000), wk =   0.0277778
        k(   32) = (   0.6666667  -0.1666667   0.6666667), wk =   0.0277778
        k(   33) = (   0.5833333  -0.0833333   0.5833333), wk =   0.0277778
        k(   34) = (   0.5000000   0.0000000   0.5000000), wk =   0.0138889
        k(   35) = (   0.0000000   0.6666667   0.0000000), wk =   0.0069444
        k(   36) = (  -0.0833333   0.7500000  -0.0833333), wk =   0.0277778
        k(   37) = (   0.8333333  -0.1666667   0.8333333), wk =   0.0277778
        k(   38) = (   0.7500000  -0.0833333   0.7500000), wk =   0.0277778
        k(   39) = (   0.6666667  -0.0000000   0.6666667), wk =   0.0138889
        k(   40) = (   0.0000000   0.8333333   0.0000000), wk =   0.0069444
        k(   41) = (   0.9166667  -0.0833333   0.9166667), wk =   0.0277778
        k(   42) = (   0.8333333   0.0000000   0.8333333), wk =   0.0138889
        k(   43) = (   0.0000000  -1.0000000   0.0000000), wk =   0.0034722
        k(   44) = (  -0.1666667   0.3333333   0.0000000), wk =   0.0277778
        k(   45) = (  -0.2500000   0.4166667  -0.0833333), wk =   0.0555556
        k(   46) = (  -0.3333333   0.5000000  -0.1666667), wk =   0.0555556
        k(   47) = (   0.5833333  -0.4166667   0.7500000), wk =   0.0555556
        k(   48) = (   0.5000000  -0.3333333   0.6666667), wk =   0.0277778
        k(   49) = (  -0.1666667   0.5000000   0.0000000), wk =   0.0277778
        k(   50) = (  -0.2500000   0.5833333  -0.0833333), wk =   0.0555556
        k(   51) = (   0.6666667  -0.3333333   0.8333333), wk =   0.0555556
        k(   52) = (   0.5833333  -0.2500000   0.7500000), wk =   0.0555556
        k(   53) = (   0.5000000  -0.1666667   0.6666667), wk =   0.0555556
        k(   54) = (   0.4166667  -0.0833333   0.5833333), wk =   0.0555556
        k(   55) = (   0.3333333   0.0000000   0.5000000), wk =   0.0277778
        k(   56) = (  -0.1666667   0.6666667  -0.0000000), wk =   0.0277778
        k(   57) = (   0.7500000  -0.2500000   0.9166667), wk =   0.0555556
        k(   58) = (   0.6666667  -0.1666667   0.8333333), wk =   0.0555556
        k(   59) = (   0.5833333  -0.0833333   0.7500000), wk =   0.0555556
        k(   60) = (   0.5000000   0.0000000   0.6666667), wk =   0.0277778
        k(   61) = (   0.8333333  -0.1666667   1.0000000), wk =   0.0277778
        k(   62) = (   0.7500000  -0.0833333   0.9166667), wk =   0.0555556
        k(   63) = (   0.6666667   0.0000000   0.8333333), wk =   0.0277778
        k(   64) = (  -0.1666667  -1.0000000  -0.0000000), wk =   0.0138889
        k(   65) = (   0.6666667  -0.3333333   1.0000000), wk =   0.0277778
        k(   66) = (   0.5833333  -0.2500000   0.9166667), wk =   0.0555556
        k(   67) = (   0.5000000  -0.1666667   0.8333333), wk =   0.0277778
        k(   68) = (   0.6666667  -0.1666667   1.0000000), wk =   0.0277778
        k(   69) = (   0.5833333  -0.0833333   0.9166667), wk =   0.0555556
        k(   70) = (   0.5000000   0.0000000   0.8333333), wk =   0.0277778
        k(   71) = (  -0.3333333  -1.0000000   0.0000000), wk =   0.0138889
        k(   72) = (  -0.5000000  -1.0000000   0.0000000), wk =   0.0069444

     Dense  grid:    19579 G-vectors     FFT dimensions: (  40,  40,  40)

     Estimated max dynamical RAM per process >       3.97 MB

     Estimated total dynamical RAM >      90.39 MB

     Initial potential from superposition of free atoms

     starting charge      15.7781, renormalised to      16.0000
     Starting wfcs are random

     total cpu time spent up to now is        0.2 secs

     Self-consistent Calculation

     iteration #  1     ecut=    55.00 Ry     beta= 0.70
     Davidson diagonalization with overlap
     ethr =  1.00E-02,  avg # of iterations =  9.0

     Threshold (ethr) on eigenvalues was too large:
     Diagonalizing with lowered threshold

     Davidson diagonalization with overlap
     ethr =  3.42E-04,  avg # of iterations =  2.8

     total cpu time spent up to now is        1.4 secs

     total energy              =     -92.93771120 Ry
     estimated scf accuracy    <       0.05393948 Ry

     iteration #  2     ecut=    55.00 Ry     beta= 0.70
     Davidson diagonalization with overlap
     ethr =  3.37E-04,  avg # of iterations =  2.8

     total cpu time spent up to now is        1.8 secs

     total energy              =     -92.95095637 Ry
     estimated scf accuracy    <       0.01737240 Ry

     iteration #  3     ecut=    55.00 Ry     beta= 0.70
     Davidson diagonalization with overlap
     ethr =  1.09E-04,  avg # of iterations =  2.4

     total cpu time spent up to now is        2.2 secs

     total energy              =     -92.95514221 Ry
     estimated scf accuracy    <       0.00044466 Ry

     iteration #  4     ecut=    55.00 Ry     beta= 0.70
     Davidson diagonalization with overlap
     ethr =  2.78E-06,  avg # of iterations =  5.4

     total cpu time spent up to now is        2.7 secs

     total energy              =     -92.95519609 Ry
     estimated scf accuracy    <       0.00000211 Ry

     iteration #  5     ecut=    55.00 Ry     beta= 0.70
     Davidson diagonalization with overlap
     ethr =  1.32E-08,  avg # of iterations =  2.1

     total cpu time spent up to now is        3.0 secs

     total energy              =     -92.95519681 Ry
     estimated scf accuracy    <       0.00000020 Ry

     iteration #  6     ecut=    55.00 Ry     beta= 0.70
     Davidson diagonalization with overlap
     ethr =  1.27E-09,  avg # of iterations =  2.0

     total cpu time spent up to now is        3.4 secs

     total energy              =     -92.95519688 Ry
     estimated scf accuracy    <       0.00000001 Ry

     iteration #  7     ecut=    55.00 Ry     beta= 0.70
     Davidson diagonalization with overlap
     ethr =  7.00E-11,  avg # of iterations =  2.0

     total cpu time spent up to now is        3.7 secs

     total energy              =     -92.95519688 Ry
     estimated scf accuracy    <          1.3E-09 Ry

     iteration #  8     ecut=    55.00 Ry     beta= 0.70
     Davidson diagonalization with overlap
     ethr =  7.89E-12,  avg # of iterations =  2.0

     total cpu time spent up to now is        4.1 secs

     total energy              =     -92.95519688 Ry
     estimated scf accuracy    <          1.2E-10 Ry

     iteration #  9     ecut=    55.00 Ry     beta= 0.70
     Davidson diagonalization with overlap
     ethr =  7.25E-13,  avg # of iterations =  2.0

     total cpu time spent up to now is        4.4 secs

     End of self-consistent calculation

          k = 0.0000 0.0000 0.0000 (  2421 PWs)   bands (ev):

   -33.9453 -14.9302 -14.9302 -14.9302  -5.8636   5.9001   5.9001   5.9001
     9.1591   9.5934   9.5934   9.5934  10.1452  10.1452  15.5980  18.1102

          k =-0.0833 0.0833-0.0833 (  2439 PWs)   bands (ev):

   -33.9449 -14.9375 -14.9307 -14.9307  -5.8231   5.5154   5.7885   5.7885
     9.4188   9.6909   9.6909   9.7692  10.3254  10.3254  15.6994  17.8240

          k =-0.1667 0.1667-0.1667 (  2457 PWs)   bands (ev):

   -33.9437 -14.9573 -14.9320 -14.9320  -5.7098   4.7289   5.5211   5.5211
     9.5023   9.9423   9.9423  10.6341  10.8243  10.8243  15.6450  17.2664

          k =-0.2500 0.2500-0.2500 (  2442 PWs)   bands (ev):

   -33.9422 -14.9840 -14.9339 -14.9339  -5.5482   3.9218   5.2164   5.2164
     9.6001  10.3067  10.3067  11.5130  11.5130  11.5491  15.2284  16.3014

          k =-0.3333 0.3333-0.3333 (  2442 PWs)   bands (ev):

   -33.9406 -15.0103 -14.9357 -14.9357  -5.3773   3.2552   4.9572   4.9572
     9.8163  10.7452  10.7452  11.9161  12.2457  12.2457  15.2734  15.3102

          k =-0.4167 0.4167-0.4167 (  2443 PWs)   bands (ev):

   -33.9395 -15.0294 -14.9371 -14.9371  -5.2452   2.8169   4.7880   4.7880
    10.1459  11.1596  11.1596  11.6128  12.9035  12.9035  14.4374  14.4374

          k = 0.5000-0.5000 0.5000 (  2452 PWs)   bands (ev):

   -33.9391 -15.0364 -14.9376 -14.9376  -5.1951   2.6637   4.7296   4.7296
    10.3834  11.3200  11.3474  11.3474  13.3088  13.3088  13.9327  13.9327

          k = 0.0000 0.1667 0.0000 (  2449 PWs)   bands (ev):

   -33.9447 -14.9370 -14.9323 -14.9323  -5.8107   5.3715   5.7882   5.7882
     9.4365   9.5190   9.8467   9.8467  10.1899  10.6535  15.7556  17.6597

          k =-0.0833 0.2500-0.0833 (  2449 PWs)   bands (ev):

   -33.9438 -14.9515 -14.9345 -14.9329  -5.7248   4.7984   5.5642   5.6051
     9.3770   9.8041  10.1028  10.2730  10.4511  11.3395  15.8168  17.0524

          k =-0.1667 0.3333-0.1667 (  2449 PWs)   bands (ev):

   -33.9424 -14.9752 -14.9369 -14.9342  -5.5839   4.1023   5.2333   5.3311
     9.4388  10.1690  10.4144  10.9720  11.0148  12.1372  15.3883  16.2481

          k =-0.2500 0.4167-0.2500 (  2443 PWs)   bands (ev):

   -33.9409 -15.0010 -14.9388 -14.9364  -5.4208   3.4592   4.9375   5.0610
     9.6240  10.6001  10.8211  11.6451  11.6530  12.6811  14.9705  15.5382

          k =-0.3333 0.5000-0.3333 (  2440 PWs)   bands (ev):

   -33.9396 -15.0218 -14.9396 -14.9390  -5.2791   2.9836   4.7348   4.8548
     9.9430  11.0577  11.2206  11.6843  12.2557  13.1020  14.3446  14.9954

          k = 0.5833-0.4167 0.5833 (  2439 PWs)   bands (ev):

   -33.9389 -15.0324 -14.9412 -14.9392  -5.2026   2.7501   4.6467   4.7445
    10.3165  11.2753  11.3760  11.4331  12.8487  13.2086  14.0133  14.4581

          k = 0.5000-0.3333 0.5000 (  2437 PWs)   bands (ev):

   -33.9391 -15.0302 -14.9424 -14.9376  -5.2177   2.7961   4.6790   4.7438
    10.2952  11.1627  11.3043  11.5602  12.5865  13.2893  14.2713  14.4471

          k = 0.4167-0.2500 0.4167 (  2439 PWs)   bands (ev):

   -33.9400 -15.0157 -14.9423 -14.9353  -5.3191   3.1147   4.8272   4.8529
     9.9695  10.7500  11.1861  11.6849  12.0983  12.9198  14.9394  15.0225

          k = 0.3333-0.1667 0.3333 (  2434 PWs)   bands (ev):

   -33.9414 -14.9928 -14.9408 -14.9329  -5.4727   3.6580   5.0588   5.0746
     9.7376  10.3179  10.7385  11.1015  12.0556  12.1956  15.1774  15.6708

          k = 0.2500-0.0833 0.2500 (  2448 PWs)   bands (ev):

   -33.9429 -14.9675 -14.9380 -14.9311  -5.6331   4.3425   5.3297   5.3828
     9.6504   9.9632  10.2408  10.4524  11.4289  11.4688  15.5574  16.2929

          k = 0.1667-0.0000 0.1667 (  2447 PWs)   bands (ev):

   -33.9442 -14.9471 -14.9344 -14.9303  -5.7594   5.0389   5.6049   5.6658
     9.6660   9.7033   9.7394  10.0831  10.6758  10.7667  15.7778  17.0689

          k = 0.0000 0.3333 0.0000 (  2445 PWs)   bands (ev):

   -33.9432 -14.9544 -14.9379 -14.9379  -5.6750   4.4889   5.5427   5.5427
     9.0596   9.9116  10.3154  10.4701  10.4701  12.1137  16.0651  16.4802

          k =-0.0833 0.4167-0.0833 (  2451 PWs)   bands (ev):

   -33.9420 -14.9705 -14.9412 -14.9400  -5.5715   4.0441   5.2953   5.3626
     8.9901  10.2128  10.4796  10.8917  10.9087  12.9350  15.3301  15.9782

          k =-0.1667 0.5000-0.1667 (  2442 PWs)   bands (ev):

   -33.9406 -14.9916 -14.9436 -14.9426  -5.4383   3.5972   4.9372   5.1358
     9.1470  10.6950  10.8321  11.3706  11.3741  13.4204  14.3873  15.7649

          k =-0.2500 0.5833-0.2500 (  2439 PWs)   bands (ev):

   -33.9394 -15.0105 -14.9465 -14.9444  -5.3098   3.2225   4.6345   4.9290
     9.4647  11.2159  11.2720  11.6391  11.7577  13.4494  13.7793  15.6417

          k = 0.6667-0.3333 0.6667 (  2430 PWs)   bands (ev):

   -33.9386 -15.0219 -14.9508 -14.9435  -5.2226   2.9879   4.4595   4.7863
     9.9220  11.3263  11.4545  11.6605  12.2429  13.1388  13.8798  15.2794

          k = 0.5833-0.2500 0.5833 (  2429 PWs)   bands (ev):

   -33.9385 -15.0234 -14.9541 -14.9410  -5.2047   2.9439   4.4269   4.7315
    10.4069  10.9496  11.2424  11.8470  12.4829  12.8879  14.4463  14.9960

          k = 0.5000-0.1667 0.5000 (  2427 PWs)   bands (ev):

   -33.9391 -15.0150 -14.9551 -14.9377  -5.2621   3.1031   4.5335   4.7726
    10.3222  10.8614  11.2476  11.5175  12.0513  13.2727  14.8441  14.9308

          k = 0.4167-0.0833 0.4167 (  2447 PWs)   bands (ev):

   -33.9402 -14.9995 -14.9527 -14.9343  -5.3760   3.4342   4.7663   4.9035
    10.1313  10.4671  10.8556  11.2596  12.0926  12.9027  15.1419  15.2603

          k = 0.3333 0.0000 0.3333 (  2445 PWs)   bands (ev):

   -33.9417 -14.9821 -14.9465 -14.9319  -5.5120   3.8736   5.0849   5.1028
    10.0010  10.1498  10.3301  10.7698  12.0617  12.1714  15.4019  15.4757

          k = 0.0000 0.5000 0.0000 (  2429 PWs)   bands (ev):

   -33.9411 -14.9752 -14.9456 -14.9456  -5.5142   3.8163   5.2966   5.2966
     8.6293  10.3103  10.4957  11.1755  11.1755  13.7795  14.5727  16.3134

          k =-0.0833 0.5833-0.0833 (  2444 PWs)   bands (ev):

   -33.9400 -14.9881 -14.9494 -14.9489  -5.4260   3.5743   5.0601   5.1568
     8.6017  10.6552  10.6973  11.4753  11.4793  13.6636  14.3620  16.0889

          k =-0.1667 0.6667-0.1667 (  2434 PWs)   bands (ev):

   -33.9388 -15.0011 -14.9549 -14.9503  -5.3291   3.3916   4.6748   4.9909
     8.8569  11.0887  11.2287  11.6439  11.6664  12.9642  14.3149  16.0544

          k = 0.7500-0.2500 0.7500 (  2424 PWs)   bands (ev):

   -33.9380 -15.0093 -14.9622 -14.9494  -5.2494   3.2866   4.3234   4.8459
     9.2924  11.4865  11.5323  11.7461  11.7964  12.6470  14.1714  15.9243

          k = 0.6667-0.1667 0.6667 (  2411 PWs)   bands (ev):

   -33.9378 -15.0109 -14.9689 -14.9464  -5.2097   3.2443   4.1359   4.7545
     9.8692  11.1302  11.3867  11.8019  12.3134  12.7336  14.3858  15.5432

          k = 0.5833-0.0833 0.5833 (  2436 PWs)   bands (ev):

   -33.9382 -15.0079 -14.9709 -14.9421  -5.2224   3.2417   4.1776   4.7341
    10.5412  10.8602  11.0649  11.3440  12.6566  12.9406  14.7633  15.2526

          k = 0.5000 0.0000 0.5000 (  2437 PWs)   bands (ev):

   -33.9391 -15.0040 -14.9648 -14.9377  -5.2839   3.2953   4.4208   4.7873
    10.6204  10.7322  10.8447  11.2574  12.2043  13.2675  14.9149  15.3006

          k = 0.0000 0.6667 0.0000 (  2453 PWs)   bands (ev):

   -33.9391 -14.9928 -14.9534 -14.9534  -5.3874   3.4768   5.1143   5.1143
     8.2638  10.6876  10.7184  11.6627  11.6627  12.9652  15.1580  16.4657

          k =-0.0833 0.7500-0.0833 (  2431 PWs)   bands (ev):

   -33.9382 -14.9998 -14.9583 -14.9557  -5.3326   3.4158   4.8896   5.0215
     8.3084  10.8780  11.0410  11.7595  11.7675  12.3867  15.2786  16.3195

          k = 0.8333-0.1667 0.8333 (  2436 PWs)   bands (ev):

   -33.9375 -15.0026 -14.9674 -14.9553  -5.2754   3.4421   4.4546   4.9088
     8.6579  11.2491  11.6118  11.6776  11.7358  12.0114  15.0344  16.1018

          k = 0.7500-0.0833 0.7500 (  2425 PWs)   bands (ev):

   -33.9373 -14.9988 -14.9799 -14.9523  -5.2308   3.5625   3.9909   4.8090
     9.1840  11.4415  11.5629  11.7103  11.7661  12.3816  14.8860  15.5788

          k = 0.6667-0.0000 0.6667 (  2440 PWs)   bands (ev):

   -33.9375 -14.9970 -14.9850 -14.9474  -5.2111   3.5114   3.8713   4.7466
     9.8362  11.2995  11.3201  11.3353  12.3554  12.9031  14.9061  15.0052

          k = 0.0000 0.8333 0.0000 (  2446 PWs)   bands (ev):

   -33.9376 -15.0037 -14.9591 -14.9591  -5.3198   3.3984   5.0091   5.0091
     8.0257  10.8365  10.9394  11.8402  11.8402  12.0290  15.8027  16.5482

          k = 0.9167-0.0833 0.9167 (  2439 PWs)   bands (ev):

   -33.9372 -15.0050 -14.9638 -14.9596  -5.2940   3.4276   4.7947   4.9572
     8.1532  10.9854  11.1051  11.8056  11.8295  11.8753  15.7395  16.3969

          k = 0.8333 0.0000 0.8333 (  2432 PWs)   bands (ev):

   -33.9371 -15.0011 -14.9736 -14.9571  -5.2617   3.5236   4.3464   4.8830
     8.5868  11.3065  11.4960  11.7282  11.7373  11.8524  15.4703  15.9461

          k = 0.0000-1.0000 0.0000 (  2450 PWs)   bands (ev):

   -33.9370 -15.0072 -14.9612 -14.9612  -5.3008   3.4059   4.9754   4.9754
     7.9435  10.8867  10.8929  11.8409  11.8668  11.8668  15.9368  16.5745

          k =-0.1667 0.3333 0.0000 (  2450 PWs)   bands (ev):

   -33.9428 -14.9649 -14.9402 -14.9335  -5.6286   4.3120   5.3634   5.3976
     9.3518  10.0662  10.3593  10.4043  10.9867  12.1270  15.7643  16.0056

          k =-0.2500 0.4167-0.0833 (  2444 PWs)   bands (ev):

   -33.9414 -14.9851 -14.9451 -14.9349  -5.4924   3.7808   5.0513   5.1377
     9.4840  10.3898  10.7840  10.7945  11.6111  12.7905  15.0754  15.5451

          k =-0.3333 0.5000-0.1667 (  2439 PWs)   bands (ev):

   -33.9400 -15.0060 -14.9480 -14.9374  -5.3500   3.3099   4.7565   4.9205
     9.7191  10.7738  11.2417  11.3689  11.9022  13.1435  14.5061  15.3021

          k = 0.5833-0.4167 0.7500 (  2434 PWs)   bands (ev):

   -33.9389 -15.0214 -14.9491 -14.9400  -5.2412   2.9855   4.5661   4.7752
    10.0720  11.1509  11.3325  11.6935  12.0915  13.3370  14.1331  15.0153

          k = 0.5000-0.3333 0.6667 (  2438 PWs)   bands (ev):

   -33.9386 -15.0270 -14.9493 -14.9413  -5.2004   2.8698   4.5014   4.7243
    10.3755  10.9405  11.4497  11.7120  12.6439  12.8859  14.3149  14.7957

          k =-0.1667 0.5000 0.0000 (  2442 PWs)   bands (ev):

   -33.9409 -14.9830 -14.9482 -14.9413  -5.4753   3.7244   5.1274   5.1409
     8.9542  10.4439  10.7599  11.1035  11.3964  13.6089  14.4424  15.7347

          k =-0.2500 0.5833-0.0833 (  2435 PWs)   bands (ev):

   -33.9396 -14.9977 -14.9538 -14.9436  -5.3637   3.4439   4.7757   4.9574
     9.1701  10.7732  11.2772  11.3987  11.6722  13.6419  13.8919  15.5347

          k = 0.6667-0.3333 0.8333 (  2439 PWs)   bands (ev):

   -33.9386 -15.0098 -14.9577 -14.9461  -5.2664   3.2397   4.4620   4.8068
     9.5366  11.2178  11.4202  11.6455  11.8747  13.2935  13.8558  15.4786

          k = 0.5833-0.2500 0.7500 (  2427 PWs)   bands (ev):

   -33.9380 -15.0156 -14.9611 -14.9464  -5.2116   3.1347   4.2900   4.7168
    10.0263  10.9238  11.5573  11.8205  12.1316  13.0206  14.2368  15.5122

          k = 0.5000-0.1667 0.6667 (  2430 PWs)   bands (ev):

   -33.9382 -15.0140 -14.9632 -14.9440  -5.2163   3.1443   4.2942   4.7039
    10.3770  10.7133  11.3293  11.6867  12.3038  13.1252  14.4998  15.1735

          k = 0.4167-0.0833 0.5833 (  2434 PWs)   bands (ev):

   -33.9389 -15.0064 -14.9617 -14.9402  -5.2792   3.2678   4.4704   4.7709
    10.0502  10.9225  11.2649  11.3150  12.0802  13.4465  14.3048  15.0516

          k = 0.3333 0.0000 0.5000 (  2436 PWs)   bands (ev):

   -33.9401 -14.9959 -14.9552 -14.9368  -5.3809   3.4882   4.7714   4.9107
     9.7409  10.6183  10.9166  11.2887  11.9063  13.2246  14.5650  15.2097

          k =-0.1667 0.6667-0.0000 (  2429 PWs)   bands (ev):

   -33.9389 -14.9961 -14.9562 -14.9510  -5.3572   3.4500   4.9238   4.9590
     8.6161  10.7503  11.1331  11.6315  11.6674  12.9643  14.6883  15.9087

          k = 0.7500-0.2500 0.9167 (  2430 PWs)   bands (ev):

   -33.9381 -15.0021 -14.9629 -14.9535  -5.2865   3.4049   4.5492   4.8223
     8.9208  11.0262  11.5411  11.7387  11.7518  12.5091  14.6210  15.8086

          k = 0.6667-0.1667 0.8333 (  2432 PWs)   bands (ev):

   -33.9375 -15.0033 -14.9716 -14.9532  -5.2328   3.4393   4.1667   4.7249
     9.3894  11.1983  11.4704  11.7173  11.8837  12.7685  14.5435  15.6858

          k = 0.5833-0.0833 0.7500 (  2428 PWs)   bands (ev):

   -33.9375 -15.0013 -14.9784 -14.9498  -5.2111   3.4526   3.9895   4.6775
     9.9757  10.8362  11.4084  11.6558  12.0437  13.2876  14.6497  15.2409

          k = 0.5000 0.0000 0.6667 (  2442 PWs)   bands (ev):

   -33.9380 -15.0030 -14.9744 -14.9448  -5.2281   3.3401   4.1553   4.6915
    10.4629  10.6463  11.1137  11.4269  12.4129  13.3310  14.6339  14.9396

          k = 0.8333-0.1667 1.0000 (  2433 PWs)   bands (ev):

   -33.9375 -15.0025 -14.9621 -14.9593  -5.2964   3.4292   4.8035   4.8263
     8.3967  10.9130  11.4258  11.6992  11.8342  12.0166  15.4063  16.1808

          k = 0.7500-0.0833 0.9167 (  2429 PWs)   bands (ev):

   -33.9372 -15.0003 -14.9712 -14.9594  -5.2577   3.5253   4.3828   4.7433
     8.7863  11.0981  11.4934  11.7514  11.8409  12.0896  15.2854  15.9260

          k = 0.6667 0.0000 0.8333 (  2431 PWs)   bands (ev):

   -33.9372 -14.9928 -14.9846 -14.9555  -5.2265   3.7005   3.9066   4.6929
     9.3322  11.2278  11.3875  11.6467  11.7574  12.8407  15.1619  15.3407

          k =-0.1667-1.0000-0.0000 (  2428 PWs)   bands (ev):

   -33.9370 -15.0041 -14.9642 -14.9627  -5.2800   3.4651   4.7643   4.7714
     8.3213  10.9296  11.4024  11.7234  11.8167  11.8682  15.6804  16.2780

          k = 0.6667-0.3333 1.0000 (  2433 PWs)   bands (ev):

   -33.9386 -15.0016 -14.9639 -14.9468  -5.2880   3.3729   4.5331   4.7373
     9.4594  10.8951  11.3939  11.5453  11.9420  13.3161  14.0460  15.3125

          k = 0.5833-0.2500 0.9167 (  2433 PWs)   bands (ev):

   -33.9378 -15.0035 -14.9705 -14.9509  -5.2318   3.3832   4.2448   4.6236
     9.8691  10.8866  11.2035  11.6964  12.0879  13.4087  14.2543  15.2914

          k = 0.5000-0.1667 0.8333 (  2430 PWs)   bands (ev):

   -33.9375 -15.0040 -14.9726 -14.9529  -5.2111   3.4103   4.1125   4.5875
    10.3082  10.3872  11.5708  11.7231  11.8075  13.6372  14.4236  15.4736

          k = 0.6667-0.1667 1.0000 (  2436 PWs)   bands (ev):

   -33.9374 -14.9992 -14.9703 -14.9589  -5.2469   3.5084   4.3899   4.5412
     9.2753  11.0359  11.2003  11.8164  11.9017  12.7713  14.8152  15.6061

          k = 0.5833-0.0833 0.9167 (  2435 PWs)   bands (ev):

   -33.9372 -14.9933 -14.9791 -14.9609  -5.2209   3.6866   4.0479   4.4608
     9.7644  10.7681  11.2260  11.6322  11.8388  13.6041  14.8620  15.4575

          k = 0.5000 0.0000 0.8333 (  2435 PWs)   bands (ev):

   -33.9373 -14.9935 -14.9815 -14.9571  -5.2152   3.6360   3.9954   4.4971
    10.3082  10.3227  11.2371  11.7690  11.7886  14.0815  14.4473  15.2046

          k =-0.3333-1.0000 0.0000 (  2424 PWs)   bands (ev):

   -33.9370 -14.9957 -14.9726 -14.9656  -5.2379   3.6440   4.3427   4.4134
     9.2121  11.0255  11.1986  11.6309  11.8709  12.8259  15.3211  15.7435

          k =-0.5000-1.0000 0.0000 (  2468 PWs)   bands (ev):

   -33.9370 -14.9841 -14.9841 -14.9671  -5.2166   3.9425   3.9425   4.2528
    10.2739  10.2739  11.0908  11.5589  11.8723  14.4074  14.8127  15.3495

     the Fermi energy is     6.7582 ev

!    total energy              =     -92.95519688 Ry
     estimated scf accuracy    <          2.4E-12 Ry
     smearing contrib. (-TS)   =      -0.00000000 Ry
     internal energy E=F+TS    =     -92.95519688 Ry

     The total energy is F=E-TS. E is the sum of the following terms:
     one-electron contribution =     -30.89632801 Ry
     hartree contribution      =      19.62299370 Ry
     xc contribution           =     -14.48804725 Ry
     ewald contribution        =     -67.19381532 Ry

     convergence has been achieved in   9 iterations

     Writing all to output data dir out/mp-1415.save/
 
     init_run     :      0.12s CPU      0.16s WALL (       1 calls)
     electrons    :      3.76s CPU      4.22s WALL (       1 calls)

     Called by init_run:
     wfcinit      :      0.09s CPU      0.11s WALL (       1 calls)
     potinit      :      0.01s CPU      0.01s WALL (       1 calls)
     hinit0       :      0.01s CPU      0.03s WALL (       1 calls)

     Called by electrons:
     c_bands      :      3.27s CPU      3.61s WALL (      10 calls)
     sum_band     :      0.45s CPU      0.54s WALL (      10 calls)
     v_of_rho     :      0.03s CPU      0.03s WALL (      10 calls)
     mix_rho      :      0.01s CPU      0.01s WALL (      10 calls)

     Called by c_bands:
     init_us_2    :      0.05s CPU      0.06s WALL (     756 calls)
     init_us_2:cp :      0.05s CPU      0.06s WALL (     756 calls)
     cegterg      :      2.89s CPU      3.04s WALL (     360 calls)

     Called by *egterg:
     cdiaghg      :      0.43s CPU      0.45s WALL (    1528 calls)
     h_psi        :      2.29s CPU      2.43s WALL (    1600 calls)
     g_psi        :      0.01s CPU      0.02s WALL (    1204 calls)

     Called by h_psi:
     h_psi:calbec :      0.08s CPU      0.08s WALL (    1600 calls)
     vloc_psi     :      2.15s CPU      2.27s WALL (    1600 calls)
     add_vuspsi   :      0.05s CPU      0.06s WALL (    1600 calls)

     General routines
     calbec       :      0.07s CPU      0.08s WALL (    1600 calls)
     fft          :      0.01s CPU      0.03s WALL (     100 calls)
     ffts         :      0.00s CPU      0.00s WALL (      10 calls)
     fftw         :      2.27s CPU      2.42s WALL (   40162 calls)
     davcio       :      0.05s CPU      0.23s WALL (    1238 calls)
 
     Parallel routines
 
     PWSCF        :      3.95s CPU      4.60s WALL

 
   This run was terminated on:   2:27:34  29Dec2023            

=------------------------------------------------------------------------------=
   JOB DONE.
=------------------------------------------------------------------------------=
