
     Program PWSCF v.7.1 starts on  2Dec2023 at 21:31:35 

     This program is part of the open-source Quantum ESPRESSO suite
     for quantum simulation of materials; please cite
         "P. Giannozzi et al., J. Phys.:Condens. Matter 21 395502 (2009);
         "P. Giannozzi et al., J. Phys.:Condens. Matter 29 465901 (2017);
         "P. Giannozzi et al., J. Chem. Phys. 152 154105 (2020);
          URL http://www.quantum-espresso.org", 
     in publications or presentations arising from this work. More details at
     http://www.quantum-espresso.org/quote

     Parallel version (MPI), running on    24 processors

     MPI processes distributed on     1 nodes
     122950 MiB available memory on the printing compute node when the environment starts
 
     Reading input from pw_mp-315_scf_k3000_E67.in
Warning: card &CELL ignored
Warning: card / ignored

     Current dimensions of program PWSCF are:
     Max number of different atomic species (ntypx) = 10
     Max number of k-points (npk) =  40000
     Max angular momentum in pseudopotentials (lmaxx) =  4
 
     K-points division:     npool     =       2
     R & G space division:  proc/nbgrp/npool/nimage =      12
     Subspace diagonalization in iterative solution of the eigenvalue problem:
     a serial algorithm will be used

 
     Parallelization info
     --------------------
     sticks:   dense  smooth     PW     G-vecs:    dense   smooth      PW
     Min          96      96     29                 2156     2156     356
     Max          97      97     30                 2159     2159     359
     Sum        1159    1159    349                25893    25893    4279
 
     Using Slab Decomposition
 


     bravais-lattice index     =            2
     lattice parameter (alat)  =      11.1794  a.u.
     unit-cell volume          =     349.2998 (a.u.)^3
     number of atoms/cell      =            3
     number of atomic types    =            2
     number of electrons       =        28.00
     number of Kohn-Sham states=           28
     kinetic-energy cutoff     =      67.0000  Ry
     charge density cutoff     =     268.0000  Ry
     scf convergence threshold =      1.0E-10
     mixing beta               =       0.7000
     number of iterations used =            8  plain     mixing
     Exchange-correlation= PBE
                           (   1   4   3   4   0   0   0)

     celldm(1)=  11.179424  celldm(2)=   0.000000  celldm(3)=   0.000000
     celldm(4)=   0.000000  celldm(5)=   0.000000  celldm(6)=   0.000000

     crystal axes: (cart. coord. in units of alat)
               a(1) = (  -0.500000   0.000000   0.500000 )  
               a(2) = (   0.000000   0.500000   0.500000 )  
               a(3) = (  -0.500000   0.500000   0.000000 )  

     reciprocal axes: (cart. coord. in units 2 pi/alat)
               b(1) = ( -1.000000 -1.000000  1.000000 )  
               b(2) = (  1.000000  1.000000  1.000000 )  
               b(3) = ( -1.000000  1.000000 -1.000000 )  


     PseudoPot. # 1 for F  read from file:
     /usr/scratch4/magr4985/MG/HTDF/pseudo/SG15/F.upf
     MD5 check sum: 1d8275f47d602dd53cad6bcdc0eda7dc
     Pseudo is Norm-conserving, Zval =  7.0
     Generated using ONCVPSP code by D. R. Hamann
     Using radial grid of  602 points,  4 beta functions with: 
                l(1) =   0
                l(2) =   0
                l(3) =   1
                l(4) =   1

     PseudoPot. # 2 for Pb read from file:
     /usr/scratch4/magr4985/MG/HTDF/pseudo/SG15/Pb.upf
     MD5 check sum: 7f27c247474026287e0dbe0f3167d60b
     Pseudo is Norm-conserving, Zval = 14.0
     Generated using ONCVPSP code by D. R. Hamann
     Using radial grid of  602 points,  8 beta functions with: 
                l(1) =   0
                l(2) =   0
                l(3) =   1
                l(4) =   1
                l(5) =   2
                l(6) =   2
                l(7) =   3
                l(8) =   3

     atomic species   valence    mass     pseudopotential
        F              7.00    18.99840     F ( 1.00)
        Pb            14.00   207.20000     Pb( 1.00)

     48 Sym. Ops., with inversion, found



   Cartesian axes

     site n.     atom                  positions (alat units)
         1           Pb  tau(   1) = (   0.0000000   0.0000000   0.0000000  )
         2           F   tau(   2) = (  -0.2500000   0.2500000   0.2500001  )
         3           F   tau(   3) = (  -0.7500000   0.7500001   0.7500001  )

     number of k points=    47  Gaussian smearing, width (Ry)=  0.0005
                       cart. coord. in units 2pi/alat
        k(    1) = (   0.0000000   0.0000000   0.0000000), wk =   0.0020000
        k(    2) = (  -0.1000000   0.1000000  -0.1000000), wk =   0.0160000
        k(    3) = (  -0.2000000   0.2000000  -0.2000000), wk =   0.0160000
        k(    4) = (  -0.3000000   0.3000000  -0.3000000), wk =   0.0160000
        k(    5) = (  -0.4000000   0.4000000  -0.4000000), wk =   0.0160000
        k(    6) = (   0.5000000  -0.5000000   0.5000000), wk =   0.0080000
        k(    7) = (   0.0000000   0.2000000   0.0000000), wk =   0.0120000
        k(    8) = (  -0.1000000   0.3000000  -0.1000000), wk =   0.0480000
        k(    9) = (  -0.2000000   0.4000000  -0.2000000), wk =   0.0480000
        k(   10) = (  -0.3000000   0.5000000  -0.3000000), wk =   0.0480000
        k(   11) = (   0.6000000  -0.4000000   0.6000000), wk =   0.0480000
        k(   12) = (   0.5000000  -0.3000000   0.5000000), wk =   0.0480000
        k(   13) = (   0.4000000  -0.2000000   0.4000000), wk =   0.0480000
        k(   14) = (   0.3000000  -0.1000000   0.3000000), wk =   0.0480000
        k(   15) = (   0.2000000   0.0000000   0.2000000), wk =   0.0240000
        k(   16) = (   0.0000000   0.4000000   0.0000000), wk =   0.0120000
        k(   17) = (  -0.1000000   0.5000000  -0.1000000), wk =   0.0480000
        k(   18) = (  -0.2000000   0.6000000  -0.2000000), wk =   0.0480000
        k(   19) = (   0.7000000  -0.3000000   0.7000000), wk =   0.0480000
        k(   20) = (   0.6000000  -0.2000000   0.6000000), wk =   0.0480000
        k(   21) = (   0.5000000  -0.1000000   0.5000000), wk =   0.0480000
        k(   22) = (   0.4000000   0.0000000   0.4000000), wk =   0.0240000
        k(   23) = (   0.0000000   0.6000000   0.0000000), wk =   0.0120000
        k(   24) = (  -0.1000000   0.7000000  -0.1000000), wk =   0.0480000
        k(   25) = (   0.8000000  -0.2000000   0.8000000), wk =   0.0480000
        k(   26) = (   0.7000000  -0.1000000   0.7000000), wk =   0.0480000
        k(   27) = (   0.6000000  -0.0000000   0.6000000), wk =   0.0240000
        k(   28) = (   0.0000000   0.8000000   0.0000000), wk =   0.0120000
        k(   29) = (   0.9000000  -0.1000000   0.9000000), wk =   0.0480000
        k(   30) = (   0.8000000   0.0000000   0.8000000), wk =   0.0240000
        k(   31) = (   0.0000000  -1.0000000   0.0000000), wk =   0.0060000
        k(   32) = (  -0.2000000   0.4000000   0.0000000), wk =   0.0480000
        k(   33) = (  -0.3000000   0.5000000  -0.1000000), wk =   0.0960000
        k(   34) = (   0.6000000  -0.4000000   0.8000000), wk =   0.0960000
        k(   35) = (   0.5000000  -0.3000000   0.7000000), wk =   0.0480000
        k(   36) = (  -0.2000000   0.6000000   0.0000000), wk =   0.0480000
        k(   37) = (   0.7000000  -0.3000000   0.9000000), wk =   0.0960000
        k(   38) = (   0.6000000  -0.2000000   0.8000000), wk =   0.0960000
        k(   39) = (   0.5000000  -0.1000000   0.7000000), wk =   0.0960000
        k(   40) = (   0.4000000   0.0000000   0.6000000), wk =   0.0480000
        k(   41) = (   0.8000000  -0.2000000   1.0000000), wk =   0.0480000
        k(   42) = (   0.7000000  -0.1000000   0.9000000), wk =   0.0960000
        k(   43) = (   0.6000000   0.0000000   0.8000000), wk =   0.0480000
        k(   44) = (  -0.2000000  -1.0000000   0.0000000), wk =   0.0240000
        k(   45) = (   0.6000000  -0.2000000   1.0000000), wk =   0.0480000
        k(   46) = (   0.5000000  -0.1000000   0.9000000), wk =   0.0480000
        k(   47) = (  -0.4000000  -1.0000000   0.0000000), wk =   0.0240000

     Dense  grid:    25893 G-vectors     FFT dimensions: (  45,  45,  45)

     Estimated max dynamical RAM per process >       8.77 MB

     Estimated total dynamical RAM >     204.05 MB

     Initial potential from superposition of free atoms

     starting charge      27.8972, renormalised to      28.0000
     Starting wfcs are random

     total cpu time spent up to now is        0.5 secs

     Self-consistent Calculation

     iteration #  1     ecut=    67.00 Ry     beta= 0.70
     Davidson diagonalization with overlap
     ethr =  1.00E-02,  avg # of iterations =  9.0

     total cpu time spent up to now is        2.6 secs

     total energy              =    -208.46751415 Ry
     estimated scf accuracy    <       0.36168055 Ry

     iteration #  2     ecut=    67.00 Ry     beta= 0.70
     Davidson diagonalization with overlap
     ethr =  1.29E-03,  avg # of iterations =  2.0

     total cpu time spent up to now is        3.5 secs

     total energy              =    -208.53840037 Ry
     estimated scf accuracy    <       0.39201477 Ry

     iteration #  3     ecut=    67.00 Ry     beta= 0.70
     Davidson diagonalization with overlap
     ethr =  1.29E-03,  avg # of iterations =  1.9

     total cpu time spent up to now is        4.4 secs

     total energy              =    -208.62585256 Ry
     estimated scf accuracy    <       0.00506560 Ry

     iteration #  4     ecut=    67.00 Ry     beta= 0.70
     Davidson diagonalization with overlap
     ethr =  1.81E-05,  avg # of iterations =  5.6

     total cpu time spent up to now is        5.5 secs

     total energy              =    -208.62718054 Ry
     estimated scf accuracy    <       0.00018519 Ry

     iteration #  5     ecut=    67.00 Ry     beta= 0.70
     Davidson diagonalization with overlap
     ethr =  6.61E-07,  avg # of iterations =  3.7

     total cpu time spent up to now is        6.5 secs

     total energy              =    -208.62720220 Ry
     estimated scf accuracy    <       0.00000859 Ry

     iteration #  6     ecut=    67.00 Ry     beta= 0.70
     Davidson diagonalization with overlap
     ethr =  3.07E-08,  avg # of iterations =  2.0

     total cpu time spent up to now is        7.4 secs

     total energy              =    -208.62720427 Ry
     estimated scf accuracy    <       0.00000278 Ry

     iteration #  7     ecut=    67.00 Ry     beta= 0.70
     Davidson diagonalization with overlap
     ethr =  9.94E-09,  avg # of iterations =  1.0

     total cpu time spent up to now is        8.3 secs

     total energy              =    -208.62720455 Ry
     estimated scf accuracy    <       0.00000007 Ry

     iteration #  8     ecut=    67.00 Ry     beta= 0.70
     Davidson diagonalization with overlap
     ethr =  2.60E-10,  avg # of iterations =  2.0

     total cpu time spent up to now is        9.2 secs

     total energy              =    -208.62720457 Ry
     estimated scf accuracy    <          5.3E-10 Ry

     iteration #  9     ecut=    67.00 Ry     beta= 0.70
     Davidson diagonalization with overlap
     ethr =  1.89E-12,  avg # of iterations =  2.0

     total cpu time spent up to now is       10.2 secs

     total energy              =    -208.62720457 Ry
     estimated scf accuracy    <          3.0E-10 Ry

     iteration # 10     ecut=    67.00 Ry     beta= 0.70
     Davidson diagonalization with overlap
     ethr =  1.06E-12,  avg # of iterations =  2.0

     total cpu time spent up to now is       11.1 secs

     End of self-consistent calculation

          k = 0.0000 0.0000 0.0000 (  3287 PWs)   bands (ev):

   -15.1666 -14.5359  -8.5319  -8.5319  -8.5319  -8.4794  -8.4794   1.2755
     3.4006   3.4006   3.4006   3.8937   3.8937   3.8937  12.6993  12.6993
    12.6993  16.6065  21.1330  21.1330  23.4809  23.4809  23.4809  23.5250
    23.5250  23.5250  29.8213  31.1192

          k =-0.1000 0.1000-0.1000 (  3239 PWs)   bands (ev):

   -15.1468 -14.5539  -8.5277  -8.5277  -8.5104  -8.4794  -8.4794   1.0918
     3.3081   3.3803   3.3803   3.8785   3.8785   4.1834  12.3260  12.7825
    12.7825  17.2271  20.8255  20.8255  23.0770  23.4547  23.4973  23.4973
    24.0611  24.0611  30.0543  31.1182

          k =-0.2000 0.2000-0.2000 (  3263 PWs)   bands (ev):

   -15.0924 -14.6031  -8.5193  -8.5193  -8.4767  -8.4767  -8.4552   0.7018
     3.1636   3.3269   3.3269   3.8368   3.8368   4.7485  11.6963  13.0025
    13.0025  18.3821  20.3265  20.3265  22.1487  23.5644  23.5644  23.5894
    25.1548  25.1548  29.9467  29.9467

          k =-0.3000 0.3000-0.3000 (  3236 PWs)   bands (ev):

   -15.0155 -14.6716  -8.5158  -8.5158  -8.4664  -8.4664  -8.3890   0.3215
     3.0145   3.2624   3.2624   3.7860   3.7860   5.3149  11.2377  13.2791
    13.2791  19.0840  19.9576  19.9576  21.1855  23.6969  23.6969  24.6321
    26.1063  26.1063  29.1066  29.1066

          k =-0.4000 0.4000-0.4000 (  3233 PWs)   bands (ev):

   -14.9321 -14.7468  -8.5170  -8.5170  -8.4539  -8.4539  -8.3372   0.0616
     2.8942   3.2112   3.2112   3.7452   3.7452   5.7229  11.0060  13.5065
    13.5065  19.1929  19.7628  19.7628  20.4892  23.8897  23.8897  26.1384
    26.1384  26.6464  29.4137  29.4137

          k = 0.5000-0.5000 0.5000 (  3214 PWs)   bands (ev):

   -14.8749 -14.8005  -8.5180  -8.5180  -8.4486  -8.4486  -8.3178  -0.0296
     2.8480   3.1920   3.1920   3.7300   3.7300   5.8714  10.9413  13.5943
    13.5943  19.1684  19.7064  19.7064  20.2340  24.0103  24.0103  25.9111
    25.9111  28.3624  29.8938  29.8938

          k = 0.0000 0.2000 0.0000 (  3235 PWs)   bands (ev):

   -15.1405 -14.5596  -8.5236  -8.5236  -8.5079  -8.4825  -8.4770   1.0309
     3.2592   3.2592   3.4811   3.9627   3.9627   4.1298  12.1880  12.8245
    12.8245  17.3892  20.3471  21.2234  23.0915  23.4719  23.4719  23.7330
    23.7330  24.2585  30.1239  30.9035

          k =-0.1000 0.3000-0.1000 (  3240 PWs)   bands (ev):

   -15.0983 -14.5974  -8.5149  -8.5143  -8.4842  -8.4735  -8.4663   0.7145
     3.1165   3.1376   3.5463   3.8708   3.9913   4.5946  11.6956  12.9712
    13.0047  18.1342  19.9939  21.0029  22.7185  22.9977  23.7211  23.9323
    24.1926  25.3728  29.8199  30.5474

          k =-0.2000 0.4000-0.2000 (  3236 PWs)   bands (ev):

   -15.0303 -14.6576  -8.5090  -8.5090  -8.4768  -8.4642  -8.4061   0.3433
     2.9686   3.0450   3.5448   3.7644   3.9715   5.1623  11.2875  13.1448
    13.2566  18.3299  20.2761  20.5680  21.9509  22.8880  23.9665  24.5863
    25.0530  26.7692  28.8604  29.4805

          k =-0.3000 0.5000-0.3000 (  3251 PWs)   bands (ev):

   -14.9510 -14.7280  -8.5099  -8.5098  -8.4599  -8.4528  -8.3526   0.0540
     2.8418   3.0100   3.4142   3.7781   3.9167   5.6193  11.0872  13.2817
    13.4896  18.1357  20.1987  20.5792  21.2194  23.1532  24.0670  25.6103
    26.0933  27.3762  28.8637  29.1832

          k = 0.6000-0.4000 0.6000 (  3243 PWs)   bands (ev):

   -14.8789 -14.7946  -8.5115  -8.5110  -8.4486  -8.4462  -8.3247  -0.0872
     2.7764   3.0489   3.2631   3.8434   3.8445   5.8527  11.0388  13.3357
    13.6173  18.0500  19.9119  20.6726  20.9100  23.5227  23.8586  26.0698
    26.2224  28.5032  29.6336  29.7108

          k = 0.5000-0.3000 0.5000 (  3227 PWs)   bands (ev):

   -14.8996 -14.7752  -8.5114  -8.5102  -8.4552  -8.4432  -8.3312  -0.0557
     2.7993   3.1582   3.1609   3.7658   3.9229   5.8071  11.0659  13.3062
    13.5860  18.2186  19.7082  20.5211  21.2138  23.5560  23.8969  25.4890
    26.8143  27.8718  29.0653  29.8972

          k = 0.4000-0.2000 0.4000 (  3238 PWs)   bands (ev):

   -14.9774 -14.7045  -8.5101  -8.5084  -8.4696  -8.4518  -8.3698   0.1435
     2.9040   3.1208   3.3244   3.6928   3.9944   5.4962  11.1798  13.2093
    13.4012  18.5788  19.6526  20.4603  21.7340  23.3839  23.7767  25.0102
    25.9611  27.3702  28.3956  29.4389

          k = 0.3000-0.1000 0.3000 (  3244 PWs)   bands (ev):

   -15.0548 -14.6362  -8.5129  -8.5091  -8.4813  -8.4659  -8.4272   0.4731
     3.0554   3.1510   3.4824   3.6484   4.0367   5.0028  11.4603  13.0632
    13.1360  18.6968  19.8240  20.4122  22.4652  23.3119  23.3478  24.2802
    24.7209  26.5434  28.8746  30.0823

          k = 0.2000 0.0000 0.2000 (  3259 PWs)   bands (ev):

   -15.1158 -14.5820  -8.5224  -8.5175  -8.4823  -8.4814  -8.4754   0.8457
     3.2121   3.2355   3.4771   3.7464   4.0113   4.4827  11.9196  12.8993
    12.9042  17.9662  20.2428  20.7040  23.1129  23.2854  23.3980  23.6710
    23.9357  25.2002  30.0527  30.3828

          k = 0.0000 0.4000 0.0000 (  3227 PWs)   bands (ev):

   -15.0712 -14.6207  -8.5017  -8.5017  -8.4910  -8.4709  -8.4463   0.5046
     2.9562   2.9562   3.6966   4.0853   4.0853   4.6475  11.3454  13.1331
    13.1331  17.7791  20.4017  21.4905  22.1826  23.4640  23.4640  24.3302
    24.3302  25.5428  29.3316  30.7868

          k =-0.1000 0.5000-0.1000 (  3231 PWs)   bands (ev):

   -15.0182 -14.6662  -8.4991  -8.4924  -8.4819  -8.4637  -8.4023   0.2004
     2.7991   2.8183   3.8182   3.9975   4.1175   5.0786  11.0430  13.2453
    13.3354  17.3015  21.3461  21.3567  21.8513  23.0385  23.7222  24.8735
    24.8955  26.7469  28.4702  30.1155

          k =-0.2000 0.6000-0.2000 (  3240 PWs)   bands (ev):

   -14.9518 -14.7235  -8.5026  -8.4921  -8.4581  -8.4526  -8.3601  -0.0695
     2.6701   2.7560   3.7709   3.9447   4.0951   5.5271  10.9967  13.1668
    13.5400  16.9577  20.9437  21.6088  22.2390  22.5051  23.8299  25.6361
    26.1641  28.2475  28.3198  28.9261

          k = 0.7000-0.3000 0.7000 (  3229 PWs)   bands (ev):

   -14.8849 -14.7836  -8.5029  -8.4943  -8.4485  -8.4343  -8.3374  -0.2271
     2.5962   2.7883   3.5423   4.0302   4.0439   5.8089  11.1656  12.9289
    13.6763  16.8638  20.5068  21.5454  22.4480  22.6334  23.5141  26.4846
    26.8730  28.7233  28.9744  29.5068

          k = 0.6000-0.2000 0.6000 (  3219 PWs)   bands (ev):

   -14.8625 -14.8053  -8.5008  -8.4953  -8.4561  -8.4206  -8.3397  -0.2372
     2.6063   2.9155   3.3350   3.9346   4.1310   5.8607  11.3446  12.7300
    13.6925  17.0859  20.0589  21.3830  22.6749  23.2055  23.2222  25.7318
    27.4798  28.2329  29.8622  29.8692

          k = 0.5000-0.1000 0.5000 (  3222 PWs)   bands (ev):

   -14.9256 -14.7480  -8.4985  -8.4941  -8.4726  -8.4248  -8.3616  -0.0968
     2.7065   3.1174   3.1854   3.8177   4.1840   5.6866  11.3479  12.7805
    13.5728  17.6189  19.7111  21.2363  22.9155  23.1093  23.6257  24.8009
    26.8739  28.1104  28.4992  29.8624

          k = 0.4000 0.0000 0.4000 (  3246 PWs)   bands (ev):

   -14.9948 -14.6881  -8.4997  -8.4984  -8.4847  -8.4454  -8.3933   0.1643
     2.8731   3.1162   3.3548   3.6877   4.1675   5.3557  11.3240  12.9628
    13.3571  18.3175  19.6110  20.8525  23.0157  23.1813  23.4143  24.2097
    25.6725  27.8381  28.0276  30.1175

          k = 0.0000 0.6000 0.0000 (  3246 PWs)   bands (ev):

   -14.9835 -14.6940  -8.5025  -8.4740  -8.4740  -8.4633  -8.3728  -0.0284
     2.6358   2.6358   3.9781   4.2026   4.2026   5.1965  10.7184  13.4786
    13.4786  16.4744  21.1944  21.9110  22.7953  23.4009  23.4009  25.3857
    25.3857  26.9874  27.7656  30.4705

          k =-0.1000 0.7000-0.1000 (  3236 PWs)   bands (ev):

   -14.9360 -14.7331  -8.5068  -8.4707  -8.4550  -8.4532  -8.3421  -0.2464
     2.5099   2.5366   4.1039   4.1292   4.2239   5.5067  10.6490  13.4513
    13.6327  15.9908  20.9836  21.8287  23.0994  23.4366  23.8981  26.1471
    26.4427  27.3702  28.1092  29.8495

          k = 0.8000-0.2000 0.8000 (  3235 PWs)   bands (ev):

   -14.8865 -14.7760  -8.5062  -8.4734  -8.4480  -8.4269  -8.3317  -0.3839
     2.4362   2.5436   3.9087   4.1861   4.2034   5.7685  10.9265  13.0308
    13.7462  15.9011  21.2657  21.4141  22.7211  23.1553  24.2822  27.0901
    27.6930  27.9634  28.8198  29.5616

          k = 0.7000-0.1000 0.7000 (  3227 PWs)   bands (ev):

   -14.8416 -14.8193  -8.5018  -8.4754  -8.4552  -8.3963  -8.3477  -0.4038
     2.4390   2.6598   3.6396   4.0979   4.2659   5.8792  11.4618  12.4118
    13.7807  16.1606  20.7820  21.7883  22.5601  22.9001  24.3866  26.6808
    27.8079  28.1643  29.0879  30.0434

          k = 0.6000-0.0000 0.6000 (  3220 PWs)   bands (ev):

   -14.8717 -14.7936  -8.4974  -8.4773  -8.4707  -8.3869  -8.3690  -0.2998
     2.5333   2.8650   3.3800   3.9705   4.2704   5.8369  11.7577  12.1694
    13.7180  16.7525  20.1269  21.8100  22.9187  22.9613  24.0235  25.6617
    26.6681  29.2782  29.3855  29.8720

          k = 0.0000 0.8000 0.0000 (  3250 PWs)   bands (ev):

   -14.9107 -14.7518  -8.5124  -8.4571  -8.4511  -8.4511  -8.3154  -0.4074
     2.3997   2.3997   4.2200   4.2886   4.2886   5.6100  10.4122  13.7306
    13.7306  15.3359  20.4574  22.3916  23.3055  23.3055  25.7811  26.5431
    26.9185  26.9185  28.4949  30.1693

          k = 0.9000-0.1000 0.9000 (  3252 PWs)   bands (ev):

   -14.8842 -14.7736  -8.5132  -8.4584  -8.4453  -8.4364  -8.3064  -0.5009
     2.3427   2.3740   4.2028   4.2858   4.2956   5.7578  10.5184  13.5159
    13.8005  15.2061  20.4981  22.3984  22.9702  23.1366  26.3725  26.7375
    27.8821  28.3909  29.1873  29.6318

          k = 0.8000 0.0000 0.8000 (  3230 PWs)   bands (ev):

   -14.8608 -14.7962  -8.5083  -8.4625  -8.4498  -8.4121  -8.3232  -0.5001
     2.3503   2.4661   3.9607   4.2200   4.3145   5.8507  10.9543  12.9167
    13.8198  15.5256  21.0721  21.7459  22.7174  22.8497  25.8620  27.8408
    27.8545  28.1117  28.9500  28.9761

          k = 0.0000-1.0000 0.0000 (  3250 PWs)   bands (ev):

   -14.8824 -14.7735  -8.5164  -8.4548  -8.4422  -8.4422  -8.2939  -0.5437
     2.3135   2.3135   4.3161   4.3205   4.3205   5.7632  10.3412  13.8207
    13.8207  14.8914  20.1856  22.6448  23.2592  23.2592  26.0352  28.0553
    28.7615  28.7615  28.8437  28.8437

          k =-0.2000 0.4000 0.0000 (  3234 PWs)   bands (ev):

   -15.0503 -14.6394  -8.5045  -8.5030  -8.4861  -8.4651  -8.4277   0.4128
     2.9459   3.0228   3.6663   3.7538   4.1096   4.9500  11.3518  13.0906
    13.1765  18.0843  20.3467  20.8276  22.4282  23.3309  23.4777  24.1520
    24.6726  26.5153  28.8238  30.5884

          k =-0.3000 0.5000-0.1000 (  3242 PWs)   bands (ev):

   -14.9831 -14.6977  -8.5012  -8.4976  -8.4768  -8.4488  -8.3814   0.0974
     2.7720   2.9828   3.5428   3.7875   4.1311   5.4015  11.1792  13.0849
    13.4054  17.7247  20.2714  21.1286  22.3651  22.8662  23.8366  24.7214
    25.8121  27.6829  28.2904  29.5902

          k = 0.6000-0.4000 0.8000 (  3232 PWs)   bands (ev):

   -14.9109 -14.7616  -8.5026  -8.4989  -8.4594  -8.4354  -8.3456  -0.1262
     2.6438   3.0197   3.3298   3.8971   4.0829   5.7438  11.1885  12.9962
    13.5884  17.4047  20.0226  21.3826  22.1640  22.9052  23.7543  25.4556
    27.2374  28.1262  28.4178  29.7405

          k = 0.5000-0.3000 0.7000 (  3240 PWs)   bands (ev):

   -14.8589 -14.8102  -8.5031  -8.5002  -8.4512  -8.4311  -8.3324  -0.2060
     2.5960   3.1038   3.1815   3.9904   4.0066   5.8691  11.2273  12.9394
    13.6563  17.2798  19.9427  21.4938  21.9947  23.2541  23.3110  26.1527
    26.7585  29.1685  29.2654  30.0072

          k =-0.2000 0.6000 0.0000 (  3229 PWs)   bands (ev):

   -14.9674 -14.7087  -8.5017  -8.4770  -8.4766  -8.4499  -8.3691  -0.0563
     2.6021   2.7520   3.8960   3.9591   4.2121   5.3877  10.8985  13.2749
    13.4804  16.7352  21.1705  21.5513  22.4292  23.3313  23.5015  25.2398
    25.9731  27.3971  28.2781  30.0900

          k = 0.7000-0.3000 0.9000 (  3228 PWs)   bands (ev):

   -14.9098 -14.7579  -8.5025  -8.4793  -8.4583  -8.4294  -8.3472  -0.2605
     2.4494   2.7830   3.6810   4.0794   4.2221   5.6962  11.0515  13.0052
    13.5990  16.4566  20.7501  21.6887  22.9182  23.1374  23.5352  25.9768
    27.1669  27.9596  29.0693  29.4054

          k = 0.6000-0.2000 0.8000 (  3230 PWs)   bands (ev):

   -14.8558 -14.8073  -8.5007  -8.4819  -8.4514  -8.4090  -8.3448  -0.3542
     2.3832   2.9008   3.4403   4.1462   4.1922   5.8638  11.4082  12.5659
    13.6611  16.4555  20.3729  22.1325  22.7737  22.9846  23.4598  26.7138
    27.3510  28.5830  28.9785  30.4792

          k = 0.5000-0.1000 0.7000 (  3233 PWs)   bands (ev):

   -14.8673 -14.7975  -8.4984  -8.4821  -8.4603  -8.4014  -8.3552  -0.3144
     2.4232   3.0906   3.2203   4.0534   4.2425   5.8459  11.5617  12.4114
    13.6536  16.7039  20.0960  22.2627  22.6405  22.9508  23.7067  25.8987
    27.2697  28.4373  29.6504  30.0621

          k = 0.4000 0.0000 0.6000 (  3228 PWs)   bands (ev):

   -14.9249 -14.7470  -8.4980  -8.4801  -8.4782  -8.4209  -8.3648  -0.1497
     2.5640   3.0559   3.3251   3.9244   4.2372   5.6649  11.3083  12.7696
    13.5615  17.1566  20.0286  21.9069  22.4265  23.3267  23.6681  25.0945
    26.5849  28.0005  29.2519  29.7892

          k = 0.8000-0.2000 1.0000 (  3243 PWs)   bands (ev):

   -14.8987 -14.7634  -8.5088  -8.4637  -8.4520  -8.4353  -8.3252  -0.4017
     2.3473   2.5459   4.0240   4.2058   4.2992   5.7011  10.6991  13.3852
    13.6296  15.6753  20.8977  21.6904  23.0122  23.4635  24.8379  26.8175
    27.0152  27.9629  29.0079  29.7387

          k = 0.7000-0.1000 0.9000 (  3230 PWs)   bands (ev):

   -14.8634 -14.7948  -8.5060  -8.4661  -8.4470  -8.4117  -8.3316  -0.4738
     2.2611   2.6604   3.7863   4.2401   4.3215   5.8468  11.0823  12.8747
    13.6278  15.7812  21.1329  21.3534  22.7495  23.3609  25.0927  27.5145
    27.7612  28.1981  28.7151  29.7130

          k = 0.6000 0.0000 0.8000 (  3229 PWs)   bands (ev):

   -14.8309 -14.8282  -8.5009  -8.4705  -8.4541  -8.3828  -8.3590  -0.4424
     2.2855   2.8525   3.4965   4.1781   4.3144   5.8919  11.6779  12.2075
    13.6568  16.1401  20.5547  22.0367  22.6294  23.0164  24.7172  27.0182
    27.2670  28.6663  29.0821  29.2595

          k =-0.2000-1.0000 0.0000 (  3238 PWs)   bands (ev):

   -14.8721 -14.7840  -8.5120  -8.4589  -8.4422  -8.4291  -8.3092  -0.5276
     2.2549   2.4699   4.0743   4.2810   4.3559   5.8148  10.6678  13.4178
    13.6294  15.3120  20.6590  22.0900  22.6611  23.4375  26.5060  26.9063
    28.5135  28.5492  28.9679  29.1342

          k = 0.6000-0.2000 1.0000 (  3239 PWs)   bands (ev):

   -14.8673 -14.7937  -8.5010  -8.4713  -8.4538  -8.4013  -8.3508  -0.4040
     2.2704   2.9489   3.4450   4.1848   4.3117   5.8412  11.3980  12.5808
    13.5451  16.2528  20.4695  21.8835  22.8179  23.6926  23.9124  26.6764
    27.0801  28.7242  29.3707  29.6854

          k = 0.5000-0.1000 0.9000 (  3228 PWs)   bands (ev):

   -14.8327 -14.8256  -8.4999  -8.4718  -8.4477  -8.3810  -8.3635  -0.4565
     2.2054   3.1776   3.1907   4.2278   4.3324   5.8981  11.8351  12.1094
    13.5067  16.2115  20.3765  22.2918  22.3159  23.8783  24.1060  27.2950
    27.7189  28.1723  28.5701  29.7222

          k =-0.4000-1.0000 0.0000 (  3232 PWs)   bands (ev):

   -14.8451 -14.8114  -8.5026  -8.4675  -8.4421  -8.3938  -8.3480  -0.5006
     2.1620   2.9038   3.5056   4.2579   4.3789   5.8953  11.4839  12.4998
    13.4350  15.9808  20.7068  21.6824  22.4735  23.9744  24.9759  27.6557
    28.1049  28.1963  28.2064  29.2509

     the Fermi energy is     7.9763 ev

!    total energy              =    -208.62720457 Ry
     estimated scf accuracy    <          3.9E-12 Ry
     smearing contrib. (-TS)   =      -0.00000000 Ry
     internal energy E=F+TS    =    -208.62720457 Ry

     The total energy is F=E-TS. E is the sum of the following terms:
     one-electron contribution =     -70.67090897 Ry
     hartree contribution      =      52.84807692 Ry
     xc contribution           =     -32.55810109 Ry
     ewald contribution        =    -158.24627143 Ry

     convergence has been achieved in  10 iterations

     Writing all to output data dir out/mp-315.save/
 
     init_run     :      0.33s CPU      0.40s WALL (       1 calls)
     electrons    :      7.90s CPU     10.63s WALL (       1 calls)

     Called by init_run:
     wfcinit      :      0.30s CPU      0.34s WALL (       1 calls)
     potinit      :      0.01s CPU      0.01s WALL (       1 calls)
     hinit0       :      0.01s CPU      0.04s WALL (       1 calls)

     Called by electrons:
     c_bands      :      6.58s CPU      8.00s WALL (      10 calls)
     sum_band     :      1.26s CPU      2.47s WALL (      10 calls)
     v_of_rho     :      0.04s CPU      0.05s WALL (      11 calls)
     mix_rho      :      0.02s CPU      0.07s WALL (      10 calls)

     Called by c_bands:
     init_us_2    :      0.06s CPU      0.07s WALL (     504 calls)
     init_us_2:cp :      0.06s CPU      0.07s WALL (     504 calls)
     cegterg      :      5.10s CPU      5.31s WALL (     240 calls)

     Called by *egterg:
     cdiaghg      :      0.81s CPU      0.83s WALL (     980 calls)
     h_psi        :      4.14s CPU      4.34s WALL (    1004 calls)
     g_psi        :      0.02s CPU      0.02s WALL (     740 calls)

     Called by h_psi:
     h_psi:calbec :      0.11s CPU      0.11s WALL (    1004 calls)
     vloc_psi     :      3.94s CPU      4.13s WALL (    1004 calls)
     add_vuspsi   :      0.08s CPU      0.08s WALL (    1004 calls)

     General routines
     calbec       :      0.10s CPU      0.11s WALL (    1004 calls)
     fft          :      0.02s CPU      0.04s WALL (     109 calls)
     ffts         :      0.00s CPU      0.00s WALL (      10 calls)
     fftw         :      4.69s CPU      4.95s WALL (   43840 calls)
     davcio       :      0.08s CPU      2.37s WALL (     874 calls)
 
     Parallel routines
 
     PWSCF        :      8.60s CPU     11.78s WALL

 
   This run was terminated on:  21:31:46   2Dec2023            

=------------------------------------------------------------------------------=
   JOB DONE.
=------------------------------------------------------------------------------=
