
     Program PWSCF v.7.1 starts on  2Dec2023 at  1:34:47 

     This program is part of the open-source Quantum ESPRESSO suite
     for quantum simulation of materials; please cite
         "P. Giannozzi et al., J. Phys.:Condens. Matter 21 395502 (2009);
         "P. Giannozzi et al., J. Phys.:Condens. Matter 29 465901 (2017);
         "P. Giannozzi et al., J. Chem. Phys. 152 154105 (2020);
          URL http://www.quantum-espresso.org", 
     in publications or presentations arising from this work. More details at
     http://www.quantum-espresso.org/quote

     Parallel version (MPI), running on     8 processors

     MPI processes distributed on     1 nodes
     123118 MiB available memory on the printing compute node when the environment starts
 
     Reading input from pw_mp-315_nscf_k10_E67.in
Warning: card &IONS ignored
Warning: card / ignored
Warning: card &CELL ignored
Warning: card / ignored

     Current dimensions of program PWSCF are:
     Max number of different atomic species (ntypx) = 10
     Max number of k-points (npk) =  40000
     Max angular momentum in pseudopotentials (lmaxx) =  4

     Atomic positions and unit cell read from directory:
     out/mp-315.save/
     Atomic positions from file used, from input discarded
 
 
     R & G space division:  proc/nbgrp/npool/nimage =       8
     Subspace diagonalization in iterative solution of the eigenvalue problem:
     one sub-group per band group will be used
     scalapack distributed-memory algorithm (size of sub-group:  2*  2 procs)

 
     Parallelization info
     --------------------
     sticks:   dense  smooth     PW     G-vecs:    dense   smooth      PW
     Min         144     144     39                 3234     3234     479
     Max         145     145     40                 3237     3237     484
     Sum        1159    1159    313                25893    25893    3839
 
     Using Slab Decomposition
 


     bravais-lattice index     =            2
     lattice parameter (alat)  =      11.1794  a.u.
     unit-cell volume          =     349.2998 (a.u.)^3
     number of atoms/cell      =            3
     number of atomic types    =            2
     number of electrons       =        28.00
     number of Kohn-Sham states=         1200
     kinetic-energy cutoff     =      67.0000  Ry
     charge density cutoff     =     268.0000  Ry
     Exchange-correlation= PBE
                           (   1   4   3   4   0   0   0)

     celldm(1)=  11.179424  celldm(2)=   0.000000  celldm(3)=   0.000000
     celldm(4)=   0.000000  celldm(5)=   0.000000  celldm(6)=   0.000000

     crystal axes: (cart. coord. in units of alat)
               a(1) = (  -0.500000   0.000000   0.500000 )  
               a(2) = (   0.000000   0.500000   0.500000 )  
               a(3) = (  -0.500000   0.500000   0.000000 )  

     reciprocal axes: (cart. coord. in units 2 pi/alat)
               b(1) = ( -1.000000 -1.000000  1.000000 )  
               b(2) = (  1.000000  1.000000  1.000000 )  
               b(3) = ( -1.000000  1.000000 -1.000000 )  


     PseudoPot. # 1 for F  read from file:
     /usr/scratch4/magr4985/MG/HTDF/pseudo/SG15/F.upf
     MD5 check sum: 1d8275f47d602dd53cad6bcdc0eda7dc
     Pseudo is Norm-conserving, Zval =  7.0
     Generated using ONCVPSP code by D. R. Hamann
     Using radial grid of  602 points,  4 beta functions with: 
                l(1) =   0
                l(2) =   0
                l(3) =   1
                l(4) =   1

     PseudoPot. # 2 for Pb read from file:
     /usr/scratch4/magr4985/MG/HTDF/pseudo/SG15/Pb.upf
     MD5 check sum: 7f27c247474026287e0dbe0f3167d60b
     Pseudo is Norm-conserving, Zval = 14.0
     Generated using ONCVPSP code by D. R. Hamann
     Using radial grid of  602 points,  8 beta functions with: 
                l(1) =   0
                l(2) =   0
                l(3) =   1
                l(4) =   1
                l(5) =   2
                l(6) =   2
                l(7) =   3
                l(8) =   3

     atomic species   valence    mass     pseudopotential
        F              7.00    18.99840     F ( 1.00)
        Pb            14.00   207.20000     Pb( 1.00)

     48 Sym. Ops., with inversion, found



   Cartesian axes

     site n.     atom                  positions (alat units)
         1           Pb  tau(   1) = (   0.0000000   0.0000000   0.0000000  )
         2           F   tau(   2) = (  -0.2500000   0.2500000   0.2500001  )
         3           F   tau(   3) = (  -0.7500000   0.7500001   0.7500001  )

     number of k points=     3  Gaussian smearing, width (Ry)=  0.0005
                       cart. coord. in units 2pi/alat
        k(    1) = (   0.0000000   0.0000000   0.0000000), wk =   0.2500000
        k(    2) = (   0.5000000  -0.5000000   0.5000000), wk =   1.0000000
        k(    3) = (   0.0000000  -1.0000000   0.0000000), wk =   0.7500000

     Dense  grid:    25893 G-vectors     FFT dimensions: (  45,  45,  45)

     Estimated max dynamical RAM per process >     133.93 MB

     Estimated total dynamical RAM >       1.05 GB

     The potential is recalculated from file :
     out/mp-315.save/charge-density

     Starting wfcs are random

     Band Structure Calculation
     Davidson diagonalization with overlap

     ethr =  5.00E-06,  avg # of iterations =  8.0

     total cpu time spent up to now is      425.5 secs

     End of band structure calculation

          k = 0.0000 0.0000 0.0000 (  3287 PWs)   bands (ev):

   -15.1665 -14.5359  -8.5319  -8.5319  -8.5319  -8.4794  -8.4794   1.2755
     3.4006   3.4006   3.4006   3.8937   3.8937   3.8937  12.6993  12.6993
    12.6993  16.6065  21.1330  21.1330  23.4809  23.4809  23.4809  23.5250
    23.5250  23.5250  29.8213  31.1185  31.7050  31.7050  31.7050  36.5676
    36.5676  36.5676  37.3326  37.3326  38.0472  38.0472  38.0472  44.9512
    45.7350  45.7350  46.7325  46.7325  46.7325  47.1061  47.1061  47.1061
    48.5514  48.5514  48.5514  50.0939  50.0939  50.0939  50.9142  50.9142
    50.9142  51.0410  53.9769  53.9769  54.3454  54.3454  54.3454  58.8677
    58.8677  58.8677  59.1522  62.8275  62.8275  62.8275  63.1741  63.1741
    63.1741  64.3855  64.3856  64.3856  65.0901  67.6953  67.6953  68.8021
    77.4436  77.4436  77.4436  79.7090  80.9080  80.9080  81.1367  81.1367
    81.1367  81.4797  81.4797  81.6309  81.6309  81.6309  82.2626  82.2626
    82.2626  86.3144  86.3144  86.3144  86.4291  86.4880  86.4880  86.4880
    86.6945  86.6945  86.6945  86.7796  86.7796  86.7796  86.7972  87.6916
    87.6916  88.7979  88.9064  88.9064  88.9064  90.7229  90.7229  94.2246
    94.2246  94.2246  96.5226  96.5226  96.5226  97.4869  97.4869  97.4869
    97.8856 100.6973 100.6973 100.6973 103.0310 103.0310 103.0310 103.1111
   103.1111 103.1111 103.5773 103.5773 107.2493 107.2493 108.0751 108.0751
   108.0751 108.5813 108.5813 108.9105 108.9105 108.9105 109.8904 112.2198
   113.2641 113.3194 113.3194 113.3194 114.3459 114.3459 114.3459 114.7307
   114.7307 114.7307 115.6644 116.8192 116.8192 116.8192 118.0228 118.0228
   118.0228 121.2992 121.2992 121.2992 121.6478 121.6478 121.6478 122.7802
   122.7802 122.7802 126.0436 126.0436 129.2279 129.2279 129.2279 131.9163
   133.3894 133.3894 133.3894 134.4614 135.2571 135.2571 135.2571 137.5497
   137.5497 139.7217 139.7217 139.7217 141.6899 141.6899 141.6899 142.4402
   142.4402 143.6066 143.6066 143.6066 144.2176 144.2176 144.2176 145.4730
   148.4385 148.4385 148.5571 148.5571 148.5571 148.9424 149.5744 149.5744
   149.5744 149.6930 149.6930 149.6930 149.7375 149.7375 149.7375 150.4834
   150.6689 150.6689 150.6689 150.6691 150.6691 150.6926 150.6926 150.6926
   151.4096 151.4096 151.7138 151.9549 151.9549 151.9549 152.7836 152.7836
   152.7836 153.3648 153.7064 155.3773 155.3773 155.5748 155.5748 155.5748
   155.5943 155.5943 155.5943 156.0935 156.0935 156.0935 156.1123 156.1123
   156.1275 156.1275 156.1275 160.0899 160.0899 160.8463 160.8463 160.8463
   163.0816 163.0816 163.0816 167.0706 167.0706 167.0706 168.1750 169.6130
   169.6130 169.6130 170.9829 170.9829 170.9829 171.3357 171.3357 171.3357
   171.7045 173.8475 173.8475 173.8814 173.8814 173.8814 174.0439 174.1673
   174.1673 174.1673 176.5577 176.5577 178.1125 178.1125 178.1126 178.4649
   180.1440 180.1440 180.1440 180.3420 180.3420 180.3420 182.2621 182.2621
   182.2742 182.2742 182.2742 182.8345 182.8345 182.8345 185.5466 185.5466
   185.5466 186.9364 186.9364 187.7174 187.7174 187.7174 188.1884 188.4783
   188.4783 188.4783 188.5425 188.9363 188.9363 188.9363 188.9547 188.9547
   188.9547 189.8629 189.8629 191.8826 191.8826 191.8826 199.0331 199.0331
   199.0331 201.3731 201.3731 201.3731 201.6672 205.3211 206.1595 206.1595
   206.8370 206.8370 206.8370 207.4372 207.4372 207.4372 208.1285 208.1285
   209.6688 209.6688 209.6688 212.8581 212.8581 212.8581 214.0262 214.1843
   214.1843 214.1895 214.1895 214.1895 214.9215 214.9215 214.9215 215.4677
   215.4677 215.4677 215.8262 215.8262 215.8262 216.2395 216.3946 216.3946
   217.0443 217.8249 219.0490 219.0490 219.0490 219.2082 219.2082 219.2082
   219.5200 219.5200 219.5200 219.6164 219.6164 219.6164 220.5699 220.5699
   220.5699 221.4107 221.4107 222.0321 222.0321 222.0321 222.7749 222.7749
   222.7749 222.8931 222.8931 223.1884 223.1884 223.1884 223.1984 223.1984
   223.1984 223.2284 225.1722 227.2959 227.2959 227.2959 229.8869 229.8869
   229.8869 231.5719 231.5719 231.6703 233.2904 233.2904 233.2904 233.6101
   233.6101 233.6101 234.1187 234.1188 234.1188 236.5930 236.5930 236.5930
   236.6643 236.6643 236.6643 237.0235 237.1483 237.1483 239.7164 239.7164
   239.7562 239.7562 239.7562 240.2532 240.2532 240.2532 240.2911 240.2911
   240.2911 240.4471 240.4471 240.7078 240.7078 240.7078 241.7053 241.7556
   241.7556 241.7556 241.9748 241.9748 241.9748 242.1619 242.1619 242.1619
   242.3323 245.3953 245.5608 245.5608 247.0902 247.0902 247.0902 248.1256
   248.6805 248.6805 248.6805 249.1544 249.1544 249.1544 249.3471 249.3471
   249.4059 249.4059 249.4059 249.5796 249.5796 249.5796 252.1262 252.1262
   252.1262 252.6542 253.0952 253.1738 253.1738 253.1738 253.3316 253.3316
   253.3351 253.3351 253.4238 253.4238 253.4238 253.4640 253.4640 253.4640
   253.5412 253.5412 253.5412 254.1944 254.3107 254.3107 254.3107 254.6171
   254.6171 254.6171 254.7347 254.7347 254.7347 254.7351 254.7351 254.9286
   255.0578 255.0578 255.0578 255.3011 255.3011 255.3011 255.5772 255.5772
   255.5772 255.6216 255.6216 261.8575 261.8575 261.8575 270.2009 270.2009
   273.4135 275.5000 275.5000 275.5000 276.5249 276.5249 276.5249 279.4092
   279.4092 279.4092 279.7660 279.7660 281.7033 282.6992 282.6992 282.6992
   283.4553 283.4553 284.3167 284.3167 284.3167 284.3269 284.3270 284.3270
   284.3801 284.4074 284.4074 284.4074 284.7660 284.7660 284.7660 285.0923
   285.0923 285.3328 285.3328 285.3328 285.9232 288.8580 290.0433 290.7030
   290.7030 290.7030 290.8067 290.8067 290.8067 291.0269 291.0269 291.0269
   291.0364 291.0364 291.0364 292.6824 292.6824 292.7359 292.7359 292.7359
   292.7946 292.7946 292.7946 292.8008 292.8008 292.8008 292.9352 292.9352
   292.9705 292.9705 292.9705 293.9975 293.9975 294.0123 294.0123 294.0123
   294.0393 300.1566 300.1566 300.1566 300.9239 300.9239 300.9239 302.3431
   302.3431 302.8956 302.8956 302.8956 304.1257 304.1257 304.1257 305.6720
   305.6720 305.7294 305.7294 305.7294 305.8235 307.2405 307.2405 307.2405
   307.5146 307.5146 307.5146 307.5939 307.5939 307.5939 307.6716 307.6716
   307.6716 308.3612 309.0278 309.1340 309.1340 309.1482 309.1482 309.1482
   311.9550 311.9550 311.9550 313.5432 313.5432 313.7369 313.7369 313.7369
   315.1196 315.1196 315.1196 316.1174 316.1174 316.1174 316.8065 316.8065
   317.2894 317.2894 317.2894 318.1538 318.5682 319.1656 319.1656 319.1656
   319.5608 319.5608 319.5608 320.0285 320.6756 320.9527 320.9527 321.0889
   321.0958 321.0958 321.0958 321.0963 321.0963 321.0963 321.0976 321.0976
   321.0976 321.9579 321.9579 321.9579 322.1512 322.1512 322.6483 322.6483
   322.6483 322.8386 322.8386 322.8386 323.0408 323.7833 323.7833 323.7833
   324.2149 324.2149 324.2149 325.7276 325.7276 325.7276 325.7417 325.7417
   325.7417 325.7477 325.7477 325.8751 325.8751 325.8751 326.0171 326.0171
   326.0171 326.0364 326.0364 326.6632 327.6776 336.9932 336.9932 336.9932
   337.2884 337.2884 337.2884 340.8918 340.8918 341.5349 341.5349 341.5349
   341.8947 341.8947 341.8947 341.9967 341.9967 341.9967 342.3267 342.3267
   342.3267 342.5713 342.5713 342.7721 342.7721 342.7721 342.9061 343.7452
   345.1810 345.1810 346.9053 346.9053 346.9053 347.5739 347.7296 347.7296
   347.7296 348.9143 348.9143 348.9143 349.9335 350.4028 350.4028 350.5040
   350.5040 350.5040 351.1504 351.1504 351.1504 351.2629 351.2629 351.2629
   351.9179 351.9179 351.9179 351.9405 351.9405 353.3753 353.3753 353.6059
   353.6089 353.6089 353.6089 354.4938 354.4938 354.4938 354.5837 354.6479
   354.6479 354.6479 354.7675 354.7675 354.7700 354.7700 354.7700 355.2564
   355.2564 355.2739 355.2739 355.2739 355.3412 355.3412 355.3412 356.5633
   356.7973 356.7973 356.7973 356.8853 356.8853 356.8853 356.9500 356.9500
   356.9500 356.9919 356.9919 356.9919 356.9976 356.9976 356.9976 357.0336
   357.0485 357.0485 357.0485 357.0488 357.0621 357.0621 357.5500 357.5500
   357.5500 357.9615 357.9615 357.9615 358.4785 358.4785 358.4785 358.5252
   358.5252 358.5252 359.1352 359.1352 360.4185 361.3361 361.3361 361.6246
   361.6246 361.6246 362.0230 362.0230 362.0230 362.1820 362.1820 362.1820
   362.2955 362.2955 362.2955 362.3760 362.5965 362.5965 362.7902 362.7902
   362.7902 363.0443 363.0443 363.0443 363.1912 368.8070 368.8070 368.8070
   368.8471 368.8471 368.8472 370.9309 373.0814 377.7884 377.7884 377.7884
   378.4435 378.4435 378.4435 378.4595 378.4595 378.4920 378.4920 378.4920
   378.5729 378.5729 378.5907 378.5907 378.5907 379.0277 379.0277 379.0277
   382.8199 382.8199 386.2124 386.2124 386.2124 386.2438 386.2438 386.2438
   386.5248 386.5248 386.5248 386.6902 386.6902 386.6902 388.2947 388.6417
   388.6417 388.6617 388.6617 388.6617 388.7467 391.1740 391.1802 391.1802
   391.1802 391.1897 391.1897 391.3116 391.3116 391.3116 391.3193 391.3193
   391.3193 391.3683 391.3683 391.3683 391.4142 391.4142 391.4142 391.7575
   391.7575 391.8392 391.8392 391.8392 391.9462 398.7034 398.7034 398.7034
   404.7048 404.7048 404.7048 407.8106 407.8106 407.8106 408.2310 408.2310
   408.3611 408.8238 408.8238 408.8238 408.9336 408.9336 408.9336 409.3110
   409.3110 409.3110 409.4083 409.4083 409.4083 409.6153 409.6153 410.4686
   412.7946 412.7946 412.7946 415.2613 416.6187 416.6187 416.6187 418.0363
   418.0363 418.0363 418.2968 418.2968 418.2968 418.3133 418.3133 418.7610
   418.7610 419.0330 419.0330 419.0330 419.3776 419.6482 419.7377 419.7377
   419.7377 420.2532 420.2532 420.2532 421.3938 421.3938 421.3938 422.3066
   422.3066 422.3066 422.5327 422.5327 422.5327 422.6754 422.6754 423.0970
   423.0970 423.3470 423.3470 423.3470 423.4226 423.5441 423.5441 423.5441
   424.0095 424.0095 424.0095 424.1805 424.1805 424.4411 424.4411 424.4411
   424.7058 424.9586 426.2209 426.2209 426.2209 426.3153 426.3153 426.3153
   426.5951 426.5951 426.6277 426.6277 426.6277 426.6761 426.6761 426.6941
   426.6941 426.6941 427.0859 427.2131 427.2131 427.2131 427.3588 427.3588
   427.3588 427.4879 427.4879 427.4879 427.7433 427.7433 429.2743 429.2743
   429.2743 429.2806 429.2806 429.2806 429.3046 429.3046 429.3046 429.3077
   429.3077 429.3362 430.6565 435.0767 435.0767 435.0767 436.8454 436.8454
   439.6484 439.7324 439.7324 439.7324 439.9617 439.9617 439.9617 440.5302
   440.5302 440.5302 441.0886 441.0886 441.8962 441.8962 441.8962 442.1518
   442.7265 442.7265 442.7265 442.9365 442.9365 442.9365 443.0014 443.0014
   443.5338 444.8268 444.8268 444.8268 445.1813 445.1813 445.1813 445.1877
   445.1877 445.1877 445.7910 445.7910 445.7910 445.8450 445.8450 445.8967
   446.2857 446.2857 446.2857 446.3182 446.3182 446.3182 446.5101 446.5101
   446.5101 446.7720 446.7720 446.7720 446.8149 446.8149 446.8524 446.8524
   446.8524 446.8845 446.8845 446.8845 446.9323 448.0933 448.0933 448.0933
   448.6863 448.6863 448.6891 448.6891 448.6891 448.6893 453.1275 453.1275
   453.1275 453.8085 453.8085 453.9113 453.9113 453.9113 455.7581 455.7581
   455.7581 455.9716 456.5128 456.5128 456.5128 456.9367 456.9367 456.9367
   457.0953 457.0953 457.1029 457.1029 457.1029 457.3176 457.3176 457.4165
   457.4165 457.4165 457.5178 457.8052 457.8052 457.8052 458.0573 458.0573
   458.0573 458.4321 458.5457 458.5457 458.7963 458.7963 458.7963 458.8163
   458.8163 458.8163 459.2050 459.2050 459.2050 459.2581 459.2581 459.2581
   459.3500 459.3713 459.6517 459.6517 459.8052 459.8052 459.8052 459.9156

          k = 0.5000-0.5000 0.5000 (  3214 PWs)   bands (ev):

   -14.8749 -14.8005  -8.5180  -8.5180  -8.4486  -8.4486  -8.3178  -0.0295
     2.8480   3.1920   3.1920   3.7300   3.7300   5.8715  10.9413  13.5943
    13.5943  19.1684  19.7065  19.7065  20.2340  24.0103  24.0103  25.9111
    25.9111  28.3624  29.8938  29.8938  30.6791  31.6691  32.4097  33.8939
    33.8939  36.8685  37.9384  38.0100  38.0100  39.6848  39.6848  39.8290
    40.6630  40.6630  40.8473  41.3104  45.2688  45.2688  46.3725  46.3725
    49.7581  50.1351  50.4612  50.4612  52.4212  52.4212  52.7176  52.7176
    53.7905  55.6543  56.6764  56.6764  57.1364  57.8211  58.5011  60.2901
    60.2901  60.5256  60.5256  64.2103  64.2103  64.2354  64.2354  64.9679
    65.0773  65.9036  65.9036  66.8921  67.0150  67.0150  68.4475  70.0705
    70.0705  71.6379  71.6379  71.6932  74.0468  74.4869  74.4869  76.2422
    77.2054  78.8914  79.3921  79.3921  80.2563  80.2563  80.9159  80.9159
    82.3668  82.3668  83.0007  83.5629  84.1726  84.1726  84.3422  85.4521
    86.4543  86.8302  86.8302  87.8827  88.6748  90.7312  90.8531  90.8531
    91.3215  91.3215  91.7997  92.6053  92.6053  94.6995  94.6995  95.1516
    96.4253  96.4253  96.7196  97.6608  97.7645  97.7645  98.0944  99.0828
    99.3225  99.3225 100.2223 100.2223 102.0560 102.0560 102.8203 103.2226
   104.2044 104.2044 105.9915 106.0672 107.4268 107.4268 107.7605 109.0714
   109.0714 110.2094 110.2094 111.1688 111.1688 111.5811 112.1650 113.0798
   113.0798 113.5804 113.5804 115.2087 115.2087 115.2118 116.3808 116.8222
   116.8222 117.3504 118.0971 118.0971 118.2002 118.2002 118.3292 120.2738
   121.7519 121.8567 121.8567 122.1426 122.1426 123.1260 123.2786 124.4090
   124.4090 126.9247 127.3337 127.3337 127.7508 127.8278 127.8278 130.5578
   130.5578 130.6239 130.6239 130.9214 132.5448 133.6161 134.2332 134.2332
   134.2722 135.2980 135.6592 135.6592 137.2272 137.2272 137.7151 139.2527
   139.2527 139.2607 139.2607 139.4893 139.4893 140.1204 140.1763 140.1763
   141.2887 141.3609 141.4648 141.4648 141.5261 142.1342 142.2233 142.2233
   144.0870 144.1339 146.0236 146.0236 146.0292 146.0292 146.1917 146.4803
   146.4803 148.0402 148.0402 149.0600 149.3406 149.7345 149.7345 150.8877
   150.8877 151.0312 154.0910 154.3993 154.3993 155.0846 156.4450 156.4450
   156.9457 156.9457 157.0237 157.5517 158.1300 158.7775 158.9857 158.9857
   159.0861 159.0861 159.3672 159.8303 159.9006 159.9006 161.0211 161.0211
   162.0843 162.2090 162.2090 163.3794 165.8861 165.8861 166.0960 166.5562
   166.5562 167.6347 167.6347 167.8954 168.0216 168.2362 168.2362 168.7267
   169.5421 170.0031 170.0031 171.0514 173.2992 173.2992 176.3622 176.3622
   177.1193 177.1193 177.2568 177.2568 177.2724 177.4910 178.3025 178.3025
   179.5216 180.7014 181.2983 181.2983 181.4004 181.4004 181.5122 181.7142
   181.7142 182.4198 182.4198 182.5401 183.0031 183.1583 183.4750 184.2585
   184.2585 184.2938 184.2938 184.6186 186.2021 186.2021 186.2313 186.2313
   186.2683 187.7122 187.7122 188.2507 188.2507 188.2981 188.9756 189.5958
   190.8056 191.4717 191.4717 191.6019 191.8746 191.8746 192.1780 192.1780
   192.5706 192.5706 192.6372 193.5090 193.8558 193.8796 194.7099 194.7099
   197.3569 197.8990 197.8990 198.0969 200.3092 200.3092 200.3209 200.3209
   201.2078 201.2078 201.6648 202.2968 202.2968 203.3164 203.5677 203.5677
   203.9040 204.5730 204.5730 205.2023 205.2023 205.7113 206.1164 206.4211
   206.4211 207.9796 207.9999 207.9999 208.8025 208.8025 209.0168 209.2172
   209.2172 210.1102 210.1102 210.3838 210.3861 210.5266 210.5899 210.5899
   212.0153 212.0153 213.6006 213.7426 214.7300 214.7300 215.1882 215.1882
   216.2089 216.2569 216.2569 216.4854 216.4854 216.6381 216.8892 217.2949
   219.2280 219.2280 219.5142 219.5142 221.2749 221.4921 222.2507 222.5581
   222.6294 222.6294 223.5406 223.5406 223.8761 223.8761 224.1086 224.1235
   224.4111 224.4111 224.7306 225.1076 228.9255 230.0240 230.0240 230.1387
   230.1387 230.5984 231.0936 231.0936 231.4244 231.4244 232.7460 233.4741
   233.6134 233.6134 233.6961 233.6961 233.9437 234.1061 235.1424 235.1424
   235.2705 235.4717 235.4717 235.8623 235.8623 236.7952 236.9768 236.9768
   237.2967 237.2967 238.9924 238.9924 239.3992 240.0891 240.0891 240.2206
   240.6588 240.6588 241.1673 241.7245 241.7245 241.8709 242.2369 242.2369
   242.3174 242.8682 243.6432 245.0600 245.0600 245.2339 245.3370 245.3370
   245.5254 246.0343 246.0343 246.4655 246.4655 246.5632 251.2096 251.2096
   251.4739 251.4739 251.5355 252.1436 252.5164 252.6535 252.9184 252.9184
   253.2309 253.2309 254.6711 254.6711 255.2231 255.2231 256.4843 256.6802
   257.1154 257.1154 257.1922 257.1922 257.6127 257.7247 257.7724 258.1520
   258.4141 258.4141 258.4510 258.4510 258.8671 259.5594 259.5594 259.8860
   259.8860 260.0568 261.1568 261.5910 262.9019 262.9019 263.6121 263.6121
   263.7922 263.8117 263.8417 263.8417 265.0903 265.7134 265.7134 266.2603
   267.3601 267.3601 267.9060 267.9060 268.0181 269.0028 269.0028 269.1101
   269.1101 269.1404 269.2959 269.3257 269.6067 269.6067 269.7664 269.9226
   269.9226 270.2073 270.2073 270.2744 270.3254 270.3254 270.3423 270.4751
   273.6075 273.6075 273.8872 273.9689 273.9689 274.1146 274.1146 274.6982
   275.7438 275.7438 275.8870 275.8870 276.2248 276.2248 276.3977 276.4820
   276.4847 276.4979 277.7267 277.7267 277.7809 277.7809 278.0643 278.0662
   280.4388 281.9949 281.9949 282.1186 282.1186 283.5456 283.8638 284.3014
   284.3014 284.6851 284.6851 284.7459 285.8042 286.7076 288.1664 288.1664
   288.8850 289.5610 289.5610 289.9751 289.9751 290.4850 290.4850 292.1230
   293.1508 293.1508 293.2237 293.2237 293.5731 293.9839 293.9839 294.0173
   294.2428 294.2428 294.4645 294.4853 294.8492 294.8492 294.9103 294.9103
   296.1437 296.1437 296.5183 296.5183 296.5842 296.6356 298.5804 298.5804
   299.7689 299.7689 300.1293 300.1293 300.6423 301.9172 301.9172 302.0234
   303.6793 303.6794 304.4364 304.4953 304.4953 304.5164 304.5164 305.1381
   305.1381 305.1445 305.1473 305.5104 306.0578 306.5387 307.1526 307.1526
   307.9502 308.7970 309.7512 309.7512 309.8291 309.9655 309.9655 311.4250
   311.4250 312.2866 312.9235 312.9235 313.2103 313.2103 313.2584 313.2584
   313.2803 313.7379 313.7379 314.6599 315.2551 315.2551 315.2699 315.9433
   316.1869 316.1869 316.4411 316.6374 316.6467 316.6467 317.0034 317.0034
   317.1940 317.1940 318.2386 318.2386 318.2909 318.3333 318.7413 318.7413
   318.9664 319.0435 319.1101 319.4016 319.4016 319.4103 319.4103 321.3998
   321.4514 321.4514 321.4678 321.4678 321.4716 321.6284 322.4499 322.4499
   322.5513 322.5513 322.6390 322.7017 326.0431 326.0431 326.5989 326.5989
   326.7963 326.9363 326.9363 327.4670 327.8202 327.8202 328.3566 328.3926
   328.3976 328.3976 328.5389 328.5389 328.5922 328.8982 330.3576 331.4495
   333.1007 333.1007 333.2509 333.2509 333.8966 333.8966 334.0105 334.0105
   334.3699 334.3772 334.4901 334.5784 334.5784 334.6785 334.6785 334.7589
   335.3761 335.3761 337.4078 337.4078 337.8681 338.2343 338.3677 338.3677
   338.5841 338.6479 338.6479 338.7190 338.7190 338.7571 338.9182 339.0193
   339.0193 339.1719 339.1923 340.1292 340.7685 340.7685 342.3111 342.3111
   343.2831 343.5680 343.5680 343.6644 343.6644 343.9849 344.0037 344.0037
   344.5315 344.5315 344.5799 344.9379 344.9728 344.9728 344.9851 345.0840
   345.0966 345.0966 345.8324 347.4379 349.1895 349.1895 349.4889 349.4889
   350.5310 350.8437 354.5097 354.5097 355.1092 355.1092 355.1661 355.2058
   355.2058 355.2072 355.2901 355.2958 355.2958 355.7739 355.7739 357.2368
   357.2368 358.4262 358.5968 358.5968 358.8791 358.8791 359.3411 359.6069
   360.1526 361.3564 361.3748 361.3748 362.0807 362.0807 362.3295 362.3762
   362.4405 362.4405 362.4475 362.4475 362.5200 362.5200 362.6530 362.7090
   362.7338 362.7338 363.9986 363.9986 364.0704 364.3990 364.3990 364.4999
   364.6024 364.6024 364.6402 364.6402 364.6907 366.2372 366.6335 366.6335
   367.3011 368.8712 368.8968 368.8968 369.2860 369.2860 369.3650 369.7975
   369.7975 372.0514 372.0514 372.1036 372.1036 372.2917 372.2988 373.0935
   373.2381 373.2381 373.2510 373.2832 373.2832 373.2907 376.1696 376.1696
   376.2710 376.5261 376.5261 376.5504 377.2946 377.2946 377.3153 377.3301
   377.3301 377.7977 377.7977 377.8085 377.8085 378.0005 378.0797 378.0975
   380.4083 380.4083 380.5564 380.5564 381.0880 381.0956 381.1138 382.1814
   382.1814 382.4712 382.4712 383.9319 385.3009 385.3009 385.6640 385.6640
   385.8934 385.9611 387.2006 387.2006 387.2825 387.2825 387.3464 387.3803
   387.4682 387.5033 388.0446 388.0446 388.0602 388.0602 388.5631 389.0866
   391.0074 391.0074 391.9313 391.9313 392.0180 392.3778 392.5354 392.5354
   392.6749 392.6749 393.4889 393.4889 393.5798 393.5798 393.6499 393.9656
   394.1322 394.3572 396.4130 396.4832 396.4832 396.5462 396.5462 397.2430
   397.2430 397.2518 397.2518 397.3898 397.3922 397.5982 397.6130 397.6438
   397.7998 397.7998 397.8043 397.8043 398.7622 398.7622 398.7947 398.7947
   398.8083 398.9059 399.0318 399.0318 399.0346 399.0346 399.0648 399.0771
   403.0926 403.2593 403.2593 404.1398 404.3819 404.3819 404.6030 404.6030
   404.8314 404.8314 405.3283 405.5112 406.2014 406.2014 406.2125 406.2125
   406.3589 406.3774 407.0704 407.0704 408.3084 408.3084 409.6049 410.0777
   410.0777 410.5869 411.5535 411.6911 411.6911 412.0923 412.5994 412.8063
   413.2700 413.2700 414.2277 414.2277 414.5451 414.5805 414.5847 414.5847
   414.8745 414.8745 415.3415 415.6835 415.7446 415.7601 415.7601 415.8572
   415.8572 415.9035 416.6252 416.6252 416.7853 417.1205 417.1205 417.1990
   417.2035 417.2036 417.4062 417.4062 418.2047 419.2113 419.6042 419.6042
   420.5234 420.5396 420.5396 420.6792 420.6792 420.9706 420.9706 421.0606
   421.0606 421.7316 421.7316 421.8728 422.2259 422.2701 422.7523 422.7711
   422.7797 422.7797 422.9063 422.9063 423.0329 423.1359 423.1359 423.1435
   423.1435 423.7395 425.5250 425.5250 426.7012 426.7012 426.7038 426.7038
   428.0655 428.0720 428.1461 428.1461 428.2827 429.5823 429.9789 429.9789
   430.4757 430.4757 430.4761 430.5606 434.4939 435.5012 435.5012 436.0457
   436.0457 437.0584 437.4450 437.4450 437.6554 438.1392 438.7311 438.7311
   438.8728 438.8728 439.0392 439.0392 439.2403 439.2403 439.2751 439.3274
   439.3274 439.3436 439.4540 439.4606 439.5813 439.5813 439.6443 439.6443
   439.9168 439.9168 439.9581 439.9581 439.9941 440.0058 440.0788 440.3083
   441.2496 442.3765 444.5704 444.5704 444.6170 444.6170 444.6695 445.2323
   445.5287 445.5287 445.5717 445.6390 445.6390 445.6665 445.6665 445.8372
   446.1224 446.1224 446.1743 446.1743 446.2988 446.3062 446.3062 446.3289
   446.6122 446.6697 446.7698 446.7698 446.9422 446.9422 447.0366 447.2166
   448.6992 448.6992 449.4806 449.4806 449.7707 450.0833 450.0833 450.1559
   450.1768 450.1900 450.1900 450.4227 450.4227 450.5087 450.5202 450.5567
   450.5567 450.5710 450.5710 450.8109 450.8109 450.9455 452.5242 452.5242
   452.6501 453.3841 453.3841 454.7089 458.4067 458.4067 458.4913 458.4954
   458.4954 458.5437 462.4154 462.7313 462.7313 463.6320 463.6320 464.0141
   464.5475 464.5475 464.6007 464.6007 464.6506 464.6549 464.6549 464.6806
   464.8411 464.8411 465.0615 465.0615 465.0796 465.0796 465.0982 465.1542
   465.2227 465.4250 468.3997 468.3997 469.4950 469.5390 469.5390 469.5719

          k = 0.0000-1.0000 0.0000 (  3250 PWs)   bands (ev):

   -14.8824 -14.7735  -8.5164  -8.4548  -8.4422  -8.4422  -8.2939  -0.5437
     2.3135   2.3135   4.3162   4.3206   4.3206   5.7633  10.3412  13.8207
    13.8207  14.8914  20.1856  22.6448  23.2592  23.2592  26.0352  28.0553
    28.7615  28.7615  28.8437  28.8437  29.7830  30.2348  31.2648  31.2648
    31.3529  32.0471  36.7652  36.7652  37.9012  40.2110  40.6786  41.9294
    41.9294  42.7099  43.9606  44.1514  44.1861  45.8853  47.4390  47.4950
    47.4950  47.6326  47.9106  47.9106  48.4130  53.0059  53.0059  54.5402
    57.7984  57.8571  57.8688  58.1195  58.1195  58.7119  58.7119  58.9965
    60.8911  60.9113  60.9113  61.2389  62.5978  62.5978  64.8640  64.8640
    65.7804  65.7896  68.5231  68.5231  68.7223  69.2207  69.6304  70.1123
    70.5463  70.9085  71.7889  71.7889  73.7155  74.1072  77.3011  77.3011
    77.4286  77.8370  77.8370  78.5239  78.5239  78.6234  79.2492  79.9007
    80.1454  80.6182  80.6182  81.1090  81.1090  81.3961  83.2958  85.9125
    85.9866  86.8557  87.1904  87.1904  88.1930  88.1930  89.2675  90.0329
    90.0329  91.6925  92.5626  93.1632  93.6058  93.8076  94.9299  94.9299
    95.3020  95.8016  96.3470  97.5167  97.5167  99.3403  99.9320  99.9320
   101.2602 101.5370 101.5370 103.6502 103.6502 103.7344 105.4390 105.6924
   106.4991 107.4613 107.4899 107.4899 107.5689 108.4555 108.7946 110.1905
   110.1905 110.5221 111.0443 111.2475 111.4276 111.4276 111.4369 112.1475
   112.3548 113.5426 113.5426 113.9285 117.1848 117.1848 117.2410 117.5091
   117.9494 117.9494 119.6082 119.6082 119.7565 120.6004 120.6004 122.4486
   122.6756 123.2581 123.3166 123.3166 123.8553 124.1648 124.3824 124.3824
   125.4892 126.3386 126.6119 126.8346 126.8346 127.0126 127.4468 127.5560
   127.5560 127.7723 127.7723 128.2029 128.2675 129.0222 129.1481 129.7915
   130.2541 130.2541 131.0282 131.0282 131.7616 134.7435 135.0342 135.1343
   135.1343 136.3188 136.3188 137.4318 137.4318 137.7557 139.7133 139.9671
   140.5882 140.7212 140.7212 141.2038 141.7930 142.4907 143.8082 144.1540
   144.1540 145.4807 145.7170 145.9143 145.9601 145.9601 146.9105 147.7717
   147.7717 149.4120 149.7360 151.4414 151.8345 151.8345 152.1549 152.9966
   153.3035 153.3035 154.4130 154.4131 155.1326 155.3327 155.9114 157.0826
   157.7430 158.5086 160.0751 160.0764 160.7304 160.8023 160.8275 160.8275
   160.9994 160.9994 162.2721 162.2721 162.5643 162.5754 162.5754 163.5088
   163.5088 164.5347 164.5347 165.4911 165.4911 165.5665 166.6480 167.4411
   168.0846 168.0846 170.5634 171.1319 171.1976 171.3422 171.3422 171.5242
   172.1173 172.1405 173.6640 173.6640 173.7101 173.9475 174.0496 174.1252
   174.1252 174.6937 175.2901 175.2901 175.4134 175.4134 175.6696 175.6709
   176.2184 176.2184 176.2741 176.5142 176.8934 176.8941 178.4417 178.6659
   178.7632 178.7632 178.8196 178.8423 178.8423 179.6071 181.6550 183.9677
   183.9677 184.4805 184.4805 184.9271 187.4791 187.6068 187.9723 187.9723
   188.1672 189.2468 189.4770 190.1514 190.1514 191.2014 191.8183 191.8184
   192.4397 192.4526 192.5997 192.7133 193.0960 193.0960 193.3474 193.4033
   193.4033 193.4248 193.4880 193.5056 193.5056 194.4447 196.0357 196.0357
   198.4583 198.4583 198.7691 198.8278 198.8965 198.8965 198.9089 198.9676
   199.9690 200.2740 200.2740 201.2332 201.9663 202.2045 203.4995 203.6854
   203.6854 203.9460 204.7260 204.7260 205.2792 205.8732 207.0836 207.2722
   207.2722 207.4415 207.5924 207.5924 208.0636 208.3102 209.1802 209.5513
   209.5513 209.5853 210.7303 210.7303 211.5537 211.6773 211.7047 211.9152
   211.9488 212.3177 212.7696 212.7696 215.1295 215.4027 215.4027 215.5400
   215.6328 215.7564 215.7564 215.7647 215.7968 217.5196 217.5196 218.1314
   219.3797 220.5485 220.5485 221.4992 222.1516 222.2236 223.8024 224.1187
   224.1187 224.9542 224.9542 225.3130 225.6328 225.6328 226.1537 226.7855
   226.7855 226.9835 227.0026 227.5365 228.0823 228.0823 228.1002 228.3139
   228.3139 228.4280 228.6616 228.6616 228.9896 229.5874 229.6599 229.7593
   229.7593 229.8116 229.8853 230.2448 230.2448 230.2938 230.2938 230.3147
   230.5370 230.6076 230.6581 230.7749 230.8643 231.1057 231.1057 231.1677
   231.8593 232.0019 232.0401 232.0401 232.9328 236.0463 236.0463 238.2011
   238.6934 238.6934 240.2714 240.7429 242.9897 242.9897 243.0270 243.3785
   243.3785 244.0094 244.1662 245.1504 245.9209 245.9209 247.3237 247.5950
   247.6529 247.7768 247.9932 248.0163 248.0163 248.7699 248.7699 252.7010
   252.7010 252.8433 253.3999 253.3999 254.4755 254.6053 255.0119 255.0119
   255.1491 255.2231 257.1961 257.8327 257.9102 257.9897 257.9897 258.1946
   258.2103 258.8842 259.0067 259.0067 259.5082 259.5082 259.6774 259.8996
   259.8996 260.9848 261.9105 262.0437 262.2640 262.4933 262.7851 262.7851
   263.4177 263.4177 264.6208 264.6208 264.8830 264.9269 264.9575 264.9910
   265.1012 265.1382 265.1382 265.4319 265.4319 265.6192 265.8287 266.3696
   266.4537 266.5200 266.5200 266.7784 268.5907 268.6114 268.6114 270.4825
   271.6953 272.7968 272.7968 272.9578 273.7089 274.0026 274.0026 275.1071
   275.4989 275.7804 275.7804 276.7631 276.7631 276.8476 276.9580 276.9604
   277.1430 277.1757 277.2915 277.2915 277.4694 277.4694 277.5514 277.5766
   277.7610 277.7610 278.0568 278.2650 279.3113 279.3113 279.3669 279.4409
   279.4811 279.4814 279.5196 279.5196 279.8984 280.0979 280.7130 281.3788
   281.5498 281.5864 281.9486 281.9486 281.9907 281.9907 282.5141 282.9192
   282.9359 282.9359 283.2720 283.3649 283.4703 283.4703 283.8141 283.8141
   283.8750 283.8750 284.0097 284.0506 286.9032 288.1049 288.1049 289.9519
   290.1065 290.1065 290.6340 290.6340 291.2615 291.3489 291.9792 293.8604
   293.9426 294.2346 294.2346 294.4534 294.4534 294.4856 294.5165 294.6397
   295.0467 295.0467 295.1702 295.1744 295.4019 295.4072 295.4745 295.4745
   295.5110 295.5580 295.5580 295.8548 296.2194 296.2211 296.2378 296.2378
   296.5269 296.5269 297.8555 297.9423 301.3450 301.3450 301.5493 301.5493
   301.5820 301.6020 301.6238 301.6869 303.6087 303.6088 304.8529 304.8529
   305.7832 306.0283 306.9814 308.3416 308.3416 308.4605 310.1904 310.3875
   310.4460 311.3595 311.3595 311.7072 311.8805 311.8925 311.9795 311.9795
   312.9293 313.5935 313.5981 313.5981 313.8058 313.8058 313.8673 314.0259
   314.0259 314.6455 314.6455 314.6970 314.7419 314.8240 314.8557 315.1745
   315.1745 315.4670 316.0967 316.1972 316.6241 317.1055 317.1055 317.5256
   317.6946 317.7019 317.7019 318.1958 318.2574 318.2614 318.2679 318.4143
   318.4143 318.4472 318.4472 318.5480 318.5480 318.9047 318.9067 322.5391
   322.5391 322.7903 323.4761 325.6515 326.4564 326.4564 326.6284 326.8980
   326.8980 327.6155 328.1946 328.1946 328.4946 328.8416 328.9166 329.2842
   329.2857 329.2857 329.3613 329.4781 329.8648 330.3860 330.3860 330.9934
   331.3101 331.3319 331.3319 331.4261 331.8862 331.9530 332.0347 332.0347
   332.0368 332.0368 332.1236 332.1362 333.7901 333.7901 333.8535 334.0945
   334.6896 335.2578 335.2578 335.2581 335.2608 339.9039 339.9039 340.4629
   340.4629 340.7960 341.8833 342.5765 343.8126 343.8126 344.1238 344.1238
   344.3392 345.1631 345.3681 345.4440 345.4605 345.5023 345.5023 345.5055
   345.5115 346.1931 346.1931 346.2153 346.4046 346.7469 347.3949 347.5482
   347.5482 347.5677 347.5743 348.1522 348.2578 348.3196 348.3196 348.4922
   348.4922 348.5371 348.7025 349.6217 349.6217 349.9044 349.9044 350.4424
   350.5428 350.6605 350.7296 350.7296 351.2702 351.9505 352.5659 357.0649
   357.1018 357.1018 357.1080 357.5529 357.5529 359.0013 359.0013 359.1051
   359.1661 359.3428 360.1411 361.5079 361.5079 362.0768 363.1801 363.4852
   363.4852 363.8072 363.8072 363.8494 365.1133 365.1133 365.2021 365.5786
   365.5786 365.5793 366.0750 366.5754 366.5754 366.8870 366.8912 367.1621
   367.1701 367.2975 367.2975 367.3381 367.6427 367.8364 367.8364 367.9539
   368.1490 368.1825 368.2788 368.2788 368.4393 368.4711 368.4711 368.4857
   368.4978 368.5626 368.5741 368.5741 368.6246 369.0302 371.0405 371.0405
   371.9862 374.6951 374.6951 375.0708 375.3932 376.6457 376.9853 376.9853
   377.2066 377.5130 377.5130 377.5372 378.1029 378.4664 378.4664 378.4768
   378.5348 378.6228 378.9298 378.9622 378.9622 379.0236 379.3395 379.4062
   379.5199 380.1192 380.1192 380.1378 380.1430 380.1430 380.1470 380.2823
   380.2823 380.5759 380.6111 380.7831 380.7831 380.8350 380.8350 381.5136
   381.5136 381.5345 382.0340 382.0877 382.3782 382.4065 382.5156 382.5156
   382.5626 382.6646 382.7423 382.7423 382.7622 382.7796 383.8291 383.8291
   383.9686 384.1119 384.1119 384.6483 384.8239 384.8250 384.8250 384.9396
   385.0321 385.0814 385.2789 385.2789 385.3493 386.2199 386.4483 386.4483
   386.4890 386.4890 386.5647 386.5972 386.6037 387.2317 387.3021 387.3021
   387.3508 387.3651 387.3826 387.3826 387.4044 387.4173 394.5312 394.5312
   395.2306 395.5538 395.5538 395.7808 395.9323 396.2035 396.2035 396.6528
   396.6692 397.2694 397.2694 397.3777 397.3883 397.4456 397.7970 397.7970
   399.3908 399.4923 400.1922 400.5000 400.5000 400.6846 400.6846 400.8107
   401.1322 401.2490 401.3311 401.5514 401.5514 401.9785 402.0460 402.0460
   402.4038 402.7785 402.7871 402.7871 403.0070 403.0395 403.0395 403.1007
   403.3205 403.4403 403.4653 403.4653 403.5259 403.5699 408.4409 408.4768
   408.4768 410.3375 412.1187 412.1187 412.4734 412.8626 413.7532 413.8249
   414.2721 414.2721 414.7104 414.7104 414.8849 414.9507 414.9507 415.3583
   415.4208 415.4263 415.5075 415.5075 415.7890 415.7890 415.9564 416.0365
   416.0797 416.8247 417.8959 417.8959 418.5096 418.5571 418.6345 418.6648
   418.6648 419.0603 419.0603 419.9925 420.1484 420.1853 420.1853 420.1990
   420.2045 420.2403 420.2759 420.2759 420.5482 420.5593 420.7871 420.7871
   420.8057 420.8057 421.0196 421.0267 422.6572 424.5112 424.5248 425.7330
   426.1704 426.1704 426.3869 426.4015 426.4015 426.9681 426.9681 427.2915
   427.2915 427.7739 427.8020 428.0896 428.2714 428.4611 430.7800 431.2690
   431.5014 431.7349 431.7349 431.8435 431.9487 431.9487 432.2384 432.2384
   432.2460 432.3077 432.6103 432.7301 432.7524 432.7524 432.7710 432.8213
   432.8304 432.8748 433.5508 433.5508 433.6054 433.6054 433.7919 433.9011
   434.3250 434.3652 434.3652 434.4283 435.1218 435.1648 435.1857 435.2127
   435.3998 435.3998 435.4443 435.4443 435.6693 435.6787 436.1458 436.1458
   436.3088 436.3088 436.5440 436.9957 437.3754 437.8977 438.4308 438.4308
   438.4602 438.4602 442.9861 442.9861 444.9015 445.5074 445.8049 445.8049
   446.5180 446.6788 446.6788 446.7811 446.7811 446.9432 446.9587 447.1784
   447.2801 447.3355 448.0745 448.0745 448.0829 448.0829 448.1235 448.1554
   449.6572 449.6572 449.6831 449.7068 449.7223 449.9952 449.9952 450.0222
   450.0965 450.0965 450.1104 450.1153 450.1188 451.5052 451.9600 452.4016
   452.4016 452.5356 452.5356 452.6734 453.2856 453.4687 453.5153 453.8376
   453.8376 454.1323 454.6486 454.6486 454.8133 454.8671 454.9188 455.0299
   455.0299 455.1232 458.2916 461.2357 461.2357 462.4769 462.4769 462.5128
   462.8245 463.2177 463.5823 463.6701 463.6701 464.8581 464.8581 464.9345
   465.0780 465.7411 465.8391 466.0290 466.0290 466.3043 466.3346 466.3418
   466.3809 466.3809 466.6500 466.7289 466.7289 466.7632 466.8390 466.8952
   466.8952 466.9457 467.0056 467.9278 467.9722 467.9722 468.0734 468.0734

     the Fermi energy is     7.4989 ev
     (compare with:     7.9760 eV, computed in scf)

     Writing all to output data dir out/mp-315.save/
 
     init_run     :      0.04s CPU      0.05s WALL (       1 calls)
     electrons    :    394.12s CPU    425.24s WALL (       1 calls)

     Called by init_run:
     wfcinit      :      0.00s CPU      0.00s WALL (       1 calls)
     potinit      :      0.01s CPU      0.02s WALL (       1 calls)
     hinit0       :      0.01s CPU      0.02s WALL (       1 calls)

     Called by electrons:
     c_bands      :    394.12s CPU    425.24s WALL (       1 calls)
     v_of_rho     :      0.01s CPU      0.01s WALL (       1 calls)

     Called by c_bands:
     init_us_2    :      0.00s CPU      0.00s WALL (       3 calls)
     init_us_2:cp :      0.00s CPU      0.00s WALL (       3 calls)
     cegterg      :    386.45s CPU    417.08s WALL (       3 calls)

     Called by *egterg:
     cdiaghg      :    368.27s CPU    398.56s WALL (      27 calls)
     h_psi        :      6.24s CPU      6.47s WALL (      30 calls)
     g_psi        :      0.04s CPU      0.04s WALL (      24 calls)

     Called by h_psi:
     h_psi:calbec :      0.12s CPU      0.14s WALL (      30 calls)
     vloc_psi     :      5.97s CPU      6.17s WALL (      30 calls)
     add_vuspsi   :      0.11s CPU      0.12s WALL (      30 calls)

     General routines
     calbec       :      0.12s CPU      0.14s WALL (      30 calls)
     fft          :      0.01s CPU      0.01s WALL (      10 calls)
     fftw         :      5.41s CPU      5.59s WALL (   43410 calls)
 
     Parallel routines
 
     PWSCF        :   6m34.57s CPU   7m 5.90s WALL

 
   This run was terminated on:   1:41:53   2Dec2023            

=------------------------------------------------------------------------------=
   JOB DONE.
=------------------------------------------------------------------------------=
