
     Program PWSCF v.7.1 starts on  5Dec2023 at  5: 9:20 

     This program is part of the open-source Quantum ESPRESSO suite
     for quantum simulation of materials; please cite
         "P. Giannozzi et al., J. Phys.:Condens. Matter 21 395502 (2009);
         "P. Giannozzi et al., J. Phys.:Condens. Matter 29 465901 (2017);
         "P. Giannozzi et al., J. Chem. Phys. 152 154105 (2020);
          URL http://www.quantum-espresso.org", 
     in publications or presentations arising from this work. More details at
     http://www.quantum-espresso.org/quote

     Parallel version (MPI), running on     8 processors

     MPI processes distributed on     1 nodes
     121858 MiB available memory on the printing compute node when the environment starts
 
     Reading input from pw_mp-12558_nscf_k90_E52.in
Warning: card &IONS ignored
Warning: card / ignored
Warning: card &CELL ignored
Warning: card / ignored

     Current dimensions of program PWSCF are:
     Max number of different atomic species (ntypx) = 10
     Max number of k-points (npk) =  40000
     Max angular momentum in pseudopotentials (lmaxx) =  4

     Atomic positions and unit cell read from directory:
     out/mp-12558.save/
     Atomic positions from file used, from input discarded
 
 
     R & G space division:  proc/nbgrp/npool/nimage =       8
     Subspace diagonalization in iterative solution of the eigenvalue problem:
     one sub-group per band group will be used
     scalapack distributed-memory algorithm (size of sub-group:  2*  2 procs)

 
     Parallelization info
     --------------------
     sticks:   dense  smooth     PW     G-vecs:    dense   smooth      PW
     Min         119     119     35                 2484     2484     392
     Max         120     120     36                 2490     2490     395
     Sum         955     955    283                19891    19891    3143
 
     Using Slab Decomposition
 


     bravais-lattice index     =            2
     lattice parameter (alat)  =      11.6335  a.u.
     unit-cell volume          =     393.6194 (a.u.)^3
     number of atoms/cell      =            3
     number of atomic types    =            3
     number of electrons       =        18.00
     number of Kohn-Sham states=         1200
     kinetic-energy cutoff     =      52.0000  Ry
     charge density cutoff     =     208.0000  Ry
     Exchange-correlation= PBE
                           (   1   4   3   4   0   0   0)

     celldm(1)=  11.633547  celldm(2)=   0.000000  celldm(3)=   0.000000
     celldm(4)=   0.000000  celldm(5)=   0.000000  celldm(6)=   0.000000

     crystal axes: (cart. coord. in units of alat)
               a(1) = (  -0.500000   0.000000   0.500000 )  
               a(2) = (   0.000000   0.500000   0.500000 )  
               a(3) = (  -0.500000   0.500000   0.000000 )  

     reciprocal axes: (cart. coord. in units 2 pi/alat)
               b(1) = ( -1.000000 -1.000000  1.000000 )  
               b(2) = (  1.000000  1.000000  1.000000 )  
               b(3) = ( -1.000000  1.000000 -1.000000 )  


     PseudoPot. # 1 for As read from file:
     /usr/scratch4/magr4985/MG/HTDF/pseudo/SG15/As.upf
     MD5 check sum: a2ff92a4799c87c945fff9e6739df4dd
     Pseudo is Norm-conserving, Zval =  5.0
     Generated using ONCVPSP code by D. R. Hamann
     Using radial grid of  602 points,  6 beta functions with: 
                l(1) =   0
                l(2) =   0
                l(3) =   1
                l(4) =   1
                l(5) =   2
                l(6) =   2

     PseudoPot. # 2 for Li read from file:
     /usr/scratch4/magr4985/MG/HTDF/pseudo/SG15/Li.upf
     MD5 check sum: c91dd4cee9943b136ac3b62641658f95
     Pseudo is Norm-conserving, Zval =  3.0
     Generated using ONCVPSP code by D. R. Hamann
     Using radial grid of  602 points,  4 beta functions with: 
                l(1) =   0
                l(2) =   0
                l(3) =   1
                l(4) =   1

     PseudoPot. # 3 for Mg read from file:
     /usr/scratch4/magr4985/MG/HTDF/pseudo/SG15/Mg.upf
     MD5 check sum: 330956729b1f868fdecd9f5113f6a961
     Pseudo is Norm-conserving, Zval = 10.0
     Generated using ONCVPSP code by D. R. Hamann
     Using radial grid of  602 points,  4 beta functions with: 
                l(1) =   0
                l(2) =   0
                l(3) =   1
                l(4) =   1

     atomic species   valence    mass     pseudopotential
        As             5.00    74.92160     As( 1.00)
        Li             3.00     6.94100     Li( 1.00)
        Mg            10.00    24.30500     Mg( 1.00)

     24 Sym. Ops. (no inversion) found



   Cartesian axes

     site n.     atom                  positions (alat units)
         1           Li  tau(   1) = (   0.0000000   0.0000000   0.0000000  )
         2           Mg  tau(   2) = (  -0.5000000   0.5000000   0.5000000  )
         3           As  tau(   3) = (  -0.2500000   0.2500000   0.2500001  )

     number of k points=     8  Gaussian smearing, width (Ry)=  0.0005
                       cart. coord. in units 2pi/alat
        k(    1) = (   0.0000000   0.0000000   0.0000000), wk =   0.0312500
        k(    2) = (  -0.2500000   0.2500000  -0.2500000), wk =   0.2500000
        k(    3) = (   0.5000000  -0.5000000   0.5000000), wk =   0.1250000
        k(    4) = (   0.0000000   0.5000000   0.0000000), wk =   0.1875000
        k(    5) = (   0.7500000  -0.2500000   0.7500000), wk =   0.7500000
        k(    6) = (   0.5000000   0.0000000   0.5000000), wk =   0.3750000
        k(    7) = (   0.0000000  -1.0000000   0.0000000), wk =   0.0937500
        k(    8) = (  -0.5000000  -1.0000000   0.0000000), wk =   0.1875000

     Dense  grid:    19891 G-vectors     FFT dimensions: (  40,  40,  40)

     Estimated max dynamical RAM per process >     100.27 MB

     Estimated total dynamical RAM >     802.19 MB

     The potential is recalculated from file :
     out/mp-12558.save/charge-density

     Starting wfcs are random

     Band Structure Calculation
     ParO style diagonalization

     ethr =  5.00E-06,  avg # of iterations =  6.0

     total cpu time spent up to now is      608.8 secs

     End of band structure calculation

          k = 0.0000 0.0000 0.0000 (  2445 PWs)   bands (ev):

   -70.6187 -40.8469 -37.4037 -37.4037 -37.4037  -5.7142   4.6950   4.6950
     4.6950   6.4188   8.8472   8.8472   8.8472  12.8588  12.8588  13.5793
    13.5793  13.5793  14.7290  18.6248  24.1257  24.1257  24.1257  26.4177
    26.4177  26.4177  27.5491  27.5491  28.6285  28.6285  28.6285  34.4364
    34.4364  34.4364  36.8391  36.8391  38.0290  38.6870  38.6870  38.6870
    39.0166  39.0166  39.0166  39.1470  39.1470  39.8190  39.8190  39.8190
    40.8976  40.8976  40.8976  41.3132  41.3322  41.3322  41.3322  43.3073
    43.3073  43.3073  44.1137  45.8496  45.8496  45.8496  51.9574  54.1522
    57.3545  57.3545  58.7180  58.7180  58.7180  63.8027  63.8027  63.8027
    64.1865  66.0159  66.0159  66.0159  66.3446  66.3446  66.3446  66.4059
    66.4059  69.4214  69.4214  69.4214  70.6003  70.6003  70.8242  70.8242
    70.8242  71.7958  71.7958  71.7958  72.7964  72.7964  73.9216  73.9216
    73.9216  74.8074  75.2022  75.2022  75.2022  75.7479  75.7479  75.7479
    76.2747  76.2747  76.2747  77.6581  77.6581  77.6786  77.6786  77.6786
    77.7695  77.7695  77.7695  77.9635  80.4650  85.1061  85.1061  85.1061
    87.7611  87.7611  87.7611  88.4790  88.7306  88.7306  89.5800  89.8953
    89.8953  89.8953  90.8462  90.8462  90.8462  91.3342  91.3342  91.3342
    91.5311  91.5311  91.5311  91.9497  91.9497  96.2699  96.2699  99.0965
    99.0965  99.0965  99.5934 100.8084 100.8173 100.8173 100.8173 101.8363
   101.8438 101.8438 102.1181 102.1181 102.1181 103.4477 103.4477 103.4477
   103.5142 103.5142 103.5142 104.0060 104.0060 104.0060 104.8006 104.8006
   104.8006 105.7503 105.7503 105.7503 112.3824 115.3718 116.7233 116.7233
   116.7233 117.5613 117.5613 117.5613 118.1130 118.1130 119.2736 123.0382
   123.0382 123.0382 123.7371 123.7371 123.7371 126.1306 126.1306 127.0054
   127.0054 127.0054 128.1687 128.4890 128.4890 128.4890 129.7218 129.7218
   129.7218 130.3487 130.3487 130.3487 130.8108 130.8108 132.0324 132.0324
   132.0324 133.2713 133.6693 133.6693 133.6693 133.6813 133.6813 134.1630
   134.1630 134.1630 134.4627 134.4627 134.6649 134.6649 134.6649 134.8446
   134.8446 134.8446 135.5266 135.5266 135.5266 136.1464 136.2156 136.2156
   136.2156 136.2179 136.2179 136.2179 136.2220 136.2764 136.2764 136.4141
   136.4141 136.4141 136.6357 139.8121 139.8121 139.8371 139.8371 139.8371
   139.8545 139.8545 139.8545 139.9086 139.9086 139.9086 140.0063 140.0063
   140.1504 140.1504 140.1504 142.9043 145.3801 145.3801 145.3801 146.3630
   146.3630 150.0988 150.0988 150.0988 152.3593 152.4942 152.4942 152.4942
   153.1927 153.1927 153.1927 153.5349 153.5349 153.5349 154.3699 154.3699
   154.3699 156.1964 156.2675 156.2675 156.3443 156.3443 156.3443 156.4667
   158.0311 158.0311 158.0311 161.7275 161.7275 162.0389 162.3358 162.3358
   162.3358 163.5499 163.5499 163.5499 163.8681 163.8681 163.8681 164.5827
   164.5827 164.5827 164.6045 164.6045 164.9541 164.9541 164.9541 168.1855
   168.1855 168.1855 168.6111 168.6111 169.3446 169.3446 169.3446 169.9365
   169.9365 169.9365 170.0042 170.0724 170.0724 170.0724 170.8317 170.8317
   170.8317 171.1384 171.1384 175.1190 175.1190 175.1190 176.9253 181.3421
   181.3421 181.3421 181.7078 183.9134 183.9134 183.9134 184.6192 187.2376
   187.2376 187.8896 187.8896 187.8897 188.1105 188.1105 188.1105 188.3523
   188.3600 188.3600 190.8557 190.8557 190.8557 192.0330 192.0330 192.0330
   192.3902 192.3902 192.8933 192.8933 192.8933 193.2874 193.3480 193.3480
   193.3480 193.9524 193.9524 193.9524 194.8087 194.8087 195.3457 196.8049
   197.8257 197.8257 197.8257 197.9100 197.9100 197.9100 198.0256 198.0256
   198.0256 198.2018 198.2018 198.2018 198.2962 198.2962 198.2962 200.9170
   200.9170 200.9170 201.2742 201.2742 201.6850 201.6850 201.6850 201.8783
   201.8783 201.8783 201.9554 201.9554 201.9554 202.0709 202.0709 202.1028
   202.1028 202.1028 202.2272 205.5472 205.6714 205.6714 205.6714 206.5626
   206.5626 206.5626 207.6698 209.7316 209.7316 210.5594 210.5594 210.5594
   211.1409 211.1409 211.1409 211.9384 211.9384 211.9384 212.5580 212.5580
   212.5580 213.8661 213.8661 215.2046 215.4166 215.4166 215.4166 216.4827
   216.4827 216.9761 216.9761 216.9761 217.3849 217.3849 217.3849 217.7242
   217.7242 217.7242 218.4055 218.4055 218.4055 218.4854 218.4854 218.9678
   219.1658 219.1658 219.1658 219.5322 219.5322 219.5322 219.8387 219.8387
   219.8387 220.0612 221.0218 223.0056 223.0056 223.9460 223.9460 223.9460
   224.5246 225.4462 225.4462 225.4462 225.4684 225.4684 225.4684 225.6528
   225.6528 225.6528 225.8314 225.8314 226.0214 226.0214 226.0214 226.0788
   226.1832 226.1832 226.1832 229.4072 229.4072 229.4072 229.6130 229.6130
   229.6256 229.6256 229.6256 230.1472 230.1472 230.1472 230.2005 230.2005
   230.2005 230.3975 230.3975 230.5293 230.5293 230.5293 230.5645 230.5645
   230.5645 230.5667 230.5667 230.5667 230.6299 230.6299 230.6944 230.7215
   230.7215 230.7215 230.8014 230.9194 230.9194 230.9194 231.1006 231.1006
   231.1578 231.1578 231.1578 240.9696 240.9696 240.9696 242.8354 245.2290
   245.2290 247.8336 247.8336 247.8336 249.3749 251.1391 251.1391 251.1391
   252.1918 252.2796 252.2796 253.9524 253.9524 253.9524 255.9871 255.9871
   255.9871 256.2624 256.4173 256.4173 256.4173 256.5762 256.5762 256.5762
   256.8043 256.8043 257.4193 257.7494 257.7494 257.7494 258.4752 258.4752
   258.4752 258.9130 258.9130 258.9130 259.2734 259.2734 260.5983 264.2419
   264.2419 264.2419 264.2950 264.2950 264.2950 264.3334 264.3334 264.3334
   264.4292 264.4292 264.4292 266.0103 266.0103 266.0873 266.0873 266.0874
   266.2848 266.2848 266.2848 266.3028 266.3028 266.3028 266.3544 266.3544
   266.3837 266.3837 266.3837 267.2273 267.2273 267.2593 267.2593 267.2593
   267.3275 269.8489 269.8489 269.8489 271.1293 272.5814 272.5814 272.5814
   272.6165 272.6165 273.1709 273.1709 273.1709 275.9390 275.9390 276.1993
   276.1993 276.1993 277.1980 278.4507 278.4507 278.4507 278.7124 278.7124
   278.7124 279.2241 279.2241 279.2241 279.3712 279.3712 279.3712 279.8096
   279.8096 279.8096 280.7050 281.1179 281.1179 281.1179 281.1638 281.1638
   282.2171 282.3059 282.3059 282.3059 283.0486 283.0486 283.1411 283.1411
   283.1411 285.3527 286.6172 286.6172 286.6172 287.9126 287.9126 287.9126
   288.3681 288.4103 288.4103 288.4664 288.4664 288.4664 288.4847 288.4847
   288.4847 288.6259 288.6460 288.6460 288.6460 292.4187 292.4187 292.4187
   292.4281 292.4281 292.4281 292.4512 292.4512 292.4793 292.4793 292.4793
   292.5533 292.8311 292.8311 292.8509 292.8509 292.8509 293.3116 293.3116
   293.3116 293.5206 293.5206 293.5206 293.7247 294.8511 295.7328 295.7328
   295.7328 295.8521 295.8521 295.8521 296.1804 296.1804 296.2305 296.2305
   296.2305 296.5456 296.5456 296.5456 296.8672 297.0470 297.0470 297.0470
   297.2046 297.2046 297.2287 297.2287 297.2287 306.7365 306.7365 306.7365
   307.1738 309.2185 309.2185 309.5639 309.5639 309.5639 310.5387 310.5387
   310.5387 310.6055 310.6055 310.6055 311.0170 311.0170 311.0170 311.1185
   311.1185 311.1185 311.5328 311.5378 311.5378 311.7678 311.7678 311.7678
   311.9739 312.8962 312.8962 313.5341 313.5341 313.5341 313.9225 314.8201
   314.8201 314.8201 316.4779 316.4779 316.4779 316.5835 316.7171 316.7171
   316.7171 317.0191 317.0191 317.3185 317.3185 317.3185 318.3214 318.7785
   318.7785 318.7785 319.3115 319.3115 319.3115 319.3263 319.3263 320.1592
   320.1592 321.5619 321.5619 321.5619 322.7474 322.7474 322.7474 322.8900
   322.8900 322.8900 323.1035 323.2721 323.2721 323.2721 323.3866 323.3866
   323.3866 323.4883 323.4883 323.9855 323.9855 323.9855 323.9944 323.9944
   325.3027 325.3027 325.3027 325.5490 325.5490 325.5490 325.5498 325.5498
   325.5498 325.5767 325.5987 325.7819 325.7819 325.7819 325.7890 325.7890
   325.7890 325.9940 325.9940 325.9940 326.0374 326.0374 326.2184 326.4395
   326.4395 326.4395 326.7895 326.7895 326.7895 327.0824 327.0824 327.0824
   327.0860 327.0860 327.0860 327.5452 327.5452 329.3129 329.3129 329.5188
   329.5188 329.5188 329.9831 330.1528 330.1528 330.1528 330.2373 330.2373
   330.2373 330.3847 330.3847 330.3847 330.5482 330.5482 330.5482 330.7397
   330.7397 330.8805 330.8805 330.8805 330.9932 333.1337 334.5596 334.5596
   334.5596 334.7894 334.7894 334.7894 336.3615 344.9191 344.9191 344.9345
   344.9345 344.9345 344.9401 344.9401 344.9401 345.0154 345.0154 345.0154
   345.0877 345.0877 345.1024 345.1024 345.1024 347.7531 347.7531 347.7531
   348.8647 349.3340 349.3340 351.4173 351.4173 351.4173 351.5341 351.5341
   351.5341 351.6176 351.6176 351.6176 351.6921 351.6921 351.7385 351.7715
   351.7715 351.7715 352.0372 352.0372 352.0372 356.6991 356.6991 356.6991
   356.7025 356.7025 356.7025 356.7784 356.7784 356.7784 356.8500 356.8500
   356.8500 357.1241 357.1241 357.1504 357.1504 357.1504 357.1915 357.1915
   357.1965 357.2467 357.2467 357.2467 357.3197 367.7122 367.7122 367.7122
   368.8418 369.7856 369.7856 369.7856 370.7637 371.4736 371.4736 371.8707
   371.8707 371.8707 371.9553 371.9553 371.9553 372.2766 372.2766 372.2766
   372.3677 372.3677 372.3677 372.4831 372.4831 372.8250 374.7843 374.7843
   374.7843 375.6029 375.6029 375.6029 377.3233 377.3233 377.3864 377.3864
   377.3864 378.0954 378.4549 378.4549 378.4549 379.1144 379.1144 379.1144
   379.4686 382.1398 382.1398 382.3907 382.3907 382.3907 382.6189 382.6189
   382.6189 382.7690 382.7690 382.7690 383.0489 385.1330 385.1330 385.1330
   385.1333 385.1333 385.6433 385.6433 385.6433 385.7550 385.7550 385.7798
   385.7798 385.7798 386.0980 386.0980 386.0980 386.2820 386.6806 386.6806
   386.6806 386.7513 386.8648 386.8648 386.8648 387.7335 387.7335 387.7335
   388.3490 388.3490 388.6661 388.9195 388.9195 388.9195 388.9501 388.9501
   389.0072 389.0072 389.0072 389.0100 389.0100 389.0100 389.0286 389.0286
   389.0286 389.1784 389.1784 390.9877 390.9877 390.9877 391.2000 391.3612
   391.3612 391.3612 391.5179 391.5179 391.5179 391.5597 391.5597 392.0478
   392.1053 392.1053 392.1053 392.1421 392.1421 392.1421 392.1875 392.1875
   392.1875 392.2049 392.2049 396.9245 396.9245 396.9245 397.0729 397.1169
   397.1169 400.1922 400.1922 400.1922 400.4582 400.4582 400.4582 400.6822
   400.6822 400.6822 400.8726 400.8726 401.3575 403.5350 403.5350 403.5350
   403.5647 403.7007 403.7007 403.7007 403.8325 403.8325 403.8326 403.8703
   403.8703 405.3614 405.3614 405.3614 405.8095 405.8095 405.8095 405.9488
   405.9488 405.9488 406.5964 406.7401 406.7401 407.1361 407.1361 407.1361
   407.7819 407.7819 407.7819 407.8200 407.8200 407.8200 408.1356 408.1356
   408.1356 408.6361 408.6361 408.6386 408.6386 408.6386 408.7616 408.7616
   408.7616 408.8611 408.8611 408.8611 408.9440 410.1823 410.1823 410.2149
   410.2149 410.2149 410.2708 412.1349 412.8488 412.8488 412.8488 414.1585
   414.1585 414.1585 414.6559 414.6559 415.5072 415.6769 415.6769 415.6769
   415.9641 415.9641 415.9641 416.4752 416.4752 416.4752 416.6578 416.6578
   416.7717 416.7717 416.7717 416.9461 417.4319 417.4899 417.4899 417.4899
   417.8797 417.8797 417.8797 418.1170 418.1170 418.1170 418.1456 418.1456
   418.3214 418.3214 418.3214 418.4831 418.4831 418.4998 418.4998 418.4998
   418.5946 418.5946 418.5946 418.7511 418.8966 418.8966 418.8966 418.9368
   418.9368 418.9368 419.1487 419.1487 419.1487 419.2727 419.2727 419.2952

          k =-0.2500 0.2500-0.2500 (  2511 PWs)   bands (ev):

   -70.6187 -40.8484 -37.4041 -37.4037 -37.4037  -5.3808   2.1934   4.3366
     4.3366   7.4812   9.3196   9.3196  10.3635  11.7034  11.7034  13.1747
    16.5913  17.3723  17.3723  19.3386  20.1140  20.1140  21.5036  25.7127
    25.7128  27.5060  27.5060  28.8245  29.2365  30.6944  30.6944  30.8005
    32.4601  32.4601  33.8747  34.0387  34.0387  36.0333  36.0333  36.1189
    37.1536  37.8118  37.8118  38.7997  39.8234  39.8234  40.7211  41.8395
    41.8395  42.3662  43.9990  44.0027  44.0027  45.7513  45.7513  47.7072
    48.3384  48.9984  48.9984  50.4352  50.4538  50.4538  51.9559  51.9559
    52.0254  55.4143  56.1728  56.1728  57.8762  58.8578  58.8578  58.9106
    61.7255  61.7255  63.5296  64.3533  64.4536  64.4536  65.8879  65.8879
    66.1262  66.6868  66.6868  67.1090  68.3638  68.3638  69.4951  69.8535
    69.8535  70.3706  71.5723  71.5723  71.6854  73.1646  73.4810  73.4810
    74.9261  74.9261  75.2062  75.2773  75.4200  75.4200  76.6176  77.7893
    77.7893  78.5951  78.5951  80.1891  80.1891  80.6101  80.9505  81.6662
    81.6662  82.5359  82.6808  82.6808  83.3591  84.2742  84.3065  84.3065
    85.3811  86.8340  86.8340  87.8697  88.0277  88.0277  88.8490  88.8490
    89.6003  89.6777  89.9174  89.9174  90.4695  90.9333  90.9333  92.0971
    92.7469  92.7469  94.3192  94.3192  94.4625  95.0749  95.8188  95.8188
    96.6866  97.4544  97.4544  97.8202  98.6151  98.6151  98.9305 100.1070
   100.5121 100.5121 102.2016 103.4054 103.4054 106.1221 106.4105 106.4105
   107.1040 107.1040 107.2838 108.0629 108.3480 108.3480 111.0563 111.0563
   111.3345 112.8941 112.8941 113.7653 113.8046 114.0192 114.0192 114.7018
   116.0217 116.0217 116.5171 116.5171 116.7626 116.8368 117.3585 117.3585
   118.3443 118.3443 119.1855 119.2148 120.1508 120.1508 120.8901 120.9297
   121.5249 121.5249 121.7855 123.3708 123.5793 123.5793 124.2423 124.2423
   124.5931 125.0046 125.0046 126.6781 126.6781 126.6973 128.6005 128.6005
   128.8531 130.4903 130.5592 130.5592 131.5162 131.5162 131.6069 131.7844
   132.1706 132.1706 133.4532 133.5473 133.5473 134.8059 134.8059 135.2557
   135.3259 135.4958 135.4958 136.7233 136.9154 136.9154 138.1005 138.1043
   138.1043 138.3056 138.6318 138.6318 138.8300 139.3292 139.3292 139.7317
   139.9042 139.9042 140.5859 142.3175 142.3175 143.2084 143.2084 143.5623
   144.1684 144.1684 144.1832 144.6819 144.7523 144.7523 145.6927 145.9601
   145.9601 147.6897 147.7323 147.7323 147.9678 147.9678 147.9877 148.7429
   148.7429 148.9245 149.4505 149.5428 149.5428 150.0856 150.0856 150.5280
   151.4039 151.4039 152.1178 153.2048 153.2048 153.4223 153.4223 153.8780
   154.8646 154.9676 154.9865 154.9865 156.2846 157.7668 157.7668 158.5074
   158.9371 158.9371 159.7643 159.7643 159.7657 160.5527 160.5527 160.8422
   162.1493 162.7061 162.7061 162.9165 163.0933 163.1913 163.1913 164.7288
   164.7288 165.0075 167.4179 167.4179 167.8108 168.0519 168.0519 169.5962
   169.5962 170.1459 171.2959 171.2959 171.6835 171.7697 172.5589 172.5589
   172.7535 172.8421 172.8421 174.0813 174.7759 174.9710 174.9710 175.5359
   175.5359 176.3351 176.4170 176.4170 177.3572 177.9332 177.9332 179.2092
   179.4038 179.6819 179.6819 180.4430 181.3207 181.3207 181.8615 182.2405
   182.2405 182.5715 182.9294 182.9294 184.1469 184.1469 184.7080 184.9896
   185.1654 185.1654 185.5318 185.5318 185.6450 187.0631 187.0631 187.0979
   187.9775 188.5427 188.5427 189.0514 189.1120 189.1120 189.3257 190.0468
   190.0468 191.3217 191.3217 191.5943 191.6292 191.6292 193.0460 193.7657
   193.7657 194.1582 194.3580 194.3580 194.5637 195.6256 195.6256 196.3659
   198.0739 198.7758 198.7758 199.6844 199.6844 199.8157 199.9412 200.7703
   200.7703 200.8568 201.2828 201.2828 202.2009 203.3565 203.3565 203.8382
   204.0303 204.0303 204.4936 205.0999 205.0999 205.4654 205.5458 205.5458
   205.6823 205.7448 205.7448 206.6950 206.6950 206.9355 207.5139 207.5139
   207.9941 208.0129 208.0129 208.3144 208.4375 208.4375 208.8018 209.3643
   209.3643 209.4761 210.0358 210.0358 210.3424 210.3424 210.5842 210.9488
   211.7872 211.8121 211.8121 212.5381 212.5718 212.5718 212.7026 213.3675
   213.3675 213.5828 213.9793 213.9793 214.8706 214.8706 215.4925 216.8939
   216.9580 216.9580 217.0934 217.2375 217.2375 218.1460 218.1460 218.4000
   218.9025 219.6365 219.6365 219.8601 219.8601 219.9973 220.1701 221.2628
   221.2628 221.4515 221.4938 221.4938 222.2894 222.2894 222.4152 222.5085
   223.2086 223.2431 223.2431 223.3131 223.3795 223.3795 224.9838 225.1699
   225.1699 225.6533 225.6533 225.8684 226.8306 226.8306 227.2260 228.6724
   229.2753 229.2753 229.8666 230.0705 230.0705 231.1121 231.1121 231.4885
   231.4885 231.6079 232.0098 233.0161 233.6786 233.6786 234.1399 235.3518
   235.8127 235.8127 236.1950 236.4830 236.4830 236.5527 236.5527 237.0416
   237.0416 237.3334 237.4853 237.4853 237.5634 238.2441 238.2441 238.5449
   239.6535 239.6535 240.4368 240.4368 241.2895 241.9183 241.9183 242.3934
   243.0845 243.0845 243.3697 243.3843 243.9628 244.2886 244.2886 245.3906
   245.3906 245.7202 246.4441 246.4441 246.8108 246.8108 247.0027 247.1259
   247.3387 247.3387 247.6214 248.1834 248.1834 248.7235 249.4185 249.4185
   249.5282 249.8139 250.5943 250.5943 252.7977 252.7977 253.1400 253.7768
   254.2020 254.2020 254.5433 254.8625 254.8625 255.2943 255.3083 255.3083
   255.4681 255.4681 255.5271 256.3356 256.4900 256.4900 256.8436 256.8436
   257.4204 258.7044 258.7044 259.5350 259.7664 259.7664 260.5050 261.7861
   261.7861 262.4456 263.2571 263.2571 263.3287 263.4072 263.4912 263.4912
   263.7294 263.7294 263.9798 264.7704 265.6458 265.6458 267.5907 267.5907
   267.7939 267.7939 268.1481 268.2837 269.7208 269.7208 270.0164 270.3042
   270.6306 270.6306 270.7578 271.1722 271.1722 271.7698 271.7698 271.7882
   271.8851 271.8851 271.9578 273.9756 273.9756 274.1615 274.3315 274.3501
   274.3501 275.1727 275.4426 275.4427 275.9990 275.9990 276.2307 276.9607
   278.0487 278.0487 278.0563 278.3783 278.3783 278.8283 279.2200 279.2609
   279.2609 280.8354 280.8354 281.1400 281.1400 282.2257 282.2849 282.3118
   282.3118 282.3868 283.4414 284.3626 284.5856 284.5856 285.9013 285.9406
   285.9406 286.5247 286.5247 286.5956 286.5956 286.6568 286.8577 287.1200
   287.1200 287.9969 288.0156 288.0180 288.0180 288.2243 288.2243 288.6073
   288.9559 288.9559 290.8013 291.0623 291.0623 291.4438 291.4438 291.5423
   292.5913 292.8099 292.8099 293.1064 294.1347 294.1347 294.4354 294.4354
   294.6539 294.6539 294.7863 294.9652 294.9652 295.2761 295.5169 295.5169
   295.8690 295.9104 296.0697 296.0697 296.6438 296.6438 296.9298 296.9298
   297.0676 297.1650 297.2547 297.8608 297.9593 297.9593 298.5964 298.6420
   298.6420 298.8792 298.8792 299.3291 299.3291 300.0522 300.9024 300.9024
   300.9575 301.3342 301.3342 301.4987 301.6458 301.6458 301.8056 301.8355
   302.5344 302.5344 303.5163 303.5163 303.5470 303.6013 303.7733 303.7733
   303.8117 304.3072 304.3072 304.4699 304.4699 304.4795 304.5501 306.0562
   306.2667 306.2667 306.6318 306.6318 307.5931 308.4703 308.4886 308.4886
   309.2032 309.2032 309.6255 310.0070 310.3007 310.3007 310.6385 310.6707
   310.6707 311.1590 312.3496 312.3496 312.4182 313.0741 313.0741 314.1180
   314.1180 314.9987 314.9987 315.0880 315.3102 315.3102 315.3576 316.4695
   316.4695 316.9018 317.3447 317.4139 317.7258 317.7258 318.0947 318.0947
   318.1883 318.1883 318.3424 318.6375 319.0228 319.0228 319.3291 319.3291
   319.3762 319.5435 319.7742 319.7742 319.8482 322.1420 322.1931 322.1931
   323.0305 323.1497 323.1497 323.8642 323.9656 323.9656 324.0329 324.3042
   324.3042 324.3755 324.5980 324.5980 325.2321 325.9248 325.9248 327.1604
   327.1604 327.8680 328.0897 328.3585 328.3585 329.8630 329.8819 329.8819
   331.1536 331.1536 331.2808 331.3647 331.4223 331.4223 331.8941 331.8941
   332.0390 332.4844 332.4844 332.5686 333.1081 333.4482 333.4483 333.9427
   333.9427 334.0366 334.2231 334.4042 334.4042 334.5944 335.0818 335.0818
   335.5270 335.5270 336.0947 336.4125 337.0946 337.0946 337.8484 337.8484
   337.8906 338.3793 338.3793 338.4015 338.8356 339.0672 339.0672 339.1781
   339.4754 339.9423 339.9423 340.7393 340.7393 341.1263 341.2968 341.2968
   342.0815 342.1820 342.1820 342.2278 342.3284 342.3284 342.4482 342.9959
   343.0607 343.0607 343.9862 344.0112 344.0112 344.2266 344.2894 344.2894
   345.2101 345.2101 345.9146 345.9394 347.7721 347.7721 347.8117 347.9669
   347.9669 348.0900 348.5825 348.5825 349.0167 349.2876 349.2876 349.9330
   349.9330 350.2194 352.1275 353.0675 353.0675 353.3281 353.3281 353.7676
   353.7706 353.7706 354.4608 355.5619 355.5619 355.8213 355.9195 356.0882
   356.0882 356.8463 356.8463 356.9808 356.9808 357.1444 357.6821 357.6821
   358.2248 358.9891 358.9891 359.5511 359.6627 359.9206 359.9206 360.1434
   360.5678 360.5678 362.7097 363.7027 363.7027 364.6160 364.6160 364.8442
   365.3313 365.3313 365.3750 366.1683 366.9987 366.9987 367.3097 367.3097
   367.3381 367.5608 367.7245 367.7245 367.9933 367.9933 368.0047 368.7069
   368.7615 369.1543 369.1543 369.8375 369.8375 369.9382 370.9291 371.2191
   371.2191 371.7446 371.7446 371.9533 372.5901 372.5901 372.6381 375.2391
   375.2391 375.4985 375.5314 375.6244 375.6244 376.4363 376.4363 376.7959
   376.9448 376.9448 377.0788 377.3010 377.3010 377.4709 377.5037 377.5037
   377.6967 377.7904 377.7904 377.9598 378.0484 378.0484 378.2146 378.4183
   378.4183 379.3531 379.3531 379.4296 380.0470 380.0470 380.4423 381.5489
   381.7624 381.7624 382.1547 382.9938 383.2572 383.2572 383.4868 383.4868
   383.5948 383.8136 383.8136 384.0227 384.4756 384.4756 384.5550 384.8594
   385.1134 385.1134 385.4948 385.4948 385.7741 386.4895 386.4895 386.5166
   387.7891 387.8810 387.8810 388.4840 388.4840 388.6435 388.7692 388.7692
   389.1326 389.4963 389.5655 389.5655 389.6521 389.6521 389.9401 390.4136
   390.4136 390.5142 390.8355 390.9702 390.9702 392.0075 392.1479 392.1479
   392.3212 392.4256 392.4256 393.1733 393.1733 393.3687 393.4068 393.4068
   393.7886 394.5800 394.6368 394.6368 394.8470 395.0544 395.0544 395.1623
   395.1623 395.2258 397.0545 397.0545 397.0620 397.6762 397.7223 397.7223
   397.7323 397.9079 397.9079 399.1894 399.1894 399.2414 401.1694 401.4245
   401.4245 402.1877 402.2376 402.2376 402.3097 402.5955 402.5955 402.8046
   403.3767 403.3767 403.4819 404.0574 404.0574 404.4932 404.4932 404.5202
   404.5855 404.7374 404.7374 405.1688 405.2690 405.2690 405.4042 405.4147
   405.4147 406.0363 406.0363 406.1344 406.2552 406.5844 406.5844 407.0317
   407.4069 407.4069 407.5754 408.1319 408.5579 408.5579 408.8056 408.8056
   409.0831 409.4714 409.4714 409.4881 409.8948 410.0587 410.0587 410.3429
   410.3541 410.3541 411.5336 411.5336 412.4212 412.5863 412.5863 412.7058
   412.7513 412.7513 413.4786 414.0539 414.1040 414.1040 414.1218 414.1218
   414.1396 414.2526 414.9156 414.9156 415.1000 415.1000 415.1237 415.2085
   416.0518 416.0518 416.6675 416.6675 416.8811 417.1981 417.1981 417.4775
   418.4429 419.1733 419.1733 419.7807 419.8509 419.8509 420.5315 420.6553
   420.6553 422.6425 422.6425 422.8587 423.0127 423.0127 423.3151 423.3151
   423.7488 423.7488 423.8436 423.9292 423.9292 424.2430 424.3258 424.3258
   424.4338 424.5797 424.6659 424.8320 424.8320 425.0254 425.2588 425.2588

          k = 0.5000-0.5000 0.5000 (  2488 PWs)   bands (ev):

   -70.6187 -40.8480 -37.4045 -37.4038 -37.4038  -4.9618   0.7188   4.0698
     4.0698   7.4916   8.9338   8.9338  11.2266  14.3253  14.3253  14.8443
    15.5225  15.5225  16.3310  19.6879  22.3793  22.3793  23.4629  23.7036
    23.7036  25.9471  26.8262  26.8262  27.7316  28.4380  28.4380  30.2541
    30.6639  30.6639  32.1721  32.1721  32.9500  33.6358  36.3259  37.4283
    37.4283  39.1587  39.1587  39.2556  41.3689  43.1757  43.3164  43.3164
    45.0000  45.0000  45.7491  45.7491  46.8421  47.7891  47.7891  48.7727
    49.5002  49.5002  50.1670  51.8964  51.8964  52.6003  52.6004  53.3442
    54.3990  54.3990  55.5017  56.0081  56.0129  56.0129  56.1174  56.9000
    56.9000  58.2977  60.6001  61.7652  61.7652  61.9383  62.5457  62.5457
    63.7628  65.6038  65.6038  65.9115  67.9541  67.9541  68.0636  69.2904
    69.2904  70.5137  71.3542  71.3542  71.9430  73.0768  74.0207  74.0207
    74.8864  74.8864  75.6127  75.6127  76.1406  76.3645  77.1219  77.7792
    77.7792  78.1040  78.1040  78.5451  79.0617  79.9896  80.5802  80.5802
    82.4472  82.4472  84.6547  85.3348  85.3348  85.9068  85.9068  86.8923
    87.0534  87.6160  87.7215  87.7215  88.7565  88.9159  88.9159  90.2416
    90.3616  90.3616  90.6906  91.0465  91.0465  93.5279  93.5279  93.8325
    93.8325  94.0348  94.5845  95.5096  95.9270  95.9270  96.7249  96.7249
    97.7605  97.9568  98.8576  98.8576 101.0808 101.0808 101.7885 101.7885
   102.4553 103.6037 103.6037 103.6154 103.6257 104.3496 104.3496 104.7934
   106.1824 106.1824 106.4931 107.0894 107.0894 108.3798 108.6572 108.6572
   109.1671 109.7096 110.1577 110.1577 112.9893 112.9893 113.9972 114.4794
   114.5577 114.5577 115.4362 115.5146 115.5146 116.3822 117.9683 118.0784
   119.0737 119.0737 119.7041 119.7854 119.7854 120.7142 120.7142 121.6761
   121.6761 122.5322 122.9081 124.0324 124.0324 124.3542 124.3542 124.5848
   124.5848 124.7611 124.9340 124.9340 125.1826 125.8944 125.8944 126.0688
   126.1584 126.1584 126.3919 128.6525 129.2157 129.2157 129.4067 129.5244
   129.5244 130.6007 131.3450 131.3450 131.9545 132.3092 132.3092 132.8082
   132.8082 133.2946 133.8133 133.8133 134.5513 135.0846 135.0846 136.5726
   137.1226 137.2010 137.2010 139.3340 139.4040 140.7156 140.7156 140.8043
   141.9187 141.9187 142.1159 142.4553 142.4711 142.4711 142.7704 142.7704
   142.8934 144.5009 144.5009 144.9312 145.2334 145.2335 145.6977 146.4589
   146.9029 146.9029 148.0556 148.0556 148.7092 150.8594 150.8594 150.8827
   151.0799 151.1557 151.1557 151.5817 151.5817 151.6195 152.1440 152.1440
   153.4016 153.7343 153.7343 155.5651 156.9863 156.9863 159.2625 159.2625
   159.5099 159.9272 160.5522 160.5522 160.8968 161.4032 161.7002 161.7002
   162.7661 162.7661 162.8450 163.7622 164.1081 164.1081 164.5279 164.5279
   164.7541 164.7541 164.8434 165.1680 165.1680 165.3016 165.3149 165.8429
   166.1853 166.8936 166.8936 167.1533 167.1533 167.8653 168.2819 168.2819
   169.0973 169.0973 169.3378 169.3378 169.6199 169.6199 169.7400 170.3487
   172.3744 172.9155 172.9155 173.0477 173.0477 173.0934 173.3033 173.3259
   173.5995 173.5995 173.6472 173.6472 174.9877 174.9994 176.4240 176.4240
   177.6315 178.3451 178.7546 178.7546 180.9217 180.9217 181.2087 181.5209
   181.5209 182.1089 182.1089 182.6291 182.7782 182.7782 183.3445 184.5147
   184.5147 184.7464 185.0092 185.0092 185.2099 185.8821 185.8821 186.5485
   186.6990 186.6990 187.1778 187.1778 188.0893 188.4700 188.4700 188.8406
   189.7602 189.7602 189.8749 189.8749 190.0222 190.2243 190.6860 190.9217
   190.9217 191.9966 193.1145 193.1145 193.6575 194.1627 194.1627 194.9480
   194.9480 195.0358 195.1146 195.1146 195.3337 195.7011 195.7491 195.7491
   196.1555 198.3401 198.5850 198.5850 199.1739 199.1739 199.5471 200.9501
   201.2020 201.4461 201.4461 201.8524 201.8524 201.9627 203.2771 203.2771
   203.2997 203.7001 203.7001 203.7069 207.2401 207.2401 207.4756 207.6385
   207.6385 208.8085 208.8085 209.1252 209.6167 210.4403 210.4403 210.7707
   210.7707 210.8160 211.5592 211.5592 211.7181 211.7859 211.9940 212.2667
   212.2667 212.6082 212.8401 212.8401 213.6188 214.1269 214.1269 214.3135
   214.3135 215.4698 215.4698 216.4778 216.8773 216.8773 217.2428 217.2825
   217.2825 218.0995 218.0995 218.4520 218.8110 218.8110 218.8999 219.3567
   219.3567 219.6260 220.2066 221.5606 221.5606 222.1151 222.1655 222.1655
   222.3263 222.6224 222.6224 223.2466 223.2466 223.4441 224.5676 226.6941
   226.6941 227.2364 227.2364 227.4273 227.4273 227.4441 228.0919 228.0919
   228.4782 228.5189 228.7259 230.5576 230.5576 230.9421 231.2461 231.4091
   231.4091 231.8291 232.5833 232.5833 232.7350 232.7350 233.1202 233.2223
   233.2738 233.9643 233.9643 234.1396 234.1396 234.3546 234.7335 234.7335
   235.3145 235.7377 235.7377 235.8802 236.9739 237.3672 237.3672 238.1410
   238.1410 238.2544 239.9063 239.9356 239.9356 240.4383 240.4383 240.7336
   241.8105 243.0757 243.7432 243.7432 243.9768 243.9768 244.1779 244.2195
   244.2195 244.2867 244.2867 244.3479 244.6376 244.7554 244.7554 244.9850
   245.1401 245.1401 245.2123 245.2123 245.4874 245.4874 245.4969 245.6749
   247.4502 247.6499 247.6499 247.8719 247.8789 247.8789 248.4238 248.4238
   248.6664 248.9149 248.9149 249.5866 249.8807 249.9389 250.0189 250.0189
   250.1256 250.1256 252.3461 252.3461 252.4182 252.4182 252.6921 252.7214
   254.2238 255.6107 255.6474 255.6474 256.3296 256.3296 256.4744 256.7470
   258.3146 258.3146 258.6584 258.6584 258.7212 259.0294 261.3516 261.3516
   261.4937 261.4938 262.9941 263.1383 263.1383 264.1951 265.2803 265.2803
   265.9264 266.1318 266.1318 266.3002 266.3188 266.3188 266.5790 266.5790
   266.6050 266.6050 267.1255 267.1492 268.0728 268.0728 268.0878 268.0878
   268.2028 268.5794 269.3503 269.3503 269.5384 270.0329 270.0386 270.6610
   270.6610 271.6824 271.9542 271.9542 272.0794 272.0794 273.8177 274.0144
   274.0580 274.0580 274.3811 274.3811 275.5772 275.8391 276.7427 276.7427
   276.7576 276.7576 277.0626 277.0626 277.1726 277.2216 277.3870 278.0169
   278.0169 280.0826 280.3187 280.5845 280.5845 281.0927 281.0927 281.5626
   282.5758 282.9078 283.0845 283.0845 283.2176 283.2176 284.2497 284.2497
   284.6360 284.6360 284.7142 284.7142 284.7537 284.7537 285.5935 285.7656
   286.3566 286.4577 287.2611 287.2611 287.5035 287.8285 287.8285 288.0149
   288.0149 288.6762 288.6762 288.9815 289.2450 289.8064 289.8064 290.3845
   290.3845 290.4977 290.5611 290.5611 290.5857 290.7595 290.7595 290.9250
   292.6391 292.6391 292.6867 292.7056 292.7056 292.7616 293.6818 293.6818
   293.7183 293.7183 293.7553 293.8704 295.5965 295.5965 295.8964 296.1395
   296.1395 296.3141 297.9121 298.5477 298.5477 298.7510 298.7510 298.7581
   298.8401 298.8401 298.9212 299.0837 299.1056 299.1056 300.2904 302.1650
   302.5066 302.5066 302.7715 302.7715 302.8726 302.8726 303.1761 303.1761
   303.3018 303.3719 303.7092 303.8555 303.8555 303.9906 303.9906 304.0727
   304.8237 305.6648 305.6648 306.6129 306.6129 307.1557 307.7124 308.1036
   308.1036 308.3815 308.3878 308.3878 308.4399 308.4399 308.5465 308.5805
   308.7237 308.7237 308.9500 309.2726 309.6143 309.8694 309.8694 310.6894
   310.7609 310.7609 311.6642 311.6642 311.7150 311.7150 312.5122 313.0537
   313.1828 313.1828 313.2628 313.2628 313.5453 313.6052 313.6720 313.6720
   313.7262 313.7262 314.5954 315.2130 317.0652 317.0652 317.1655 317.2243
   317.2243 317.4978 322.6938 323.2275 323.2275 323.3232 323.4428 323.4428
   323.5787 323.6258 323.6258 323.6782 323.6782 323.7287 324.4463 324.4463
   324.4599 324.4599 325.2093 325.2093 325.6269 326.6361 326.6361 327.1056
   327.9150 328.8754 328.8754 329.0367 329.0367 329.4257 329.6066 329.6066
   329.7124 329.8034 329.8034 329.9065 330.0684 330.0684 330.1347 330.2177
   330.2177 330.2783 330.3563 330.6176 330.6176 330.7277 330.7277 331.6048
   332.2242 332.2242 332.2473 332.2473 332.2628 332.3198 333.7431 334.0145
   334.0145 334.6796 334.6796 334.6885 335.4997 337.6245 337.9216 337.9216
   338.2342 338.2342 339.3395 339.3395 339.3471 339.3471 339.3556 339.3760
   340.0570 340.0837 340.0837 340.1379 340.1379 340.1514 342.2792 342.3548
   342.5110 342.5110 342.6138 342.6138 342.9633 342.9633 343.0154 343.1326
   343.1326 343.2866 343.2866 343.3233 343.3233 343.4600 343.4954 343.5668
   347.0137 347.0137 347.0584 347.0584 347.5066 347.5581 347.5689 348.4271
   349.3817 349.3817 349.4588 350.3687 350.3687 350.3950 351.1345 351.1345
   351.7472 351.9722 351.9722 352.7180 353.1488 353.1488 353.1827 353.3005
   353.3005 353.3523 353.9467 353.9950 353.9950 354.0495 354.0495 354.2282
   355.4810 355.4810 355.6863 355.8914 355.8914 355.9177 356.0445 356.4083
   356.4083 356.5881 356.5881 357.2584 358.3537 358.3537 358.4545 358.4545
   358.7388 358.9573 360.7238 361.1453 361.2166 361.2166 361.2925 361.2990
   361.2990 361.3193 361.7635 361.7635 361.7838 361.7838 363.1868 363.1868
   363.2038 363.2038 363.3400 363.3750 363.8822 363.9268 363.9269 363.9394
   363.9691 363.9691 364.1617 364.1617 364.2221 364.2221 364.3935 364.4339
   367.2574 367.5941 367.7003 367.7004 367.9456 367.9456 369.7228 369.7228
   369.7874 369.7874 369.9398 370.2443 370.5563 370.5686 370.6047 370.6047
   370.8625 370.8625 370.9863 370.9863 371.3889 371.4015 371.4015 371.6393
   374.5340 375.0610 375.0831 375.0831 375.4900 375.6745 375.6745 375.9983
   376.7101 376.7101 376.7505 376.7505 376.8306 377.0638 377.3898 377.5533
   377.5533 377.7261 377.7261 377.8807 378.4231 378.4231 378.4625 378.4625
   378.8372 379.0911 379.0911 379.2300 379.2300 379.4228 379.4991 379.7494
   379.7494 379.8603 379.8603 379.8943 381.7801 382.2184 382.9468 382.9468
   383.1133 383.2072 383.2072 383.2262 383.9182 383.9182 384.2181 384.2181
   384.3477 384.3477 384.5824 384.5824 384.6108 384.7734 385.3290 385.3290
   385.3783 385.3783 385.3892 385.5471 386.6035 386.6077 386.9330 386.9330
   386.9679 386.9679 389.8371 389.8371 389.8405 389.8405 389.9924 389.9924
   390.1913 390.5378 390.5378 390.6062 390.8038 390.8055 392.9245 393.2309
   393.2309 393.4270 393.4270 393.4715 395.8932 396.5369 396.5369 396.9498
   396.9498 397.7407 398.9092 399.2217 399.9286 399.9286 399.9459 400.2171
   400.2171 400.3766 400.5525 400.5525 400.6670 400.7458 400.7458 401.1095
   401.2281 401.2281 401.2748 401.2748 401.3634 401.3712 401.3712 401.5289
   401.5289 401.5882 401.6227 401.7228 401.7228 401.7452 401.8364 401.8845
   401.8845 402.1650 405.0344 405.0344 405.1514 405.2478 405.2478 405.3931
   405.4664 405.4664 405.4743 405.7046 405.7046 405.7417 406.1953 406.1953
   406.3069 406.3069 406.4159 406.5870 406.6943 406.6943 406.8333 406.8333
   406.9500 407.0189 407.1961 407.4541 407.4541 407.6309 407.6309 407.7205
   410.4394 410.5954 410.5954 410.9956 410.9956 411.1510 411.2365 411.2365
   411.2764 411.2764 411.5931 411.6371 411.6371 411.6510 411.6510 411.6616
   411.8771 412.0023 412.0023 412.2070 412.2070 412.2871 414.0828 414.1497
   414.1497 414.4233 414.4233 414.5266 419.3815 419.3815 419.3916 419.3916
   419.4168 419.4485 422.7778 422.9928 422.9928 423.0951 423.0951 423.2918
   423.2918 423.3619 423.3622 423.3622 423.4490 423.4708 424.4238 424.5222
   424.5861 424.5861 424.8274 424.8274 424.9848 424.9848 425.0886 425.0886
   425.1229 425.2231 427.6173 429.3717 429.3717 429.8615 429.8615 430.6033

          k = 0.0000 0.5000 0.0000 (  2525 PWs)   bands (ev):

   -70.6187 -40.8487 -37.4041 -37.4038 -37.4038  -5.2699   2.4478   3.6421
     3.6421   7.5406   8.2763  10.8626  10.8626  11.0011  13.8177  15.3234
    15.3234  16.4634  17.1341  19.5108  19.5108  20.9344  21.4645  22.8236
    26.8430  26.8430  26.9370  28.9019  29.0485  29.0485  29.7277  30.8347
    33.8212  33.8564  33.8564  34.8862  34.8862  34.8969  36.3646  37.1191
    37.2483  37.2483  37.6906  37.9485  38.7556  38.7556  40.3810  42.3733
    42.7105  42.7105  44.3638  45.1389  45.1389  45.3126  45.3484  45.8555
    47.4979  49.9370  50.2474  50.2474  52.6313  53.0731  53.7039  53.7039
    56.0043  56.0043  56.1330  56.4116  57.9668  57.9668  58.3116  59.6604
    60.3394  60.3612  60.8576  60.8576  62.1671  62.1671  63.7319  63.8541
    64.7508  65.6351  66.0412  66.0412  67.1849  67.8576  67.8576  68.1282
    70.8337  71.8825  72.3716  72.3716  73.9882  74.0997  74.3955  74.4431
    74.4431  76.2244  76.2244  76.2447  76.6164  77.0756  77.1198  77.1198
    78.7937  79.1486  79.1486  79.2713  79.5708  81.3369  81.5160  81.5160
    81.7531  82.9150  83.0670  83.0670  83.3511  83.7847  84.3189  84.3189
    84.5296  85.0763  85.2982  85.2982  86.1183  86.2017  86.2017  86.3810
    86.6560  88.8253  90.5298  90.5298  91.3317  92.3718  92.3718  94.1364
    94.5445  94.5693  95.0424  95.8419  95.8419  95.9646  98.2985  98.8027
    98.8027  99.2441  99.6867 100.0405 100.0405 100.1517 100.9604 100.9604
   102.6704 103.2921 103.7909 103.7909 103.9501 105.7718 105.7718 105.9438
   106.3718 106.3811 107.2604 107.2604 107.5613 107.9764 108.5787 108.5787
   108.9530 109.7608 111.5747 111.5747 112.7100 113.2023 113.5062 113.9301
   113.9301 114.5806 115.5745 115.5745 116.0119 116.0944 116.5065 117.7018
   118.4509 119.2664 119.7079 119.7079 120.1251 120.5543 120.5543 120.8976
   121.0718 121.5214 121.5214 122.7153 123.4106 123.4106 123.4392 124.4739
   124.4739 125.1840 125.4838 125.8189 125.8189 125.8475 126.4954 127.3716
   128.3240 128.3240 129.2931 130.7906 130.7906 131.3269 131.3276 131.5165
   131.5165 131.8501 132.4861 132.4861 132.8685 133.5835 133.5915 133.9840
   134.6795 134.8201 134.9425 134.9425 136.3698 136.3698 137.3370 138.0445
   138.3922 138.3922 138.7911 138.8886 138.8886 139.1645 139.3515 141.2796
   141.2796 141.7701 142.7866 143.2925 143.5671 143.5671 144.1616 144.1773
   144.8849 145.5120 145.5120 146.0653 146.0653 146.1684 146.4097 146.4097
   146.7955 147.2108 148.8060 149.5351 149.5438 149.5438 150.2214 150.2214
   150.9690 151.2995 152.0708 152.0777 152.5090 152.5090 152.9907 153.2868
   153.3159 153.3159 153.9314 154.0550 154.1127 154.2006 154.2006 154.3304
   154.7669 154.7669 154.9953 155.1735 155.1735 155.2482 156.7117 157.2987
   157.3412 157.3412 157.9365 158.1183 158.1253 158.1253 160.2684 160.5713
   161.6414 162.3857 162.3857 162.4072 162.6043 162.6599 162.6599 162.9282
   164.2602 164.9237 164.9237 166.4025 167.2878 167.8008 167.8008 167.9754
   168.6507 169.4833 169.5374 169.5374 170.1440 171.6353 171.6353 172.6498
   172.8782 173.2359 173.2359 173.3142 174.5317 174.5317 174.7159 175.2354
   175.5470 176.2902 176.2902 176.8862 178.0357 178.1868 178.1868 179.9550
   179.9550 180.3791 180.3791 180.5067 180.6867 180.9796 181.1796 181.8169
   181.8169 181.8681 183.2771 184.1760 184.1760 184.4783 185.1822 185.4271
   185.4271 185.6021 186.8909 187.1867 187.5206 188.0982 188.0982 188.5827
   189.1002 189.1002 189.1473 189.4068 190.8187 190.8963 191.4331 191.4331
   192.3356 192.3356 192.4933 193.0394 193.0406 193.6887 193.6887 194.3053
   194.3053 194.6671 195.1502 195.1612 196.3743 196.4340 196.4340 197.5121
   197.5121 197.7330 198.0672 198.8911 199.1534 199.1534 199.3587 199.5420
   199.7745 199.7745 199.8819 200.4389 200.4627 200.5851 200.5851 201.1163
   201.1692 201.1692 201.2615 201.8928 202.7587 202.7587 203.0196 203.1230
   203.1244 203.1244 203.1781 203.5405 203.5405 203.7228 203.7499 204.1697
   204.1977 204.3972 204.3972 206.7159 206.9992 206.9992 207.1519 207.7971
   208.1136 208.2319 208.2319 209.7491 210.5312 210.5312 210.6407 210.7375
   211.1307 211.1307 211.1434 211.6832 211.6832 211.6840 213.5002 213.7632
   214.5563 214.8133 214.8133 215.8179 216.2244 216.4291 216.5350 216.5350
   216.6687 217.2713 217.2713 217.6949 218.0956 218.4820 218.4859 218.4859
   219.1324 219.6574 219.6833 219.8643 219.8643 221.1408 221.7042 223.1307
   223.1625 223.1625 223.5826 224.1804 224.3878 224.3878 225.1010 225.1010
   225.3414 225.5266 225.7164 225.8712 225.8712 225.8761 226.5812 226.8848
   226.8848 227.9592 227.9592 228.3605 228.7947 229.0380 229.0380 229.5593
   230.3178 230.3178 230.7894 230.9438 231.3541 231.7051 232.1411 232.2158
   232.2158 232.8426 232.8452 232.8452 233.4451 233.6628 233.7234 233.7234
   234.4803 234.4803 234.8864 236.0128 236.4842 236.4923 236.4923 236.5124
   237.2775 237.4596 237.4596 239.3361 240.7812 240.8737 240.8737 241.3341
   241.3978 241.9539 241.9539 241.9600 242.4046 242.4046 242.4320 243.0513
   243.0513 243.1129 243.5872 243.7376 243.8512 244.0960 244.2614 244.2614
   244.5918 245.1000 245.6895 245.6895 246.3908 246.7812 247.1860 247.1860
   247.3178 247.3178 247.3321 248.6268 248.9167 248.9167 249.4350 250.4521
   250.6003 250.9829 251.0107 251.0107 251.2285 251.3277 251.5290 251.5290
   252.2127 252.2500 252.4039 252.4039 252.4436 252.7039 252.7039 252.9225
   253.3775 253.8914 254.1637 254.1637 256.1424 258.3990 258.3990 258.8509
   258.8509 259.1633 259.2441 259.8994 261.2520 261.2520 261.5868 262.7054
   262.7057 263.6956 263.6956 263.8908 264.1864 264.2503 264.2503 264.8097
   265.9217 265.9217 266.4777 267.3572 268.2089 268.2661 268.2661 268.4968
   268.7816 268.7816 268.8579 269.1772 269.6416 269.8139 269.8142 269.8142
   270.1996 270.3283 270.3283 270.7000 271.1092 271.4698 271.6328 271.6328
   271.8097 271.8200 271.8200 272.4988 272.9070 273.1930 273.3103 273.3103
   273.6376 273.6482 273.6482 273.7481 274.2095 274.3813 274.3813 274.4523
   275.3255 275.4327 275.4327 275.5059 275.6056 275.7331 275.7331 275.8777
   277.3934 278.5792 280.0482 280.2335 280.2335 280.7642 280.7642 281.0138
   281.2096 281.3312 282.4338 282.5635 282.5635 282.8650 283.1598 283.3017
   283.9171 283.9171 284.1744 285.4731 285.6177 285.6177 285.8803 287.0155
   287.0155 287.5894 288.1368 288.1368 288.5310 288.5914 288.9383 288.9383
   289.0825 289.2819 289.3146 289.4419 289.9881 290.1051 290.1051 290.1171
   290.2000 290.3116 290.3116 290.5357 291.2126 291.2126 292.4839 293.1864
   293.1864 293.3422 293.4298 293.4298 293.5783 295.0553 295.2035 295.3093
   295.4089 295.4089 296.4882 296.5354 296.6251 296.6251 296.7842 296.7842
   297.5385 297.5646 297.5646 297.7342 298.0469 298.0469 298.2042 298.2817
   299.4054 299.6131 299.6131 299.9501 300.1999 300.5412 300.5412 300.6765
   301.1394 301.9660 302.0390 302.3146 302.3146 302.8919 302.9726 302.9726
   303.9035 304.6375 305.1124 305.1124 305.8347 306.1051 307.3157 307.3157
   308.2654 308.8321 309.1950 309.1951 309.3588 309.4296 309.4529 309.4583
   309.4583 309.6441 310.5537 310.7917 310.7917 311.0638 311.2562 311.4381
   311.4381 311.6629 311.7699 311.7699 311.8772 311.8772 311.9683 312.0071
   312.2453 312.4011 312.4011 312.5098 313.1320 313.7181 313.7181 313.8513
   313.9674 314.0693 314.2998 314.2998 314.4427 315.6113 315.7904 315.7904
   316.0333 316.2052 316.9869 316.9869 317.2257 317.2782 317.3786 317.3786
   317.4675 318.2863 318.4514 318.4514 318.5489 318.6121 319.0805 319.0805
   319.3146 319.9187 320.3619 320.3619 320.5673 320.9672 321.0542 321.2103
   321.2103 321.3332 321.3332 321.4726 321.6463 322.0283 322.0283 322.2000
   322.3398 322.4636 322.4636 322.5978 322.6578 322.6751 322.8207 322.8207
   323.0167 326.1348 326.1348 326.2317 326.5891 326.5947 326.7528 326.7528
   327.0153 328.2173 328.5552 328.5552 328.6575 328.7543 328.7992 328.7992
   329.0492 329.7034 329.7500 329.7500 329.8360 332.3575 332.3651 332.3651
   332.4368 334.2135 334.9589 334.9589 335.5029 338.2784 338.9580 338.9580
   339.0421 339.0898 339.6206 339.9115 339.9115 340.0758 340.0758 340.2904
   340.9775 341.0267 341.1528 341.1528 341.2236 341.3883 341.3883 341.3920
   342.0431 342.3131 342.5720 342.5876 342.6682 342.6682 343.0248 343.0248
   343.6740 344.1049 344.9913 344.9913 345.3376 346.0046 346.4275 346.4275
   346.5127 346.7863 347.6124 348.1769 348.1769 348.2695 348.3861 348.3861
   348.9427 350.1206 350.3316 350.7772 350.8601 350.8601 351.6434 351.6434
   351.6653 351.9460 352.0075 352.0689 352.0909 352.0909 352.1393 352.5769
   353.2931 353.2931 353.6296 353.7284 353.7284 353.8991 354.1299 354.1299
   354.1363 354.5693 354.6837 354.7148 355.5284 355.5284 355.8331 356.3938
   356.7378 356.7378 357.0893 357.1595 357.5298 357.5298 357.7640 357.8021
   357.9783 357.9783 358.5226 358.5353 358.6900 358.6900 358.7157 358.7833
   358.8221 358.8221 358.9365 359.1880 359.3011 361.5330 362.1368 362.1368
   362.4059 362.4059 362.4772 362.6088 362.6817 362.6817 363.2397 365.6900
   365.8096 365.8096 366.0170 366.1088 366.1536 366.1536 366.5640 367.0896
   367.0896 367.4306 367.4927 367.6182 367.6302 367.6302 367.9859 368.0973
   368.1641 368.1641 368.2060 368.3951 368.3951 369.8088 369.8560 369.8614
   369.8614 369.9054 369.9054 369.9335 369.9448 371.1041 372.0930 372.5186
   372.5186 372.9234 373.7274 373.7391 373.7391 374.3437 374.6167 374.7692
   374.8497 374.8497 374.9816 375.1566 375.1566 375.3519 377.6478 377.7335
   377.8041 377.8041 377.8651 379.7839 380.4933 380.4933 381.3877 381.5136
   381.5136 381.8116 382.1983 382.1983 382.8988 382.9007 383.1423 383.1423
   383.5688 384.3074 384.5373 384.5373 384.6337 384.6829 384.9660 384.9943
   385.5445 385.5628 385.5628 386.7182 386.7182 387.4994 387.5134 387.8814
   387.8814 388.0665 388.4243 388.5549 388.5549 388.8860 388.9501 389.4232
   389.5016 389.5016 389.9474 390.1234 390.1234 390.6384 391.6237 391.6590
   391.6590 391.7018 391.9787 392.1529 392.1529 392.6934 392.8804 392.9364
   392.9364 393.0035 393.3494 393.3494 393.7698 393.8898 395.0573 395.1357
   395.1357 395.2311 395.9495 396.0436 396.1042 396.1042 396.4117 396.5492
   396.6666 396.6666 397.0539 397.0539 397.7710 398.0463 398.5661 398.8962
   398.8962 398.9880 398.9988 399.0583 399.0583 399.0996 400.0115 400.0158
   400.0170 400.0170 400.7064 400.8174 400.8174 400.9324 400.9438 401.2454
   401.2454 401.2770 403.4313 404.3626 404.3626 404.8993 405.4736 405.4736
   405.4742 405.5387 406.2293 406.3930 406.3930 406.5480 406.9488 407.0221
   407.0221 407.3424 407.9127 408.0050 408.0050 408.0338 408.7702 409.1524
   409.1524 409.3188 409.5187 409.5187 409.7128 409.7183 410.8865 411.1764
   411.1764 411.3357 411.4510 411.5034 411.5034 411.6626 412.0788 412.3009
   412.3009 412.8739 413.7813 414.1760 414.1760 414.3275 414.4926 414.7791
   414.7920 414.7920 415.2951 415.5148 415.5148 415.5474 415.6420 415.8353
   415.8353 415.9439 416.0155 416.0345 416.0848 416.0848 416.1434 416.1646
   416.1646 416.4163 416.7173 416.8560 416.9499 416.9499 417.0666 417.1827
   417.1827 417.6281 417.6428 417.8209 417.8209 417.8853 418.4126 418.7489
   418.7489 418.8315 420.9928 422.0518 422.0736 422.0736 422.6712 422.6712
   422.7490 423.0370 423.4408 423.5815 423.5914 423.5914 423.7151 423.7267
   423.7267 423.7359 424.0351 424.1457 424.1457 424.2838 425.4545 425.8749

          k = 0.7500-0.2500 0.7500 (  2490 PWs)   bands (ev):

   -70.6187 -40.8479 -37.4044 -37.4040 -37.4039  -4.8458   1.2294   2.7591
     3.4243   7.3079   9.5251  10.6165  10.8509  13.5461  14.4564  15.6762
    16.1388  16.3767  18.9277  19.5774  20.5153  21.3475  21.6454  22.5689
    23.4066  25.1995  25.7631  25.8946  27.9768  28.1315  29.1246  29.1368
    30.3928  31.7516  31.9974  34.2838  34.7171  35.8690  36.0611  36.5317
    37.4007  39.3506  40.0892  40.4643  41.1382  41.8278  43.0036  43.2585
    43.7213  43.7462  44.6834  45.3273  46.8262  47.8148  48.2059  48.8527
    49.3949  50.0901  50.7849  51.5603  52.6351  52.9827  53.6934  53.9690
    54.8953  55.5634  55.6995  55.9106  56.6123  56.7134  57.6519  58.1052
    58.3834  59.6818  60.2990  60.6692  61.3941  61.5126  62.7408  63.2434
    64.1752  64.3354  65.2505  65.4746  65.8520  66.4145  67.6006  67.7136
    68.6226  68.6596  69.5666  70.1287  70.6762  71.9679  72.6433  72.7446
    73.1193  73.5495  74.4607  75.6967  75.9522  76.0836  76.9212  77.1721
    77.7297  77.9729  79.0920  79.5353  80.8618  81.1481  81.2447  81.7693
    82.7922  82.9071  83.8602  84.6131  85.0433  85.3766  85.7739  86.3604
    86.4178  87.0989  88.0978  88.1944  89.3863  90.0278  90.2821  90.3513
    91.1356  91.5163  92.1501  92.2953  93.1290  93.5253  93.7748  93.9167
    94.7557  96.0968  96.3461  96.8942  97.5592  98.0232  98.5470  98.8583
    98.9275  99.4992  99.9812 100.4141 100.5310 101.4791 101.5570 102.1584
   102.6622 102.8728 103.8069 103.9980 104.6320 104.8501 105.1359 105.8498
   106.0841 106.8220 106.8626 107.3092 107.8765 107.9330 108.3017 108.7470
   109.2350 109.3111 109.9531 110.0848 110.2606 111.1437 111.3541 112.0638
   112.4582 113.1080 114.3061 114.5234 114.8983 115.4715 115.6748 115.7914
   116.2029 116.9058 117.4905 117.6495 118.4144 118.6031 119.5929 119.8526
   120.4342 120.9999 121.4943 121.5303 122.0762 122.1100 123.0915 123.2385
   123.7628 124.5435 125.0444 125.2043 125.7195 126.1299 126.1603 127.0170
   127.1005 127.4050 127.4849 128.5112 128.5213 128.8767 129.7337 130.4620
   131.1829 131.3982 131.6111 132.0272 132.3336 133.0589 133.2966 133.6679
   134.0716 134.3844 134.6711 134.9023 135.6954 135.8014 136.1856 136.5854
   137.4717 137.6429 137.9571 138.4244 139.1919 139.4921 140.2742 140.9652
   141.0767 141.6135 142.1649 143.0122 143.0408 143.8675 144.2615 144.4999
   144.8722 145.4244 146.1506 146.2329 146.7241 147.0805 147.2432 147.8307
   147.9410 148.5060 149.4719 149.6151 149.9658 150.0940 151.0938 151.3747
   151.6681 152.2244 152.2668 152.5578 153.0913 153.1945 153.5997 154.1137
   154.3112 154.7590 155.2767 155.3266 155.8667 155.9632 156.8470 157.2534
   157.8734 158.1926 158.4136 159.0879 159.3206 159.9099 160.0009 160.2596
   160.4945 161.0672 161.4930 161.8702 161.9581 162.4651 162.6730 163.0619
   163.4432 164.0181 164.2969 164.6287 164.6545 165.2395 165.3414 166.2695
   166.6259 167.0762 167.2318 167.4775 167.7977 168.3039 168.8540 168.9718
   169.3428 169.7149 170.0121 170.5476 170.9751 171.2396 171.3629 171.7792
   171.9596 172.3775 172.7947 173.4891 173.8576 174.1489 174.3459 174.6058
   174.6366 174.7876 175.4469 175.5922 176.2525 176.8856 177.1594 177.3955
   177.6125 178.1256 178.5571 178.5737 179.3596 179.4280 179.7851 180.0017
   180.0652 180.6146 180.6463 181.5755 182.6343 182.9395 183.4420 183.5814
   183.7907 184.2780 184.7159 184.8737 185.2763 185.7823 186.0269 186.4584
   186.6836 187.2788 187.2972 187.6734 188.0142 188.3743 188.4141 188.5035
   189.2095 189.5108 190.0921 190.1178 190.9592 190.9607 191.6658 191.6769
   192.0937 192.4962 192.7521 193.1082 193.5552 193.8264 194.1426 194.7654
   194.9943 195.1520 195.5865 195.5874 195.9308 196.3867 196.4155 196.5556
   196.7880 197.6419 197.7241 198.3006 198.5781 199.5553 199.9608 200.1302
   200.2612 200.5497 201.0766 201.6623 201.9678 203.0250 203.6454 203.6745
   204.1092 204.2185 204.5832 204.5862 204.8495 205.1583 205.4823 205.5894
   205.8329 206.4089 206.5917 206.9167 207.1306 207.5271 207.6947 208.0084
   208.5192 208.8394 209.0305 209.2861 209.4842 209.9621 210.0080 210.2790
   210.3547 211.0953 212.4625 213.1414 213.6980 214.1089 214.5912 215.1661
   215.4160 215.9448 216.2333 216.2463 216.6480 216.9911 217.1687 217.9131
   218.1753 218.3944 218.8991 219.0406 219.3065 219.4164 219.5312 220.1662
   220.2957 221.0211 221.5146 221.5443 222.5951 222.8564 223.0223 223.4001
   223.8777 224.2312 224.3119 224.6207 225.2907 225.5411 225.5978 226.1808
   226.5687 226.7173 227.0049 227.1676 227.2466 227.6965 228.3702 228.4449
   228.7918 228.9911 229.3306 229.5577 230.0485 230.4300 230.7705 231.2673
   231.2696 231.7651 231.8894 232.2298 232.4551 232.5373 233.0798 233.1420
   233.3404 233.3997 233.6992 233.8381 233.8439 234.4263 234.6718 235.1309
   235.1480 235.7102 236.0423 236.5082 237.3204 237.9198 237.9686 238.1456
   238.9125 239.1137 239.6548 240.3188 240.6205 240.7047 241.3921 241.6664
   242.2259 242.2668 242.4834 242.7041 242.9356 243.2533 243.3583 243.5550
   244.1698 244.2909 244.6412 244.9524 245.0318 245.1418 245.5140 245.7205
   245.7785 245.9897 246.3757 246.3938 247.4952 247.5222 248.1148 248.5337
   248.5431 248.9480 249.6535 249.7311 249.8695 250.2261 250.2448 250.4936
   251.1210 251.4557 251.8348 252.1360 252.1968 252.6500 253.0294 253.2548
   253.6265 254.5929 254.6414 255.2213 255.4593 255.8445 255.9203 256.1393
   256.6806 256.7806 257.2353 257.2886 257.5532 257.6279 257.7876 257.9732
   258.2077 258.2491 258.7824 259.6093 259.9617 260.1333 260.6043 260.6362
   261.0816 261.3684 261.7863 262.1139 262.5050 262.5670 262.8982 263.1589
   263.8683 264.0295 264.0406 264.4478 264.4708 264.6398 264.8915 265.5339
   265.5885 265.7280 265.7589 265.9662 266.5425 266.5622 266.6133 267.2445
   267.2619 267.4994 268.0961 268.3943 268.7533 268.9937 269.2259 269.2650
   269.6373 271.3654 271.8181 271.8989 272.6320 272.8341 272.9389 273.0028
   273.2536 273.6831 273.7145 274.1328 274.3182 274.4563 274.5846 274.6809
   275.0293 275.0353 275.4390 275.7949 275.9923 276.4712 276.5728 276.7330
   276.8696 277.0216 277.0228 277.4791 277.9028 278.4617 278.6180 278.8299
   279.1403 279.5509 279.7701 280.3707 280.5231 280.7435 281.2614 281.3836
   282.0271 282.4077 282.5439 282.5476 282.7624 282.8522 283.2725 283.7935
   284.0107 284.3933 284.7088 284.8375 284.9889 285.0819 285.6655 285.9335
   285.9340 286.5754 286.6543 287.3911 287.4484 288.2248 288.7086 289.0967
   289.1930 289.7944 290.0038 290.4267 290.6586 291.3135 291.4010 292.0148
   292.4146 292.8982 293.1529 293.4936 293.5375 293.9837 294.2827 294.3740
   294.4129 294.6105 294.8391 294.8622 295.5673 295.6459 296.1059 296.6475
   296.8922 297.5532 297.7622 297.9086 298.0134 298.1397 298.3303 298.4697
   298.5827 298.8828 298.9063 299.1767 299.5394 300.0744 300.8506 300.9708
   301.6462 301.8671 302.0392 302.3198 303.0894 303.1022 303.2518 303.3083
   303.5653 303.8833 304.4131 304.5426 304.5734 305.1230 305.6784 305.8128
   306.0146 306.0304 306.3188 306.3947 307.5505 308.5641 308.6548 308.9214
   309.1128 309.8293 310.0601 310.2560 310.8417 310.8738 311.2079 311.2694
   311.4489 311.6158 311.6837 312.0112 312.0807 312.1054 312.6275 312.8723
   312.9653 313.2699 313.5812 313.5980 314.1029 314.1440 314.2304 314.5456
   314.6152 314.9759 315.7187 315.9111 316.2874 316.7083 317.0721 317.1176
   318.0999 318.1039 318.7308 319.0834 319.3771 319.5963 319.8707 320.2277
   320.4437 321.1604 321.2957 321.5728 321.7692 321.8243 321.8901 322.3112
   322.6079 322.6348 322.9829 323.1593 323.3519 323.4391 324.0432 324.2256
   324.3145 324.3774 324.6599 324.7246 325.0098 325.3391 325.3662 325.8991
   325.9316 326.2246 326.2665 326.8449 326.9374 327.5799 327.9174 328.1164
   328.4891 328.6243 328.9138 329.5619 329.9052 329.9489 330.4074 330.5383
   330.7505 330.8067 331.4812 331.8223 331.8871 331.9071 332.3067 332.5452
   333.0392 333.4430 334.0502 334.8331 335.1455 335.2542 335.4916 335.9750
   336.1469 336.4005 336.5805 336.6063 337.2199 337.2926 337.4901 337.6186
   337.8863 338.0600 338.1440 338.4283 338.8474 338.9095 339.2620 339.3291
   340.3420 340.6378 340.6745 340.8680 340.9631 341.1207 341.1372 341.4384
   341.8336 342.0461 342.0986 342.2924 342.5777 343.3225 343.4685 343.9912
   344.0696 344.3910 344.4203 344.9441 345.3225 345.6682 346.0438 346.2476
   346.4404 346.4824 346.8710 347.3992 347.4292 347.4805 347.7380 347.7944
   347.9363 349.0529 349.3194 349.6983 349.7931 349.8758 350.1581 350.3330
   350.4807 350.5500 350.7330 351.0495 351.4179 351.6420 351.7161 352.2298
   352.4883 352.5444 352.5763 352.7388 353.1442 353.9339 354.0857 354.1813
   354.1985 354.7354 354.8008 355.1672 355.3621 355.4727 355.5489 356.0677
   356.2623 356.4934 357.1344 357.8312 358.1972 358.4957 358.5131 358.6415
   358.6604 358.9056 358.9911 359.0072 359.0729 359.2222 359.4210 359.7438
   359.7983 359.9369 360.5116 361.3637 361.4441 361.4912 361.6885 361.7688
   362.0870 362.4316 362.4548 362.7779 363.4031 363.6002 363.7062 363.9508
   364.2256 364.2353 364.3752 364.7027 364.8229 364.8295 365.0316 365.4588
   366.6125 366.6432 366.9199 367.5704 367.6273 367.7126 367.9550 368.8890
   369.1868 369.2346 369.7325 369.9262 370.2810 370.6493 370.6788 371.1865
   371.2369 371.3093 371.5266 371.5824 371.6291 372.1119 372.2843 372.6430
   372.7099 372.7944 372.8096 373.3940 373.4377 373.6348 373.9456 374.0302
   374.1968 374.5355 374.7290 374.9014 375.0511 375.4136 375.5357 375.6146
   375.7449 375.8904 376.0329 376.0882 376.2223 376.5378 376.8388 377.0164
   377.0299 377.2468 377.4092 377.4703 378.6864 380.1078 380.4872 380.8372
   381.1333 381.3503 381.7262 381.8099 382.1305 382.2077 382.5659 382.8637
   383.1926 383.5592 383.5727 383.8741 384.1528 384.4607 384.6341 384.8662
   385.0901 385.1677 385.1769 385.2418 385.3140 385.7181 385.7995 386.0066
   386.3696 386.5416 386.7561 387.7429 388.2896 388.3733 388.5618 388.6639
   388.7533 388.8473 388.8605 389.1574 389.4518 390.2000 390.6563 390.7268
   390.8159 391.0677 391.1011 392.0093 392.0300 392.1241 392.3290 392.6069
   392.9400 392.9407 393.2174 394.0312 394.0607 394.1226 394.2218 394.4711
   394.5127 395.2959 395.3566 395.4813 395.5969 396.3179 396.4127 397.1418
   397.3482 397.7554 398.0534 398.2336 398.4184 398.9034 399.4340 399.5578
   399.5679 399.7215 399.7569 399.8643 400.5739 401.4816 401.5520 401.9685
   402.0007 402.0791 402.5115 402.6983 403.1931 403.2837 403.2936 403.7596
   403.8193 404.3326 404.3406 405.0567 405.1548 405.3015 405.4058 405.5049
   405.7302 405.7782 405.9332 406.3025 406.6241 406.6946 406.8325 407.1422
   407.5071 407.6403 407.7412 408.0360 408.4492 408.5793 409.3359 409.5850
   409.7665 409.9294 410.2159 410.2948 410.7236 410.9631 411.0230 411.2764
   411.3960 411.7520 411.9950 412.4470 412.8153 412.9391 412.9969 413.1784
   413.2069 413.3944 413.6345 413.9249 413.9300 414.2771 414.3239 414.5604
   414.5727 414.6560 414.9536 415.4278 415.6287 416.6227 417.2387 417.4552
   417.6216 417.7762 417.9224 418.0685 418.8577 418.9908 419.5028 420.8565
   420.8767 420.9618 421.0259 421.2783 421.2943 421.5432 421.5944 421.7739
   421.8473 421.8575 422.0308 422.4275 422.6096 422.7932 422.8555 423.0580
   423.0879 423.2028 423.5289 423.6785 423.8149 424.7459 424.8339 425.2942
   425.4002 425.4183 425.5380 425.5600 426.3529 426.3651 427.3629 427.5478

          k = 0.5000 0.0000 0.5000 (  2493 PWs)   bands (ev):

   -70.6187 -40.8480 -37.4043 -37.4040 -37.4038  -4.9876   1.4554   2.6843
     4.0098   8.0587   9.6405  10.4186  10.7844  10.7939  13.9342  15.3684
    16.0355  16.9956  18.8415  20.1471  20.6964  21.2779  22.1616  22.4940
    23.6817  25.5765  26.4979  26.8342  27.1521  28.5759  29.3680  29.6997
    31.3650  32.3198  33.1711  33.6341  34.5342  35.6373  35.7910  36.5226
    36.7395  37.1407  39.3775  40.5556  40.9633  41.9389  42.0622  43.7699
    44.1914  44.5903  45.0458  45.8635  45.8691  47.2880  48.1359  48.4742
    48.4856  49.0482  50.0452  50.1321  51.0347  52.6536  53.0974  53.4924
    55.0126  55.6253  56.4415  56.7962  57.0301  57.2611  57.4589  57.9498
    59.6064  60.5100  60.9036  61.1882  61.5948  61.9464  62.3488  62.3736
    64.3656  64.7718  64.9962  65.5399  67.0180  67.2612  68.2635  68.4083
    69.1620  69.5913  69.9261  70.1760  70.7635  72.6472  73.0994  73.4090
    73.7100  74.2297  74.6215  74.8965  76.3006  77.1802  77.2867  77.4808
    78.6403  78.8521  80.1205  80.5016  80.9438  80.9991  81.5074  82.0898
    83.0321  83.1653  83.5896  83.7361  84.4348  84.7512  85.1654  86.1163
    86.1280  86.6466  87.4733  87.7205  88.1906  88.7196  89.1706  89.6234
    90.4658  90.7338  90.8419  91.5848  92.2849  92.3801  93.0136  93.0333
    93.5241  93.7610  94.0862  94.8702  96.5177  97.1562  98.0462  98.8393
    98.9035  99.5550  99.9432 100.9107 100.9223 101.4515 101.6359 102.1245
   102.7874 102.8717 103.2368 103.8289 104.0749 104.8016 104.8793 105.3354
   105.5677 105.8005 106.3910 106.9332 107.3090 107.9768 108.5178 109.6031
   110.1598 110.3964 111.1210 111.6992 112.3638 113.0732 113.4401 113.4849
   114.0655 114.6706 114.9863 115.1195 115.5929 115.8132 116.2149 116.3840
   116.7109 117.7520 118.1623 118.5200 118.9116 119.0277 119.4328 120.1524
   120.3279 120.3428 120.9778 122.0616 122.2087 123.0413 123.0903 123.7354
   124.5349 124.9896 125.1614 125.5213 126.1300 126.7974 126.8368 127.3033
   127.3050 127.5922 127.9073 128.4585 128.8420 128.9195 129.6827 130.3335
   130.9039 131.5400 131.5989 131.9400 132.1272 132.4562 133.2818 134.0843
   134.7887 134.8152 135.1210 135.4717 136.8193 136.8217 137.3280 137.6421
   137.6498 138.6281 138.9387 139.1145 139.6308 139.7746 140.3645 140.6814
   140.8958 140.9872 141.3090 141.3651 142.2925 142.5543 142.8140 142.9690
   143.4398 143.5804 143.7032 145.6159 145.7444 146.7488 147.1124 147.7942
   147.8049 148.0055 148.6816 149.0578 149.1240 150.2006 150.3345 150.8341
   150.9979 151.1094 151.4639 152.2527 152.3034 152.5571 152.8186 153.2143
   153.3959 153.5484 154.3791 154.8309 155.0703 155.7921 155.8281 156.2150
   156.8441 156.8645 157.8059 158.0528 158.8424 159.7952 160.2509 160.4765
   161.0176 161.0234 162.0342 162.5579 162.7366 163.3741 163.4008 163.5194
   163.9990 164.4234 164.4605 164.8610 165.0405 165.5052 165.5691 165.6036
   165.9013 166.1471 166.7100 167.4471 167.5529 168.1504 168.5681 168.7611
   169.2177 169.8655 170.1405 170.7646 170.9840 171.2076 171.7034 171.8465
   172.0984 172.5864 172.9529 173.5018 173.5849 173.9216 174.0061 174.1324
   174.4223 174.6849 174.7990 175.5415 176.0489 176.9687 176.9748 177.7596
   177.7936 178.3167 178.6114 179.2732 179.5193 180.0315 180.6285 181.4541
   181.5372 182.2120 182.5370 182.7363 183.3869 183.8038 183.9337 184.4687
   184.6067 185.2803 185.5593 185.6274 185.8666 185.8938 186.3384 186.8402
   187.0348 187.1714 187.3694 187.5261 187.6429 187.7159 188.0857 188.1464
   188.5540 188.6113 188.6577 189.0735 189.7438 190.3803 190.4243 190.9652
   191.0529 191.3839 193.1377 193.4626 193.6207 194.1031 195.1826 195.6671
   195.7106 196.1197 196.5638 196.7313 197.2626 197.3757 197.4268 197.7385
   198.2468 198.4993 198.5750 198.8636 199.3265 199.4290 199.5670 199.8384
   199.8548 199.9923 201.0865 201.0984 201.1923 202.3940 202.4944 203.2918
   203.7551 204.1142 204.2526 204.8401 205.0102 205.9784 206.6517 207.0261
   207.1537 207.3523 207.3784 208.5125 208.6667 208.8195 209.0405 209.2219
   209.5253 209.5600 209.9746 210.9626 210.9720 211.1463 211.1829 211.6819
   212.5672 213.4943 214.3677 214.4800 214.8587 214.9893 215.1593 215.4649
   215.5582 215.7015 216.3757 216.4179 216.4179 216.9776 217.4384 217.6344
   217.8331 218.1295 218.3421 218.5732 218.8312 218.9065 219.6284 220.2810
   220.4843 220.8337 221.3289 221.4803 221.5413 221.6098 221.8039 221.8570
   222.0944 222.7526 222.7854 222.9476 223.5219 223.6465 223.9880 224.7951
   224.8657 225.0358 225.2405 226.4686 226.9875 227.0193 227.3134 227.9445
   228.2376 228.5229 228.6701 228.7170 229.1280 229.4273 229.5452 230.0620
   230.2426 230.2532 230.9184 231.0607 231.6667 232.0363 232.1817 233.1546
   233.2519 233.4194 233.4278 233.5056 233.7717 234.2068 234.2175 234.8480
   236.1545 236.6383 236.9143 237.1072 237.7051 237.9095 238.0947 238.1637
   238.4652 238.8125 239.0990 239.1208 239.1485 240.4875 240.8532 241.0441
   241.6170 241.9751 242.0749 242.1395 242.1662 242.2421 242.4132 242.5420
   243.1034 243.2767 243.3834 243.4793 244.3243 244.3624 244.8162 244.8448
   244.9175 246.2434 246.8303 247.0440 247.2143 247.2159 247.6164 247.6590
   247.9913 248.6186 248.9082 248.9504 249.1956 250.0083 250.3167 250.4788
   250.8858 251.2699 251.2744 251.8921 252.0787 252.3043 252.8144 253.1239
   253.5522 253.7912 253.9545 253.9885 254.2228 254.7058 254.9404 256.0325
   256.2604 256.6865 256.8008 257.1878 257.2242 257.6180 257.8695 258.5593
   258.6440 258.8339 258.8861 259.2281 259.3734 259.7163 260.2467 260.5922
   260.6848 260.7963 260.8268 260.9159 262.5970 263.7766 264.0473 264.0873
   264.1314 264.2680 264.4788 264.6698 264.8630 265.2177 265.3724 265.5331
   265.6962 265.7103 267.0821 267.5487 267.5674 267.8577 267.9319 269.0177
   269.2660 269.7661 270.0511 270.1301 270.1325 270.2410 270.4490 270.5130
   270.5850 270.6190 271.0058 271.0424 271.1074 271.2244 271.3526 271.9728
   272.6651 273.8777 274.1188 275.2883 275.5362 275.7905 275.8078 276.0025
   276.1380 276.3411 276.3460 276.5181 276.6007 277.4298 277.4901 277.8116
   278.3826 278.5495 279.1828 279.4280 279.9361 280.1439 280.3314 280.3637
   280.4816 281.0349 281.0672 281.5078 281.5277 281.8229 282.0673 282.2596
   282.3145 282.4211 282.6430 282.7687 282.8542 283.0351 283.1307 283.2923
   284.3184 284.5248 284.6615 284.8246 284.9010 284.9725 286.1835 286.2583
   288.0278 288.0999 288.3187 288.9705 289.6220 289.6820 289.9954 290.2470
   290.3607 290.3855 290.8127 291.2270 292.2391 292.8234 292.8265 292.9697
   292.9743 293.2875 293.5874 293.8431 294.5145 294.8643 295.1676 295.1726
   295.7186 296.0360 296.2625 296.3109 296.6592 296.6706 296.8019 297.1086
   297.4390 297.7279 297.7646 298.0059 298.1234 298.3273 298.3558 298.5784
   299.1630 299.4578 299.7268 299.7970 300.1881 300.4216 300.8261 300.9492
   301.0202 301.4546 301.7400 301.9089 302.2999 302.4263 303.0634 303.7168
   303.9482 304.1802 304.2868 304.3621 304.5736 304.8398 305.2012 305.4079
   305.8948 306.0541 306.1337 306.2194 306.5700 306.8190 306.9140 307.3200
   307.4159 307.6031 307.9054 307.9349 307.9938 308.0465 308.1062 308.1395
   308.1903 308.3481 309.5032 310.8215 311.2572 311.4849 311.8792 311.9476
   312.9928 313.0523 313.5933 314.0000 314.4041 314.5061 314.5597 314.7379
   315.2825 315.2995 315.4268 315.5263 316.6561 316.9360 317.1726 317.4025
   317.4123 317.5127 317.5527 317.6148 317.8669 318.0830 318.2042 318.4399
   318.5477 319.0004 319.5203 319.7872 320.8928 320.9531 321.0913 321.1912
   321.4346 321.5505 322.3659 322.5232 322.8228 323.4654 323.5850 323.7166
   323.8604 323.9537 324.0140 324.3226 324.4795 325.5637 325.8934 326.3454
   326.6351 326.6877 326.7478 327.1017 327.1853 327.2083 327.7905 327.9684
   328.1480 328.9425 328.9535 329.0920 329.5513 329.8307 330.2050 330.3345
   330.3956 330.6379 330.9224 331.4277 331.5828 331.7162 331.9505 332.1331
   332.2284 332.3828 332.6350 332.6453 332.7848 332.9102 333.1731 333.5314
   333.5403 333.6641 333.6862 334.3260 336.5750 337.2698 337.3356 337.6748
   337.7214 337.7607 337.7730 337.8257 337.9234 339.5669 340.0333 340.1890
   340.4188 340.6295 340.7014 340.7818 340.7836 341.2055 341.3699 341.8796
   341.8835 342.3580 342.6489 343.0037 343.0320 343.4039 343.4181 343.4239
   343.5904 344.3882 344.6589 344.6715 344.8829 344.9252 345.1030 345.1274
   345.6135 345.8206 346.0033 346.1755 346.3212 346.6296 346.6813 347.3252
   347.4699 347.4978 349.0083 349.3304 349.4180 349.8870 350.3568 350.4448
   350.5941 350.7394 350.9339 351.1235 351.4218 352.1295 352.3875 352.5230
   352.7418 352.8084 353.1981 353.4560 353.5945 353.6193 353.7724 353.8173
   353.8617 353.9250 354.4456 354.9572 355.1932 355.5052 355.6267 355.6493
   355.9116 356.6778 357.1730 358.1115 358.2189 358.2959 358.3511 358.4203
   358.5504 359.1458 360.2315 360.4245 360.7260 361.4643 361.5063 362.0828
   362.1913 363.0940 363.4575 363.5287 363.6078 363.9011 363.9930 364.0052
   364.2265 364.3290 364.5219 364.5586 364.7170 364.7447 364.8033 364.8476
   364.9126 364.9243 364.9710 365.2680 365.3588 365.4763 365.9457 366.2679
   366.5230 366.5337 366.5397 367.6336 367.7956 367.8555 367.8586 368.5917
   368.8396 369.0431 369.1073 369.4046 369.4158 369.6235 369.7835 369.8153
   369.8724 369.9285 370.0202 372.2529 372.2564 372.7697 372.9240 373.0773
   373.1896 373.6631 373.8840 373.9400 374.0641 374.2457 374.4971 374.8118
   375.1695 375.2202 375.4747 375.5143 375.7972 375.8300 376.4541 376.4648
   376.6579 376.8022 377.2586 377.3189 377.3415 377.6771 377.8290 378.0163
   378.1898 378.3618 378.5088 378.8968 379.2545 379.2605 379.3593 379.6892
   380.0396 380.1739 380.1992 381.7078 381.7611 381.8830 381.9045 382.4693
   382.5753 382.6056 382.6667 383.7637 384.2656 385.7135 386.4015 386.4863
   386.4922 386.6905 386.7114 387.3881 387.5665 387.7436 387.8787 388.0027
   388.1392 388.2708 388.4001 388.5181 388.5861 388.6555 388.9878 389.0881
   389.1604 389.3734 389.9503 390.1302 390.1621 390.5393 390.5552 390.7641
   390.9052 391.1153 391.4703 392.1888 392.2718 392.3351 392.3589 392.7621
   392.8086 392.8819 393.1591 393.2407 393.3125 394.0141 394.0725 394.6599
   394.8923 394.8945 394.9941 395.4673 396.1850 396.2012 396.6154 396.6406
   396.7010 397.2123 397.2886 397.3180 397.4559 397.5441 397.8040 399.7366
   399.7563 400.3713 400.4587 401.2954 401.4367 402.1459 402.2047 402.2792
   402.3369 402.3486 402.7871 403.2200 403.2719 403.3430 403.6068 403.7320
   403.7894 403.8706 403.8960 404.0695 404.1158 404.3306 404.4232 404.5936
   404.6932 404.7429 404.9152 405.1824 405.2464 405.3057 405.4527 405.6600
   405.9075 405.9716 406.0137 406.4534 406.7516 408.1069 408.1357 409.1247
   409.2371 409.7950 410.3300 410.5561 410.9839 411.1557 411.4809 412.0608
   412.1354 412.2923 412.4024 412.6194 412.7903 413.0766 413.0985 413.6561
   413.6615 414.4982 414.5627 415.4280 415.4634 415.6030 415.7130 415.8315
   415.8773 416.2250 416.5017 417.1168 417.6980 417.8254 417.8511 417.8792
   418.0437 418.1529 418.6727 418.7058 418.8761 418.9348 419.2438 419.5443
   419.5882 419.7539 420.2340 421.3195 421.5061 421.7890 421.8480 421.8641
   422.0817 422.1454 422.3935 422.4982 422.5533 422.7960 422.8251 423.2681
   423.2783 423.2817 423.4690 423.4843 423.5085 423.7322 423.8954 424.1776
   424.2260 424.3958 424.6995 425.2389 425.4009 425.4264 425.5414 425.5866

          k = 0.0000-1.0000 0.0000 (  2498 PWs)   bands (ev):

   -70.6187 -40.8481 -37.4045 -37.4040 -37.4040  -4.7114   1.1865   2.9626
     2.9626   6.0340   7.8713  13.7165  13.7165  14.8046  15.4064  15.4064
    16.2222  16.5805  16.8084  19.1633  19.7808  19.7808  21.3295  21.6972
    21.6972  23.1447  24.7387  29.1061  29.1424  29.1424  29.4949  30.8629
    30.8629  31.1156  31.9061  34.0456  34.4386  35.9923  36.2773  36.2773
    36.8549  36.8549  37.0962  38.1804  41.2995  43.6040  43.6040  45.3794
    45.6057  45.6115  45.6115  47.1437  47.8886  48.1021  48.1021  50.2075
    50.9515  51.0244  51.0244  51.8267  51.8907  52.1587  52.1587  52.4883
    52.4883  52.9027  52.9117  53.4663  58.6984  59.2525  59.2525  60.3417
    60.6391  60.7798  61.3956  62.4465  62.4465  62.7795  62.7795  63.1776
    63.5868  64.3362  64.3362  64.4828  64.7334  66.2203  66.2203  66.2224
    66.3134  67.9422  67.9422  68.3437  69.0322  69.0986  69.0986  71.7749
    72.7952  74.4935  75.8975  75.8975  76.3686  77.4854  77.4854  78.4225
    78.4225  78.9922  79.2837  79.4696  79.4821  79.4821  79.9560  80.4306
    81.4587  81.4587  81.5860  81.8538  83.8372  85.2237  85.2237  86.2800
    89.0090  89.1358  89.7770  89.7770  91.3921  92.3246  92.3246  92.7327
    93.0397  94.1335  94.1335  94.2867  94.4866  95.1389  95.7689  95.7689
    96.6829  97.6397  98.0135  98.0135  98.0410  98.1941  98.5216  98.5653
    98.6769  98.6769  99.0603  99.5956  99.7142  99.7142 100.0275 100.3428
   100.4426 100.4426 102.7401 106.1066 106.4121 106.4121 106.4516 107.3115
   107.6773 107.6773 107.8111 108.9616 108.9616 109.3583 109.5500 109.5500
   109.5956 109.7130 109.9477 110.7285 110.8932 110.8932 111.4212 111.4212
   112.7461 112.8571 112.9975 113.2362 113.8819 113.8819 114.2293 114.6294
   114.7525 114.7525 115.2314 115.2604 115.2604 115.5455 115.9326 117.1784
   117.1784 119.6144 120.3335 120.8831 121.3485 121.6509 121.6509 122.7327
   123.2194 123.4358 123.4358 123.4565 124.1531 124.1531 125.6686 126.2000
   126.2000 126.3200 126.7429 128.1779 128.1780 129.3423 130.2412 130.2412
   130.2871 130.6351 130.7992 130.8682 131.2565 131.2565 132.1349 132.1349
   132.9435 134.5464 136.1864 136.7486 138.3912 139.5441 139.9243 139.9243
   140.2510 140.8157 141.3063 141.3063 141.7731 141.8662 141.8662 142.0328
   142.4972 143.5982 144.8543 145.1065 145.1403 145.1403 145.3934 145.4125
   145.4125 145.4545 146.1024 146.3688 146.3688 146.8116 146.8116 147.1335
   147.1335 147.8956 150.6559 150.6814 150.8775 150.8775 151.6171 152.5572
   152.6314 152.6314 154.0875 154.1147 154.1147 154.8335 155.1562 155.9539
   155.9782 155.9782 156.3580 156.5297 156.5297 157.1120 157.1286 157.3787
   157.3787 157.4347 157.4715 157.5760 157.5760 157.7117 157.8308 158.1599
   158.2759 158.2759 158.4534 158.5291 159.8234 159.8234 160.6996 161.1541
   161.5343 161.5343 161.8451 162.0166 162.0166 162.0540 164.6294 166.3092
   166.3092 167.1490 167.2830 167.2830 168.7381 168.7800 169.2992 170.0843
   170.0843 170.4121 171.5599 171.7050 173.0527 173.0527 173.0559 173.2471
   173.2471 173.4658 173.6665 173.8423 174.1186 174.1186 174.3164 174.3164
   174.3807 174.3807 174.7772 174.8016 174.8107 175.4626 176.7474 176.7474
   179.0658 179.0874 179.0874 179.1017 179.1979 179.3147 179.3147 179.7292
   179.7363 181.1310 181.9060 183.2902 183.3393 183.5532 183.5532 184.0689
   184.3509 184.6520 185.0210 185.0210 185.0639 185.9321 185.9321 186.5107
   186.5107 186.7368 187.0032 187.5353 187.7956 188.3045 188.5186 188.5186
   189.2860 189.6379 189.6481 189.6481 190.1503 190.2985 190.2985 191.1152
   191.6948 191.8599 192.0653 192.0653 193.8335 194.9195 194.9545 194.9545
   195.0672 195.0672 195.0757 195.0914 195.1123 195.8053 196.6606 196.6606
   197.4302 197.4880 200.8706 200.9750 200.9750 201.6171 202.6677 202.6677
   202.9306 203.3430 203.4800 203.4800 203.5743 203.5743 204.0924 204.3586
   205.0484 205.0484 205.6273 205.9805 206.1022 206.1022 206.1858 206.2506
   206.6741 206.9316 206.9316 207.0109 207.0689 207.0722 207.0722 207.5588
   207.5588 207.6092 207.7095 207.7975 207.8257 207.8580 207.9700 207.9700
   208.2575 208.2575 208.5472 208.7212 208.7814 208.8384 208.8890 208.8890
   209.6784 210.0774 210.0774 210.1870 211.4161 213.6885 214.3157 214.3157
   215.8342 215.8342 216.2199 216.7176 218.1737 218.3855 219.7531 219.7531
   219.7974 219.7974 221.7680 221.8327 222.5852 222.5852 223.6138 223.7685
   224.2056 224.3033 224.3033 224.3916 225.8237 226.0451 226.0451 228.2259
   228.2494 228.3432 228.7369 228.7369 229.0220 229.0220 229.3346 229.7230
   230.4419 230.4419 230.4750 230.6363 230.9588 232.1655 232.1655 232.3604
   232.7997 233.1996 233.5450 233.5450 234.6854 234.7866 235.3466 235.3466
   236.3879 236.3879 237.0405 237.3800 237.6112 237.8001 237.8225 237.8225
   239.0515 239.6404 239.8481 239.8481 240.0573 240.0573 240.0926 240.3281
   240.6476 240.6702 240.7307 240.7430 240.7430 240.9207 240.9207 241.1778
   241.8630 241.9007 241.9007 242.0033 244.3291 244.6372 244.9214 244.9214
   246.8224 247.2731 247.2731 247.4691 247.5000 248.1601 248.5518 248.5518
   248.7701 249.4826 249.5571 249.5571 249.8033 249.9888 250.0848 250.0848
   250.2880 250.3543 250.7870 250.9289 250.9289 250.9627 251.3489 251.5901
   251.6080 251.8163 251.9266 251.9266 252.1856 252.1856 252.7887 252.7887
   252.7985 253.1258 253.1566 253.3143 253.3143 253.6288 253.7745 253.9588
   255.6188 255.7956 255.9087 255.9087 255.9846 255.9846 256.1686 256.3950
   256.5749 256.5749 256.7100 256.9974 256.9974 257.1612 257.2195 257.5639
   257.6622 257.6622 257.8025 257.8025 261.1119 261.5457 262.3922 262.3922
   262.4687 262.4687 263.1788 263.1788 263.3794 263.6072 264.2262 264.8349
   265.7446 265.7446 265.9078 265.9733 266.8887 267.3274 267.3274 267.4925
   267.5982 267.5982 267.8567 267.8687 268.0624 268.0867 268.3491 268.3491
   268.4987 268.4987 268.5797 268.6598 269.0302 269.6282 269.6351 269.6752
   269.6752 269.8103 269.8103 270.1447 273.9564 273.9564 274.0167 274.0426
   274.0883 274.0883 274.1943 274.2077 274.4320 274.4320 274.9353 275.1053
   276.7135 276.7135 278.4285 278.9827 280.2356 280.6588 282.1029 282.1029
   282.3381 282.6187 282.6798 282.6798 282.7707 282.8793 283.1863 283.5386
   283.5409 283.5409 284.3104 284.3104 284.3947 284.3947 284.4510 284.4510
   284.4543 284.5450 284.6299 285.1689 285.2186 285.6996 285.8183 285.8183
   285.9871 285.9871 286.2139 286.2300 287.8238 288.3844 288.3844 288.6600
   288.7182 288.7920 288.7920 288.8404 289.4469 289.4469 289.4726 289.4726
   289.8350 289.8375 289.8825 289.8832 290.6904 290.9703 290.9703 291.4516
   292.3970 292.3970 292.7105 293.4822 296.0849 296.5539 296.5539 296.8502
   297.1753 297.1823 297.1823 297.5123 297.7848 297.7848 297.8416 298.4793
   299.5310 299.6470 299.6470 299.6934 299.9397 300.0353 300.0353 300.1201
   301.4044 301.4090 301.4213 301.4213 301.6233 301.6256 301.6256 301.6267
   301.7041 301.7158 301.7158 301.7623 303.7815 303.7828 303.7828 303.9159
   305.7869 305.7963 305.7963 305.8070 307.3476 309.3684 310.6488 310.6488
   311.3162 311.7515 311.7515 312.0050 312.0050 312.0081 312.1383 312.6378
   313.0406 313.1868 313.5854 313.5854 313.9596 314.6611 314.7118 314.8963
   314.8963 314.9633 315.1691 315.1691 315.2964 315.3730 315.4500 315.6316
   315.6316 315.6328 315.9754 315.9754 316.0203 316.2215 316.4515 316.5356
   316.5356 316.5798 317.3424 318.5576 318.5593 318.5593 318.6243 318.6243
   318.6656 318.6841 318.7418 318.7418 319.2815 319.4081 321.3098 321.9561
   323.5391 323.5391 323.5511 323.6014 323.8057 323.8057 324.4719 324.8958
   326.7969 326.7969 326.9992 328.3380 328.5044 328.5044 329.0867 329.6481
   331.0755 331.0755 331.0780 331.4541 331.4541 331.6483 332.1130 332.1130
   332.2111 332.2803 332.2803 332.4804 332.6114 332.6409 332.7052 332.7052
   333.0411 333.1901 333.1901 333.2019 334.3903 334.6021 334.6021 334.6300
   334.6698 334.7800 334.8258 335.2527 335.2527 335.3504 335.7642 335.8598
   335.9080 335.9080 335.9233 336.0546 336.0546 336.1451 340.9072 340.9564
   340.9564 341.3419 342.1828 342.1955 342.2820 342.3898 342.3898 342.4397
   342.6648 342.8483 342.8483 342.9974 343.0851 343.0851 343.3996 343.5295
   343.6825 343.6919 344.2799 344.2799 344.4324 344.4324 344.7818 344.9464
   345.5960 345.5960 345.6715 345.6715 345.9542 346.1374 346.4085 346.4085
   346.5237 346.5237 346.6557 346.6981 346.9247 347.5453 347.5453 347.5726
   347.7999 347.7999 347.9141 347.9794 348.3264 348.3383 348.3743 348.5158
   348.5158 348.5207 348.9627 348.9627 349.0457 349.6068 349.7081 350.3728
   350.7766 350.7766 350.8655 350.8655 351.0304 351.0304 351.1116 351.1467
   351.1716 351.2040 351.2219 351.2511 351.2511 351.2700 352.6136 352.6199
   352.6296 352.6761 352.6761 352.6873 352.6873 352.7106 353.5084 353.5084
   353.5162 353.5165 353.5797 353.5977 353.5977 353.6249 359.6163 359.6163
   359.8965 359.9213 360.0872 360.1825 360.1825 360.2725 361.9612 362.0192
   362.1085 362.1085 362.1255 362.1255 362.1888 362.2331 362.3462 362.3699
   362.3699 363.4218 363.5521 364.2618 364.2618 364.3899 365.1266 365.1565
   365.5529 365.5529 365.8274 366.0958 366.0958 366.4692 366.6179 366.6179
   366.8525 367.1135 367.3136 367.3519 367.3519 367.3643 367.7289 367.8308
   367.8308 367.9050 368.1244 368.1961 368.1961 368.2968 373.5183 373.7416
   373.7688 373.7688 374.5257 375.0142 375.0142 375.3204 375.8343 376.2582
   376.6255 376.6255 376.7071 376.7870 376.7870 377.1430 377.3959 377.6414
   377.6414 377.7619 378.7269 378.7281 378.9293 378.9445 379.0736 379.0736
   379.0895 379.0895 381.3387 381.3387 381.8317 382.0706 382.1117 382.1542
   382.1824 382.1824 382.5933 382.6061 382.7340 382.7340 382.7360 382.7958
   382.7958 382.8106 384.2218 384.2233 384.3528 384.3528 384.3859 384.3859
   384.5038 384.5038 384.5965 384.5979 384.9416 385.8386 386.0524 386.7741
   388.5371 388.6909 388.6909 389.4357 389.4357 389.7919 389.7919 390.0304
   390.2328 390.9879 391.0795 391.4998 391.4998 391.8309 391.8844 392.1825
   392.3548 392.8052 392.8052 392.8611 392.8611 392.9608 393.0979 393.3491
   393.4129 393.4129 394.0412 394.1067 395.3115 395.3860 395.3860 395.4296
   395.6141 395.6267 395.9445 395.9782 396.2013 396.2013 396.2614 396.3127
   396.3127 396.3578 396.4142 396.4786 396.4786 396.5384 396.8145 396.8184
   397.3720 397.3720 397.3749 397.3749 397.9118 397.9122 398.3181 398.3181
   398.3413 398.3644 399.5225 399.5225 399.7760 399.9445 400.7191 400.7191
   400.7239 400.7239 404.5780 404.5780 405.0640 405.3811 405.6776 405.8599
   406.2845 406.3133 406.3697 406.3697 406.4834 406.4834 406.6434 406.6434
   406.7161 406.7360 408.9359 409.0490 409.0490 409.2270 409.2770 409.4162
   409.4162 409.5609 410.6862 410.7565 410.7565 410.8369 410.9471 410.9927
   410.9927 411.1335 411.6930 411.6930 412.1357 412.7943 413.2090 413.8138
   413.8751 413.8751 414.0474 414.0474 414.2110 414.2254 414.6040 414.7642
   414.7642 414.9033 415.1411 415.2026 415.2026 415.2969 415.3867 415.4100
   415.4231 415.4231 420.2621 421.0173 421.0173 421.1638 421.6350 421.7178
   422.0900 422.0900 422.1027 422.2860 423.3137 423.3137 423.5266 423.5266
   423.8698 425.1465 425.1576 425.3580 425.8791 425.8791 425.8912 425.9358
   426.0737 426.0737 426.1971 426.2240 426.3238 426.3990 426.3990 426.6166
   426.6815 426.7290 426.7290 426.7632 426.7632 427.0780 427.0783 427.0787

          k =-0.5000-1.0000 0.0000 (  2488 PWs)   bands (ev):

   -70.6187 -40.8479 -37.4044 -37.4041 -37.4040  -4.6959   1.4856   2.3617
     2.4539   8.4409   9.6722   9.7977  11.0153  14.3540  14.5353  15.4818
    16.7950  17.9105  18.4977  20.4050  20.5043  21.2554  21.8640  22.1061
    23.2386  23.8549  24.8045  25.7345  26.8203  27.0512  27.4435  28.6523
    29.2663  32.2064  33.0839  34.3306  35.1747  36.6541  36.8775  37.5322
    39.0322  39.2665  40.1453  40.2790  41.2264  41.8302  42.3656  43.3471
    44.1536  44.4420  45.8217  45.8537  47.4014  47.8606  47.9582  48.8114
    49.4218  49.6233  50.4632  51.1771  52.7351  53.9377  54.3933  54.4011
    54.5384  54.6015  54.7349  54.9762  55.1589  56.8350  57.7029  58.2650
    58.7694  60.5588  62.1271  62.6183  62.7852  62.8277  63.2400  63.6163
    63.9476  64.4428  64.5938  64.9933  65.3792  65.6792  66.9393  67.8244
    68.3604  68.8307  69.3900  69.4225  69.7192  70.8731  71.4012  71.7827
    71.8479  71.8606  72.7509  73.2847  73.3265  73.7452  74.3265  75.6525
    76.2006  77.2437  78.4662  79.6144  80.4072  80.5930  81.1551  82.2933
    82.6524  85.0772  85.1315  86.2640  87.3018  87.3970  87.5492  87.8241
    88.3658  89.8119  90.3313  90.4835  91.7673  91.8930  92.3450  92.8912
    93.1199  93.7258  93.7390  93.8555  94.0559  94.1409  94.7127  94.9325
    95.0415  95.3368  95.5330  95.7636  95.7762  96.2268  96.7973  97.0036
    98.2057  98.8845  99.4164  99.6746 100.1840 100.7770 101.3188 101.6223
   102.4334 102.9781 103.0407 103.4169 103.4447 103.6832 104.7575 105.6506
   106.3592 106.6590 108.1145 108.1285 108.3816 108.8862 109.2953 109.7934
   109.8564 109.9541 110.1699 110.9979 111.1299 111.9216 112.1936 112.6351
   112.6539 112.6848 112.8180 113.4378 114.3037 114.5290 115.4427 115.6160
   116.1389 116.6234 117.0410 117.2820 117.4063 117.5714 118.1545 118.8920
   118.9260 118.9873 119.0129 119.4569 120.0280 120.0692 120.4376 120.5872
   122.2929 122.8028 123.0773 124.0940 124.8384 125.4850 125.5540 125.9232
   126.1387 126.2097 126.9842 130.2471 130.4814 130.9312 131.3400 131.9686
   132.0858 132.3621 133.3818 133.5040 133.5631 134.0871 134.5578 134.6551
   134.9404 135.0359 135.5735 135.5754 136.1064 136.2663 136.8032 136.8613
   138.1314 138.3881 139.6133 139.8741 139.9837 140.3166 140.5812 140.6751
   140.8531 141.2561 141.3429 141.3872 141.5579 142.7285 142.9203 143.2914
   144.3077 144.4536 144.7796 144.8731 146.4897 146.6224 147.2926 148.6795
   148.8226 149.1149 149.4897 149.9350 150.0732 150.1408 150.3890 150.6321
   150.7921 151.1600 151.7289 151.8492 152.1827 152.3377 152.8261 153.8761
   155.3264 155.4093 155.6797 156.3217 156.8609 156.8665 157.2805 157.5348
   158.2761 159.6218 160.1474 160.3278 160.8423 161.0117 162.1070 162.1166
   162.7715 162.9200 163.6871 163.7123 163.9378 163.9776 164.5012 164.7492
   165.1327 165.2821 165.3859 165.4277 165.7857 166.0908 166.1838 166.3031
   166.4207 166.5857 166.6206 166.8795 167.0739 167.1579 167.6000 167.8803
   168.9756 169.2880 169.9492 170.6110 170.8130 171.6715 171.7656 171.8454
   173.0550 173.2902 173.5822 174.1495 174.1594 174.4977 174.5695 174.6008
   174.6454 175.0176 175.6847 176.6050 177.4510 177.4586 177.5302 177.7429
   178.1007 178.6216 179.0525 179.1960 179.2927 179.4250 179.8590 180.0832
   180.3191 180.7687 181.0710 181.1728 181.2903 181.4716 181.7669 181.9828
   181.9883 182.1621 182.2347 182.6857 183.2232 183.2993 183.4669 183.4849
   184.8042 185.0634 185.2099 186.6154 187.2475 187.3772 187.7979 188.3311
   188.8328 188.8767 188.8874 188.8911 189.3754 189.7877 189.7947 190.9385
   190.9886 191.1139 191.1919 191.8970 192.0867 192.1845 192.6342 193.2262
   193.8476 194.1823 194.5404 194.9634 195.4766 196.1491 196.2204 196.4517
   196.6182 197.3136 197.4199 197.4304 197.5899 197.6573 199.3253 200.6852
   200.9180 201.2075 201.2852 201.9171 203.3526 203.4029 203.8225 204.0606
   204.0870 205.6263 205.7316 205.8493 205.9043 205.9088 206.4234 206.6967
   206.9305 207.3273 207.8926 208.0957 208.9059 209.4526 209.6356 209.6455
   210.7453 210.7775 210.9055 211.2733 212.2131 212.6045 212.7987 213.1922
   213.2015 213.2109 213.2441 213.4477 213.5509 213.7212 213.9404 214.0470
   214.0480 214.6655 214.7733 215.1712 215.6337 215.9107 216.3348 216.5400
   216.7251 217.5818 218.0107 218.6913 218.7426 219.1675 219.3220 219.5373
   219.6443 219.7643 219.9793 219.9859 220.2852 220.3813 220.5484 220.7070
   223.4402 224.0721 224.4175 225.9964 226.1672 226.2623 226.5446 226.7103
   227.1304 227.1317 227.7239 227.8890 227.9934 228.0853 228.2566 228.4879
   228.8900 228.9073 228.9705 229.4807 229.5040 230.2068 230.2406 230.3955
   230.4762 231.0120 231.1128 231.2784 231.4524 231.6659 231.8432 232.7738
   233.5332 233.5967 234.0703 234.3935 234.4024 235.1359 235.3815 235.4792
   236.0143 236.1422 236.1776 236.2949 236.9868 236.9870 236.9972 237.1231
   237.2212 237.3294 237.4142 237.4817 239.4979 239.7314 241.0384 241.7870
   243.3476 243.7004 244.4125 244.4379 244.8098 244.8753 244.9409 246.0813
   246.9049 246.9566 247.2166 247.2617 247.5492 248.6743 249.0706 249.7042
   250.2190 250.2407 250.4285 250.5850 250.6069 250.6234 250.9181 251.4489
   251.4990 251.5829 251.6793 251.7738 252.0167 252.3160 252.5513 252.5957
   252.6131 252.9680 252.9888 253.0501 253.0542 253.4517 253.9142 254.0136
   254.0490 254.1001 254.4587 254.4806 254.7904 255.0444 255.3373 256.2603
   257.8082 257.8402 257.8566 258.0028 258.2074 258.2699 258.4750 258.4964
   258.6709 258.7263 259.0121 259.0400 259.0982 259.1791 259.2803 259.4317
   259.5324 259.9790 259.9957 260.3432 260.5766 260.6489 260.7288 260.7776
   261.9711 262.1035 262.2516 262.5531 262.7235 263.0983 263.1093 263.1540
   263.2107 263.2284 263.2951 263.3716 264.7583 266.0200 266.0529 266.0806
   267.3743 267.9488 268.0781 268.6001 268.7571 268.9176 269.0347 269.4170
   270.0968 270.1922 270.9670 271.0023 271.0370 271.0461 271.2612 271.5472
   271.6906 272.3912 273.3206 273.7960 273.8265 274.0501 274.1419 274.4607
   274.6466 274.7124 274.7882 274.8463 275.1577 275.2141 275.2555 275.3458
   275.7789 275.7975 275.8404 275.8699 276.8340 276.8380 276.8824 276.8995
   279.5541 280.6132 282.0286 282.0476 282.2023 282.4571 282.5519 282.7646
   283.0938 283.3744 283.3949 283.4401 283.5132 283.6350 283.7633 283.8295
   284.2076 284.2766 284.3355 284.3915 284.6612 284.6745 284.8307 284.8670
   285.2155 285.2862 285.3014 285.3334 285.4079 285.4470 285.5351 285.5792
   285.6606 285.7034 286.2470 286.2687 289.5715 289.6926 289.7505 290.8138
   290.8541 290.9013 291.2364 291.2564 292.2715 292.6893 292.7286 292.7423
   292.7718 292.9868 293.0305 293.1370 294.8719 295.6662 295.7881 296.4369
   296.8733 297.2761 297.3843 297.4167 297.5625 297.8215 297.8645 298.0191
   298.2432 298.6922 298.7073 298.9583 300.2608 300.2768 300.2919 300.3558
   300.4065 300.6032 300.7327 300.8771 300.9375 300.9395 300.9469 301.1197
   302.7925 303.4044 303.6589 305.0355 305.8501 306.5199 306.5869 307.0618
   307.3737 307.5293 307.6336 307.6726 308.0143 308.6842 309.9014 310.1158
   310.1856 310.5810 310.7311 310.9264 311.2342 311.3283 311.3367 311.5764
   312.4491 312.9726 313.1321 313.3692 313.8142 313.9911 314.1267 314.2274
   314.2720 314.3089 314.4230 314.7823 316.0481 316.2071 316.2201 316.2524
   316.6781 316.9169 316.9312 316.9713 318.5204 318.7224 318.7963 319.8779
   321.3509 321.4959 321.5814 321.7271 322.6355 322.9973 323.0351 323.1804
   323.3295 323.4358 323.4570 323.5221 323.6021 323.6164 323.6655 323.6746
   323.7497 323.8209 323.8644 324.0924 325.2117 325.6754 325.8936 326.5624
   326.9683 327.1005 327.1779 327.4182 327.9217 328.5521 329.0310 329.1138
   329.1350 329.7683 329.8377 329.9234 330.1251 330.2772 330.5032 330.6176
   330.6442 330.7637 331.0716 331.1445 331.3355 331.4022 331.6692 331.6728
   331.9950 332.0301 332.3735 332.6293 332.6733 332.7254 332.8326 332.8511
   333.0060 333.0263 333.0888 333.1444 333.2382 333.3057 333.3569 333.3936
   333.6470 333.8199 333.8206 334.0129 334.1723 334.2016 334.2361 334.3854
   336.2101 336.4544 336.8826 337.3752 337.5920 337.9462 337.9643 338.0003
   339.2664 339.2700 339.4211 339.4560 339.4637 339.7597 339.8951 339.9711
   340.0177 340.1126 340.2027 340.2273 340.5270 340.5836 340.5964 340.6719
   340.6902 340.6940 340.7173 340.8676 345.6662 346.4012 346.5929 346.8522
   347.2691 347.5097 347.6409 347.6807 347.7887 347.9534 347.9679 347.9946
   348.0426 348.1430 348.1500 348.3010 348.4388 348.6281 348.8056 349.2992
   349.3385 350.7880 351.1423 351.2026 351.5020 351.6588 351.7351 351.9529
   352.3687 352.5191 352.5862 352.7252 352.7875 352.8186 353.2058 353.2411
   353.3042 353.5401 353.6261 353.8507 354.0539 354.1661 354.6619 354.8233
   355.5066 355.6802 356.0671 356.1665 356.9995 357.1637 357.1650 357.2853
   357.5131 357.6126 357.7860 358.6187 358.7430 358.7626 358.8176 358.8901
   359.8256 360.0394 360.1868 360.5598 360.5731 360.7074 360.7673 361.0269
   362.0311 362.5208 362.7053 362.7790 363.9624 364.0085 364.0881 364.2513
   366.7761 367.8241 367.8958 367.8964 368.2534 368.5725 368.5774 368.6742
   369.3173 369.4126 369.4171 369.5956 369.6240 369.7587 370.0218 370.1043
   370.1882 370.2447 370.6069 370.6916 370.9489 370.9914 370.9975 371.0272
   371.0303 371.0369 371.1522 371.1629 371.2344 371.4798 371.7617 371.7784
   372.4348 372.6853 372.6878 372.7748 373.3967 374.0756 374.0756 374.1791
   375.5575 375.7774 375.8072 375.9087 375.9101 375.9309 376.0213 376.1960
   376.3282 376.4896 376.5646 377.1304 378.1270 378.1435 378.2241 378.8598
   378.9245 379.0962 379.1185 379.2603 379.2781 379.3572 379.4212 379.5399
   379.5584 379.6284 379.7514 379.8540 380.0169 380.2278 380.3226 380.3950
   380.3996 380.4041 380.5020 380.5065 381.3199 381.3306 381.3345 381.3930
   381.4960 381.7401 381.7597 381.8486 386.8313 386.9002 387.0398 387.4630
   387.5048 387.6060 387.6474 387.7322 387.7601 387.8062 387.8429 387.9391
   388.4502 388.8185 388.9506 390.5999 390.6242 390.6815 391.0288 391.0686
   391.2860 391.2939 391.4139 391.6677 392.3819 392.5051 392.5463 392.7055
   393.5490 393.6113 393.6693 393.6816 393.7329 393.7378 393.7687 393.9861
   394.1005 394.7060 394.8229 395.1419 396.2321 396.3667 396.4935 396.7823
   397.1528 397.1609 397.2089 397.3091 397.6020 398.4184 398.5971 398.7450
   398.7988 398.9800 399.0687 400.3609 400.4677 400.6366 400.6969 401.1681
   401.4895 401.5107 401.6486 401.7159 402.2907 402.3031 402.3108 402.3727
   403.3310 403.3691 403.5293 403.6711 403.7959 403.8096 403.8352 403.8436
   403.8905 403.8946 403.9297 403.9322 404.0017 404.0240 404.1514 404.1606
   404.2941 404.3855 404.4507 404.4996 405.5668 405.7248 405.7717 405.8524
   410.2011 410.3112 410.3913 410.5809 410.6374 410.7130 410.7392 410.9774
   411.4340 411.4650 411.4706 411.4934 411.8471 412.0625 412.1084 413.1589
   413.2160 413.2203 413.2273 414.0985 415.8478 416.4413 416.5398 416.7798
   417.3513 417.4583 417.5445 417.5634 418.1007 418.2992 418.3413 418.3552
   418.3906 418.6599 418.6610 418.8531 418.9941 419.0697 419.1932 419.3578
   419.7247 419.7319 419.7339 419.7439 419.7775 419.7822 419.7922 419.8565
   422.4334 422.4412 422.4748 422.6332 422.7473 422.7574 422.9082 423.3888
   424.0318 424.1139 424.1350 424.1982 425.4344 425.8796 426.0599 426.0810
   426.8401 427.2630 427.2676 427.2689 427.4107 427.5266 427.5950 427.6590

     the Fermi energy is     5.6959 ev
     (compare with:     5.8920 eV, computed in scf)

     Writing all to output data dir out/mp-12558.save/
 
     init_run     :      0.03s CPU      0.05s WALL (       1 calls)
     electrons    :    566.02s CPU    608.50s WALL (       1 calls)

     Called by init_run:
     wfcinit      :      0.00s CPU      0.00s WALL (       1 calls)
     potinit      :      0.01s CPU      0.02s WALL (       1 calls)
     hinit0       :      0.01s CPU      0.02s WALL (       1 calls)

     Called by electrons:
     c_bands      :    566.02s CPU    608.49s WALL (       1 calls)
     v_of_rho     :      0.01s CPU      0.01s WALL (       1 calls)

     Called by c_bands:
     init_us_2    :      0.00s CPU      0.00s WALL (       8 calls)
     init_us_2:cp :      0.00s CPU      0.00s WALL (       8 calls)
     paro_k       :    547.66s CPU    588.93s WALL (       8 calls)

     Called by paro_*:
     h_psi        :     10.54s CPU     11.03s WALL (     845 calls)
     g_psi        :      0.22s CPU      0.26s WALL (   81217 calls)

     Called by h_psi:
     h_psi:calbec :      0.26s CPU      0.27s WALL (     845 calls)
     vloc_psi     :     10.03s CPU     10.49s WALL (     845 calls)
     add_vuspsi   :      0.19s CPU      0.20s WALL (     845 calls)

     General routines
     calbec       :      0.25s CPU      0.27s WALL (     845 calls)
     fft          :      0.00s CPU      0.01s WALL (      10 calls)
     fftw         :      8.95s CPU      9.36s WALL (  132998 calls)
 
     Parallel routines
 
     PWSCF        :   9m26.79s CPU  10m 9.62s WALL

 
   This run was terminated on:   5:19:30   5Dec2023            

=------------------------------------------------------------------------------=
   JOB DONE.
=------------------------------------------------------------------------------=
