
     Program PWSCF v.7.1 starts on  5Dec2023 at  6:47:30 

     This program is part of the open-source Quantum ESPRESSO suite
     for quantum simulation of materials; please cite
         "P. Giannozzi et al., J. Phys.:Condens. Matter 21 395502 (2009);
         "P. Giannozzi et al., J. Phys.:Condens. Matter 29 465901 (2017);
         "P. Giannozzi et al., J. Chem. Phys. 152 154105 (2020);
          URL http://www.quantum-espresso.org", 
     in publications or presentations arising from this work. More details at
     http://www.quantum-espresso.org/quote

     Parallel version (MPI), running on    24 processors

     MPI processes distributed on     1 nodes
     121650 MiB available memory on the printing compute node when the environment starts
 
     Reading input from pw_mp-12558_scf_k3000_E52.in
Warning: card &CELL ignored
Warning: card / ignored

     Current dimensions of program PWSCF are:
     Max number of different atomic species (ntypx) = 10
     Max number of k-points (npk) =  40000
     Max angular momentum in pseudopotentials (lmaxx) =  4
 
     K-points division:     npool     =       2
     R & G space division:  proc/nbgrp/npool/nimage =      12
     Subspace diagonalization in iterative solution of the eigenvalue problem:
     a serial algorithm will be used

 
     Parallelization info
     --------------------
     sticks:   dense  smooth     PW     G-vecs:    dense   smooth      PW
     Min          79      79     24                 1654     1654     273
     Max          80      80     25                 1660     1660     275
     Sum         955     955    295                19891    19891    3287
 
     Using Slab Decomposition
 


     bravais-lattice index     =            2
     lattice parameter (alat)  =      11.6335  a.u.
     unit-cell volume          =     393.6194 (a.u.)^3
     number of atoms/cell      =            3
     number of atomic types    =            3
     number of electrons       =        18.00
     number of Kohn-Sham states=           18
     kinetic-energy cutoff     =      52.0000  Ry
     charge density cutoff     =     208.0000  Ry
     scf convergence threshold =      1.0E-10
     mixing beta               =       0.7000
     number of iterations used =            8  plain     mixing
     Exchange-correlation= PBE
                           (   1   4   3   4   0   0   0)

     celldm(1)=  11.633547  celldm(2)=   0.000000  celldm(3)=   0.000000
     celldm(4)=   0.000000  celldm(5)=   0.000000  celldm(6)=   0.000000

     crystal axes: (cart. coord. in units of alat)
               a(1) = (  -0.500000   0.000000   0.500000 )  
               a(2) = (   0.000000   0.500000   0.500000 )  
               a(3) = (  -0.500000   0.500000   0.000000 )  

     reciprocal axes: (cart. coord. in units 2 pi/alat)
               b(1) = ( -1.000000 -1.000000  1.000000 )  
               b(2) = (  1.000000  1.000000  1.000000 )  
               b(3) = ( -1.000000  1.000000 -1.000000 )  


     PseudoPot. # 1 for As read from file:
     /usr/scratch4/magr4985/MG/HTDF/pseudo/SG15/As.upf
     MD5 check sum: a2ff92a4799c87c945fff9e6739df4dd
     Pseudo is Norm-conserving, Zval =  5.0
     Generated using ONCVPSP code by D. R. Hamann
     Using radial grid of  602 points,  6 beta functions with: 
                l(1) =   0
                l(2) =   0
                l(3) =   1
                l(4) =   1
                l(5) =   2
                l(6) =   2

     PseudoPot. # 2 for Li read from file:
     /usr/scratch4/magr4985/MG/HTDF/pseudo/SG15/Li.upf
     MD5 check sum: c91dd4cee9943b136ac3b62641658f95
     Pseudo is Norm-conserving, Zval =  3.0
     Generated using ONCVPSP code by D. R. Hamann
     Using radial grid of  602 points,  4 beta functions with: 
                l(1) =   0
                l(2) =   0
                l(3) =   1
                l(4) =   1

     PseudoPot. # 3 for Mg read from file:
     /usr/scratch4/magr4985/MG/HTDF/pseudo/SG15/Mg.upf
     MD5 check sum: 330956729b1f868fdecd9f5113f6a961
     Pseudo is Norm-conserving, Zval = 10.0
     Generated using ONCVPSP code by D. R. Hamann
     Using radial grid of  602 points,  4 beta functions with: 
                l(1) =   0
                l(2) =   0
                l(3) =   1
                l(4) =   1

     atomic species   valence    mass     pseudopotential
        As             5.00    74.92160     As( 1.00)
        Li             3.00     6.94100     Li( 1.00)
        Mg            10.00    24.30500     Mg( 1.00)

     24 Sym. Ops. (no inversion) found



   Cartesian axes

     site n.     atom                  positions (alat units)
         1           Li  tau(   1) = (   0.0000000   0.0000000   0.0000000  )
         2           Mg  tau(   2) = (  -0.5000000   0.5000000   0.5000000  )
         3           As  tau(   3) = (  -0.2500000   0.2500000   0.2500001  )

     number of k points=    47  Gaussian smearing, width (Ry)=  0.0005
                       cart. coord. in units 2pi/alat
        k(    1) = (   0.0000000   0.0000000   0.0000000), wk =   0.0020000
        k(    2) = (  -0.1000000   0.1000000  -0.1000000), wk =   0.0160000
        k(    3) = (  -0.2000000   0.2000000  -0.2000000), wk =   0.0160000
        k(    4) = (  -0.3000000   0.3000000  -0.3000000), wk =   0.0160000
        k(    5) = (  -0.4000000   0.4000000  -0.4000000), wk =   0.0160000
        k(    6) = (   0.5000000  -0.5000000   0.5000000), wk =   0.0080000
        k(    7) = (   0.0000000   0.2000000   0.0000000), wk =   0.0120000
        k(    8) = (  -0.1000000   0.3000000  -0.1000000), wk =   0.0480000
        k(    9) = (  -0.2000000   0.4000000  -0.2000000), wk =   0.0480000
        k(   10) = (  -0.3000000   0.5000000  -0.3000000), wk =   0.0480000
        k(   11) = (   0.6000000  -0.4000000   0.6000000), wk =   0.0480000
        k(   12) = (   0.5000000  -0.3000000   0.5000000), wk =   0.0480000
        k(   13) = (   0.4000000  -0.2000000   0.4000000), wk =   0.0480000
        k(   14) = (   0.3000000  -0.1000000   0.3000000), wk =   0.0480000
        k(   15) = (   0.2000000   0.0000000   0.2000000), wk =   0.0240000
        k(   16) = (   0.0000000   0.4000000   0.0000000), wk =   0.0120000
        k(   17) = (  -0.1000000   0.5000000  -0.1000000), wk =   0.0480000
        k(   18) = (  -0.2000000   0.6000000  -0.2000000), wk =   0.0480000
        k(   19) = (   0.7000000  -0.3000000   0.7000000), wk =   0.0480000
        k(   20) = (   0.6000000  -0.2000000   0.6000000), wk =   0.0480000
        k(   21) = (   0.5000000  -0.1000000   0.5000000), wk =   0.0480000
        k(   22) = (   0.4000000   0.0000000   0.4000000), wk =   0.0240000
        k(   23) = (   0.0000000   0.6000000   0.0000000), wk =   0.0120000
        k(   24) = (  -0.1000000   0.7000000  -0.1000000), wk =   0.0480000
        k(   25) = (   0.8000000  -0.2000000   0.8000000), wk =   0.0480000
        k(   26) = (   0.7000000  -0.1000000   0.7000000), wk =   0.0480000
        k(   27) = (   0.6000000  -0.0000000   0.6000000), wk =   0.0240000
        k(   28) = (   0.0000000   0.8000000   0.0000000), wk =   0.0120000
        k(   29) = (   0.9000000  -0.1000000   0.9000000), wk =   0.0480000
        k(   30) = (   0.8000000   0.0000000   0.8000000), wk =   0.0240000
        k(   31) = (   0.0000000  -1.0000000   0.0000000), wk =   0.0060000
        k(   32) = (  -0.2000000   0.4000000   0.0000000), wk =   0.0480000
        k(   33) = (  -0.3000000   0.5000000  -0.1000000), wk =   0.0960000
        k(   34) = (   0.6000000  -0.4000000   0.8000000), wk =   0.0960000
        k(   35) = (   0.5000000  -0.3000000   0.7000000), wk =   0.0480000
        k(   36) = (  -0.2000000   0.6000000   0.0000000), wk =   0.0480000
        k(   37) = (   0.7000000  -0.3000000   0.9000000), wk =   0.0960000
        k(   38) = (   0.6000000  -0.2000000   0.8000000), wk =   0.0960000
        k(   39) = (   0.5000000  -0.1000000   0.7000000), wk =   0.0960000
        k(   40) = (   0.4000000   0.0000000   0.6000000), wk =   0.0480000
        k(   41) = (   0.8000000  -0.2000000   1.0000000), wk =   0.0480000
        k(   42) = (   0.7000000  -0.1000000   0.9000000), wk =   0.0960000
        k(   43) = (   0.6000000   0.0000000   0.8000000), wk =   0.0480000
        k(   44) = (  -0.2000000  -1.0000000   0.0000000), wk =   0.0240000
        k(   45) = (   0.6000000  -0.2000000   1.0000000), wk =   0.0480000
        k(   46) = (   0.5000000  -0.1000000   0.9000000), wk =   0.0480000
        k(   47) = (  -0.4000000  -1.0000000   0.0000000), wk =   0.0240000

     Dense  grid:    19891 G-vectors     FFT dimensions: (  40,  40,  40)

     Estimated max dynamical RAM per process >       5.16 MB

     Estimated total dynamical RAM >     119.09 MB

     Initial potential from superposition of free atoms

     starting charge      17.7899, renormalised to      18.0000
     Starting wfcs are random

     total cpu time spent up to now is        0.2 secs

     Self-consistent Calculation

     iteration #  1     ecut=    52.00 Ry     beta= 0.70
     Davidson diagonalization with overlap
     ethr =  1.00E-02,  avg # of iterations =  7.8

     Threshold (ethr) on eigenvalues was too large:
     Diagonalizing with lowered threshold

     Davidson diagonalization with overlap
     ethr =  8.03E-04,  avg # of iterations =  1.3

     total cpu time spent up to now is        1.1 secs

     total energy              =    -135.70755111 Ry
     estimated scf accuracy    <       0.14060067 Ry

     iteration #  2     ecut=    52.00 Ry     beta= 0.70
     Davidson diagonalization with overlap
     ethr =  7.81E-04,  avg # of iterations =  2.2

     total cpu time spent up to now is        1.5 secs

     total energy              =    -135.74083868 Ry
     estimated scf accuracy    <       0.02198337 Ry

     iteration #  3     ecut=    52.00 Ry     beta= 0.70
     Davidson diagonalization with overlap
     ethr =  1.22E-04,  avg # of iterations =  2.6

     total cpu time spent up to now is        1.7 secs

     total energy              =    -135.74496770 Ry
     estimated scf accuracy    <       0.00062929 Ry

     iteration #  4     ecut=    52.00 Ry     beta= 0.70
     Davidson diagonalization with overlap
     ethr =  3.50E-06,  avg # of iterations =  5.6

     total cpu time spent up to now is        2.2 secs

     total energy              =    -135.74500628 Ry
     estimated scf accuracy    <       0.00001383 Ry

     iteration #  5     ecut=    52.00 Ry     beta= 0.70
     Davidson diagonalization with overlap
     ethr =  7.68E-08,  avg # of iterations =  2.0

     total cpu time spent up to now is        2.6 secs

     total energy              =    -135.74500775 Ry
     estimated scf accuracy    <       0.00000027 Ry

     iteration #  6     ecut=    52.00 Ry     beta= 0.70
     Davidson diagonalization with overlap
     ethr =  1.48E-09,  avg # of iterations =  2.0

     total cpu time spent up to now is        3.0 secs

     total energy              =    -135.74500780 Ry
     estimated scf accuracy    <       0.00000001 Ry

     iteration #  7     ecut=    52.00 Ry     beta= 0.70
     Davidson diagonalization with overlap
     ethr =  6.83E-11,  avg # of iterations =  2.0

     total cpu time spent up to now is        3.4 secs

     total energy              =    -135.74500781 Ry
     estimated scf accuracy    <          2.7E-10 Ry

     iteration #  8     ecut=    52.00 Ry     beta= 0.70
     Davidson diagonalization with overlap
     ethr =  1.49E-12,  avg # of iterations =  2.0

     total cpu time spent up to now is        3.8 secs

     End of self-consistent calculation

          k = 0.0000 0.0000 0.0000 (  2445 PWs)   bands (ev):

   -70.6187 -40.8469 -37.4036 -37.4036 -37.4036  -5.7142   4.6950   4.6950
     4.6950   6.4188   8.8472   8.8472   8.8472  12.8588  12.8588  13.5793
    13.5793  13.5793

          k =-0.1000 0.1000-0.1000 (  2508 PWs)   bands (ev):

   -70.6187 -40.8483 -37.4037 -37.4037 -37.4037  -5.6554   3.9318   4.6161
     4.6161   6.9559   9.0141   9.0141   9.1144  12.0762  12.0762  13.3233
    14.7167  14.7167

          k =-0.2000 0.2000-0.2000 (  2520 PWs)   bands (ev):

   -70.6187 -40.8486 -37.4039 -37.4037 -37.4037  -5.4910   2.7457   4.4347
     4.4347   7.4028   9.2951   9.2951   9.9124  11.5958  11.5958  13.1149
    16.0918  16.4210

          k =-0.3000 0.3000-0.3000 (  2491 PWs)   bands (ev):

   -70.6187 -40.8480 -37.4042 -37.4037 -37.4037  -5.2628   1.7024   4.2469
     4.2469   7.5091   9.2477   9.2477  10.7332  12.0515  12.0515  13.3857
    17.0515  18.3597

          k =-0.4000 0.4000-0.4000 (  2479 PWs)   bands (ev):

   -70.6187 -40.8478 -37.4044 -37.4038 -37.4038  -5.0511   0.9809   4.1159
     4.1159   7.5034   9.0297   9.0298  11.1308  13.2123  13.2123  14.1861
    16.9156  16.9156

          k = 0.5000-0.5000 0.5000 (  2488 PWs)   bands (ev):

   -70.6187 -40.8480 -37.4044 -37.4038 -37.4038  -4.9618   0.7188   4.0698
     4.0698   7.4916   8.9338   8.9338  11.2266  14.3253  14.3253  14.8443
    15.5225  15.5225

          k = 0.0000 0.2000 0.0000 (  2517 PWs)   bands (ev):

   -70.6187 -40.8485 -37.4037 -37.4037 -37.4037  -5.6357   3.9675   4.4366
     4.4366   7.1945   8.7732   9.2682   9.2682  11.2320  13.0122  13.8535
    13.8535  14.7375

          k =-0.1000 0.3000-0.1000 (  2520 PWs)   bands (ev):

   -70.6187 -40.8486 -37.4039 -37.4037 -37.4037  -5.5063   3.0533   4.1976
     4.3104   7.6583   8.9115   9.6521   9.6698  10.8684  12.6078  13.7172
    15.1252  15.7636

          k =-0.2000 0.4000-0.2000 (  2504 PWs)   bands (ev):

   -70.6187 -40.8483 -37.4041 -37.4038 -37.4037  -5.2980   2.0264   4.0022
     4.1166   7.8155   9.1310   9.7692   9.8032  11.7188  12.7700  13.6571
    16.8067  16.9512

          k =-0.3000 0.5000-0.3000 (  2489 PWs)   bands (ev):

   -70.6187 -40.8480 -37.4043 -37.4038 -37.4038  -5.0765   1.2263   3.8869
     3.9049   7.7967   8.9435   9.5264  10.6644  12.4940  13.7305  14.2409
    16.7080  16.7430

          k = 0.6000-0.4000 0.6000 (  2482 PWs)   bands (ev):

   -70.6187 -40.8478 -37.4044 -37.4038 -37.4038  -4.9408   0.8187   3.7047
     3.9230   7.7776   8.8595   9.2880  11.4133  13.1553  14.3245  14.8451
    15.7010  16.0900

          k = 0.5000-0.3000 0.5000 (  2489 PWs)   bands (ev):

   -70.6187 -40.8480 -37.4044 -37.4038 -37.4038  -4.9708   0.9036   3.6198
     4.0485   7.8189   8.9394   9.2141  11.4139  12.8772  13.8567  14.5683
    15.9579  17.2641

          k = 0.4000-0.2000 0.4000 (  2499 PWs)   bands (ev):

   -70.6187 -40.8482 -37.4042 -37.4038 -37.4037  -5.1473   1.4550   3.6596
     4.2519   7.8715   9.1799   9.3185  10.7819  11.5538  13.5281  14.0964
    16.4019  17.6363

          k = 0.3000-0.1000 0.3000 (  2505 PWs)   bands (ev):

   -70.6187 -40.8483 -37.4040 -37.4038 -37.4037  -5.3741   2.3325   3.8394
     4.4763   7.8052   9.3932   9.4631   9.9641  10.8407  12.6766  13.7756
    15.9071  16.6453

          k = 0.2000 0.0000 0.2000 (  2507 PWs)   bands (ev):

   -70.6187 -40.8483 -37.4038 -37.4037 -37.4037  -5.5611   3.2961   4.1859
     4.6295   7.4392   9.1273   9.2428   9.5504  11.1570  12.1138  13.9883
    14.4262  15.8099

          k = 0.0000 0.4000 0.0000 (  2501 PWs)   bands (ev):

   -70.6187 -40.8482 -37.4039 -37.4038 -37.4038  -5.4166   2.9200   3.9065
     3.9065   7.7866   8.5239  10.2641  10.2641  10.4780  13.4726  14.6909
    14.6909  15.7969

          k =-0.1000 0.5000-0.1000 (  2497 PWs)   bands (ev):

   -70.6187 -40.8481 -37.4041 -37.4038 -37.4038  -5.2433   2.2348   3.6659
     3.6773   7.6909   8.5302  10.1120  10.6444  11.7540  13.6195  14.7833
    15.9910  16.8176

          k =-0.2000 0.6000-0.2000 (  2512 PWs)   bands (ev):

   -70.6187 -40.8484 -37.4043 -37.4039 -37.4038  -5.0380   1.5305   3.3485
     3.5676   7.5799   9.1309  10.0099  10.5242  13.0148  14.3634  14.8890
    16.5609  16.7320

          k = 0.7000-0.3000 0.7000 (  2485 PWs)   bands (ev):

   -70.6187 -40.8478 -37.4044 -37.4039 -37.4038  -4.8834   1.0822   3.0339
     3.5966   7.5823   9.5531  10.2284  10.6090  13.1955  14.3818  15.3141
    16.0892  16.1364

          k = 0.6000-0.2000 0.6000 (  2484 PWs)   bands (ev):

   -70.6187 -40.8478 -37.4044 -37.4040 -37.4038  -4.8614   1.0208   2.8394
     3.7572   7.7518   9.5208  10.0270  11.6777  12.6955  12.7480  14.9981
    17.2032  17.7465

          k = 0.5000-0.1000 0.5000 (  2495 PWs)   bands (ev):

   -70.6187 -40.8480 -37.4043 -37.4040 -37.4038  -4.9852   1.3386   2.8505
     4.0153   8.0507   9.4371  10.0027  11.0038  11.2993  13.8810  15.0285
    16.1100  17.4199

          k = 0.4000 0.0000 0.4000 (  2507 PWs)   bands (ev):

   -70.6187 -40.8483 -37.4041 -37.4039 -37.4037  -5.1852   1.8525   3.1730
     4.2968   8.2208   9.3808   9.9343  10.1907  10.4721  14.1088  14.9237
    15.4856  16.5708

          k = 0.0000 0.6000 0.0000 (  2493 PWs)   bands (ev):

   -70.6187 -40.8480 -37.4042 -37.4039 -37.4039  -5.1126   2.0309   3.4084
     3.4084   7.0927   8.1151  11.4942  11.4942  11.8053  14.2394  16.0829
    16.0829  17.1695

          k =-0.1000 0.7000-0.1000 (  2491 PWs)   bands (ev):

   -70.6187 -40.8479 -37.4043 -37.4039 -37.4039  -4.9457   1.6170   3.0882
     3.2637   6.8846   8.2548  11.4508  11.7683  13.3036  14.9036  16.1669
    16.6501  16.7353

          k = 0.8000-0.2000 0.8000 (  2482 PWs)   bands (ev):

   -70.6187 -40.8477 -37.4044 -37.4040 -37.4039  -4.8065   1.3276   2.6080
     3.2683   7.0053   8.9802  11.2832  11.5401  13.8550  14.5686  15.8286
    16.5213  16.5648

          k = 0.7000-0.1000 0.7000 (  2503 PWs)   bands (ev):

   -70.6187 -40.8481 -37.4043 -37.4041 -37.4039  -4.7613   1.2686   2.2392
     3.4207   7.2650  10.0599  11.2166  11.2533  12.6740  12.8520  16.1469
    17.3556  18.2348

          k = 0.6000-0.0000 0.6000 (  2492 PWs)   bands (ev):

   -70.6187 -40.8479 -37.4043 -37.4041 -37.4038  -4.8339   1.3146   2.2833
     3.6931   7.6476  10.2238  10.9415  11.4527  11.4932  12.3011  16.0264
    17.0246  18.2268

          k = 0.0000 0.8000 0.0000 (  2498 PWs)   bands (ev):

   -70.6187 -40.8481 -37.4044 -37.4039 -37.4039  -4.8305   1.4141   3.0772
     3.0772   6.3168   7.9316  12.8011  12.8011  13.6029  15.3111  16.4705
    16.4705  16.8920

          k = 0.9000-0.1000 0.9000 (  2484 PWs)   bands (ev):

   -70.6187 -40.8478 -37.4044 -37.4040 -37.4040  -4.7387   1.2727   2.7551
     3.0421   6.3737   8.1370  12.8329  12.9605  14.3107  14.9305  15.7198
    16.6040  17.0687

          k = 0.8000 0.0000 0.8000 (  2484 PWs)   bands (ev):

   -70.6187 -40.8477 -37.4044 -37.4041 -37.4039  -4.7120   1.3223   2.2659
     3.1632   6.7879   8.9260  12.3164  12.4681  13.2138  13.4343  16.5420
    17.5644  18.2280

          k = 0.0000-1.0000 0.0000 (  2498 PWs)   bands (ev):

   -70.6187 -40.8481 -37.4045 -37.4040 -37.4040  -4.7114   1.1865   2.9626
     2.9626   6.0340   7.8713  13.7165  13.7165  14.8046  15.4064  15.4064
    16.2222  16.5805

          k =-0.2000 0.4000 0.0000 (  2514 PWs)   bands (ev):

   -70.6187 -40.8485 -37.4040 -37.4038 -37.4037  -5.3543   2.4642   3.6683
     4.2232   8.0068   8.9481   9.4840  10.2150  11.0238  13.0316  14.5968
    15.1687  16.5890

          k =-0.3000 0.5000-0.1000 (  2491 PWs)   bands (ev):

   -70.6187 -40.8480 -37.4042 -37.4039 -37.4038  -5.1456   1.7315   3.3171
     4.0220   8.1619   8.9612   9.6726  10.3758  11.6870  14.1269  14.5607
    16.1265  16.8894

          k = 0.6000-0.4000 0.8000 (  2490 PWs)   bands (ev):

   -70.6187 -40.8480 -37.4043 -37.4039 -37.4038  -4.9549   1.1492   3.1696
     3.7998   8.1033   8.8048  10.1624  10.7064  12.6299  14.0409  14.8586
    16.0962  17.1104

          k = 0.5000-0.3000 0.7000 (  2486 PWs)   bands (ev):

   -70.6187 -40.8479 -37.4044 -37.4039 -37.4038  -4.8754   0.9293   3.1361
     3.7029   8.0638   8.7392  10.1024  11.5938  12.5838  13.7123  15.0690
    15.9910  17.5207

          k =-0.2000 0.6000 0.0000 (  2490 PWs)   bands (ev):

   -70.6187 -40.8479 -37.4042 -37.4039 -37.4038  -5.0711   1.8129   3.1802
     3.5540   7.5620   8.5231  10.1881  11.4962  12.2321  14.5321  15.7240
    15.9556  16.6507

          k = 0.7000-0.3000 0.9000 (  2488 PWs)   bands (ev):

   -70.6187 -40.8479 -37.4043 -37.4040 -37.4039  -4.8961   1.4061   2.8258
     3.3443   7.6494   9.0389  10.0416  11.6314  13.1471  14.3193  15.8351
    16.2311  17.0449

          k = 0.6000-0.2000 0.8000 (  2486 PWs)   bands (ev):

   -70.6187 -40.8478 -37.4044 -37.4040 -37.4039  -4.7954   1.1894   2.5607
     3.3048   7.8029   9.3722  10.5852  11.5226  12.3787  14.0696  15.7142
    16.2550  17.9501

          k = 0.5000-0.1000 0.7000 (  2486 PWs)   bands (ev):

   -70.6187 -40.8478 -37.4043 -37.4041 -37.4039  -4.8232   1.2424   2.4699
     3.4725   8.0757   9.1901  10.8353  11.3984  12.1899  13.0325  15.7635
    17.1072  17.9325

          k = 0.4000 0.0000 0.6000 (  2481 PWs)   bands (ev):

   -70.6187 -40.8477 -37.4043 -37.4040 -37.4038  -4.9635   1.4696   2.7079
     3.7604   8.4569   8.8015   9.9752  11.3553  11.6306  14.0175  15.5932
    16.1198  16.9800

          k = 0.8000-0.2000 1.0000 (  2481 PWs)   bands (ev):

   -70.6187 -40.8477 -37.4044 -37.4040 -37.4039  -4.8132   1.4056   2.8567
     2.9975   6.8710   8.3751  11.3384  12.8626  13.7206  14.6488  16.2268
    16.7615  17.0830

          k = 0.7000-0.1000 0.9000 (  2496 PWs)   bands (ev):

   -70.6187 -40.8480 -37.4044 -37.4041 -37.4039  -4.7294   1.3513   2.3950
     2.9567   7.2371   9.0325  10.9656  12.6352  13.1145  14.4843  15.8453
    17.1151  17.9024

          k = 0.6000 0.0000 0.8000 (  2498 PWs)   bands (ev):

   -70.6187 -40.8480 -37.4043 -37.4041 -37.4039  -4.7340   1.3855   2.1188
     3.1483   7.6448   9.8984  10.6598  11.5018  12.8239  13.2388  16.5493
    17.2936  18.0500

          k =-0.2000-1.0000 0.0000 (  2488 PWs)   bands (ev):

   -70.6187 -40.8478 -37.4044 -37.4040 -37.4040  -4.7060   1.2670   2.7567
     2.7687   6.6236   8.3250  12.2693  13.2291  13.9525  15.1679  15.3711
    16.5743  18.0115

          k = 0.6000-0.2000 1.0000 (  2478 PWs)   bands (ev):

   -70.6187 -40.8476 -37.4043 -37.4041 -37.4039  -4.7729   1.3851   2.4214
     2.9903   8.1521   9.1191   9.9778  12.3004  13.0150  13.5204  16.5620
    16.9228  17.4394

          k = 0.5000-0.1000 0.9000 (  2490 PWs)   bands (ev):

   -70.6187 -40.8479 -37.4043 -37.4041 -37.4039  -4.7236   1.4013   2.2698
     2.8217   8.3635   9.2397  10.3841  11.2081  13.1861  14.3399  15.8512
    17.0133  17.9774

          k =-0.4000-1.0000 0.0000 (  2494 PWs)   bands (ev):

   -70.6187 -40.8479 -37.4044 -37.4041 -37.4040  -4.6974   1.4440   2.4289
     2.4932   7.9624   9.4175  10.2382  11.4803  14.2094  14.7060  15.4622
    16.7618  17.9718

     the Fermi energy is     5.8920 ev

!    total energy              =    -135.74500781 Ry
     estimated scf accuracy    <          5.6E-12 Ry
     smearing contrib. (-TS)   =      -0.00000000 Ry
     internal energy E=F+TS    =    -135.74500781 Ry

     The total energy is F=E-TS. E is the sum of the following terms:
     one-electron contribution =     -89.94980994 Ry
     hartree contribution      =      42.04602151 Ry
     xc contribution           =     -20.44929279 Ry
     ewald contribution        =     -67.39192660 Ry

     convergence has been achieved in   8 iterations

     Writing all to output data dir out/mp-12558.save/
 
     init_run     :      0.09s CPU      0.12s WALL (       1 calls)
     electrons    :      2.67s CPU      3.60s WALL (       1 calls)

     Called by init_run:
     wfcinit      :      0.07s CPU      0.08s WALL (       1 calls)
     potinit      :      0.01s CPU      0.01s WALL (       1 calls)
     hinit0       :      0.01s CPU      0.01s WALL (       1 calls)

     Called by electrons:
     c_bands      :      2.19s CPU      2.90s WALL (       9 calls)
     sum_band     :      0.43s CPU      0.57s WALL (       9 calls)
     v_of_rho     :      0.03s CPU      0.03s WALL (       9 calls)
     mix_rho      :      0.02s CPU      0.04s WALL (       9 calls)

     Called by c_bands:
     init_us_2    :      0.03s CPU      0.04s WALL (     456 calls)
     init_us_2:cp :      0.03s CPU      0.04s WALL (     456 calls)
     cegterg      :      1.83s CPU      1.93s WALL (     216 calls)

     Called by *egterg:
     cdiaghg      :      0.29s CPU      0.30s WALL (     847 calls)
     h_psi        :      1.43s CPU      1.53s WALL (     895 calls)
     g_psi        :      0.01s CPU      0.01s WALL (     655 calls)

     Called by h_psi:
     h_psi:calbec :      0.05s CPU      0.05s WALL (     895 calls)
     vloc_psi     :      1.35s CPU      1.44s WALL (     895 calls)
     add_vuspsi   :      0.03s CPU      0.03s WALL (     895 calls)

     General routines
     calbec       :      0.05s CPU      0.05s WALL (     895 calls)
     fft          :      0.01s CPU      0.01s WALL (      90 calls)
     ffts         :      0.00s CPU      0.00s WALL (       9 calls)
     fftw         :      1.57s CPU      1.69s WALL (   25614 calls)
     davcio       :      0.03s CPU      0.52s WALL (     764 calls)
 
     Parallel routines
 
     PWSCF        :      2.83s CPU      4.22s WALL

 
   This run was terminated on:   6:47:34   5Dec2023            

=------------------------------------------------------------------------------=
   JOB DONE.
=------------------------------------------------------------------------------=
