
     Program PWSCF v.7.1 starts on 20Nov2023 at  2:27: 2 

     This program is part of the open-source Quantum ESPRESSO suite
     for quantum simulation of materials; please cite
         "P. Giannozzi et al., J. Phys.:Condens. Matter 21 395502 (2009);
         "P. Giannozzi et al., J. Phys.:Condens. Matter 29 465901 (2017);
         "P. Giannozzi et al., J. Chem. Phys. 152 154105 (2020);
          URL http://www.quantum-espresso.org", 
     in publications or presentations arising from this work. More details at
     http://www.quantum-espresso.org/quote

     Parallel version (MPI), running on    24 processors

     MPI processes distributed on     1 nodes
     123576 MiB available memory on the printing compute node when the environment starts
 
     Reading input from pw_mp-463_scf_k3000_E93.in
Warning: card &CELL ignored
Warning: card / ignored

     Current dimensions of program PWSCF are:
     Max number of different atomic species (ntypx) = 10
     Max number of k-points (npk) =  40000
     Max angular momentum in pseudopotentials (lmaxx) =  4
 
     K-points division:     npool     =       2
     R & G space division:  proc/nbgrp/npool/nimage =      12
     Subspace diagonalization in iterative solution of the eigenvalue problem:
     a serial algorithm will be used

 
     Parallelization info
     --------------------
     sticks:   dense  smooth     PW     G-vecs:    dense   smooth      PW
     Min         107     107     31                 2560     2560     408
     Max         108     108     32                 2565     2565     410
     Sum        1285    1285    379                30731    30731    4909
 
     Using Slab Decomposition
 


     bravais-lattice index     =            2
     lattice parameter (alat)  =      10.0322  a.u.
     unit-cell volume          =     252.4249 (a.u.)^3
     number of atoms/cell      =            2
     number of atomic types    =            2
     number of electrons       =        16.00
     number of Kohn-Sham states=           16
     kinetic-energy cutoff     =      93.0000  Ry
     charge density cutoff     =     372.0000  Ry
     scf convergence threshold =      1.0E-10
     mixing beta               =       0.7000
     number of iterations used =            8  plain     mixing
     Exchange-correlation= PBE
                           (   1   4   3   4   0   0   0)

     celldm(1)=  10.032228  celldm(2)=   0.000000  celldm(3)=   0.000000
     celldm(4)=   0.000000  celldm(5)=   0.000000  celldm(6)=   0.000000

     crystal axes: (cart. coord. in units of alat)
               a(1) = (  -0.500000   0.000000   0.500000 )  
               a(2) = (   0.000000   0.500000   0.500000 )  
               a(3) = (  -0.500000   0.500000   0.000000 )  

     reciprocal axes: (cart. coord. in units 2 pi/alat)
               b(1) = ( -1.000000 -1.000000  1.000000 )  
               b(2) = (  1.000000  1.000000  1.000000 )  
               b(3) = ( -1.000000  1.000000 -1.000000 )  


     PseudoPot. # 1 for F  read from file:
     /usr/scratch4/magr4985/MG/HTDF/pseudo/SG15/F.upf
     MD5 check sum: 1d8275f47d602dd53cad6bcdc0eda7dc
     Pseudo is Norm-conserving, Zval =  7.0
     Generated using ONCVPSP code by D. R. Hamann
     Using radial grid of  602 points,  4 beta functions with: 
                l(1) =   0
                l(2) =   0
                l(3) =   1
                l(4) =   1

     PseudoPot. # 2 for K  read from file:
     /usr/scratch4/magr4985/MG/HTDF/pseudo/SG15/K.upf
     MD5 check sum: 254690d02b26e0029262a4c77e854448
     Pseudo is Norm-conserving, Zval =  9.0
     Generated using ONCVPSP code by D. R. Hamann
     Using radial grid of  602 points,  6 beta functions with: 
                l(1) =   0
                l(2) =   0
                l(3) =   1
                l(4) =   1
                l(5) =   2
                l(6) =   2

     atomic species   valence    mass     pseudopotential
        F              7.00    18.99840     F ( 1.00)
        K              9.00    39.09830     K ( 1.00)

     48 Sym. Ops., with inversion, found



   Cartesian axes

     site n.     atom                  positions (alat units)
         1           K   tau(   1) = (   0.0000000   0.0000000   0.0000000  )
         2           F   tau(   2) = (  -0.5000000   0.5000000   0.5000000  )

     number of k points=    72  Gaussian smearing, width (Ry)=  0.0005
                       cart. coord. in units 2pi/alat
        k(    1) = (   0.0000000   0.0000000   0.0000000), wk =   0.0011574
        k(    2) = (  -0.0833333   0.0833333  -0.0833333), wk =   0.0092593
        k(    3) = (  -0.1666667   0.1666667  -0.1666667), wk =   0.0092593
        k(    4) = (  -0.2500000   0.2500000  -0.2500000), wk =   0.0092593
        k(    5) = (  -0.3333333   0.3333333  -0.3333333), wk =   0.0092593
        k(    6) = (  -0.4166667   0.4166667  -0.4166667), wk =   0.0092593
        k(    7) = (   0.5000000  -0.5000000   0.5000000), wk =   0.0046296
        k(    8) = (   0.0000000   0.1666667   0.0000000), wk =   0.0069444
        k(    9) = (  -0.0833333   0.2500000  -0.0833333), wk =   0.0277778
        k(   10) = (  -0.1666667   0.3333333  -0.1666667), wk =   0.0277778
        k(   11) = (  -0.2500000   0.4166667  -0.2500000), wk =   0.0277778
        k(   12) = (  -0.3333333   0.5000000  -0.3333333), wk =   0.0277778
        k(   13) = (   0.5833333  -0.4166667   0.5833333), wk =   0.0277778
        k(   14) = (   0.5000000  -0.3333333   0.5000000), wk =   0.0277778
        k(   15) = (   0.4166667  -0.2500000   0.4166667), wk =   0.0277778
        k(   16) = (   0.3333333  -0.1666667   0.3333333), wk =   0.0277778
        k(   17) = (   0.2500000  -0.0833333   0.2500000), wk =   0.0277778
        k(   18) = (   0.1666667  -0.0000000   0.1666667), wk =   0.0138889
        k(   19) = (   0.0000000   0.3333333   0.0000000), wk =   0.0069444
        k(   20) = (  -0.0833333   0.4166667  -0.0833333), wk =   0.0277778
        k(   21) = (  -0.1666667   0.5000000  -0.1666667), wk =   0.0277778
        k(   22) = (  -0.2500000   0.5833333  -0.2500000), wk =   0.0277778
        k(   23) = (   0.6666667  -0.3333333   0.6666667), wk =   0.0277778
        k(   24) = (   0.5833333  -0.2500000   0.5833333), wk =   0.0277778
        k(   25) = (   0.5000000  -0.1666667   0.5000000), wk =   0.0277778
        k(   26) = (   0.4166667  -0.0833333   0.4166667), wk =   0.0277778
        k(   27) = (   0.3333333   0.0000000   0.3333333), wk =   0.0138889
        k(   28) = (   0.0000000   0.5000000   0.0000000), wk =   0.0069444
        k(   29) = (  -0.0833333   0.5833333  -0.0833333), wk =   0.0277778
        k(   30) = (  -0.1666667   0.6666667  -0.1666667), wk =   0.0277778
        k(   31) = (   0.7500000  -0.2500000   0.7500000), wk =   0.0277778
        k(   32) = (   0.6666667  -0.1666667   0.6666667), wk =   0.0277778
        k(   33) = (   0.5833333  -0.0833333   0.5833333), wk =   0.0277778
        k(   34) = (   0.5000000   0.0000000   0.5000000), wk =   0.0138889
        k(   35) = (   0.0000000   0.6666667   0.0000000), wk =   0.0069444
        k(   36) = (  -0.0833333   0.7500000  -0.0833333), wk =   0.0277778
        k(   37) = (   0.8333333  -0.1666667   0.8333333), wk =   0.0277778
        k(   38) = (   0.7500000  -0.0833333   0.7500000), wk =   0.0277778
        k(   39) = (   0.6666667  -0.0000000   0.6666667), wk =   0.0138889
        k(   40) = (   0.0000000   0.8333333   0.0000000), wk =   0.0069444
        k(   41) = (   0.9166667  -0.0833333   0.9166667), wk =   0.0277778
        k(   42) = (   0.8333333   0.0000000   0.8333333), wk =   0.0138889
        k(   43) = (   0.0000000  -1.0000000   0.0000000), wk =   0.0034722
        k(   44) = (  -0.1666667   0.3333333   0.0000000), wk =   0.0277778
        k(   45) = (  -0.2500000   0.4166667  -0.0833333), wk =   0.0555556
        k(   46) = (  -0.3333333   0.5000000  -0.1666667), wk =   0.0555556
        k(   47) = (   0.5833333  -0.4166667   0.7500000), wk =   0.0555556
        k(   48) = (   0.5000000  -0.3333333   0.6666667), wk =   0.0277778
        k(   49) = (  -0.1666667   0.5000000   0.0000000), wk =   0.0277778
        k(   50) = (  -0.2500000   0.5833333  -0.0833333), wk =   0.0555556
        k(   51) = (   0.6666667  -0.3333333   0.8333333), wk =   0.0555556
        k(   52) = (   0.5833333  -0.2500000   0.7500000), wk =   0.0555556
        k(   53) = (   0.5000000  -0.1666667   0.6666667), wk =   0.0555556
        k(   54) = (   0.4166667  -0.0833333   0.5833333), wk =   0.0555556
        k(   55) = (   0.3333333   0.0000000   0.5000000), wk =   0.0277778
        k(   56) = (  -0.1666667   0.6666667  -0.0000000), wk =   0.0277778
        k(   57) = (   0.7500000  -0.2500000   0.9166667), wk =   0.0555556
        k(   58) = (   0.6666667  -0.1666667   0.8333333), wk =   0.0555556
        k(   59) = (   0.5833333  -0.0833333   0.7500000), wk =   0.0555556
        k(   60) = (   0.5000000   0.0000000   0.6666667), wk =   0.0277778
        k(   61) = (   0.8333333  -0.1666667   1.0000000), wk =   0.0277778
        k(   62) = (   0.7500000  -0.0833333   0.9166667), wk =   0.0555556
        k(   63) = (   0.6666667   0.0000000   0.8333333), wk =   0.0277778
        k(   64) = (  -0.1666667  -1.0000000  -0.0000000), wk =   0.0138889
        k(   65) = (   0.6666667  -0.3333333   1.0000000), wk =   0.0277778
        k(   66) = (   0.5833333  -0.2500000   0.9166667), wk =   0.0555556
        k(   67) = (   0.5000000  -0.1666667   0.8333333), wk =   0.0277778
        k(   68) = (   0.6666667  -0.1666667   1.0000000), wk =   0.0277778
        k(   69) = (   0.5833333  -0.0833333   0.9166667), wk =   0.0555556
        k(   70) = (   0.5000000   0.0000000   0.8333333), wk =   0.0277778
        k(   71) = (  -0.3333333  -1.0000000   0.0000000), wk =   0.0138889
        k(   72) = (  -0.5000000  -1.0000000   0.0000000), wk =   0.0069444

     Dense  grid:    30731 G-vectors     FFT dimensions: (  45,  45,  45)

     Estimated max dynamical RAM per process >       5.36 MB

     Estimated total dynamical RAM >     121.19 MB

     Initial potential from superposition of free atoms

     starting charge      15.7348, renormalised to      16.0000
     Starting wfcs are random

     total cpu time spent up to now is        0.5 secs

     Self-consistent Calculation

     iteration #  1     ecut=    93.00 Ry     beta= 0.70
     Davidson diagonalization with overlap
     ethr =  1.00E-02,  avg # of iterations =  8.9

     Threshold (ethr) on eigenvalues was too large:
     Diagonalizing with lowered threshold

     Davidson diagonalization with overlap
     ethr =  8.96E-04,  avg # of iterations =  1.1

     total cpu time spent up to now is        2.2 secs

     total energy              =    -104.77088972 Ry
     estimated scf accuracy    <       0.14652327 Ry

     iteration #  2     ecut=    93.00 Ry     beta= 0.70
     Davidson diagonalization with overlap
     ethr =  9.16E-04,  avg # of iterations =  2.2

     total cpu time spent up to now is        2.7 secs

     total energy              =    -104.79980875 Ry
     estimated scf accuracy    <       0.14326687 Ry

     iteration #  3     ecut=    93.00 Ry     beta= 0.70
     Davidson diagonalization with overlap
     ethr =  8.95E-04,  avg # of iterations =  2.0

     total cpu time spent up to now is        3.2 secs

     total energy              =    -104.83170723 Ry
     estimated scf accuracy    <       0.00230802 Ry

     iteration #  4     ecut=    93.00 Ry     beta= 0.70
     Davidson diagonalization with overlap
     ethr =  1.44E-05,  avg # of iterations =  4.2

     total cpu time spent up to now is        3.8 secs

     total energy              =    -104.83206481 Ry
     estimated scf accuracy    <       0.00003239 Ry

     iteration #  5     ecut=    93.00 Ry     beta= 0.70
     Davidson diagonalization with overlap
     ethr =  2.02E-07,  avg # of iterations =  3.2

     total cpu time spent up to now is        4.3 secs

     total energy              =    -104.83207242 Ry
     estimated scf accuracy    <       0.00000195 Ry

     iteration #  6     ecut=    93.00 Ry     beta= 0.70
     Davidson diagonalization with overlap
     ethr =  1.22E-08,  avg # of iterations =  2.0

     total cpu time spent up to now is        4.8 secs

     total energy              =    -104.83207301 Ry
     estimated scf accuracy    <       0.00000026 Ry

     iteration #  7     ecut=    93.00 Ry     beta= 0.70
     Davidson diagonalization with overlap
     ethr =  1.65E-09,  avg # of iterations =  2.0

     total cpu time spent up to now is        5.3 secs

     total energy              =    -104.83207307 Ry
     estimated scf accuracy    <          5.2E-10 Ry

     iteration #  8     ecut=    93.00 Ry     beta= 0.70
     Davidson diagonalization with overlap
     ethr =  3.26E-12,  avg # of iterations =  2.3

     total cpu time spent up to now is        5.8 secs

     End of self-consistent calculation

          k = 0.0000 0.0000 0.0000 (  3839 PWs)   bands (ev):

   -24.4125 -16.9444  -7.6507  -7.6507  -7.6507   1.6482   1.6482   1.6482
     7.9545  12.3974  12.3974  12.3974  14.0515  14.0515  18.7155  26.2002

          k =-0.0833 0.0833-0.0833 (  3797 PWs)   bands (ev):

   -24.4057 -16.9508  -7.6701  -7.6533  -7.6533   1.5816   1.6229   1.6229
     8.1544  12.2758  12.4927  12.4927  14.1152  14.1152  19.0561  25.2325

          k =-0.1667 0.1667-0.1667 (  3801 PWs)   bands (ev):

   -24.3870 -16.9685  -7.7228  -7.6603  -7.6603   1.4121   1.5546   1.5546
     8.7057  12.0207  12.7579  12.7579  14.3070  14.3070  19.8474  23.7594

          k =-0.2500 0.2500-0.2500 (  3807 PWs)   bands (ev):

   -24.3612 -16.9930  -7.7942  -7.6697  -7.6697   1.2036   1.4631   1.4631
     9.4799  11.8220  13.1243  13.1243  14.6362  14.6362  20.2494  22.7530

          k =-0.3333 0.3333-0.3333 (  3801 PWs)   bands (ev):

   -24.3352 -17.0177  -7.8648  -7.6791  -7.6791   1.0151   1.3735   1.3735
    10.2538  11.8407  13.4755  13.4755  15.1147  15.1147  19.3927  21.8822

          k =-0.4167 0.4167-0.4167 (  3825 PWs)   bands (ev):

   -24.3161 -17.0359  -7.9160  -7.6858  -7.6858   0.8867   1.3091   1.3091
    10.7065  12.1748  13.7080  13.7080  15.6544  15.6544  18.3199  20.7548

          k = 0.5000-0.5000 0.5000 (  3828 PWs)   bands (ev):

   -24.3090 -17.0427  -7.9347  -7.6883  -7.6883   0.8414   1.2858   1.2858
    10.8170  12.4268  13.7864  13.7864  15.9276  15.9276  17.8491  20.2834

          k = 0.0000 0.1667 0.0000 (  3803 PWs)   bands (ev):

   -24.4035 -16.9525  -7.6657  -7.6657  -7.6562   1.5206   1.6393   1.6393
     8.2144  12.1294  12.5806  12.5806  14.1210  14.1418  19.1682  25.1715

          k =-0.0833 0.2500-0.0833 (  3811 PWs)   bands (ev):

   -24.3889 -16.9652  -7.7065  -7.6812  -7.6596   1.3833   1.5932   1.6073
     8.6336  11.8723  12.8003  12.8392  14.2586  14.2743  19.8189  23.9213

          k =-0.1667 0.3333-0.1667 (  3801 PWs)   bands (ev):

   -24.3656 -16.9856  -7.7749  -7.6956  -7.6691   1.2221   1.4965   1.5365
     9.3219  11.6652  13.1009  13.1980  14.5169  14.5528  20.4179  22.5788

          k =-0.2500 0.4167-0.2500 (  3822 PWs)   bands (ev):

   -24.3399 -17.0084  -7.8493  -7.7051  -7.6850   1.0696   1.3936   1.4472
    10.1066  11.6246  13.4144  13.5409  14.9069  15.0239  19.7285  21.8315

          k =-0.3333 0.5000-0.3333 (  3810 PWs)   bands (ev):

   -24.3186 -17.0274  -7.9095  -7.7071  -7.7031   0.9524   1.3211   1.3636
    10.6738  11.8888  13.6391  13.7762  15.4503  15.5793  18.5105  20.7700

          k = 0.5833-0.4167 0.5833 (  3807 PWs)   bands (ev):

   -24.3075 -17.0375  -7.9400  -7.7186  -7.7011   0.8909   1.2994   1.3071
    10.8642  12.2630  13.7434  13.8753  15.8948  15.9516  17.7432  20.3026

          k = 0.5000-0.3333 0.5000 (  3811 PWs)   bands (ev):

   -24.3098 -17.0358  -7.9330  -7.7274  -7.6888   0.8979   1.2916   1.3313
    10.8334  12.1932  13.7268  13.8246  15.6811  15.9902  17.9022  20.2171

          k = 0.4167-0.2500 0.4167 (  3824 PWs)   bands (ev):

   -24.3248 -17.0227  -7.8901  -7.7272  -7.6735   0.9760   1.3210   1.4053
    10.5307  11.8226  13.6075  13.6108  15.1911  15.5061  18.8728  20.8380

          k = 0.3333-0.1667 0.3333 (  3811 PWs)   bands (ev):

   -24.3484 -17.0019  -7.8225  -7.7180  -7.6591   1.1151   1.3882   1.4993
     9.8538  11.6903  13.2514  13.3971  14.7507  14.9072  20.0871  21.5936

          k = 0.2500-0.0833 0.2500 (  3810 PWs)   bands (ev):

   -24.3740 -16.9792  -7.7479  -7.7022  -7.6496   1.2913   1.4766   1.5840
     9.0782  11.8170  12.8724  13.0841  14.4350  14.4600  20.2784  22.6208

          k = 0.1667-0.0000 0.1667 (  3805 PWs)   bands (ev):

   -24.3949 -16.9606  -7.6892  -7.6813  -7.6474   1.4659   1.5628   1.6296
     8.4650  12.0656  12.5964  12.7438  14.2104  14.2243  19.5499  24.1822

          k = 0.0000 0.3333 0.0000 (  3807 PWs)   bands (ev):

   -24.3792 -16.9699  -7.7065  -7.7065  -7.6974   1.2786   1.6195   1.6195
     8.8830  11.5250  13.0975  13.0975  14.3094  14.3180  20.2756  23.6160

          k =-0.0833 0.4167-0.0833 (  3819 PWs)   bands (ev):

   -24.3605 -16.9817  -7.7720  -7.7295  -7.7138   1.1804   1.5725   1.5877
     9.4183  11.2534  13.4184  13.4609  14.4273  14.5284  20.8692  22.3242

          k =-0.1667 0.5000-0.1667 (  3828 PWs)   bands (ev):

   -24.3376 -16.9973  -7.8531  -7.7441  -7.7367   1.1107   1.4746   1.5216
    10.1308  11.1569  13.6190  13.7976  14.7572  14.9422  20.0563  21.6739

          k =-0.2500 0.5833-0.2500 (  3818 PWs)   bands (ev):

   -24.3167 -17.0127  -7.9230  -7.7648  -7.7465   1.0657   1.3767   1.4400
    10.7356  11.3769  13.6418  14.0220  15.3617  15.4762  18.6111  20.7460

          k = 0.6667-0.3333 0.6667 (  3832 PWs)   bands (ev):

   -24.3035 -17.0235  -7.9636  -7.7904  -7.7359   1.0236   1.3376   1.3648
    10.9612  11.8816  13.6101  14.1330  15.8074  16.0576  17.5534  20.3180

          k = 0.5833-0.2500 0.5833 (  3822 PWs)   bands (ev):

   -24.3015 -17.0269  -7.9644  -7.8065  -7.7153   0.9868   1.3151   1.3730
    11.0155  12.0488  13.5822  14.1161  15.6530  16.4004  17.3852  19.7999

          k = 0.5000-0.1667 0.5000 (  3817 PWs)   bands (ev):

   -24.3115 -17.0219  -7.9250  -7.8089  -7.6900   0.9871   1.3032   1.4493
    10.8746  11.7795  13.5389  13.9260  15.2344  16.1265  18.0787  19.9765

          k = 0.4167-0.0833 0.4167 (  3813 PWs)   bands (ev):

   -24.3305 -17.0100  -7.8556  -7.7973  -7.6668   1.0423   1.3322   1.5289
    10.3758  11.5652  13.5020  13.5634  14.8749  15.4684  19.3426  20.5140

          k = 0.3333 0.0000 0.3333 (  3811 PWs)   bands (ev):

   -24.3534 -16.9943  -7.7768  -7.7722  -7.6519   1.1504   1.3952   1.5804
     9.6813  11.6125  13.1641  13.3788  14.6228  14.8401  20.6638  20.9472

          k = 0.0000 0.5000 0.0000 (  3831 PWs)   bands (ev):

   -24.3471 -16.9824  -7.8150  -7.7624  -7.7624   1.1507   1.6020   1.6020
     9.7756  10.8783  13.8571  13.8571  14.3303  14.6062  21.5721  22.0946

          k =-0.0833 0.5833-0.0833 (  3829 PWs)   bands (ev):

   -24.3290 -16.9875  -7.9043  -7.7894  -7.7855   1.1543   1.5603   1.5757
    10.3499  10.6778  13.9576  14.2197  14.6171  14.8932  20.2989  21.3252

          k =-0.1667 0.6667-0.1667 (  3829 PWs)   bands (ev):

   -24.3110 -16.9956  -7.9844  -7.8196  -7.7929   1.1848   1.4688   1.5172
    10.6531  11.0780  13.6906  14.4180  15.3461  15.3762  18.7085  20.5803

          k = 0.7500-0.2500 0.7500 (  3830 PWs)   bands (ev):

   -24.2979 -17.0044  -8.0311  -7.8486  -7.7828   1.1975   1.3945   1.4430
    10.8192  11.7226  13.4201  14.5264  15.6967  16.2102  17.4562  20.2200

          k = 0.6667-0.1667 0.6667 (  3834 PWs)   bands (ev):

   -24.2934 -17.0118  -8.0320  -7.8685  -7.7576   1.1309   1.3726   1.4178
    11.0407  11.9884  13.3294  14.5492  15.5795  16.6053  17.2230  19.3845

          k = 0.5833-0.0833 0.5833 (  3826 PWs)   bands (ev):

   -24.2987 -17.0156  -7.9874  -7.8732  -7.7239   1.0548   1.3239   1.4775
    11.1402  11.8106  13.3573  14.3944  15.2373  16.5604  17.6429  19.1754

          k = 0.5000 0.0000 0.5000 (  3803 PWs)   bands (ev):

   -24.3123 -17.0150  -7.9124  -7.8577  -7.6906   1.0207   1.3090   1.5212
    10.9028  11.5838  13.4284  13.9998  15.0120  16.1912  18.2199  19.7949

          k = 0.0000 0.6667 0.0000 (  3856 PWs)   bands (ev):

   -24.3162 -16.9814  -7.9990  -7.8183  -7.8183   1.2150   1.5946   1.5946
    10.3513  10.7595  14.0999  14.7231  14.7231  14.9211  19.9380  20.7881

          k =-0.0833 0.7500-0.0833 (  3835 PWs)   bands (ev):

   -24.3028 -16.9806  -8.0849  -7.8439  -7.8341   1.2877   1.5578   1.5739
    10.2505  11.3147  13.7794  14.8914  15.3257  15.3488  18.7069  20.2228

          k = 0.8333-0.1667 0.8333 (  3830 PWs)   bands (ev):

   -24.2923 -16.9854  -8.1312  -7.8689  -7.8289   1.3503   1.4698   1.5202
    10.3821  11.9240  13.3238  14.9684  15.6231  16.2125  17.5223  19.8090

          k = 0.7500-0.0833 0.7500 (  3832 PWs)   bands (ev):

   -24.2876 -16.9944  -8.1251  -7.8877  -7.8039   1.2972   1.4483   1.4492
    10.6902  12.3273  12.9884  15.0403  15.4956  16.6892  17.2209  19.0838

          k = 0.6667-0.0000 0.6667 (  3833 PWs)   bands (ev):

   -24.2900 -17.0055  -8.0696  -7.8928  -7.7656   1.1670   1.3769   1.4766
    11.0348  12.0811  13.1600  14.9038  15.2346  16.4169  18.2447  18.2591

          k = 0.0000 0.8333 0.0000 (  3836 PWs)   bands (ev):

   -24.2945 -16.9718  -8.1714  -7.8592  -7.8592   1.3705   1.5952   1.5952
    10.0156  11.6643  13.7773  15.1725  15.4990  15.4990  18.3145  19.7923

          k = 0.9167-0.0833 0.9167 (  3841 PWs)   bands (ev):

   -24.2882 -16.9714  -8.2117  -7.8736  -7.8621   1.4281   1.5575   1.5762
    10.0295  12.0643  13.4720  15.2335  15.7197  16.0049  17.6242  19.4801

          k = 0.8333 0.0000 0.8333 (  3835 PWs)   bands (ev):

   -24.2857 -16.9797  -8.1943  -7.8852  -7.8420   1.4501   1.4549   1.5225
    10.2815  12.4730  12.9669  15.2822  15.5951  16.7182  17.0308  19.1925

          k = 0.0000-1.0000 0.0000 (  3860 PWs)   bands (ev):

   -24.2867 -16.9663  -8.2417  -7.8742  -7.8742   1.4494   1.5966   1.5966
     9.9009  12.0870  13.6256  15.2697  15.8485  15.8485  17.6514  19.3795

          k =-0.1667 0.3333 0.0000 (  3822 PWs)   bands (ev):

   -24.3721 -16.9778  -7.7376  -7.7241  -7.6658   1.2528   1.5244   1.6076
     9.1088  11.6002  13.0451  13.1827  14.4090  14.4466  20.4386  22.5284

          k =-0.2500 0.4167-0.0833 (  3810 PWs)   bands (ev):

   -24.3492 -16.9952  -7.8079  -7.7531  -7.6756   1.1315   1.4300   1.5598
     9.7979  11.4399  13.3722  13.4757  14.6394  14.8542  20.4607  21.2545

          k =-0.3333 0.5000-0.1667 (  3821 PWs)   bands (ev):

   -24.3260 -17.0127  -7.8828  -7.7717  -7.6908   1.0388   1.3497   1.4780
    10.5045  11.4961  13.5640  13.7633  15.0099  15.4640  19.0864  20.7270

          k = 0.5833-0.4167 0.7500 (  3821 PWs)   bands (ev):

   -24.3089 -17.0256  -7.9374  -7.7822  -7.7049   0.9814   1.3114   1.3919
    10.8933  11.8599  13.6183  13.9895  15.5023  16.0409  17.9068  20.1414

          k = 0.5000-0.3333 0.6667 (  3824 PWs)   bands (ev):

   -24.3027 -17.0304  -7.9573  -7.7853  -7.7107   0.9618   1.3197   1.3376
    10.9812  12.1073  13.6431  14.0637  15.7883  16.2668  17.4148  20.0309

          k =-0.1667 0.5000 0.0000 (  3821 PWs)   bands (ev):

   -24.3421 -16.9899  -7.8295  -7.7826  -7.7273   1.1327   1.5091   1.5876
     9.9652  11.0175  13.6969  13.8058  14.5443  14.8313  20.8134  21.0665

          k =-0.2500 0.5833-0.0833 (  3831 PWs)   bands (ev):

   -24.3218 -17.0002  -7.9060  -7.8241  -7.7361   1.1179   1.4212   1.5436
    10.6243  10.9942  13.6548  14.1554  14.8703  15.4196  19.2328  20.5988

          k = 0.6667-0.3333 0.8333 (  3824 PWs)   bands (ev):

   -24.3051 -17.0098  -7.9682  -7.8537  -7.7401   1.1152   1.3590   1.4692
    10.9468  11.4488  13.5011  14.3550  15.3843  16.0722  17.9090  20.0164

          k = 0.5833-0.2500 0.7500 (  3826 PWs)   bands (ev):

   -24.2965 -17.0162  -7.9948  -7.8718  -7.7351   1.0901   1.3642   1.3955
    11.0939  11.8503  13.4246  14.4292  15.6566  16.6134  17.1144  19.7068

          k = 0.5000-0.1667 0.6667 (  3830 PWs)   bands (ev):

   -24.2985 -17.0176  -7.9778  -7.8757  -7.7212   1.0575   1.3336   1.4350
    11.1369  11.7979  13.4188  14.3817  15.4545  16.5655  17.3805  19.4719

          k = 0.4167-0.0833 0.5833 (  3823 PWs)   bands (ev):

   -24.3104 -17.0136  -7.9211  -7.8643  -7.7025   1.0467   1.3230   1.5061
    10.9578  11.4681  13.4585  14.1541  15.0741  16.1570  18.1570  19.8527

          k = 0.3333 0.0000 0.5000 (  3826 PWs)   bands (ev):

   -24.3289 -17.0054  -7.8412  -7.8376  -7.6855   1.0699   1.3595   1.5542
    10.4167  11.3403  13.5305  13.7616  14.8074  15.4555  19.4218  20.4577

          k =-0.1667 0.6667-0.0000 (  3823 PWs)   bands (ev):

   -24.3133 -16.9885  -7.9896  -7.8410  -7.7882   1.2022   1.5061   1.5780
    10.5269  10.9091  13.7899  14.6879  14.8070  15.3672  19.1932  20.4380

          k = 0.7500-0.2500 0.9167 (  3826 PWs)   bands (ev):

   -24.2993 -16.9926  -8.0542  -7.8845  -7.7833   1.2561   1.4291   1.5386
    10.5974  11.5268  13.4327  14.8291  15.3240  16.0430  17.9557  19.7868

          k = 0.6667-0.1667 0.8333 (  3827 PWs)   bands (ev):

   -24.2907 -16.9988  -8.0775  -7.9148  -7.7698   1.2431   1.4132   1.4695
    10.8409  11.9655  13.1552  14.8904  15.5774  16.8154  17.0103  19.3273

          k = 0.5833-0.0833 0.7500 (  3827 PWs)   bands (ev):

   -24.2900 -17.0055  -8.0523  -7.9273  -7.7485   1.1643   1.3921   1.4640
    11.1348  11.8972  13.1827  14.8944  15.3688  16.5340  17.6530  18.7582

          k = 0.5000 0.0000 0.6667 (  3824 PWs)   bands (ev):

   -24.2971 -17.0110  -7.9867  -7.9175  -7.7239   1.0919   1.3383   1.5010
    11.2539  11.5939  13.2921  14.6390  15.1431  16.5660  17.7167  19.0293

          k = 0.8333-0.1667 1.0000 (  3836 PWs)   bands (ev):

   -24.2931 -16.9786  -8.1508  -7.8838  -7.8274   1.3642   1.5081   1.5772
    10.2103  11.8058  13.4655  15.1449  15.4862  15.9405  17.8940  19.5624

          k = 0.7500-0.0833 0.9167 (  3834 PWs)   bands (ev):

   -24.2869 -16.9830  -8.1672  -7.9170  -7.8074   1.3872   1.4488   1.5389
    10.4060  12.3053  12.9771  15.2157  15.6763  16.6259  17.1401  19.0957

          k = 0.6667 0.0000 0.8333 (  3827 PWs)   bands (ev):

   -24.2857 -16.9929  -8.1298  -7.9340  -7.7795   1.2834   1.4665   1.4691
    10.7714  12.3216  12.8729  15.2432  15.4429  16.6308  17.4687  18.6587

          k =-0.1667-1.0000-0.0000 (  3846 PWs)   bands (ev):

   -24.2859 -16.9730  -8.2177  -7.8994  -7.8412   1.4522   1.5036   1.5781
    10.1017  12.2839  13.2179  15.2734  15.8505  16.2309  17.3409  19.1663

          k = 0.6667-0.3333 1.0000 (  3825 PWs)   bands (ev):

   -24.3059 -17.0029  -7.9597  -7.9029  -7.7349   1.1455   1.3689   1.5395
    10.9967  11.1886  13.4348  14.6211  14.9892  16.1203  18.1638  19.7713

          k = 0.5833-0.2500 0.9167 (  3831 PWs)   bands (ev):

   -24.2942 -17.0048  -8.0038  -7.9543  -7.7351   1.1618   1.3716   1.4964
    11.1708  11.5720  13.2362  14.8534  15.3220  16.6119  17.4545  19.1478

          k = 0.5000-0.1667 0.8333 (  3834 PWs)   bands (ev):

   -24.2900 -17.0055  -8.0215  -7.9712  -7.7354   1.1617   1.4179   1.4408
    11.3078  11.6498  13.1998  14.8889  15.4897  16.8058  17.1911  18.9970

          k = 0.6667-0.1667 1.0000 (  3831 PWs)   bands (ev):

   -24.2900 -16.9922  -8.0935  -7.9505  -7.7647   1.2796   1.4152   1.5353
    10.7492  11.9079  13.0734  15.1774  15.4539  16.5891  17.3858  18.9913

          k = 0.5833-0.0833 0.9167 (  3822 PWs)   bands (ev):

   -24.2855 -16.9946  -8.0893  -7.9969  -7.7485   1.2387   1.4588   1.4943
    11.0718  11.8752  12.9766  15.1662  15.6383  16.7374  17.4356  18.4625

          k = 0.5000 0.0000 0.8333 (  3825 PWs)   bands (ev):

   -24.2871 -16.9992  -8.0407  -8.0139  -7.7380   1.1970   1.4290   1.4934
    11.4253  11.5106  13.0801  15.1763  15.4235  16.5798  17.8794  18.2559

          k =-0.3333-1.0000 0.0000 (  3808 PWs)   bands (ev):

   -24.2844 -16.9864  -8.1517  -7.9679  -7.7742   1.3213   1.4643   1.5351
    10.6613  12.3816  12.7167  15.2189  15.8547  16.9039  17.0019  18.6042

          k =-0.5000-1.0000 0.0000 (  3828 PWs)   bands (ev):

   -24.2836 -16.9930  -8.0604  -8.0604  -7.7403   1.2317   1.4921   1.4921
    11.4696  11.4696  12.9662  15.1362  15.8567  16.7493  17.8394  17.8394

     the Fermi energy is     7.2361 ev

!    total energy              =    -104.83207307 Ry
     estimated scf accuracy    <          7.8E-11 Ry
     smearing contrib. (-TS)   =      -0.00000000 Ry
     internal energy E=F+TS    =    -104.83207307 Ry

     The total energy is F=E-TS. E is the sum of the following terms:
     one-electron contribution =     -41.84639991 Ry
     hartree contribution      =      28.17410602 Ry
     xc contribution           =     -18.06151887 Ry
     ewald contribution        =     -73.09826030 Ry

     convergence has been achieved in   8 iterations

     Writing all to output data dir out/mp-463.save/
 
     init_run     :      0.31s CPU      0.42s WALL (       1 calls)
     electrons    :      4.77s CPU      5.39s WALL (       1 calls)

     Called by init_run:
     wfcinit      :      0.27s CPU      0.33s WALL (       1 calls)
     potinit      :      0.01s CPU      0.01s WALL (       1 calls)
     hinit0       :      0.02s CPU      0.04s WALL (       1 calls)

     Called by electrons:
     c_bands      :      4.06s CPU      4.46s WALL (       9 calls)
     sum_band     :      0.65s CPU      0.74s WALL (       9 calls)
     v_of_rho     :      0.04s CPU      0.04s WALL (       9 calls)
     mix_rho      :      0.02s CPU      0.02s WALL (       9 calls)

     Called by c_bands:
     init_us_2    :      0.06s CPU      0.07s WALL (     684 calls)
     init_us_2:cp :      0.06s CPU      0.07s WALL (     684 calls)
     cegterg      :      3.67s CPU      3.83s WALL (     324 calls)

     Called by *egterg:
     cdiaghg      :      0.37s CPU      0.39s WALL (    1318 calls)
     h_psi        :      3.24s CPU      3.40s WALL (    1390 calls)
     g_psi        :      0.02s CPU      0.02s WALL (    1030 calls)

     Called by h_psi:
     h_psi:calbec :      0.08s CPU      0.08s WALL (    1390 calls)
     vloc_psi     :      3.10s CPU      3.25s WALL (    1390 calls)
     add_vuspsi   :      0.05s CPU      0.05s WALL (    1390 calls)

     General routines
     calbec       :      0.07s CPU      0.08s WALL (    1390 calls)
     fft          :      0.02s CPU      0.04s WALL (      90 calls)
     ffts         :      0.00s CPU      0.00s WALL (       9 calls)
     fftw         :      3.37s CPU      3.53s WALL (   35994 calls)
     davcio       :      0.05s CPU      0.31s WALL (    1112 calls)
 
     Parallel routines
 
     PWSCF        :      5.18s CPU      6.60s WALL

 
   This run was terminated on:   2:27: 9  20Nov2023            

=------------------------------------------------------------------------------=
   JOB DONE.
=------------------------------------------------------------------------------=
