
     Program PWSCF v.7.1 starts on 19Nov2023 at 17:10:53 

     This program is part of the open-source Quantum ESPRESSO suite
     for quantum simulation of materials; please cite
         "P. Giannozzi et al., J. Phys.:Condens. Matter 21 395502 (2009);
         "P. Giannozzi et al., J. Phys.:Condens. Matter 29 465901 (2017);
         "P. Giannozzi et al., J. Chem. Phys. 152 154105 (2020);
          URL http://www.quantum-espresso.org", 
     in publications or presentations arising from this work. More details at
     http://www.quantum-espresso.org/quote

     Parallel version (MPI), running on    24 processors

     MPI processes distributed on     1 nodes
     123575 MiB available memory on the printing compute node when the environment starts
 
     Reading input from pw_mp-463_nscf_k260_E93.in
Warning: card &IONS ignored
Warning: card / ignored
Warning: card &CELL ignored
Warning: card / ignored

     Current dimensions of program PWSCF are:
     Max number of different atomic species (ntypx) = 10
     Max number of k-points (npk) =  40000
     Max angular momentum in pseudopotentials (lmaxx) =  4

     Atomic positions and unit cell read from directory:
     out/mp-463.save/
     Atomic positions from file used, from input discarded
 
 
     K-points division:     npool     =       2
     R & G space division:  proc/nbgrp/npool/nimage =      12
     Subspace diagonalization in iterative solution of the eigenvalue problem:
     one sub-group per band group will be used
     scalapack distributed-memory algorithm (size of sub-group:  3*  3 procs)

 
     Parallelization info
     --------------------
     sticks:   dense  smooth     PW     G-vecs:    dense   smooth      PW
     Min         107     107     31                 2560     2560     408
     Max         108     108     32                 2565     2565     410
     Sum        1285    1285    379                30731    30731    4909
 
     Using Slab Decomposition
 


     bravais-lattice index     =            2
     lattice parameter (alat)  =      10.0322  a.u.
     unit-cell volume          =     252.4249 (a.u.)^3
     number of atoms/cell      =            2
     number of atomic types    =            2
     number of electrons       =        16.00
     number of Kohn-Sham states=         1200
     kinetic-energy cutoff     =      93.0000  Ry
     charge density cutoff     =     372.0000  Ry
     Exchange-correlation= PBE
                           (   1   4   3   4   0   0   0)

     celldm(1)=  10.032228  celldm(2)=   0.000000  celldm(3)=   0.000000
     celldm(4)=   0.000000  celldm(5)=   0.000000  celldm(6)=   0.000000

     crystal axes: (cart. coord. in units of alat)
               a(1) = (  -0.500000   0.000000   0.500000 )  
               a(2) = (   0.000000   0.500000   0.500000 )  
               a(3) = (  -0.500000   0.500000   0.000000 )  

     reciprocal axes: (cart. coord. in units 2 pi/alat)
               b(1) = ( -1.000000 -1.000000  1.000000 )  
               b(2) = (  1.000000  1.000000  1.000000 )  
               b(3) = ( -1.000000  1.000000 -1.000000 )  


     PseudoPot. # 1 for F  read from file:
     /usr/scratch4/magr4985/MG/HTDF/pseudo/SG15/F.upf
     MD5 check sum: 1d8275f47d602dd53cad6bcdc0eda7dc
     Pseudo is Norm-conserving, Zval =  7.0
     Generated using ONCVPSP code by D. R. Hamann
     Using radial grid of  602 points,  4 beta functions with: 
                l(1) =   0
                l(2) =   0
                l(3) =   1
                l(4) =   1

     PseudoPot. # 2 for K  read from file:
     /usr/scratch4/magr4985/MG/HTDF/pseudo/SG15/K.upf
     MD5 check sum: 254690d02b26e0029262a4c77e854448
     Pseudo is Norm-conserving, Zval =  9.0
     Generated using ONCVPSP code by D. R. Hamann
     Using radial grid of  602 points,  6 beta functions with: 
                l(1) =   0
                l(2) =   0
                l(3) =   1
                l(4) =   1
                l(5) =   2
                l(6) =   2

     atomic species   valence    mass     pseudopotential
        F              7.00    18.99840     F ( 1.00)
        K              9.00    39.09830     K ( 1.00)

     48 Sym. Ops., with inversion, found



   Cartesian axes

     site n.     atom                  positions (alat units)
         1           K   tau(   1) = (   0.0000000   0.0000000   0.0000000  )
         2           F   tau(   2) = (  -0.5000000   0.5000000   0.5000000  )

     number of k points=    16  Gaussian smearing, width (Ry)=  0.0005
                       cart. coord. in units 2pi/alat
        k(    1) = (   0.0000000   0.0000000   0.0000000), wk =   0.0092593
        k(    2) = (  -0.1666667   0.1666667  -0.1666667), wk =   0.0740741
        k(    3) = (  -0.3333333   0.3333333  -0.3333333), wk =   0.0740741
        k(    4) = (   0.5000000  -0.5000000   0.5000000), wk =   0.0370370
        k(    5) = (   0.0000000   0.3333333   0.0000000), wk =   0.0555556
        k(    6) = (  -0.1666667   0.5000000  -0.1666667), wk =   0.2222222
        k(    7) = (   0.6666667  -0.3333333   0.6666667), wk =   0.2222222
        k(    8) = (   0.5000000  -0.1666667   0.5000000), wk =   0.2222222
        k(    9) = (   0.3333333   0.0000000   0.3333333), wk =   0.1111111
        k(   10) = (   0.0000000   0.6666667   0.0000000), wk =   0.0555556
        k(   11) = (   0.8333333  -0.1666667   0.8333333), wk =   0.2222222
        k(   12) = (   0.6666667  -0.0000000   0.6666667), wk =   0.1111111
        k(   13) = (   0.0000000  -1.0000000   0.0000000), wk =   0.0277778
        k(   14) = (   0.6666667  -0.3333333   1.0000000), wk =   0.2222222
        k(   15) = (   0.5000000  -0.1666667   0.8333333), wk =   0.2222222
        k(   16) = (  -0.3333333  -1.0000000   0.0000000), wk =   0.1111111

     Dense  grid:    30731 G-vectors     FFT dimensions: (  45,  45,  45)

     Estimated max dynamical RAM per process >     109.66 MB

     Estimated total dynamical RAM >       2.57 GB

     The potential is recalculated from file :
     out/mp-463.save/charge-density

     Starting wfcs are random

     Band Structure Calculation
     Davidson diagonalization with overlap

     ethr =  5.00E-06,  avg # of iterations = 13.3

     total cpu time spent up to now is      702.8 secs

     End of band structure calculation

          k = 0.0000 0.0000 0.0000 (  3839 PWs)   bands (ev):

   -24.4125 -16.9445  -7.6508  -7.6508  -7.6508   1.6481   1.6481   1.6481
     7.9545  12.3974  12.3974  12.3974  14.0515  14.0515  18.7155  26.2002
    26.2002  26.2002  26.3145  26.3145  26.3145  28.8195  28.8195  28.8195
    30.6495  30.6495  34.9441  40.6433  40.6433  40.6433  42.3626  43.8594
    43.8594  46.2010  46.2010  46.2010  54.5764  54.5764  54.5764  55.0649
    55.0649  55.0649  55.6926  56.5729  56.5729  56.5729  57.7560  57.7560
    57.7560  58.6269  58.6269  58.6269  60.9238  60.9238  60.9238  60.9575
    60.9575  62.1300  62.1517  64.2857  64.2857  69.1495  69.1495  69.1495
    71.9303  71.9303  71.9303  80.0095  80.6007  80.6007  80.6007  86.2200
    86.2200  89.7126  89.7126  89.7126  92.6927  92.6927  92.6927  94.8892
    96.3895  96.3895  96.3895  96.8825  97.8794  97.8794  99.5511  99.5511
    99.5511 100.7024 100.7024 100.7024 101.8047 101.8047 101.8047 101.9616
   101.9616 101.9616 102.1531 102.1531 102.4562 102.4562 102.4562 103.1504
   103.4337 103.4337 103.4337 105.1521 105.1521 106.0506 106.0506 106.0506
   106.7630 111.2827 111.2827 113.0840 113.0840 113.0840 114.5618 114.5618
   114.5618 119.6996 121.4726 121.4726 121.4726 124.6040 125.1925 125.1925
   125.1925 125.4794 125.4794 125.6890 125.6890 125.6890 125.7506 125.7506
   125.7506 125.7952 125.7952 125.7952 126.1805 126.1805 130.0489 130.0489
   130.0489 135.9678 136.6103 136.6103 136.6103 139.5265 140.6394 140.6394
   140.6394 140.9884 140.9884 140.9884 141.6657 141.6657 141.6657 141.7507
   141.7507 141.7507 141.8237 145.6624 145.6722 145.6722 145.6722 145.6899
   145.6899 148.1765 148.1765 148.1765 149.4895 149.4895 152.8279 152.8279
   152.8279 163.6071 163.6071 163.6071 163.7455 163.7455 163.7455 168.5007
   168.5007 168.6068 168.6068 168.6068 168.8978 175.4228 175.4228 175.9293
   175.9293 175.9293 178.1029 178.1029 178.1029 178.1815 178.1815 178.1815
   179.3169 179.3169 179.3169 180.1957 180.1957 180.1957 180.5534 180.9279
   180.9279 181.8723 181.8723 181.8723 182.2018 182.6429 183.5154 183.5154
   183.5154 183.9895 183.9895 184.0193 184.0193 184.0193 184.8969 185.1068
   185.1068 185.1068 185.2518 185.2518 185.2518 185.5181 186.7484 186.7484
   186.7484 187.0930 187.0930 187.2032 187.2032 187.2032 187.8859 187.8859
   187.8859 188.3429 189.8735 189.8735 189.8735 189.9673 189.9673 190.0059
   190.0059 190.0059 190.5505 190.5505 190.5505 190.7307 190.7307 190.7709
   190.7709 190.7709 191.4795 199.6634 199.6634 201.2048 201.2048 201.2048
   203.0398 203.0398 203.0398 207.1640 207.1640 207.1640 207.5624 207.5624
   207.5624 207.7435 207.7435 207.7435 209.8991 212.0706 212.0706 212.1572
   212.1572 212.1572 212.1704 212.1704 212.1704 212.2986 215.4567 215.4567
   215.4567 220.2207 220.2207 220.4123 224.6444 225.8534 225.8534 225.8534
   225.9276 225.9276 225.9276 226.2856 226.2856 226.2856 226.2979 226.2979
   226.3973 226.3973 226.3973 227.0980 227.0980 227.0980 227.9178 227.9178
   227.9178 229.8477 229.8477 230.2105 231.2869 231.2869 231.2869 231.3336
   231.3336 231.3336 231.3563 231.3563 231.3563 231.4337 231.4337 231.5615
   231.5615 231.5615 233.7695 238.0175 238.0175 241.4144 241.4144 241.4144
   242.9997 242.9997 242.9997 250.8320 251.1720 251.1720 251.1720 252.6443
   252.6443 252.6443 252.7208 258.7165 259.0465 259.0465 259.9069 259.9069
   259.9069 260.6853 260.6853 260.6853 262.7042 262.7042 262.7042 264.2549
   266.4195 266.4195 266.4195 267.2961 267.2961 267.8982 267.8982 267.8982
   268.4662 268.4662 268.4662 268.5105 268.5105 268.5105 268.7619 268.7619
   268.7619 269.7912 269.7912 269.7912 270.6470 270.6470 270.6470 270.7173
   271.0385 271.0385 271.0385 271.1761 271.1761 271.1779 271.1779 271.1779
   272.8839 272.8839 273.5671 273.5852 273.5852 273.5852 273.6377 273.6377
   273.6377 273.6464 273.6464 273.7617 273.7617 273.7617 273.9675 273.9675
   273.9675 274.1092 274.6580 284.0339 284.0339 284.0339 286.0383 286.0383
   286.0383 288.3331 288.3331 289.3908 292.3164 292.3164 292.3164 292.3756
   292.3756 292.3756 292.5157 292.5157 292.6806 292.6806 292.6806 292.9610
   292.9610 292.9610 293.4318 294.1071 294.1071 294.1071 296.1555 296.1555
   296.2516 296.2516 296.2867 296.2867 296.2867 296.4183 296.4183 296.4183
   296.4804 296.4804 296.4804 296.5370 296.5370 296.5370 296.7160 296.7160
   296.7160 297.6386 297.7647 297.7647 297.7647 297.8870 297.8870 297.8870
   297.9377 297.9377 298.0058 303.9855 303.9855 303.9855 304.4535 304.7794
   304.7794 304.7794 305.6337 305.6337 305.6337 307.0766 307.0766 307.0766
   307.3371 307.7913 307.7913 307.7913 308.1341 308.1341 308.4375 308.4375
   308.4375 308.7404 309.1950 311.8369 311.8369 312.0158 312.0158 312.0158
   312.3236 312.3236 312.3236 312.4341 312.4341 312.4341 312.5193 312.5193
   312.5789 312.5789 312.5789 312.9815 313.3089 313.3089 313.3089 313.4160
   313.4160 314.6310 314.6310 314.6310 314.6442 314.6442 314.6442 314.8084
   314.8084 314.8084 314.8224 314.8224 314.8224 315.8529 315.8529 315.8851
   315.8851 315.8851 315.8991 322.7252 322.7252 325.3169 325.3169 325.3169
   333.6352 342.7066 342.7066 342.7066 343.0952 343.0952 343.0952 347.6315
   347.6315 350.3104 350.3104 350.3104 351.8526 351.8526 351.8526 352.0158
   352.0158 352.3098 352.3947 352.5253 352.5253 352.5253 352.5660 352.5660
   352.5660 352.6955 352.6955 352.6955 352.8320 352.8320 352.8320 352.8721
   352.8721 352.9092 353.9113 353.9113 353.9113 354.9259 356.2831 356.2831
   356.2831 356.4936 356.4936 356.4936 356.5516 356.5516 356.5516 356.8515
   356.8515 356.8515 358.5667 360.3901 360.3901 360.3901 360.4131 360.4131
   360.4136 360.4136 360.4452 360.4452 360.4452 360.4527 360.4527 360.4527
   360.5391 360.5391 360.5391 361.3988 361.3988 361.4789 361.4789 361.4789
   361.5458 371.3537 371.3537 371.3537 372.7925 372.7925 372.7925 373.5190
   373.5190 376.2948 376.2948 376.2948 376.4376 376.4376 376.4376 376.9448
   379.7782 379.7782 379.8999 379.9216 379.9216 379.9216 380.0706 380.0706
   380.0922 380.0922 380.0922 380.1924 380.1924 380.1924 380.2115 380.2115
   380.2115 380.2819 380.2819 380.2819 381.5487 382.0574 382.0574 382.0574
   383.2622 383.2622 383.2622 384.7935 384.7935 387.0311 387.0311 387.0311
   391.4558 392.9253 392.9253 393.6855 393.6855 393.6855 393.9313 393.9313
   393.9313 393.9472 393.9472 393.9472 393.9597 393.9597 393.9597 393.9782
   394.0349 394.5970 394.5970 394.5970 395.6307 396.7548 396.7548 396.7617
   396.7617 396.7617 396.8439 396.8439 396.8439 396.8778 396.8778 396.8778
   397.1922 398.5673 398.5673 398.5673 399.6127 399.6127 399.6127 400.3110
   400.3110 400.3110 400.3305 400.3305 400.3543 400.3543 400.3543 400.4497
   400.4497 400.4497 400.5350 400.6811 400.6811 401.1357 401.1357 401.1357
   401.7998 402.1820 402.1820 402.1820 402.4267 402.4267 402.4267 402.6031
   402.6031 402.6122 402.6122 402.6122 402.7478 413.7776 413.7776 413.7776
   417.0934 417.0934 418.7182 418.7182 419.0882 419.0882 419.0882 420.2472
   420.2472 420.2472 420.4684 420.4684 420.4684 420.7671 420.7671 420.7671
   421.2768 421.2768 421.3847 421.3847 421.3847 421.5327 421.5878 421.5878
   421.5878 422.2579 426.4370 429.4151 429.4151 429.4151 430.7583 430.7583
   430.7583 432.9787 435.1202 435.1780 435.1780 435.8542 435.8542 435.8542
   435.9091 435.9091 435.9091 436.1216 436.1216 436.1216 436.1964 436.1964
   436.1964 436.2850 436.2850 438.2659 438.2659 438.2659 439.1286 439.1286
   439.1286 439.1682 439.1682 439.1682 439.2036 439.2036 439.2036 439.3351
   439.3351 439.3351 439.6375 439.6375 439.6375 439.6597 439.6597 439.7146
   439.7146 439.7146 439.7750 439.7750 439.9054 439.9054 439.9054 439.9877
   439.9877 439.9877 439.9991 439.9991 439.9991 440.8765 441.3161 441.3477
   441.3477 441.3477 441.3887 441.3887 441.3887 441.4470 441.6799 441.6799
   442.3071 442.3071 442.3071 442.4030 442.4030 442.4030 442.4300 442.4300
   442.5062 442.5062 442.5062 442.5706 442.5706 442.5706 444.2430 444.3522
   444.3947 444.3947 444.3947 444.3968 444.3968 446.2269 446.2269 446.2367
   446.2367 446.2367 446.2512 446.2512 446.2512 446.2514 446.2514 446.2514
   446.3087 446.3087 446.3195 446.3195 446.3195 446.4845 446.5997 446.5997
   446.5997 446.7098 446.7098 446.7098 446.8109 457.9054 457.9054 457.9054
   458.7649 458.7649 458.7649 459.7244 461.2875 466.7497 466.7497 466.7497
   466.8793 466.8793 466.9271 466.9271 466.9271 466.9307 466.9307 466.9307
   466.9640 466.9640 466.9696 466.9696 466.9696 469.1271 469.1271 469.1271
   470.4457 470.4457 474.6311 474.6311 474.6311 475.4006 475.4876 475.4876
   475.4876 475.6891 475.6891 475.6891 475.8161 475.8161 475.8161 478.9559
   478.9559 479.0184 479.0184 479.0184 479.1231 483.2400 483.2827 483.2827
   483.2827 483.3131 483.3131 485.2376 485.2376 485.2376 485.2666 485.2666
   485.2666 485.2932 485.2932 485.2932 485.2958 485.2958 485.2958 486.4994
   486.4994 486.5462 486.5462 486.5462 486.5701 500.8525 500.8525 500.8525
   505.4763 505.4763 505.4763 506.1665 506.1665 506.7852 507.1729 507.1729
   507.1729 507.1879 507.1879 507.1879 507.2204 507.2204 507.2204 507.2722
   507.2722 507.2764 507.2764 507.2764 507.5998 509.3694 509.3694 509.3694
   512.8363 512.8363 512.8363 515.3971 515.3971 515.8597 515.8597 515.8597
   516.4613 516.4613 516.4613 516.6775 517.0693 517.5523 517.5523 517.5523
   519.1213 519.2889 519.2889 519.2889 519.3281 519.3281 521.9539 521.9539
   521.9539 522.3202 522.3202 522.3202 522.7286 522.7286 522.9866 522.9866
   522.9866 523.1733 523.2352 523.2352 523.2352 523.4118 523.4118 523.8405
   523.8405 523.8405 524.0120 524.0120 524.0120 524.2570 524.3989 524.4314
   524.4314 524.8145 524.8145 524.8145 524.8753 524.8753 524.8753 524.9553
   524.9553 524.9553 526.0523 526.0523 526.0523 526.1068 526.1068 526.1170
   526.1170 526.1170 526.2125 526.2125 526.2154 526.2154 526.2154 526.2510
   526.2510 526.2510 526.6790 527.2006 527.2217 527.2217 527.2217 527.2628
   527.2628 527.2754 527.2754 527.2754 527.2912 527.2912 527.2912 529.7439
   529.7439 529.7823 529.7823 529.7823 529.7835 529.7835 529.7835 529.8250
   529.8250 529.8250 529.8686 543.1374 543.1374 543.1374 544.6313 544.6313
   546.2462 546.9961 546.9961 546.9961 547.3105 547.3105 547.3105 547.9654
   548.1723 548.1723 548.1723 548.2715 548.2715 548.2715 548.3738 548.3738
   548.3738 548.4696 548.4696 548.5796 548.5796 548.5796 548.7424 548.7424
   548.7424 548.8928 548.8928 549.0789 549.0789 549.0789 549.2561 549.3361
   549.3361 549.3361 549.4198 549.4198 549.4198 552.1878 552.1878 552.2091
   552.2091 552.2091 552.2345 552.2377 552.2377 552.2377 552.2437 552.2437
   552.2437 552.3701 552.3701 552.4699 552.4699 552.4699 552.5241 552.5449
   552.5449 552.5449 552.5651 552.5651 552.5651 553.5869 553.5869 553.6442
   553.6442 553.6442 553.6852 556.2979 556.2979 556.2979 559.2749 559.2749
   559.2749 559.5718 559.5718 560.2099 560.2099 560.2099 561.3165 561.5879
   561.5879 561.5879 561.5936 561.5936 561.8129 561.8129 561.8129 562.0469
   562.0469 562.0469 562.2129 565.0425 565.4711 565.4711 565.4711 565.8163
   565.8163 565.8163 566.3455 566.3455 566.3848 566.3848 566.3848 566.8273
   566.8273 566.8273 566.8389 566.9536 566.9536 566.9536 567.0172 567.0172
   567.0173 567.0173 567.0173 570.1616 570.1616 570.1616 570.2723 570.2723
   570.2723 570.2955 570.2955 570.2974 570.3533 570.3533 570.3533 570.3672

          k =-0.1667 0.1667-0.1667 (  3801 PWs)   bands (ev):

   -24.3870 -16.9686  -7.7228  -7.6603  -7.6603   1.4120   1.5545   1.5545
     8.7057  12.0207  12.7578  12.7578  14.3069  14.3069  19.8474  23.7594
    24.6793  24.6793  25.6987  26.7688  26.7688  28.0769  28.0769  30.2199
    32.5356  32.5356  36.8262  38.7533  38.7533  41.0362  43.3869  44.3392
    45.0202  45.0202  47.2902  47.2902  50.7603  50.7603  51.1318  52.3590
    53.6091  53.6091  54.2153  55.4362  55.5798  55.5798  57.4559  58.5056
    58.5056  60.6072  60.6072  61.6314  61.6314  61.9043  62.8968  63.1085
    63.6652  63.6652  66.8250  67.7006  67.7006  69.4159  70.4572  70.4572
    71.1464  71.1464  72.4577  78.1356  81.0881  81.0881  82.2643  83.1255
    83.1255  87.8585  87.8585  89.1027  90.7846  91.7913  91.7913  92.2117
    92.6730  92.6730  93.3388  93.3388  94.9169  95.0392  95.0392  95.3486
    97.0908  98.9654  98.9654  99.8187 100.2003 100.2003 101.2452 102.4281
   102.4281 102.8863 102.9838 103.3893 103.3893 103.9876 105.5318 105.5318
   107.1327 107.6234 108.5737 108.5737 109.6350 110.6442 110.6442 111.5585
   111.5585 112.7393 112.7393 113.1982 113.1982 114.2125 114.2125 114.7127
   116.4197 116.7403 116.7403 117.4163 119.1764 119.8085 119.8085 121.2712
   123.5425 123.5425 123.7974 124.5934 124.5934 124.7581 126.8675 126.8675
   129.3524 129.9594 129.9594 130.0081 131.3201 131.3201 131.4895 132.4051
   132.8904 132.8904 133.3300 134.1662 134.7271 134.7271 137.5091 137.5091
   137.6782 139.4609 139.7396 139.7396 139.8723 139.8723 140.3892 145.0485
   145.1402 145.1402 148.7894 148.8324 148.8324 149.2767 149.2767 150.0836
   150.6074 150.6074 150.7011 151.7175 151.7175 153.6741 156.0981 156.0981
   157.0261 158.2663 158.2663 160.4111 163.3930 163.3930 163.9075 165.4626
   165.4626 166.4474 166.4474 166.5226 167.6792 169.1155 169.4286 169.4286
   170.4947 171.2866 171.2866 172.3360 172.6434 172.6434 172.9758 173.9103
   173.9103 174.1554 174.1554 175.5813 175.7773 175.7773 176.0591 178.9239
   178.9239 179.3175 180.0961 180.0961 180.7592 181.8749 182.2202 182.2202
   182.7109 182.7109 182.8938 183.0590 183.8729 183.8729 184.2449 184.7368
   185.1970 185.1970 185.4368 185.4368 187.0478 187.1626 187.1626 187.4652
   187.4652 187.4843 190.0561 190.0561 190.5081 190.8716 191.5312 191.5312
   191.6385 191.9342 191.9342 194.1195 194.1195 194.1488 194.5508 194.6925
   194.6925 195.1965 195.1965 195.6981 195.8358 196.7854 197.4424 198.2921
   198.2921 198.5125 198.5125 200.5887 200.5887 200.6044 201.6073 202.2948
   202.2948 202.4718 203.2660 203.2908 203.2908 203.8418 205.2668 205.2668
   207.6390 207.6390 208.3630 208.3630 209.0610 209.0610 209.7378 213.3788
   213.3788 213.9796 215.4894 215.8806 215.8806 216.3817 216.3817 216.6001
   216.6001 216.7651 216.7854 217.7032 219.6469 219.6469 221.0248 221.0861
   221.0861 221.2589 221.2589 221.5441 223.3373 223.3373 223.4468 224.4996
   224.6567 224.6567 225.2160 226.0753 226.0753 226.5943 228.1186 228.1186
   228.7359 231.5740 231.6077 231.6077 233.9392 234.2944 234.2944 234.9842
   234.9842 235.2746 235.7897 237.0503 238.2680 238.2680 239.4899 239.4899
   241.3778 242.1713 242.1713 242.4401 242.9618 242.9618 243.9088 244.7349
   244.9138 244.9138 246.5297 246.5297 247.1223 249.0527 249.5423 249.5423
   250.5827 250.5827 253.2858 254.0192 254.0192 254.0995 254.0995 254.9142
   255.9305 255.9305 256.2418 256.5443 256.5443 256.7137 257.1740 257.1740
   257.5831 257.8680 257.8680 259.3107 260.8554 260.8554 260.8706 262.6821
   262.7179 262.7179 263.6461 265.3444 265.3444 266.6065 266.6065 266.8163
   267.8382 269.6813 269.9315 269.9315 271.2651 271.4737 271.4737 271.6733
   271.9326 271.9326 271.9486 272.9911 272.9911 273.9441 273.9441 275.1982
   275.6291 275.6291 275.9191 275.9191 276.1056 276.1385 277.0092 277.0903
   277.8150 277.8150 278.6944 280.4757 280.4757 280.7202 280.7202 281.0731
   281.3981 281.3981 281.4057 281.7759 281.7759 281.9056 284.8796 285.3471
   285.3471 286.3000 286.3000 286.9860 287.3032 287.3032 287.5932 287.5932
   287.6150 288.0317 288.0317 288.2235 288.6608 289.0351 289.6454 289.6454
   289.9285 289.9285 289.9394 290.3901 290.3901 291.4326 291.4326 291.5329
   292.0770 292.3328 292.3328 293.4319 293.4830 293.4830 294.5280 294.5280
   295.4701 296.1426 296.1426 296.2597 296.7759 297.1273 297.1273 297.2882
   297.6711 297.6711 297.7024 298.0081 298.0081 298.9379 299.9874 299.9874
   300.2355 300.2355 300.2785 301.2242 301.4217 301.4217 302.2266 302.6392
   302.6392 304.1839 304.8088 304.8088 306.4284 306.8880 306.8880 307.0951
   307.5682 307.5682 307.5978 307.7747 307.7747 308.4342 309.2200 309.2200
   309.3160 310.0839 310.0839 311.0189 311.1624 311.1624 311.3285 312.4712
   312.4712 312.6370 313.3056 314.0659 314.0659 314.1614 315.0148 315.0148
   317.9495 317.9495 318.1075 318.1075 318.2655 319.5134 319.5747 319.5747
   319.9044 321.4607 321.4607 321.7866 322.0518 323.0452 323.0452 324.0564
   324.0933 324.0933 325.5268 325.5850 325.7417 325.7417 328.2481 328.9662
   328.9662 329.1244 331.6596 331.6596 332.5144 333.1331 333.1331 333.9949
   333.9949 334.2265 334.9559 334.9559 336.1956 336.1956 336.5094 336.5247
   336.5247 336.9430 336.9430 340.1897 340.1897 340.2845 340.7128 341.0120
   341.0120 341.0319 341.7585 342.8201 342.8201 343.5735 343.5735 344.9450
   346.9195 349.2089 349.3035 349.3035 350.0218 350.0218 350.2545 350.2545
   350.3385 350.4663 352.1054 352.1054 352.3063 353.5603 353.5603 354.1439
   355.0933 355.0933 356.2298 356.8260 356.8260 357.1103 359.4285 359.4285
   360.1088 360.6183 362.3421 362.3421 362.8899 362.8899 364.0814 364.0814
   365.1784 365.1784 365.2187 365.4040 365.9695 365.9759 365.9759 366.2851
   366.2851 366.5033 366.8320 367.5149 367.5149 368.6792 369.0903 369.4259
   369.6221 369.6221 370.5030 371.3703 371.3703 371.7053 371.8439 371.8439
   371.9536 372.4045 372.4045 372.6355 372.9231 372.9231 373.8637 374.1557
   374.1557 375.0862 375.0862 375.5877 375.7621 375.7621 376.0140 376.0140
   376.1252 376.7650 377.3579 377.7189 377.7189 377.9889 378.2757 378.2757
   378.2825 379.0937 379.0937 379.9284 379.9284 380.0042 383.1547 383.1547
   383.6969 383.6969 383.8325 385.5684 385.5684 385.6452 385.7048 387.2460
   387.2460 387.4047 387.8027 387.8027 388.0808 392.6943 392.9668 392.9668
   393.3491 393.3491 394.3063 394.3063 394.6320 394.6320 394.7773 394.7920
   395.4009 395.4149 395.4149 395.5044 395.5280 395.5280 395.6060 396.2903
   396.7317 396.8510 396.8510 397.2038 397.2038 398.2909 398.2909 398.6726
   398.7373 398.9339 398.9339 399.9519 399.9519 400.3268 400.7256 401.2904
   401.2904 402.2042 402.2042 402.3592 402.4613 402.4613 403.0590 403.0590
   403.4580 403.4696 403.7006 403.7006 404.8704 405.3132 405.3132 405.7515
   405.7515 405.8360 405.8385 406.2363 407.5818 407.5818 410.0343 410.0343
   410.3032 412.4841 412.4841 413.7510 413.8110 413.8110 413.9390 413.9390
   414.3084 414.9273 414.9273 415.2420 415.3197 415.4459 417.0390 417.0390
   417.6544 417.8112 417.8112 418.0712 418.0712 419.7139 420.2993 420.8525
   420.8525 421.8110 421.8110 422.0764 422.0919 422.3758 422.3758 422.5540
   422.5540 422.7109 422.8445 422.9433 422.9937 422.9937 423.5568 423.5568
   423.8156 423.9827 423.9827 424.6426 426.0092 426.1011 426.1011 426.7287
   426.7287 426.8335 426.8335 426.9543 427.8396 427.8396 428.2446 428.3997
   428.4093 428.4093 428.9659 429.5992 429.5992 429.8030 429.8030 429.8268
   429.8739 431.2761 432.5610 432.5610 434.1663 434.5724 434.5724 434.6919
   434.9310 434.9310 435.2464 435.2698 435.2698 436.5649 436.5649 436.5871
   438.0234 438.3685 438.3685 438.9711 438.9711 439.1422 439.1422 439.1665
   439.7687 440.8050 440.8050 440.9615 441.0429 441.0429 441.3506 442.4559
   442.4559 442.7964 443.6418 443.6418 443.6625 444.4075 444.4075 446.0146
   446.0291 446.0291 446.5864 447.5125 447.5125 447.5942 448.6703 448.6703
   449.3648 450.2451 450.2451 450.2963 450.9177 450.9177 451.1394 452.6764
   452.6764 453.5445 453.6128 453.6128 454.4211 454.4211 454.4991 454.5308
   454.7540 454.8756 454.8756 455.6134 455.6134 455.6354 456.1834 456.1834
   456.5798 456.6800 456.6800 456.7621 457.1749 457.1749 457.4186 458.2828
   460.1976 460.1976 460.3095 461.4741 461.4741 461.7459 461.7459 461.9707
   462.3192 462.3192 462.3474 463.0183 463.0560 463.0560 463.3241 463.3241
   463.3549 463.8343 463.8343 464.0247 465.0001 465.2357 465.2357 465.8632
   466.3481 466.3481 467.2521 467.2521 467.4580 467.7150 467.7150 468.1302
   468.1302 468.2253 468.6267 471.6736 471.6736 472.1927 473.9225 473.9225
   473.9478 474.4869 474.4869 474.5295 476.3903 476.3903 476.4086 477.4213
   478.9054 478.9054 480.1816 480.1816 480.2126 481.9367 481.9367 482.0676
   486.0946 487.9396 488.0254 488.0254 488.4363 490.1726 490.1726 490.6892
   490.6892 491.3322 492.2893 493.1120 493.1120 493.4824 493.7975 493.8662
   493.8662 494.9482 494.9482 495.7264 495.7264 495.9333 495.9333 496.0179
   496.4549 497.3094 497.3094 497.5747 497.6789 497.6789 498.6551 498.6551
   499.2970 499.3677 499.3677 499.5371 501.5651 501.5651 502.5657 502.5657
   502.7145 504.5530 504.5530 504.6271 505.3244 505.5463 505.5463 505.7940
   505.9633 505.9633 506.4298 506.7610 506.7610 507.1453 507.1453 507.4334
   507.6468 507.6645 507.6645 507.7238 508.3864 508.3864 508.4366 509.2790
   509.2790 509.3644 513.4483 513.4483 513.7355 514.3201 514.3201 515.3805
   515.3805 515.6215 516.6444 516.6639 516.6639 518.3583 518.7856 518.7856
   518.8959 519.3024 520.0601 520.0601 520.7787 520.7787 521.1747 521.1747
   521.5403 521.5439 522.2848 522.2848 523.0785 523.0785 523.1106 523.7528
   524.2343 524.2343 524.5085 524.8592 525.8031 525.8031 525.8748 525.8748
   526.5935 527.2478 527.2478 527.6948 527.8579 527.8579 527.8829 528.4336
   528.4541 528.4541 529.1181 529.1181 529.3718 529.4790 529.6440 529.6440
   531.0597 531.1298 531.1298 531.3703 531.3703 531.4657 531.7287 531.7287
   531.7511 531.9189 533.0894 533.0894 533.2282 533.9478 533.9478 534.4613
   534.4613 534.8985 535.2523 535.7679 535.7679 536.8298 536.8298 537.1748
   537.5926 537.5926 537.7907 537.8154 537.8154 537.9549 538.0907 538.1836
   538.1836 538.7629 538.9046 538.9046 539.4723 539.9848 539.9848 540.1792
   540.6653 540.6996 540.6996 541.1765 541.5303 541.5303 543.0842 543.0842
   543.4125 543.5497 543.5497 543.6438 544.8938 545.2122 545.2122 545.6104
   546.2708 546.2708 546.3587 547.8939 547.9155 547.9155 547.9581 547.9581
   548.1067 548.3661 548.3661 549.6211 549.6211 549.7795 550.2584 550.3668
   550.3668 550.4738 550.6460 550.6460 550.9536 550.9536 551.3206 551.4867
   551.4867 551.5170 551.7518 552.6856 552.6856 552.8709 552.8709 553.1408
   553.7666 553.7666 553.9344 554.1121 554.8350 554.8350 554.9919 555.0335
   555.0335 555.1183 555.1344 555.1344 555.2600 556.5622 556.5622 558.1537
   558.1537 558.2938 558.3471 558.3471 558.4765 559.4722 559.4722 560.0862
   561.0417 561.0417 561.1867 561.5409 561.5409 561.6244 561.6517 561.6517
   561.8317 561.8317 561.9468 562.0147 563.6749 563.6749 563.8258 564.1049
   564.1049 564.1245 565.0416 565.0416 565.0832 567.6677 567.6677 568.0454
   568.5020 568.5020 568.5720 568.6194 568.6194 568.6946 570.3221 570.3221
   570.5045 571.9590 571.9590 572.0982 572.4428 572.4428 572.4820 573.4659
   573.5374 573.5374 574.2727 574.2727 574.3727 574.8289 575.9165 576.5568

          k =-0.3333 0.3333-0.3333 (  3801 PWs)   bands (ev):

   -24.3353 -17.0177  -7.8648  -7.6791  -7.6791   1.0150   1.3735   1.3735
    10.2537  11.8406  13.4755  13.4755  15.1147  15.1147  19.3927  21.8821
    21.8821  22.6151  25.4364  27.5141  27.5141  28.0645  28.0645  31.8182
    34.7762  34.7762  36.9898  36.9898  39.6296  40.3283  42.1235  44.1299
    44.1299  45.4546  45.4546  46.3881  46.5658  48.6529  51.8058  51.8058
    52.2652  52.2652  52.8426  54.5926  54.5926  55.3293  57.0090  59.4496
    59.4496  61.3907  61.3907  61.4463  64.2876  64.6198  64.6198  67.4300
    67.4300  69.2093  69.4709  69.5846  69.5846  72.4455  72.4455  72.4786
    74.2345  77.0149  77.0149  77.9554  77.9554  78.6151  79.2664  79.2664
    81.6707  84.3780  84.3780  84.9815  84.9815  85.1593  87.0031  87.0785
    87.0785  90.4648  90.9219  90.9219  92.8285  94.4880  96.3504  96.3504
    97.2478  98.3162  98.3162  98.5927  99.3228  99.4479  99.4479 100.7214
   100.7214 102.3804 104.2326 104.5673 104.5673 105.1748 105.3675 105.3675
   108.5873 108.5873 109.6412 110.1011 110.3329 110.3329 111.5337 111.5337
   112.3801 113.4130 113.4130 113.6373 115.1145 116.1499 116.4845 116.4845
   119.2839 120.6873 120.6873 122.0317 122.0317 123.3576 123.4367 123.4367
   124.6094 124.9135 125.5663 125.5663 125.8327 126.1972 126.1972 126.5179
   126.5179 127.4031 127.4031 128.1145 129.4506 129.4506 130.5799 131.3821
   132.7083 132.7083 134.0787 134.7244 135.3411 135.3411 137.8634 137.8634
   140.1537 140.1537 140.5004 141.8048 143.3253 143.7952 143.7952 144.3857
   144.3857 148.3886 149.5294 150.2989 150.2989 152.9143 153.0720 153.0720
   154.0266 154.3939 154.3939 154.8094 154.8094 154.9035 156.0109 156.0109
   158.1288 158.1288 158.6532 158.6532 159.4382 160.1803 160.1998 160.1998
   161.7014 161.7122 161.7122 161.8446 163.2949 163.2949 164.8433 165.0429
   165.7252 165.7252 167.2720 167.2720 167.2896 168.3074 168.7291 168.7291
   170.3040 170.3040 171.1148 172.1268 173.1890 175.5615 175.5615 176.6356
   177.3146 177.3146 177.9876 179.6008 179.6627 179.6627 180.3930 180.3930
   181.4761 181.4761 182.5077 182.8705 182.8705 183.0922 183.2516 183.8814
   183.8814 184.4865 184.4865 184.8424 186.0531 186.7631 186.7631 187.8996
   188.3864 188.9442 188.9442 189.5756 189.9854 189.9854 192.7610 192.7610
   194.7474 194.8049 194.8049 195.4324 195.4324 195.6557 195.7964 196.7424
   196.7424 197.2359 197.3926 197.5582 197.5582 198.1248 198.1248 199.4723
   199.5310 199.6979 199.6979 200.9481 200.9481 203.2252 203.2252 205.0328
   207.6929 208.1287 208.1287 209.0237 209.0237 209.3679 209.4761 209.4761
   209.7185 209.7550 210.5958 210.8313 210.8313 211.2066 212.4684 212.4684
   212.8108 213.0797 215.1733 215.1733 215.7854 216.5797 216.5797 218.9385
   218.9385 219.2606 219.2606 220.1535 221.4583 221.6399 221.6399 221.9219
   223.3267 223.3267 224.0363 224.0363 224.1345 225.2770 225.2770 225.4126
   225.5728 227.0709 227.0709 228.0261 228.6793 228.6793 230.8412 231.3366
   231.3366 233.3466 234.5430 234.8252 234.8252 236.4627 236.4627 237.2502
   237.2502 238.0880 239.3007 239.3007 239.5426 239.5426 239.6186 240.1457
   240.2305 240.7446 240.7446 240.8247 240.8247 241.0357 242.5805 242.6113
   242.6113 243.2160 243.2779 243.2779 245.2930 245.4921 245.4921 246.0872
   246.3770 248.3681 248.3681 251.3579 251.5120 251.5120 252.3127 252.3127
   253.7365 253.8971 253.8971 254.4331 254.4482 254.4482 254.8671 255.8193
   255.8193 256.3410 256.9092 256.9092 257.1105 259.5541 259.5541 260.8087
   261.5078 261.5078 262.3917 264.0359 264.4369 264.4369 265.9390 266.0937
   266.1715 266.1715 266.3641 266.3641 267.4902 267.4902 267.5095 268.0688
   268.5660 268.5660 269.0508 269.0508 269.3014 269.4869 269.4869 269.5438
   271.4777 271.4777 272.0615 272.0615 273.0137 273.2485 273.2485 274.0262
   274.1622 274.6481 274.6481 276.2834 276.2834 276.5407 278.5933 278.5933
   279.3602 280.2220 280.3058 280.3058 281.1489 281.1489 281.8105 282.1071
   282.1890 282.1890 282.3606 282.6977 282.6977 282.8840 285.2584 285.2584
   285.8269 288.3690 288.3690 288.4927 290.1770 290.2865 290.2865 290.6261
   290.6261 292.7192 292.7192 292.7580 293.4273 293.9617 293.9617 294.0393
   294.0963 294.0963 294.7413 295.0883 295.5809 295.5809 296.4141 297.5531
   297.5531 297.7438 298.1554 298.1554 298.3620 298.3972 298.5190 298.5190
   299.5585 299.5585 299.8184 300.7577 300.7577 301.5236 302.7261 302.9070
   302.9070 303.7055 303.7055 303.7969 303.8290 303.8412 303.8412 304.7775
   304.7775 304.8103 306.1890 307.5929 307.5929 308.0645 308.9517 308.9517
   309.1741 309.1741 309.6450 310.0183 310.2159 310.2159 310.3620 311.2733
   311.2733 311.4502 312.4442 312.4442 313.7628 313.7628 316.5476 316.5476
   317.3580 319.6824 320.4252 320.4252 321.2629 322.0544 322.3565 322.3565
   322.5083 322.5083 323.6783 324.0042 324.0042 324.7373 324.7373 324.8994
   325.0747 326.5270 326.5270 326.8834 326.9407 326.9407 327.7750 328.5608
   328.6942 328.6942 329.4569 329.4569 329.6773 330.9466 330.9466 331.1294
   331.4209 331.4209 331.5251 332.1506 333.3967 333.3967 334.4535 334.4535
   335.2457 335.7706 336.3194 336.3194 336.4773 336.6614 336.6614 338.5870
   339.2864 339.4725 339.4725 339.6799 339.6799 340.2715 340.2715 340.4321
   340.7953 340.7953 340.9610 340.9711 340.9711 341.3537 341.8581 342.5496
   342.5496 342.9474 342.9474 343.1400 345.8220 347.9083 347.9485 347.9485
   350.9857 350.9857 351.0180 351.1987 351.1987 351.4657 351.4657 351.4761
   351.5229 352.3309 352.3309 352.7818 353.2742 353.2742 353.5053 353.5053
   353.5598 353.7963 354.1283 354.1283 354.3887 354.3887 354.4566 354.5800
   357.3948 357.3948 358.2307 358.2307 358.2750 358.6485 360.0576 360.4548
   360.4548 360.9891 360.9891 361.1297 361.5150 361.5150 364.5434 366.1869
   366.1869 367.6689 368.0267 368.0267 368.0628 371.4375 371.4375 372.8265
   372.8265 373.2006 374.7747 375.2005 375.2005 376.5299 376.5299 377.2662
   378.0515 378.3487 378.3487 378.5610 378.6211 378.6211 378.8670 378.8670
   378.9594 379.3985 379.3985 379.5920 379.9622 379.9622 379.9756 380.2469
   381.3409 381.4989 381.5202 381.5202 382.0476 382.0476 382.9662 382.9662
   383.3823 384.2253 384.2253 384.3134 384.3134 384.4432 385.0846 388.3705
   388.3705 388.5104 388.8633 388.8633 390.0920 391.3461 391.3461 391.7848
   392.3496 392.8023 392.8023 394.0404 394.0404 394.1727 394.4074 394.4180
   394.4180 395.3440 395.3440 395.8406 395.8406 395.8556 396.2001 396.2001
   396.4085 396.6188 396.6188 396.6413 397.0214 397.3006 397.3006 398.3545
   398.3545 398.4399 398.6105 398.8544 398.8544 398.9590 399.9811 400.3741
   400.3741 401.9163 403.2286 403.2286 404.1584 404.4280 404.4280 405.0311
   406.0994 406.0994 407.0132 407.0132 407.1683 407.4683 407.9301 407.9523
   407.9523 408.1257 408.4002 408.4002 408.4689 408.7523 408.7523 408.8674
   408.9733 408.9733 409.1102 409.1280 409.4731 409.4731 409.8442 409.8442
   410.3177 410.3177 410.4766 411.1107 411.2171 411.2171 411.4435 411.5167
   411.5167 411.7050 411.7050 411.7445 411.7861 411.7861 411.8863 411.9122
   411.9122 413.5826 413.5826 414.4390 417.4404 417.4569 417.4569 418.8026
   419.0991 419.0991 420.6470 420.6470 421.1210 421.5646 421.5646 421.9061
   422.9996 423.8459 423.8459 424.4910 424.4910 425.4113 425.4113 425.4664
   425.4972 426.7613 428.2915 428.2915 430.1776 430.1776 431.5685 432.9369
   432.9369 433.5535 433.5535 434.4524 434.9594 434.9594 435.7590 435.7590
   435.9351 435.9845 436.1845 436.3792 436.3792 436.5564 436.5564 436.5601
   436.7161 436.8484 436.8484 437.0207 438.0071 438.0071 438.0863 438.5406
   438.5406 438.6139 439.6655 439.6655 440.1203 440.1203 440.1643 441.2201
   442.8356 443.7317 443.7317 444.3581 444.3581 444.6331 444.9423 444.9423
   445.1650 445.6498 445.6498 445.7404 446.2876 446.2876 446.5138 447.9861
   447.9861 448.0633 449.0399 450.5168 451.0749 451.0749 451.6218 452.0395
   452.0395 452.4793 452.6240 452.6240 452.6873 452.6873 453.3378 453.5588
   453.5588 454.1298 454.2535 454.2535 454.9259 455.5694 455.5722 455.5722
   455.9538 455.9538 456.2995 456.7198 456.7198 457.3596 457.6019 457.7074
   457.7074 458.8187 462.1323 462.1323 462.9483 464.2611 464.2611 464.8169
   464.9419 464.9419 465.0962 465.7033 465.7033 466.4414 466.6747 466.6747
   466.7660 467.0555 467.0555 467.1523 467.1523 467.2310 468.2451 468.2451
   468.2640 469.4697 469.4697 469.6162 471.0794 471.0794 471.0938 471.8353
   471.8353 471.8979 472.7770 472.8650 472.8650 473.4917 473.4917 473.9985
   473.9985 474.0786 474.2591 475.8837 475.8837 477.8411 479.5641 479.5641
   479.9256 479.9256 479.9609 480.3201 480.3201 480.4237 480.5195 481.3024
   481.4471 481.4471 481.7781 481.7781 481.8299 481.8299 481.8914 481.8991
   482.1471 482.1471 482.1997 483.0941 483.0941 483.1144 485.4755 485.4755
   486.0280 487.4620 490.2266 490.2266 490.6880 490.6880 491.6811 492.5990
   492.8891 492.8891 493.1742 493.1746 493.1746 493.2389 494.0369 494.0369
   494.2385 494.2385 495.1656 495.1656 495.4463 495.4463 495.5621 495.6527
   495.8274 497.1541 497.1541 497.3906 497.3906 497.4015 497.5354 498.1424
   498.1424 498.9321 499.7821 499.7821 500.0038 502.5392 502.5392 502.5745
   504.0076 505.2507 505.2507 506.5852 507.0317 507.0317 507.0625 507.0625
   507.7542 507.7955 507.7955 508.2400 508.2400 508.3032 508.4610 508.4610
   508.5741 508.8633 508.9278 509.0119 509.0119 509.1547 509.8226 509.9702
   509.9702 511.0560 511.0560 511.2975 511.6024 511.6024 511.8838 512.6271
   512.6271 512.8148 512.8148 512.9173 514.2582 514.2582 514.3089 514.7139
   515.5395 515.5395 515.9259 515.9259 516.0484 516.6770 516.9295 517.5990
   517.5990 518.6286 518.6286 518.6652 519.9714 520.0108 520.0108 520.2627
   520.7511 520.7511 521.0730 521.9013 521.9013 522.6411 523.0449 523.0449
   523.1607 523.6879 523.6879 523.7632 524.7037 524.7309 524.7309 524.7741
   524.8011 524.8011 525.5972 525.5972 528.8780 528.9969 528.9969 529.1136
   529.1136 529.2652 529.3360 529.3360 529.8452 529.9708 529.9708 530.0013
   532.2440 532.2440 532.3047 532.7643 532.7643 534.3929 534.4492 534.4492
   535.0982 535.0982 535.2673 535.3024 536.1225 536.1225 536.3843 536.9024
   537.1051 537.1051 537.5533 537.5533 537.6194 538.0421 538.0421 538.2891
   538.2891 538.2940 538.3956 538.9306 538.9474 538.9474 539.0255 539.0255
   539.0635 544.5236 545.7419 545.7419 546.1406 547.2427 547.3853 547.3853
   547.4364 547.4364 547.6750 547.6750 547.6770 548.3425 549.8960 549.8960
   550.3080 550.3080 550.6601 550.6601 550.7722 551.1833 551.6305 551.6305
   551.6967 551.8416 551.8416 551.8824 552.1008 552.1008 552.1701 552.6841
   552.6841 552.6989 552.6989 552.7446 552.7524 552.8453 552.8681 552.8681
   555.0235 555.0235 555.7940 555.7940 556.2271 556.4304 557.3012 557.3012
   557.3876 557.3876 557.4089 557.5693 557.8897 557.8897 557.9369 558.4030
   558.4030 558.6664 558.9133 558.9133 559.0531 559.3840 559.3840 559.3995
   562.8406 563.3500 563.3500 564.6711 564.6711 564.7925 564.9155 565.7874
   565.7874 565.8791 566.3231 566.3231 566.5666 566.5666 566.5942 566.6352
   566.6941 566.6941 570.2679 570.2679 570.5019 571.0466 571.0466 571.1446
   572.5541 573.7423 573.7423 574.8040 574.8040 575.4174 575.8458 575.8458
   576.0255 576.9046 577.0107 577.0107 577.6483 578.0234 578.0234 578.2226
   578.3271 578.3271 578.4625 578.5118 578.5118 578.8441 579.0511 579.0511

          k = 0.5000-0.5000 0.5000 (  3828 PWs)   bands (ev):

   -24.3091 -17.0427  -7.9347  -7.6883  -7.6883   0.8414   1.2857   1.2857
    10.8170  12.4268  13.7864  13.7864  15.9276  15.9276  17.8491  20.2834
    20.2834  22.2921  26.6878  27.7913  27.7913  28.2817  28.2817  33.1921
    35.6649  35.6649  36.6066  36.8149  36.8149  41.7353  42.1098  42.1098
    43.0744  44.6044  44.7684  44.7684  46.8259  48.8655  51.5480  51.5480
    52.3198  53.5560  53.5560  54.4163  55.2271  55.2271  57.8313  58.2535
    58.2535  58.5589  62.7851  62.7851  65.7250  65.9981  65.9981  69.8257
    70.6436  70.6436  71.9239  71.9239  72.3633  72.3633  74.3764  74.3764
    74.8048  74.9797  76.0810  76.0810  76.9100  76.9303  77.8212  79.3005
    79.3005  82.9843  83.7883  83.7883  84.2935  86.8101  86.8101  87.3038
    87.3038  87.8704  87.8704  90.8671  90.8671  92.7238  93.6378  95.3110
    95.4067  96.1690  96.1690  98.6646  98.9107  99.3681  99.3681  99.9330
    99.9330 101.0858 103.6986 104.9081 104.9081 105.3742 107.2575 107.2575
   108.2252 108.5561 108.5561 109.3818 110.6619 111.1983 111.1983 113.8028
   113.8028 114.8617 115.6757 115.6757 115.8185 115.8185 116.8807 116.8807
   117.5532 117.7760 118.7642 120.9084 121.5888 121.5888 121.8800 124.1698
   124.1698 126.5454 126.5454 126.7744 127.6675 127.6675 129.4413 129.4413
   129.7997 129.8020 131.1449 131.1449 131.2143 132.5009 132.8824 134.0788
   134.0788 134.3214 134.3214 135.5781 138.4809 138.4809 139.0181 139.0181
   140.7057 140.7203 140.7429 140.7429 141.0313 141.0313 142.1290 142.1290
   146.5957 146.5957 147.1663 148.1040 148.1040 148.1311 150.9355 150.9355
   151.1704 151.1704 151.2302 151.2808 151.8645 152.4824 152.4824 154.2525
   155.3399 158.0260 158.0260 159.0500 159.9890 161.1920 161.1920 162.6073
   162.6073 164.3520 164.3520 164.6149 165.2638 165.6585 166.5866 166.5866
   168.2432 168.5818 168.5818 169.6718 169.6718 170.3783 170.6489 170.6489
   171.3022 171.3022 171.4634 171.5219 171.5838 171.8579 171.8579 172.1158
   172.1158 173.4131 176.5235 176.5235 177.5405 179.0954 179.9708 179.9708
   180.0636 180.0636 180.9342 181.7171 181.7171 181.7741 182.6049 182.7427
   182.7427 183.0956 183.0956 183.9505 183.9505 184.1346 184.5222 184.5222
   186.7367 187.7271 187.7271 188.0734 188.3614 190.5723 190.5723 191.3450
   191.5066 191.9279 191.9279 193.1669 197.2688 197.2688 197.4385 198.1189
   198.5611 198.5611 199.3827 199.9228 199.9228 202.0534 202.0534 202.2666
   202.4527 202.7152 202.7152 203.3047 203.3047 204.3947 205.0759 205.0759
   205.2606 205.2606 205.2840 205.5626 206.6250 206.8249 208.0474 208.0474
   208.4109 208.9727 208.9727 214.7359 214.7359 214.8231 214.8231 218.0838
   218.4757 218.8735 218.8735 219.2687 219.2687 220.5622 223.4504 223.4504
   223.6674 223.8266 223.8866 223.8866 224.0234 224.0234 224.1150 224.1150
   224.4190 224.4190 224.5371 224.5411 224.6660 225.2603 226.4379 227.3280
   227.3280 231.0949 231.6137 231.6137 232.2719 232.2719 232.4857 233.1573
   233.2396 233.4502 233.4502 233.5580 233.5580 233.5987 233.5987 233.8005
   233.8005 234.3530 234.8977 235.0858 235.0858 235.1629 235.6876 236.8514
   236.8514 236.8999 236.8999 238.1438 238.1439 240.3070 243.7863 243.7863
   244.9198 244.9198 245.9869 245.9869 246.3251 246.5008 246.5008 246.6690
   246.7875 246.7875 247.7900 247.7900 248.8504 249.2810 249.2810 251.8042
   251.8042 252.3917 252.8866 252.8866 253.9140 254.7678 255.7647 255.7647
   255.8187 255.8187 256.0264 256.0379 256.7089 256.8353 256.8353 257.2333
   257.3410 257.9532 257.9532 259.4230 259.4230 259.8890 259.8890 260.9705
   264.5662 264.5662 264.9604 265.3618 265.8251 265.8251 266.7261 266.7261
   267.0256 267.0256 267.0436 267.6206 267.7495 267.7752 267.7752 267.9118
   272.1499 273.1194 273.1194 274.0612 274.0612 275.8943 275.8943 275.9534
   275.9534 276.0782 276.4628 276.4887 276.4887 276.6513 277.2336 278.2048
   278.2048 278.4878 278.8135 279.6236 279.6236 281.3898 281.3898 281.4200
   281.8094 284.3529 284.3529 285.1133 285.3705 285.7463 285.7778 285.7778
   286.5228 286.5228 286.9116 286.9116 286.9275 286.9275 287.5024 287.8182
   288.6171 288.6171 290.3945 290.3945 290.5986 290.8255 290.8255 293.0835
   293.0835 294.0041 294.4043 295.4503 295.4503 295.6400 297.0144 297.0144
   297.6559 297.9237 297.9237 299.0587 299.1491 299.1491 299.1908 299.1908
   299.3676 299.5265 302.0438 302.0715 302.0715 302.1015 302.1015 302.1837
   302.9497 302.9497 303.3912 306.8420 306.8420 307.4959 307.5165 307.5165
   309.3049 309.3049 309.6841 309.6846 309.8681 310.6121 310.6121 312.7252
   314.3155 314.5124 314.5124 315.3477 315.3477 317.4256 317.4256 318.1965
   318.2788 318.2788 318.7116 319.3609 319.3609 319.4504 319.5882 319.7823
   320.6627 320.6627 320.8003 321.1448 321.1448 321.2048 321.2127 321.2127
   321.5979 323.3165 323.3165 324.1257 324.1257 325.1065 325.1065 325.1986
   325.6415 325.6415 326.3742 326.8292 326.8292 327.3227 328.2359 328.8345
   329.0303 329.9530 330.2780 330.2780 330.4671 330.4671 330.5182 330.7040
   330.7040 330.7282 330.7282 330.9858 330.9858 331.0362 331.0907 331.1244
   331.1244 332.2080 332.3038 332.3038 332.3907 332.3907 332.4954 332.5242
   338.9385 338.9385 340.1017 340.2516 340.2516 340.2739 340.5553 340.5553
   341.2741 341.4655 341.4655 341.6668 341.6668 341.9825 341.9825 342.0848
   342.1016 342.4161 343.1682 343.1682 343.4047 343.4047 343.4792 343.4816
   347.9995 347.9995 348.4449 349.3984 350.6963 350.6963 350.8588 350.8588
   351.2875 351.5672 351.5672 352.3223 353.2307 355.1224 355.9399 355.9399
   356.9046 357.2566 357.2566 359.4410 359.4410 359.6761 359.9932 359.9932
   360.2438 360.2438 360.7795 360.7795 360.9259 360.9259 361.0772 361.0832
   361.8857 361.8857 361.9056 363.3909 363.8729 363.8729 364.2730 364.2730
   364.6937 364.6937 365.7518 365.7519 367.6371 368.6000 368.6000 370.4328
   371.0749 371.0749 371.6412 372.0924 372.0924 372.1734 372.1734 372.9546
   373.6004 373.6004 374.0377 375.6474 375.6474 375.8603 375.8685 375.8685
   375.8824 375.8824 376.0819 376.0830 377.4531 377.4531 377.6716 378.0281
   378.7443 379.4473 380.2538 380.2538 381.9954 382.0758 382.0758 384.6672
   385.6299 385.6299 385.7284 385.7284 388.3301 388.3301 389.8498 389.8498
   390.5363 390.7928 390.7928 391.2093 391.4342 391.4342 392.1682 392.1682
   392.1906 392.5534 392.9047 392.9255 392.9374 392.9374 393.0375 393.0375
   393.0416 393.0416 393.3307 393.9296 394.1921 394.3347 394.3347 394.4159
   394.4159 394.8110 395.0227 395.0227 395.1088 395.1238 395.1238 395.5262
   395.5262 395.5907 395.8953 395.8953 395.9358 395.9824 396.9098 396.9098
   396.9429 396.9429 396.9479 397.1587 399.9285 399.9285 401.7398 401.7398
   401.9790 402.6133 402.7930 403.7953 403.7953 403.8134 403.8134 404.6675
   406.1213 406.3755 406.3755 406.5312 406.5312 406.5931 407.5187 408.9965
   408.9965 411.0900 411.0900 412.0565 413.2948 413.2948 414.3428 414.4810
   414.4810 414.5183 414.6090 414.6090 414.6991 414.7769 414.7769 415.1974
   415.4978 415.4978 415.7439 415.7439 415.9608 415.9713 416.3065 416.3065
   416.8662 417.2035 417.2035 417.6387 417.6387 417.6722 417.6722 417.7092
   417.7437 418.2198 422.1133 423.1186 423.1186 424.0977 424.7592 424.7592
   425.0743 425.5541 425.5541 425.7085 425.8797 425.8797 426.4429 426.4429
   426.9741 426.9741 426.9790 427.0113 427.0113 427.3868 427.3868 427.3894
   427.3930 427.4553 427.4613 431.0211 433.0813 433.0813 434.2761 434.2761
   434.3099 435.2713 438.0222 438.0222 438.6706 438.6706 438.6755 438.6755
   438.9296 438.9296 438.9345 439.0332 439.5132 439.5132 441.3168 441.3168
   441.6548 441.8865 442.2457 442.6352 442.6352 443.6543 443.6543 444.6123
   445.0464 445.6278 445.6278 445.7174 445.7376 445.7376 446.1916 446.1916
   446.2770 446.2907 446.2907 446.5873 446.6011 447.6195 447.6195 447.7917
   447.7917 448.1893 449.4874 449.4874 449.6746 449.6746 449.6944 449.7500
   449.8441 450.1651 450.1651 452.1306 452.1306 453.7543 457.3139 457.3139
   457.6115 457.6872 457.6872 457.9176 457.9176 457.9205 458.1872 458.3971
   458.3971 458.6130 458.6130 458.6854 458.6854 458.8355 458.8375 459.3736
   461.2493 461.2493 461.2559 461.2559 461.2629 461.2882 464.6450 464.6450
   466.4716 467.0369 467.4438 467.4571 467.4571 467.5588 467.5588 468.2378
   468.2378 468.2558 468.2558 468.5523 468.6374 468.6374 468.6666 468.6876
   469.5348 469.5348 470.0578 470.6615 470.6615 471.4608 471.4608 471.5134
   471.5136 471.5973 471.5973 472.4974 475.9986 475.9986 476.2569 478.0683
   478.1941 478.1941 478.8454 478.9360 478.9360 479.0351 479.3292 479.3551
   479.3551 479.4303 479.4801 479.6755 479.6755 479.7118 479.7118 480.0910
   484.9815 484.9815 485.5138 486.2342 486.2342 486.9962 486.9962 487.1500
   487.2924 487.5412 487.5412 487.6407 487.6407 487.7551 488.0075 488.0075
   488.3234 488.3234 488.5710 488.5710 488.5913 488.6223 488.7177 488.7177
   488.7488 488.7515 488.8815 488.9876 489.0319 489.0319 490.8541 490.8653
   491.0064 491.0064 491.0221 491.0221 492.2541 492.2541 492.2608 492.2608
   492.2767 492.3187 492.3187 492.3207 492.3518 492.3518 492.4431 492.4530
   501.2723 501.2723 501.3898 501.8380 501.8380 501.9570 502.2764 502.2764
   502.3255 502.3255 502.3927 502.4767 502.4769 502.4773 502.6034 502.6034
   502.6784 502.6784 503.8802 503.8802 506.3897 506.3897 506.5786 507.8791
   509.1827 509.1827 509.6249 509.7158 509.7158 510.2092 510.9721 510.9721
   511.4980 511.5704 511.5704 511.6730 511.7702 511.7702 511.9141 511.9141
   511.9356 511.9833 512.1840 512.1840 512.5775 512.5775 512.6511 512.6537
   514.0339 515.6523 515.6523 515.7545 515.7545 515.8936 516.1509 516.7515
   518.2051 518.8506 518.8506 519.1610 519.1610 519.2157 519.2157 519.3816
   520.7008 520.7863 520.7863 520.9524 520.9524 520.9571 520.9571 522.1552
   522.9539 523.0045 523.0045 523.0309 523.0309 523.2680 523.2680 523.2937
   523.3217 523.3353 523.3353 523.3389 523.3389 523.4869 523.4869 523.4897
   523.5223 523.5722 525.8764 525.8764 525.8794 525.8794 527.0457 527.0458
   531.3484 531.3484 532.3043 532.3043 532.3811 532.4771 534.1536 534.1536
   534.2064 534.3228 534.3228 534.6846 537.0751 537.0751 538.1988 539.7387
   539.7387 539.9346 539.9951 540.2990 540.2990 540.5978 540.5978 541.2390
   541.7328 541.7328 541.9719 541.9719 542.0655 542.1272 542.2333 542.3120
   542.3120 542.5148 542.5148 542.5253 542.5253 542.6124 542.7349 542.7349
   542.8641 543.0855 543.7255 543.7255 543.7321 543.7321 543.8453 544.0137
   547.6776 548.6774 551.8055 551.8055 552.6077 552.6077 552.6431 552.9987
   553.0205 553.0872 553.0872 553.2442 553.2442 553.4916 553.4916 553.5401
   553.5401 553.6280 553.6868 553.7480 553.7480 553.7504 553.8371 553.8904
   553.9904 553.9976 553.9976 554.0270 554.0270 554.1078 554.1305 554.1305
   555.4412 555.4412 555.7930 555.8151 555.8151 556.2136 556.2939 556.2939
   556.3095 556.3095 556.4905 556.4905 556.4929 556.4937 556.4937 556.5221
   557.2819 557.2819 557.2910 557.2910 557.3314 557.3329 561.3672 561.3672
   561.5396 562.0322 562.0322 562.5847 566.6318 566.6318 566.7307 566.7307
   566.7533 566.7677 572.5385 572.5385 572.7231 574.7140 574.7140 575.3371
   575.3371 575.3460 575.3460 575.4573 575.4573 575.4633 575.4855 575.5417
   575.6566 575.6566 575.7375 575.7375 575.7469 575.8420 575.9226 575.9226
   575.9543 576.0054 577.2321 577.2321 577.7456 577.8908 577.8908 578.1552

          k = 0.0000 0.3333 0.0000 (  3807 PWs)   bands (ev):

   -24.3792 -16.9700  -7.7066  -7.7066  -7.6974   1.2785   1.6194   1.6194
     8.8830  11.5250  13.0975  13.0975  14.3094  14.3180  20.2756  23.6157
    23.6157  24.5029  25.9572  26.7081  26.7773  26.7773  29.9453  31.2623
    31.2623  32.7352  37.4945  37.6148  40.0739  40.0739  43.5286  43.8897
    45.4307  45.4307  45.6098  48.6988  49.8416  49.8416  50.7038  52.7590
    53.7794  53.7794  54.4847  55.2871  55.2871  56.0397  56.1333  57.6845
    58.4470  59.7012  60.9334  60.9334  62.5557  62.5557  63.8551  64.5227
    65.3495  65.3495  65.7012  66.3674  69.6215  69.6215  70.2285  71.7238
    71.8800  71.8800  72.7535  77.6016  80.8205  81.0919  81.0919  82.0868
    82.8156  88.8367  88.8367  89.5119  89.7057  89.7057  91.7786  91.7786
    91.8778  92.0229  92.4202  92.6100  92.6704  92.6704  95.1477  96.2508
    96.4832  97.2963  97.2963  97.6846 100.0886 101.4948 102.1220 102.1220
   103.7049 104.2444 104.2998 104.2998 104.6002 105.0190 106.1033 106.6317
   106.6317 107.9508 108.8394 108.8394 110.3449 110.8497 111.7120 111.8004
   111.8004 112.0042 113.1451 113.3435 114.0567 114.0567 114.8076 115.9648
   115.9648 117.6107 117.6107 118.4287 119.2110 119.2110 119.2914 120.1371
   120.6859 121.9404 121.9910 122.5619 122.5619 125.5345 125.5345 127.8707
   128.0669 129.0940 129.3029 129.3029 129.6662 132.8642 133.1406 133.1406
   133.1896 134.4841 134.4841 136.1193 136.8031 138.8745 138.8745 139.0701
   139.6511 139.6697 139.6697 139.6708 141.6082 141.6547 143.8424 143.9472
   143.9472 145.4635 147.3241 147.3241 147.5237 148.2327 149.0883 149.1339
   149.4068 149.4068 150.7562 150.7562 152.1450 152.8141 156.8255 157.5643
   158.2282 158.2282 160.4222 160.4222 163.0825 163.9824 164.2487 164.2487
   165.1136 165.1136 165.7483 165.8326 168.3005 168.3758 168.3758 169.3276
   169.4266 169.6803 169.9782 170.9233 170.9233 170.9584 173.1679 173.1679
   173.4378 174.4206 175.4084 175.4084 176.4377 176.7010 176.7010 176.8355
   177.5586 177.6268 178.7939 178.7939 179.1119 179.5930 180.1110 180.1110
   180.3398 180.3708 181.5618 182.2614 182.4831 182.4831 183.4523 183.4523
   184.1438 184.2604 185.6821 186.3048 186.5488 186.5488 187.5013 187.5013
   188.2160 188.9905 189.5667 189.5667 190.4497 190.4497 190.4826 190.5458
   191.4523 192.9087 195.3228 195.4555 195.4555 195.9731 196.2617 196.9534
   197.1801 197.1801 198.3204 199.2181 199.3851 199.3851 199.6733 199.6733
   200.8364 202.5553 202.5553 202.5638 203.2001 203.6236 203.7572 203.7572
   203.9385 203.9578 203.9595 205.9147 205.9147 206.1970 206.5314 206.8755
   207.0316 207.0316 207.2313 207.3492 208.2374 208.3523 208.3523 209.4230
   209.4230 209.6984 211.6325 212.7073 212.9420 212.9420 213.8676 214.4466
   215.7663 215.7663 216.3131 216.3289 216.5772 216.5772 216.6236 217.8680
   219.0829 219.0829 222.2030 223.4624 224.8483 224.8483 224.9550 225.4184
   226.3139 226.3139 227.2498 227.6397 227.8603 227.8603 229.6922 230.8797
   232.6016 232.6016 234.0623 234.8460 235.2027 235.2027 235.6493 236.5703
   236.6745 236.6745 237.7813 238.6503 238.6503 238.8971 239.0087 239.3333
   239.7230 239.7230 240.0781 241.3993 243.0987 243.3627 243.3627 243.6983
   244.4199 244.4199 244.8733 244.8733 246.4005 246.7599 246.9338 249.3402
   250.5649 250.6218 250.7717 250.7717 252.1947 252.1947 252.7193 253.3734
   253.6840 253.6840 253.9891 254.0893 257.4730 257.4730 257.4776 258.1481
   259.3926 259.7733 259.7733 261.0631 261.0631 263.3180 264.0791 264.3121
   264.3121 267.0048 267.2803 267.3043 267.3043 267.6718 267.9946 268.3178
   268.3178 268.6515 268.9597 270.1028 270.1028 270.4840 270.9122 271.8477
   272.6390 272.6390 272.7421 272.7853 273.2803 274.0069 274.0069 274.1305
   274.1305 274.1573 275.0349 275.3733 275.3759 275.3759 275.6978 275.9268
   276.0720 276.1029 276.1029 277.0878 278.3319 278.3319 279.3316 279.7640
   280.0065 280.0065 280.6506 280.8470 280.9384 280.9384 280.9751 282.5816
   282.5816 283.9853 284.8185 285.0697 285.1056 286.6069 286.6069 286.8745
   287.1690 287.1905 287.1905 288.9384 289.2089 289.2089 289.5267 289.6841
   289.8394 290.1875 290.2085 290.2085 290.3164 290.3164 290.3882 291.2180
   291.4906 292.7074 293.1223 293.1223 293.7961 293.7961 293.8713 293.8713
   294.3236 295.3788 295.5410 295.7663 295.7663 295.9741 296.3295 297.3139
   297.8719 297.8719 299.0656 299.2208 299.7884 299.7884 300.8334 301.4796
   301.9052 302.6383 302.6383 302.8356 302.8937 303.0077 303.0077 303.1970
   303.3282 303.3282 304.7243 305.4008 305.5375 306.3815 306.3815 306.6410
   307.4713 307.4713 308.4421 308.5854 308.9873 309.4099 309.4271 309.4271
   310.0219 310.0219 311.9396 313.1210 314.0479 314.5064 314.5064 314.5534
   314.6773 315.6250 315.6250 316.0596 317.3386 317.7772 317.7772 318.2610
   318.3856 318.4502 318.4502 318.8645 319.3135 319.3204 319.6336 319.6336
   321.3901 323.1296 324.1674 324.1674 324.7844 325.5467 325.5742 325.5742
   325.6749 326.1075 326.1075 327.4081 327.4081 327.5799 327.7902 328.3953
   328.5864 328.5864 329.4648 330.3696 330.6006 330.6006 331.0728 331.5143
   331.5143 331.7601 333.0990 333.5090 333.5090 333.6033 334.0967 335.2164
   338.2184 339.5594 339.5594 339.8572 340.0939 340.0939 340.7532 341.3152
   341.5471 342.3105 342.3105 342.4511 342.6976 342.6976 343.8276 344.0790
   346.1271 346.5284 346.5284 347.0680 348.6625 348.9487 349.1490 349.1490
   350.0820 351.2979 351.2979 352.1873 352.7597 352.7597 353.5131 354.3811
   354.5891 354.8887 354.8887 355.2298 356.6512 357.1117 357.1117 357.1306
   357.7686 360.7598 360.7598 361.1483 361.3800 361.4079 361.4079 362.5853
   364.0011 364.0011 364.1220 364.2949 364.5843 364.7693 364.7693 365.5537
   366.1248 366.4440 367.1886 367.1886 369.3753 371.9937 372.1048 372.1048
   372.5026 373.2174 373.2745 373.2745 373.4919 373.8695 373.8695 373.9388
   373.9620 374.1310 374.2389 374.3441 374.3441 374.7452 375.0174 375.0174
   375.0238 375.0932 375.5229 376.2478 376.3721 376.3721 376.5140 376.5140
   377.0755 377.0755 377.1983 377.6062 377.8107 378.4873 379.0887 379.0887
   379.7233 380.1254 380.1454 380.1454 380.2819 380.6622 380.6622 381.1758
   381.3521 382.6183 383.0021 383.0021 383.0583 383.2696 383.5332 383.5332
   384.6252 385.4661 385.4661 385.9142 387.0318 387.4492 387.4744 387.4744
   387.4984 387.7409 387.8092 387.8092 389.9188 390.4792 391.7391 391.9328
   392.0032 392.0032 392.7951 392.7951 392.9228 393.5759 393.7249 393.7249
   394.1422 394.6063 395.9619 395.9619 397.3425 397.3602 399.2620 399.5110
   399.5110 399.6449 401.9375 401.9375 402.2846 402.5901 402.6996 402.6996
   403.0759 405.3547 406.2033 406.2033 406.6091 406.6091 406.8261 407.7064
   407.8155 408.0504 408.0504 408.4894 409.0053 409.0637 409.0637 409.3024
   409.5167 409.5167 410.1744 410.2407 412.3915 412.7078 412.7078 412.7412
   413.0076 413.4755 413.4755 413.8552 414.1099 414.1245 414.7648 414.7648
   414.8978 415.8979 416.4019 416.4019 416.8159 416.8324 416.9092 416.9092
   417.1750 417.1750 417.3484 417.5255 418.5519 418.5519 418.5521 418.8088
   418.9870 419.7717 419.7717 420.0839 420.1802 420.2697 420.7082 420.7082
   420.7448 421.1211 421.2507 421.2507 421.3175 421.9168 421.9168 422.0921
   422.4808 422.5780 422.5982 422.5982 422.6790 422.8110 422.8110 422.9174
   424.3731 425.5186 425.7967 425.7967 426.0853 426.3264 426.7141 426.7141
   426.8862 428.7142 428.7142 429.2724 429.6209 429.8611 430.0019 430.0021
   430.0021 430.2624 430.2745 430.2745 430.3028 434.8218 434.8218 435.0557
   435.2129 437.0244 437.0244 437.3786 437.5023 437.6769 437.8871 437.9575
   437.9575 438.3111 438.6430 438.6641 438.6662 438.6662 439.8397 439.8397
   440.1776 440.1776 440.3427 440.3457 440.7592 440.8165 443.8764 443.8764
   444.8233 444.8233 444.8484 446.1772 446.2561 446.2561 446.2601 446.5684
   446.7210 446.8349 446.8349 446.9764 447.5663 447.6481 448.3267 448.3267
   448.8502 449.3680 449.3680 449.4268 449.9503 449.9503 450.0075 450.2236
   450.7334 451.8535 452.0193 452.0193 452.0651 452.0757 452.2416 452.3448
   452.3448 452.3790 452.4459 453.8572 453.8572 454.7806 454.7806 455.1133
   455.5793 456.0014 456.0520 456.3249 456.3249 456.3692 458.9178 458.9178
   459.2024 459.2875 459.6854 459.7800 459.7800 459.9196 462.0651 462.0651
   462.2514 462.4697 463.3279 463.3279 464.2189 465.8024 465.8935 465.8935
   466.0194 466.0216 469.2476 469.9236 469.9236 470.4353 471.8149 471.8149
   472.5126 472.7337 472.7337 473.2309 474.2443 474.2443 475.0969 475.1535
   475.2414 475.2414 475.3874 475.4566 476.1906 476.6176 476.6448 476.6448
   476.9251 477.0805 477.1742 477.2625 477.2625 478.5517 478.5517 478.8916
   479.2413 483.5060 483.8682 483.8682 484.3208 485.1779 485.6350 485.6350
   485.8772 486.2258 486.4465 486.5441 486.5441 486.5780 488.3163 488.3163
   488.7025 488.7553 488.8468 488.8468 488.9101 489.2499 489.2499 489.3152
   489.7261 490.4420 490.4420 491.5296 491.9011 492.3573 492.6370 492.6370
   492.7791 492.9865 493.2638 493.5508 493.5508 493.6401 495.7024 495.7812
   495.7812 496.3116 496.4121 496.4121 496.4180 496.5071 498.2828 498.6686
   498.6686 499.2675 502.7782 502.8425 502.8425 502.8498 503.3853 504.1265
   504.1265 504.8050 505.4671 506.5189 506.5189 506.6097 507.0595 507.9210
   507.9210 508.2825 508.3273 508.3273 508.3490 509.7324 511.5920 511.8182
   511.8182 513.1953 513.3506 513.5033 513.5522 513.5522 513.8613 513.8613
   513.9853 514.9502 515.5192 515.5192 515.7882 515.8837 516.2709 516.2709
   517.8782 517.8782 518.5772 519.1427 519.6393 520.4712 520.5497 521.4682
   521.4682 521.7295 521.8481 521.8481 522.0594 522.0779 522.1925 522.1925
   522.3880 522.4978 522.6943 522.6943 522.7888 522.7923 524.2743 524.3589
   524.3589 524.9363 526.5021 528.0820 528.0820 528.5482 528.9803 528.9803
   529.0265 529.4732 529.9451 529.9664 529.9664 530.0169 530.2493 530.2733
   530.2733 530.2734 530.4073 530.4844 530.4844 530.9528 532.4088 532.4088
   533.4488 533.9153 534.0035 534.7226 534.7226 534.8917 535.1457 535.7018
   535.7018 536.1102 537.0379 537.0839 537.2856 537.2856 537.5954 537.8281
   537.8281 538.2753 538.3421 538.5270 538.5270 538.9144 539.7655 539.7655
   540.7163 540.7982 541.2747 541.2747 541.3835 541.4385 541.7728 541.7728
   541.8901 542.2329 542.2329 542.3237 542.3577 542.4476 542.5477 542.7706
   542.7808 542.7808 543.9546 543.9750 543.9750 544.0974 544.9383 544.9383
   544.9807 545.0416 546.0187 546.0462 546.0476 546.0476 546.5055 546.6262
   546.6262 547.7015 548.9017 548.9017 548.9238 549.0981 549.2875 549.2875
   549.4169 549.4721 549.7182 549.7182 549.7606 549.9273 550.1296 550.1612
   550.1612 550.3250 552.6595 552.6644 552.6798 552.6798 553.1310 553.1644
   553.1644 553.1720 554.2140 554.5720 554.5720 555.1648 555.6071 555.8465
   555.9482 555.9482 556.0278 556.0278 556.1188 556.7368 556.7427 556.9001
   557.1296 557.1296 557.7343 557.7343 557.7529 557.7774 558.7719 559.6992
   559.7696 559.7696 559.7926 560.4550 560.4550 560.7697 561.0671 561.0980
   561.1696 561.1696 561.1891 565.7714 565.7714 565.9638 565.9884 566.0194
   566.0194 566.0211 566.0890 570.8704 571.0630 571.0630 571.3242 571.7268
   571.7268 571.7280 571.8296 571.8719 571.8719 571.9082 572.0644 572.3668
   572.3906 572.3906 572.4047 573.3359 574.6625 574.6625 575.2755 575.6479
   576.8730 576.8730 577.4287 577.4287 577.7678 577.8207 578.1843 578.4058

          k =-0.1667 0.5000-0.1667 (  3828 PWs)   bands (ev):

   -24.3377 -16.9974  -7.8531  -7.7442  -7.7368   1.1106   1.4745   1.5216
    10.1308  11.1569  13.6190  13.7975  14.7572  14.9422  20.0563  21.6739
    21.8757  23.4299  25.6537  26.7974  26.9645  27.9627  29.6785  31.7972
    32.7713  35.2087  36.5841  37.4883  39.5654  39.9755  42.3214  43.7438
    43.9617  44.4685  46.3109  47.2852  48.3653  48.6162  49.0174  50.8570
    52.6909  52.8459  53.6660  54.6956  55.2361  57.6501  58.7952  58.8244
    59.9426  60.0560  60.8137  61.6548  62.2532  64.2335  64.9334  66.2662
    66.3445  67.1360  69.0264  71.1399  71.2530  72.2189  72.3558  72.8914
    74.6468  74.7887  76.1596  77.7824  79.1407  79.5335  79.6537  81.3549
    82.0444  82.8248  84.1906  84.4037  84.4192  86.9107  87.0471  88.8688
    89.4114  90.0707  91.1296  91.4495  92.3456  93.7435  94.3509  95.1226
    95.6378  96.6280  97.5265  98.0016  99.3958  99.9965 100.7324 101.0903
   103.1802 103.5394 104.0220 104.1878 104.5272 105.8465 106.2504 106.4799
   108.1012 108.1136 108.5094 109.8834 111.5930 111.6270 111.9189 112.1048
   112.5259 112.6293 114.4337 114.5776 115.3604 115.4004 116.2407 116.7858
   117.1960 118.4256 119.4203 120.0990 120.7387 121.2371 121.4458 121.8380
   122.5450 123.3206 124.3160 125.1092 125.2998 125.5431 126.8485 126.8511
   127.4274 127.6795 128.4035 129.5732 129.9385 130.9403 131.0513 132.8127
   133.4722 134.0345 134.7066 135.7890 138.0050 138.7848 139.8512 140.6419
   140.8884 141.6932 142.8035 142.8286 143.7098 143.8893 144.8605 145.9481
   147.0603 147.3041 147.4919 148.1295 148.4842 149.3031 149.4669 152.2299
   152.5079 153.0953 153.5097 153.8632 153.9500 154.7199 155.0629 155.6416
   156.5888 157.5729 158.0052 158.6381 158.9896 159.9718 160.1677 160.9606
   161.4482 162.1748 162.8976 163.1264 163.8738 164.1837 164.9974 165.2722
   165.9213 167.4608 167.4769 167.8647 168.1567 168.3494 169.1527 170.1997
   170.4173 171.1497 171.8072 172.1097 172.2303 172.8991 173.7816 174.4106
   175.0453 175.8603 176.7641 177.1045 178.1154 179.1529 179.3604 179.4139
   179.7846 179.8840 180.7267 180.9918 181.0444 181.9363 183.1356 183.2534
   183.9655 185.0580 185.9573 187.0839 187.2800 187.7927 188.0069 188.8445
   190.0001 190.5485 191.5581 191.8343 192.4187 193.2873 193.7453 193.9234
   194.4237 194.5808 194.5981 194.8755 195.3667 195.4334 196.5757 196.6103
   197.8333 197.9512 198.5079 199.6347 200.5280 200.5685 201.2133 201.3147
   201.6184 202.0422 202.7804 202.8523 203.7859 204.8483 205.2870 205.6561
   205.9501 206.2356 206.8798 207.4344 207.8270 207.9977 208.2277 209.1936
   209.5332 209.8859 209.9884 210.3101 210.9415 211.2675 212.0825 212.5150
   212.5845 213.0508 213.8162 213.8452 214.3616 214.3626 214.9380 215.8843
   216.1114 216.3521 216.8919 218.4198 219.2048 219.5862 220.1811 221.1043
   221.1909 221.2211 222.3840 223.6186 224.3641 224.7405 225.3125 226.1937
   227.2859 228.4566 229.3549 229.8510 230.4547 230.5728 230.8128 231.1190
   231.1840 231.7810 232.8326 233.0035 233.4425 233.8026 234.2644 234.6119
   235.5581 236.7203 236.8441 237.0615 237.2355 237.2749 238.2958 238.4809
   239.0049 239.8619 239.9936 240.9427 240.9606 241.8423 242.9673 243.5839
   244.3725 245.2369 246.3485 246.6961 247.2736 247.3786 249.3465 249.4446
   250.5675 251.2884 252.0066 252.3707 252.9059 252.9574 253.9225 254.1254
   254.6634 254.8348 255.1443 255.3438 255.7812 255.8985 256.7381 256.7845
   257.3136 257.9380 258.4944 258.8373 259.4664 259.5380 259.5755 260.2110
   260.6255 260.6463 261.3376 261.3490 262.4337 262.8916 263.5401 264.4961
   264.7748 265.1330 265.5963 266.1946 266.5576 266.7897 267.2401 267.2912
   267.7468 267.9644 268.3389 269.5108 270.0841 270.5695 271.3982 271.5248
   272.1934 272.6424 273.1043 273.4303 273.4305 273.7063 274.9178 274.9356
   275.5743 275.7259 276.2879 276.4130 276.5127 276.9918 277.1829 277.7242
   279.2039 279.2677 279.8002 280.1331 280.9143 281.1642 281.2444 281.5929
   282.0531 282.4596 282.7581 283.0522 283.4174 283.8245 285.2851 285.5916
   286.2321 286.6206 286.8499 286.8803 287.5000 287.9802 288.1398 288.5067
   288.7329 289.2321 289.9137 289.9825 290.1008 290.5357 290.5841 290.9944
   291.0213 291.3915 292.4631 292.8482 293.3572 293.5323 294.1797 295.0604
   295.5609 296.5388 296.8287 297.5733 298.3057 298.8553 299.2355 299.9619
   300.2288 300.5725 300.8598 302.1486 302.1560 302.7253 302.7554 303.1012
   303.5334 304.7475 305.4701 306.3071 306.6687 307.2701 307.4348 307.6598
   308.5594 308.6371 308.6546 309.0284 309.3483 309.6316 309.6934 310.4732
   310.7244 310.8362 311.2429 311.5844 312.1672 312.2966 312.5021 312.8461
   313.0871 313.6700 313.7412 313.9709 314.4457 315.4537 315.7382 316.1292
   316.9040 317.9077 319.1019 319.3730 319.5764 319.7589 320.1388 320.3709
   320.7625 321.1124 322.0588 322.1874 322.4415 322.4738 322.6572 323.4588
   323.5053 324.3360 324.6857 324.8116 325.2747 325.8871 326.4244 326.7760
   326.8770 327.2400 328.9647 328.9794 329.7113 330.4961 331.4643 331.8219
   331.8678 332.1383 332.3575 333.0355 333.3719 333.6023 334.1376 334.6009
   334.6810 335.0692 335.1948 336.2683 336.5226 336.8889 337.1055 337.8018
   338.0299 338.8921 339.4138 339.6281 340.2762 340.5160 340.8731 341.0841
   341.3580 341.5059 341.8488 342.6510 342.6754 343.2957 343.8173 344.5400
   344.9424 345.2679 345.4320 346.1338 346.2377 346.2918 347.1371 347.8622
   348.6827 349.6154 350.5884 351.2238 351.7367 351.8675 351.8881 352.3839
   352.7045 353.0332 353.4703 353.5828 353.6705 354.2008 354.2922 354.9339
   355.0002 355.2255 355.5649 355.6278 355.9313 356.7009 357.2419 357.6509
   357.9318 358.3334 359.7712 360.2594 360.3678 360.5567 360.8369 361.6837
   361.8303 362.0314 362.5327 362.8030 362.9590 363.9478 363.9764 364.2143
   365.2945 366.5663 367.3251 368.2344 369.2238 369.4895 370.6433 370.9060
   371.1714 371.9110 371.9485 372.2195 372.2817 372.6596 373.8631 374.2886
   374.7204 375.0530 375.2499 375.3831 376.3756 376.4083 376.8230 377.1829
   377.3001 377.3813 377.8535 377.9150 380.0707 380.7339 381.0749 381.4108
   381.6837 381.9761 382.4531 382.5346 382.8561 383.6034 383.7699 383.7974
   384.0419 384.4606 384.8579 385.0689 385.7751 385.8075 386.0726 386.6877
   387.0721 387.2190 387.7342 388.0973 388.3268 388.8851 389.1409 389.2725
   389.6045 389.7687 390.0285 390.6818 391.6249 391.6782 391.7110 392.2128
   392.3578 392.6815 392.9853 393.3209 393.6627 394.1017 394.7729 394.8421
   395.2989 395.6677 395.9423 396.9510 397.2696 397.9253 398.2302 398.2898
   398.8487 399.0172 399.1262 399.5356 399.5643 400.0788 400.5999 400.6958
   401.1786 401.4715 401.8100 402.1466 402.9010 402.9135 404.2689 404.6998
   404.9337 404.9602 405.2740 405.7138 406.1445 406.1460 406.6072 406.8375
   406.8912 407.0935 407.1225 407.3960 407.4238 407.7556 408.3462 409.7515
   409.7984 409.9158 410.0792 411.5549 412.1745 412.7621 413.0196 413.4675
   413.5579 413.8148 414.1747 414.7326 414.8061 414.8562 414.9692 414.9903
   415.0813 415.7847 415.8376 417.2042 417.6517 418.0940 418.4460 418.6760
   418.9496 419.0980 419.4967 419.7328 419.8277 420.3790 420.4564 420.5515
   420.6299 421.5849 421.6071 422.0664 422.5787 423.0572 424.1547 424.2404
   424.6101 425.1697 425.2559 425.7123 425.8888 426.1176 426.3277 426.3517
   426.8285 427.7506 427.8510 428.3045 428.4060 428.8135 428.8487 429.1810
   429.4308 429.6164 429.6483 430.0268 430.4159 430.5223 430.6311 430.7597
   431.4050 431.6502 433.0687 433.1801 433.4916 433.7155 433.7159 434.0542
   434.2223 434.6155 434.7997 436.1070 436.6710 437.1559 437.1653 437.7459
   438.3665 438.4404 438.9472 438.9599 439.3033 439.8582 440.7327 441.0063
   441.8337 441.8690 442.9058 442.9067 443.0176 443.2037 443.4154 443.5639
   443.9660 444.6772 445.5680 445.9339 446.0073 446.6525 446.9881 447.0237
   447.2105 447.2728 447.4140 447.7885 448.2424 448.7540 449.6056 449.6887
   449.7344 450.5260 450.6861 451.4050 452.9981 453.4495 453.4810 453.5539
   454.3815 454.9970 455.0622 455.5728 455.8419 456.0954 456.8283 456.8763
   456.9810 457.4234 457.5154 457.7746 457.8599 459.0151 459.1286 459.3323
   459.7805 460.3673 462.1480 462.6427 463.1940 463.3430 463.9794 464.3770
   464.7769 464.8545 465.0891 465.1271 465.7002 465.7428 466.0538 466.7695
   466.7723 467.1572 467.2629 467.2729 467.5757 468.4864 470.4873 470.9246
   471.1390 472.0994 472.4036 472.5689 472.7530 473.7154 473.9098 473.9725
   474.2095 475.0788 475.3292 475.6807 475.9731 475.9848 476.2271 476.7116
   476.9200 477.3533 477.7865 478.1106 479.0402 479.0786 479.1853 479.2586
   479.3037 479.3517 479.5561 479.5863 479.6664 479.8031 480.2003 481.5243
   481.5501 482.5021 482.5316 482.8292 482.9896 483.1559 483.4786 483.5192
   484.5339 485.0019 485.1626 485.6254 485.6325 485.9532 486.1451 486.2935
   486.7318 487.1332 487.1333 487.1546 487.2088 487.7984 487.9842 488.0936
   488.7537 489.8273 490.1156 490.8132 491.0700 491.4214 492.3725 492.4120
   493.0723 493.2189 493.5739 494.0943 494.3371 494.5212 494.7699 494.8222
   495.0424 495.0772 495.2379 495.2928 495.7625 496.2896 496.3403 496.8804
   498.5516 498.6164 498.8083 499.0347 499.2275 499.4300 501.0484 501.1717
   501.5288 502.1565 502.4161 502.4506 502.5051 502.6402 502.7694 502.9397
   503.3459 503.6262 504.0757 504.1703 504.2574 504.9896 505.6136 505.9666
   506.3314 506.6933 507.8034 507.9948 508.2739 508.2849 508.4823 508.9869
   509.7647 509.8151 510.7046 510.8769 511.2368 511.2909 512.1167 512.8627
   513.5343 514.6617 514.7462 515.0644 515.2425 515.3583 515.3618 515.9710
   516.3843 516.4258 517.4235 518.1425 518.3935 518.5855 518.8424 518.9258
   519.1364 519.1997 519.4642 519.7035 519.7624 520.0966 520.2798 520.4904
   520.7837 521.4639 521.7508 521.8998 522.5304 522.7190 522.7712 522.9523
   523.1121 523.4335 523.6857 523.7016 523.8400 523.9469 525.9820 526.6610
   527.2188 527.5889 528.7143 528.9735 529.1710 529.3193 529.6023 529.7131
   529.7297 530.3913 530.5064 530.6872 530.7061 530.9404 531.2846 531.3021
   531.8525 532.3048 532.5873 532.5972 532.9201 533.2781 534.6756 535.0758
   535.3784 535.6179 535.7090 536.4112 536.6494 536.9091 537.2292 537.5346
   537.6957 537.8895 538.1957 538.2505 539.1058 539.5810 539.6056 539.6303
   540.0520 540.4005 540.4180 541.0979 541.2781 541.6008 542.2245 542.4258
   543.1025 543.1610 544.4602 544.9881 545.0492 545.8347 545.9546 545.9926
   547.1597 547.2197 547.6428 547.7328 548.1702 549.1239 549.1526 549.4375
   549.8292 550.0005 550.1557 550.3195 550.9979 551.1029 551.3064 551.3321
   551.4057 551.4511 551.6151 552.1895 552.1972 553.6822 553.7791 553.9280
   553.9334 554.1083 554.1541 555.4593 555.6066 555.6449 556.0058 557.0593
   557.6494 557.8871 557.9591 558.1632 558.2998 558.3341 559.0267 559.5622
   560.3979 560.4185 560.8059 560.9413 560.9873 561.6523 561.7670 562.0658
   562.3355 562.6696 562.8170 562.8172 562.9380 562.9484 563.5536 564.3668
   564.6032 564.8430 565.5788 565.8793 566.2476 566.3145 566.4111 566.4119
   566.5223 566.5735 566.7367 566.7697 567.0620 567.3308 567.3702 567.7644
   567.8055 567.8197 568.2171 568.5713 568.6043 568.9071 569.4471 569.6686
   569.8308 570.4458 570.6957 570.9209 571.4236 572.0972 572.1125 572.4466
   572.6410 572.7414 572.8551 573.0062 573.2764 573.4348 573.9196 573.9268
   574.1472 574.5700 574.7786 575.4445 575.9081 576.1722 576.2262 576.7410

          k = 0.6667-0.3333 0.6667 (  3832 PWs)   bands (ev):

   -24.3035 -17.0236  -7.9636  -7.7904  -7.7360   1.0236   1.3375   1.3648
    10.9611  11.8816  13.6101  14.1330  15.8074  16.0576  17.5534  20.3178
    20.4054  23.1210  26.3348  26.4696  27.8687  29.0666  30.0713  33.0707
    33.8425  35.1382  36.3918  37.6824  38.4294  39.3727  39.7345  42.7538
    43.7415  44.3463  44.7654  45.8585  46.7979  49.4025  49.8160  51.3177
    51.9312  51.9467  54.0199  55.0324  56.3917  57.8704  57.9913  59.1252
    59.6061  62.4181  62.7100  62.7221  63.7792  65.4835  65.9612  67.2497
    67.9323  68.5422  70.5758  70.9267  71.8529  73.4695  73.7681  74.4491
    75.0899  75.4580  76.8262  77.4162  78.1002  80.0065  80.1893  80.5068
    80.8185  81.3428  83.0941  83.6361  85.0315  85.3491  86.0139  86.9202
    88.3504  88.7423  88.9472  90.6864  91.4159  92.2889  92.6079  93.0439
    94.6388  95.6665  96.3030  96.6107  96.9699  98.6389  99.2695 100.8913
   101.0611 101.8033 103.4469 103.9907 105.1298 105.8496 106.1183 106.3797
   106.5479 107.1084 108.2113 109.2600 110.3513 110.4886 111.6342 111.7459
   113.4476 113.5343 115.2307 115.2750 116.3329 117.2270 117.3416 117.4610
   120.1256 120.6657 121.4107 121.8475 121.9188 122.7401 122.8866 123.4813
   123.9290 124.9321 125.0359 126.0865 126.1534 127.6685 128.2225 129.0307
   130.0159 130.0476 132.6679 132.7588 133.6782 133.9322 134.4605 135.4017
   135.9071 136.0082 136.0686 137.4761 137.7639 138.1707 138.4891 138.9935
   140.1286 140.6665 140.7821 142.0889 142.3381 142.6014 143.1070 143.5771
   145.7832 145.9760 146.1752 147.0138 147.4699 149.0420 149.6903 149.9477
   150.9165 151.0192 151.6882 151.8318 153.2464 153.9746 154.9778 155.3579
   155.5309 156.0173 156.9738 157.1228 157.9720 158.7328 158.8677 160.8689
   161.2095 162.4998 162.7669 163.2908 163.6454 164.4106 164.5344 164.7818
   165.6144 166.0953 166.7712 167.1428 167.2531 168.3999 169.1344 170.1917
   170.6052 170.8738 171.7971 172.7660 173.1950 173.4667 174.4292 174.4675
   175.2247 176.4297 176.5198 177.1952 177.5856 178.0016 178.1039 178.5701
   178.6470 179.0987 179.4776 179.9589 180.9296 181.5222 181.6479 182.8100
   183.4831 183.6834 184.0729 184.6886 185.1444 185.9190 186.6101 186.8121
   187.7324 188.2353 188.4955 189.8782 190.5252 191.3836 191.7113 191.7275
   192.6206 193.0126 193.1564 193.5826 194.1158 194.5397 195.8906 197.0466
   197.7337 198.4824 199.5163 199.8295 199.8773 200.4331 200.7673 201.7890
   201.8399 203.3079 203.9693 204.7004 205.2002 205.4917 206.1541 206.6601
   207.0691 207.2290 207.9074 208.3841 208.6267 209.2135 209.5776 211.4157
   211.8472 212.7376 212.9880 213.1072 213.2433 215.4513 215.7126 216.4883
   216.8485 216.9618 218.1496 218.2035 218.5486 219.4761 220.0442 220.2180
   220.4548 221.4092 221.4796 221.9680 222.6916 222.8830 223.2463 223.8371
   223.8826 224.2224 225.1286 225.2481 225.6726 225.8153 226.4373 226.6879
   226.8741 227.2436 227.5231 229.0812 230.3311 230.3543 230.7603 231.1457
   231.1518 231.5786 232.5462 234.0122 235.0307 235.2968 235.5872 235.6977
   235.9564 236.8854 237.3231 237.4158 237.4762 238.1652 238.5632 239.1690
   240.2233 240.5725 240.5780 242.1115 242.2065 242.5355 242.5961 242.6831
   243.1261 243.1382 243.8223 244.5931 245.6979 245.8321 246.1630 247.3017
   247.3233 247.7763 248.1667 248.3010 248.4770 248.9455 249.2828 249.5564
   249.7538 250.7332 250.9324 251.9304 252.2844 253.3406 254.4579 255.1575
   255.4032 255.4068 255.7148 256.7143 256.9163 257.5361 257.8092 258.2569
   258.3641 258.7566 259.0887 259.6460 260.2699 260.4968 261.1783 261.1785
   262.7532 262.9104 263.0259 263.1021 263.4624 264.1505 265.2545 265.5352
   266.2855 266.4998 268.1108 268.1902 268.3374 269.3368 269.4422 270.1962
   270.7154 270.9138 272.3857 272.9682 273.1367 273.6071 274.0342 274.6964
   275.3108 275.4196 276.3846 276.4225 277.2301 277.5449 277.7070 278.0132
   278.0277 278.3031 278.5238 278.9557 279.4405 280.7828 280.8554 281.3633
   281.8916 281.9678 282.7860 282.9818 283.3672 283.7505 284.0422 284.7963
   285.4829 285.4921 286.0345 286.3367 286.6376 288.1711 289.5064 290.1361
   290.2490 291.0506 291.4624 291.7523 292.4580 292.7608 293.2691 293.8386
   294.1472 294.4385 294.5984 294.7177 295.3138 296.5295 296.6306 296.9849
   297.5590 297.9402 298.0467 298.1284 298.4526 299.1251 299.4075 300.5242
   301.2348 301.4942 301.6335 301.8265 302.6888 303.6692 304.5400 304.6537
   305.2556 305.3241 306.0053 307.4185 307.4679 307.9361 308.0639 308.0749
   308.3537 309.0497 310.1250 310.3374 310.8696 311.1961 311.6224 312.1085
   312.1712 312.8142 313.4259 313.7231 314.4406 314.9008 315.0570 315.3762
   315.8017 316.3778 316.4084 317.1975 317.8616 318.3724 318.6070 318.9304
   319.2363 319.3612 319.6359 319.7067 319.7404 320.4733 320.7738 320.8768
   321.3222 321.8998 322.3229 322.3518 322.8215 323.4428 323.7627 323.9841
   324.8187 324.8955 325.9343 326.0033 326.1647 327.0051 327.1106 327.3320
   327.9135 328.3670 329.1791 329.8649 330.4581 330.5161 330.8569 331.8911
   331.9613 332.5631 333.0314 333.1740 333.3666 333.5685 334.0857 334.5771
   335.1419 335.3435 335.7917 336.3355 336.3509 336.7432 336.7481 338.1835
   338.3863 339.1715 339.7844 339.8554 340.1675 340.5007 340.7634 341.3587
   341.4536 342.0175 342.0684 343.4735 343.5163 343.9236 344.4296 345.1570
   345.5129 346.0223 346.1407 347.2297 347.5468 348.0797 348.2644 348.4001
   348.5605 348.8576 348.8777 349.2807 349.2982 349.5618 349.8207 350.5335
   351.5873 351.9644 352.2837 352.7193 353.5823 354.5564 354.6021 355.5262
   355.9245 356.2353 356.5768 356.6879 356.9247 357.7364 357.9703 358.1769
   358.3354 359.7453 360.2968 360.4856 361.4120 361.7877 362.1995 362.4457
   362.5565 362.7013 362.7972 363.1497 364.0306 364.1868 364.6738 365.3670
[...]
   311.9151 312.3897 313.2082 313.8383 314.1912 314.6484 314.7689 314.8987
   315.1781 315.5623 316.2751 316.6267 317.2693 317.4858 317.9456 318.9807
   319.2636 319.5987 320.0858 320.3349 321.6409 321.7826 322.2218 322.4386
   322.6148 322.6719 323.0416 323.2689 323.5559 323.9005 324.5159 324.7546
   325.1209 325.7753 326.9988 327.1538 327.9778 328.8028 329.2171 329.9059
   330.1350 330.8740 331.1719 331.7126 332.2752 332.4472 332.7190 332.7430
   332.9035 333.5300 333.9001 334.1226 334.5335 334.7165 334.7328 335.5213
   335.6642 336.2043 336.9040 337.0434 337.1617 337.2948 337.3516 337.5823
   337.7528 338.3827 338.5855 339.1855 339.3419 341.4655 341.6131 342.6365
   342.9939 344.3963 344.5143 344.8028 345.4829 346.0506 346.7673 346.9516
   347.2015 347.6374 347.7487 347.8061 349.3883 349.7686 349.8993 350.7372
   350.7502 351.1942 351.9835 352.4789 352.4795 352.7119 353.0493 353.4755
   353.7594 353.8701 354.3514 354.8976 354.9852 355.3572 355.6760 355.7970
   355.9717 356.1326 356.4144 356.5961 357.0518 357.4102 358.0177 358.3956
   358.7637 359.2540 359.9341 361.0402 361.1221 361.2600 361.3919 361.6626
   361.9821 362.4179 363.0761 363.1840 363.2604 363.6061 364.1121 364.2082
   364.5655 365.5550 365.8126 365.8639 365.8681 366.6068 366.6881 367.1422
   367.1783 367.4450 368.1562 368.6892 368.6956 369.2455 369.3418 370.8664
   370.9326 371.0959 371.1268 371.2537 372.5840 372.7404 372.8680 372.9932
   373.0287 373.3447 373.3788 374.0818 374.3177 374.3904 374.5667 375.0012
   375.0633 375.8349 376.0406 376.1507 376.2714 376.8841 378.1132 378.1974
   378.4613 378.6225 379.9606 380.4354 381.3295 381.4507 381.5135 381.6863
   382.7448 382.9369 383.4820 383.7870 384.1121 384.4102 385.8299 385.9664
   387.1746 387.1959 387.4088 387.4887 387.6545 387.9311 387.9348 388.8549
   389.7991 389.8685 390.1639 390.2158 390.4592 390.5524 392.3926 392.5867
   392.5926 392.9604 393.4591 394.2314 394.2504 394.2987 395.4644 395.6391
   396.0254 396.0848 397.5942 397.8945 398.0307 398.2158 398.3176 398.3308
   398.7806 399.5978 400.9489 401.0174 402.1214 402.3914 402.6469 402.7910
   403.0958 403.1659 403.4406 403.8714 404.5721 404.6750 404.9964 405.5725
   405.8252 406.6150 406.7427 407.2745 407.7344 407.9229 408.5040 408.6518
   409.0491 409.4667 411.5829 411.7072 411.7349 412.2344 412.9367 413.0189
   414.4658 415.0743 415.2582 415.3626 416.0358 416.2323 417.3699 417.8428
   418.4719 418.8335 418.8644 419.0442 419.3620 420.6669 420.7963 421.8301
   421.9695 423.0789 423.2711 423.5734 423.9497 424.1011 424.2678 424.4196
   425.4987 426.0954 426.2722 426.5345 426.6313 426.6739 426.6943 427.4148
   428.3753 428.5470 428.7490 429.1609 429.2524 429.3598 429.6187 429.6353
   429.7902 430.1906 430.3362 430.7368 431.2065 431.2816 431.8488 432.1010
   432.2196 432.8593 432.9572 432.9720 434.4222 434.8930 435.0595 435.7451
   436.1833 436.6456 437.4730 437.5329 437.6427 437.8574 438.0852 438.3946
   438.5277 439.2727 439.7546 439.8953 440.4838 440.5995 440.7918 441.0131
   441.1670 441.2528 441.4991 441.8008 442.5239 442.8363 442.8495 443.6279
   443.8563 443.9155 444.7732 445.0937 445.4132 445.5016 445.5172 445.5887
   445.8952 446.4536 446.7764 447.6269 447.6615 448.3680 448.6157 448.7055
   448.9117 449.7351 449.9865 450.1471 451.5679 452.4313 454.1610 454.1700
   454.7929 454.8694 455.0746 455.2492 455.6750 455.7319 455.8568 456.0422
   456.1467 456.5782 457.7058 457.7403 458.2866 458.4641 458.5658 458.9069
   459.2944 459.7843 459.9346 459.9782 460.1593 460.1700 460.3681 460.5254
   461.3661 461.7129 462.0244 462.2145 462.5364 462.8064 463.1492 463.3147
   463.4486 463.4645 464.4698 464.8388 464.9428 465.2650 465.4700 465.8226
   466.5332 466.7207 467.6694 467.9825 468.1556 468.8208 469.0846 469.1187
   469.2168 469.2448 470.0617 470.1177 470.4380 471.0181 471.2304 472.3969
   472.7375 473.1611 473.2642 473.3878 473.6077 474.2969 474.5705 474.6695
   474.8696 474.9694 474.9740 475.5936 476.3809 476.4447 477.4486 477.4746
   477.6316 477.7673 479.4308 479.7944 481.0043 481.0060 481.2680 481.4152
   481.4459 481.6696 481.7408 482.3521 482.5174 482.9713 482.9939 483.1061
   483.4837 483.4996 483.8988 484.2699 484.3547 484.8621 485.0099 485.4872
   485.4890 485.7250 485.7930 485.7978 487.6139 488.0811 488.5742 488.8386
   489.1430 489.3579 489.9700 490.4951 491.1135 491.8057 492.0852 492.8897
   493.2698 493.6935 493.8676 494.7669 494.8359 495.3871 495.3880 495.5953
   495.7283 495.7592 495.7694 496.7195 496.9551 497.4174 497.8686 497.9424
   498.6966 498.8403 500.2675 500.4333 500.6710 500.8573 501.0913 501.3549
   501.4905 501.8015 502.1546 502.2016 502.4082 502.7438 503.5942 503.6098
   503.7489 504.0529 504.1614 504.2295 504.4708 504.5061 504.6120 504.8305
   504.8868 505.3482 505.7728 506.7370 507.3534 507.3873 507.5182 507.6140
   508.3082 508.4378 509.4598 509.5677 510.5023 510.9451 511.2282 511.4205
   511.5984 511.8381 511.9075 512.0048 512.0719 512.3702 512.5206 512.7903
   512.8324 513.0030 514.1465 514.1494 514.5607 514.7345 515.9008 516.4325
   516.4955 517.1093 517.4975 517.5039 517.8486 517.8888 518.1454 518.3298
   518.7155 518.7273 519.1106 519.2478 520.7168 521.0144 521.0756 521.1220
   521.4434 521.5888 522.0258 522.1061 522.5371 522.7548 523.2177 523.2414
   523.9273 524.0111 525.3379 525.3725 525.5819 525.6151 526.2113 526.2438
   527.0610 527.1494 527.1882 527.3303 527.6522 527.6798 528.1100 528.6553
   528.6955 528.7770 529.8788 530.0386 531.1800 531.1822 531.6777 531.8791
   532.4505 532.9201 533.3518 533.3542 534.1480 534.1522 535.4333 535.6496
   535.7029 535.9898 536.5126 537.0297 537.1911 537.7110 537.7260 538.0834
   538.1784 538.2215 538.2823 538.5404 538.6372 539.0686 539.8813 540.1016
   540.3964 540.4588 541.0109 541.1003 541.5178 542.1831 543.0338 543.0375
   544.0220 544.0404 544.6892 545.0825 545.1750 545.5470 546.3040 546.5488
   547.5974 547.8402 548.1136 548.2129 548.3034 548.5294 548.5587 548.5940
   549.3810 549.5271 549.7349 549.7520 551.5245 551.5722 552.5645 552.6420
   553.7763 553.7772 554.2565 554.5785 554.8112 554.8557 554.9829 555.3917
   555.4018 555.6228 555.6872 555.7276 555.8044 555.8192 556.1476 556.3346
   556.5993 556.6984 557.1678 557.2300 558.1392 558.1805 558.8187 558.9921
   561.1679 561.2052 562.0879 562.2537 562.5070 562.8216 562.8429 563.0522
   563.6124 563.6968 564.1352 564.3392 565.2288 565.2633 565.6044 565.7584
   566.4826 566.5104 566.6215 566.6321 567.3378 567.5962 567.7608 568.7426
   568.8481 569.0465 569.1028 569.1265 569.4151 569.4607 569.6557 570.2069
   570.2315 571.3254 571.7270 571.8500 572.3891 572.9610 572.9721 573.5427
   573.5813 573.7596 573.7657 573.9650 575.6451 575.7869 576.5985 577.4602
   577.5128 577.6630 578.7926 578.8150 579.4072 579.4295 579.7289 579.7973

          k =-0.3333-1.0000 0.0000 (  3808 PWs)   bands (ev):

   -24.2844 -16.9864  -8.1517  -7.9680  -7.7743   1.3212   1.4642   1.5351
    10.6613  12.3816  12.7167  15.2188  15.8546  16.9039  17.0018  18.6041
    20.0347  23.8692  25.2669  28.6636  28.7798  30.8495  31.6096  32.5743
    33.4549  34.7857  35.1537  35.2683  37.3947  38.6574  38.9537  39.7564
    43.4171  44.6485  44.9382  45.7551  45.8298  49.9615  50.3671  51.3331
    52.9158  54.6166  55.7561  56.3995  56.9011  57.1202  58.1277  59.1512
    61.7286  61.9660  63.0534  63.6921  64.5499  64.9957  65.6504  66.8411
    67.4692  67.9170  69.8211  71.9499  72.0764  72.8407  74.4641  74.9050
    75.6760  75.9364  76.3630  77.4161  77.6492  78.4034  79.3022  80.1974
    80.3073  81.8530  83.4767  84.3725  85.5744  86.7997  87.0240  87.0774
    89.1923  89.8530  90.0278  90.3433  91.6379  93.1969  93.2181  93.3463
    95.1064  95.1928  95.4880  96.1492  96.3947  97.8526  97.9586  98.7303
    99.4370  99.7391 100.4661 100.6636 100.8382 102.7019 103.0141 104.0941
   105.3650 105.5240 106.1101 106.2363 107.5145 109.8005 110.9315 112.6922
   113.2156 115.6293 116.1382 117.1975 118.4999 118.7804 119.0936 119.6394
   121.1158 121.8185 122.5300 123.5240 123.8312 124.9682 126.0373 126.1121
   126.6312 126.8544 126.9414 127.2214 127.6391 129.1896 130.0632 130.3597
   130.4735 131.1775 131.4600 133.9978 134.6622 134.9947 135.8477 136.8821
   137.3226 137.6859 138.5151 138.5867 139.3043 139.3530 139.6837 140.3112
   141.2328 141.6571 141.7789 142.0255 142.7469 142.9682 143.2945 144.2471
   144.6749 145.9387 147.1940 147.2508 147.7294 147.7768 148.4428 149.3694
   149.4092 150.2635 150.3847 150.8528 152.9987 153.2687 153.6526 154.1534
   155.2275 155.4324 155.9602 157.5253 157.6662 158.1282 159.3422 159.4508
   159.9890 160.9209 161.1807 161.2546 161.4376 161.9649 162.6614 163.0892
   163.1248 163.1508 164.6251 164.8170 165.2072 165.2665 165.4380 166.5834
   167.0198 167.2194 167.8099 168.1349 169.4460 170.1611 171.5001 173.5071
   173.6535 174.1145 175.1416 175.3554 176.7273 177.7830 178.2027 179.4790
   179.9242 180.0681 180.4372 180.4576 180.5652 181.0089 183.3218 184.3602
   185.2857 186.7901 187.5421 187.9014 187.9616 188.2662 188.3610 188.7902
   188.8222 189.0561 189.6071 189.8352 190.0165 191.7831 193.4637 194.3257
   194.3608 194.5301 195.3882 196.2656 196.4748 196.8239 197.1017 197.8381
   198.3167 198.6859 200.0503 200.1088 200.7325 201.1966 201.6269 201.8659
   204.0378 204.4142 204.5009 205.8998 206.2361 206.7716 206.9895 207.1029
   207.1386 207.4448 207.8020 208.9937 209.0385 209.7398 209.9069 211.5628
   211.7283 211.9383 212.2334 213.5804 214.4404 214.9533 215.7838 216.4161
   216.5627 216.9511 216.9997 217.0481 218.6696 219.3634 220.3284 220.6091
   220.8062 222.0907 222.9319 223.6060 223.6272 223.7388 224.3752 224.7082
   224.8540 225.2677 225.3492 225.5931 227.4851 227.6545 228.2696 228.4610
   229.1385 229.2866 229.5194 230.5206 230.7840 230.8585 231.3689 231.8889
   232.1887 232.6379 232.7258 233.7566 234.3083 234.4051 234.6899 235.6715
   235.8529 236.3223 236.4998 236.7801 237.0049 237.3613 238.8993 240.0433
   240.0766 240.2105 240.4153 240.7221 241.0608 241.3641 241.8657 241.8758
   242.5787 242.6376 243.2742 243.4084 243.6281 244.3863 245.0417 246.3304
   246.6932 246.8417 247.1877 248.3405 248.8120 249.0283 249.0834 249.2780
   249.7695 249.9844 250.6176 250.7716 250.9705 251.1642 251.9051 252.8147
   252.9003 252.9260 253.4774 253.4947 254.3351 255.3435 256.5428 256.5641
   256.6913 256.8003 259.4285 259.9861 260.0268 260.9261 260.9669 262.5641
   262.7271 263.0340 263.1794 263.9320 264.2000 264.6407 265.3139 265.9462
   266.1691 266.1988 266.4997 266.8552 268.6532 268.8439 269.1339 269.3004
   269.4046 270.1980 270.7539 272.5777 272.7581 272.9558 273.7606 274.2552
   275.4611 275.5991 275.7445 276.4240 276.5508 277.0365 277.3495 277.5666
   277.9076 278.1170 278.1798 278.1804 278.8980 279.5109 279.5861 280.2559
   280.9736 281.2856 281.5744 281.6729 283.0949 283.3390 284.0501 284.6256
   285.1036 285.3572 287.4411 288.7065 288.8118 289.2380 289.2794 290.5286
   290.6728 292.0064 292.5159 292.5166 292.7738 292.9388 293.8191 293.8927
   294.0131 294.0879 294.3124 294.5945 295.2156 295.6748 295.8346 295.9105
   296.8004 296.9233 297.7123 298.3653 299.2201 299.3029 300.6379 301.4550
   301.5168 301.6459 301.9362 302.5439 302.6078 303.0814 303.1962 303.7948
   304.2356 304.8692 304.8949 305.1682 305.4851 305.5642 306.1586 306.6053
   307.3598 307.4900 308.2855 309.3767 309.7806 311.8522 312.1451 312.3978
   312.5531 312.8694 313.0973 313.4469 313.6572 313.9772 313.9852 314.1654
   314.7990 315.8469 315.9176 315.9904 316.2173 316.5403 317.7100 317.9680
   318.0663 319.1908 319.8092 320.7567 320.8189 321.2061 321.4543 322.5528
   325.1404 326.1520 326.3939 326.7032 327.0206 327.2837 327.8475 327.8552
   327.9671 328.2779 328.6205 329.1320 329.4569 330.1036 330.5671 330.9117
   331.1909 331.2623 331.4328 331.6251 332.1839 333.0499 333.0507 333.7479
   334.7650 335.2820 335.3780 335.5670 335.8680 336.0922 336.7008 336.9374
   337.3744 338.1494 338.7023 339.1811 339.6081 339.6527 340.1150 340.3123
   340.5275 341.5113 341.7062 341.9771 342.5003 342.8950 343.0540 343.1241
   343.2672 343.4309 345.6085 345.7391 346.7776 346.9574 347.1971 347.2974
   347.9121 347.9866 348.2984 348.5191 348.6924 349.2660 349.3130 349.5317
   349.7235 349.8126 349.8244 350.0996 350.2227 351.2640 351.2775 351.6553
   352.0454 352.1990 352.2200 352.3629 353.6171 353.6416 353.7549 354.0456
   354.1892 354.3024 354.7993 355.2377 355.4640 355.9690 356.0243 356.0386
   356.7518 356.7826 357.2304 357.3389 357.6805 359.0173 359.5780 359.9828
   360.2089 360.8715 360.9097 360.9804 361.6430 362.4742 363.1912 363.6781
   363.7333 363.8198 364.1492 364.3663 365.0897 365.4349 365.4713 365.7790
   365.8119 366.2929 366.4520 367.4607 367.4764 368.0036 368.3510 369.8785
   369.9605 370.3038 370.5149 371.0354 371.4464 372.5120 374.2905 374.5415
   374.6014 374.7214 376.1752 376.4859 376.5374 376.8920 377.1506 377.7196
   378.2000 378.4069 378.4232 378.8684 378.9644 378.9658 378.9852 379.3058
   379.3231 379.5464 379.6996 379.7043 381.3936 382.4312 382.5199 382.5772
   382.6656 382.8001 383.5972 383.8201 384.2566 384.4668 384.5168 384.5712
   385.6068 386.0940 386.2534 386.3698 386.7247 386.9651 387.1637 387.3965
   387.4666 388.0866 388.1111 388.2226 389.8751 391.2214 392.3031 392.3113
   392.6025 393.6869 393.8185 393.8707 394.1660 394.7111 394.9447 394.9548
   395.6059 395.8302 395.8964 396.0062 396.5014 396.5927 397.8817 398.0082
   398.5177 398.6919 399.2702 399.9717 400.3632 400.4970 400.6085 401.0044
   401.0729 403.5356 403.5644 404.0947 404.5191 404.5426 405.7242 405.7261
   406.1379 406.8272 407.1425 407.4356 408.2405 409.9409 409.9619 409.9867
   410.3048 410.7008 411.4939 411.6416 411.8431 412.5940 412.6574 413.2897
   413.3802 413.5830 413.8107 414.1490 414.3141 415.0496 415.3875 415.9436
   416.1274 416.2827 417.5013 417.9738 418.0829 418.0832 418.9431 418.9511
   419.2638 419.3588 419.7605 419.9646 420.2345 422.0930 422.5136 422.6827
   422.7492 423.0926 425.9003 426.2353 426.4651 426.7213 427.6051 427.7184
   428.0303 428.2900 429.0635 429.3325 429.3913 429.7825 432.6321 432.9254
   433.9230 434.2094 434.3167 434.9549 435.2301 435.3954 435.8203 435.8779
   436.2756 436.7902 437.1825 437.3151 437.4160 437.5817 437.8026 437.9361
   438.0811 438.3230 439.0921 439.7047 440.4624 440.7017 440.7320 441.1174
   441.3089 441.7133 442.0123 442.0219 442.2574 442.4966 442.6451 442.6766
   443.0049 443.6962 443.7739 443.9976 444.0774 444.4974 445.9200 446.0191
   446.1666 446.7168 446.9789 447.1496 447.8658 448.0901 448.1319 448.2580
   448.4116 448.9359 449.2053 449.2141 449.2246 449.7586 449.9014 449.9781
   450.0983 450.1204 450.2198 450.3937 450.4150 450.5939 450.6308 450.7010
   452.1112 452.6674 452.9375 453.1019 454.4389 454.4622 455.2687 455.5414
   455.6509 456.0222 456.3864 458.3146 458.6470 458.6665 458.6931 458.9951
   459.1360 459.2120 459.5389 459.9749 460.0345 460.1839 460.1973 460.6810
   460.7160 462.2789 462.3288 463.0181 463.2842 463.4724 463.6922 463.7199
   463.8981 464.0169 464.0593 464.1611 464.3634 464.5072 464.7501 464.8214
   464.8391 464.8605 464.9339 465.7613 465.9147 465.9342 466.4210 466.4700
   467.0186 467.9758 468.4898 468.5159 469.4148 469.8291 470.1210 470.5651
   470.7544 470.8968 471.1723 471.4900 472.0520 472.6280 472.9575 473.0261
   473.8959 474.0797 476.6729 476.9574 476.9680 477.2032 478.6132 478.6166
   478.6172 478.6561 480.8551 481.4741 481.5928 481.7692 481.8062 482.1501
   482.2206 482.5104 482.7526 482.9343 482.9728 483.8204 483.9684 484.4138
   484.5294 484.5943 484.7346 484.8184 484.8961 485.0104 485.5826 486.0252
   486.4435 486.5770 486.6971 487.7642 487.7688 487.9232 487.9405 488.5732
   489.0122 489.2624 490.1425 490.2440 490.3629 490.4237 490.5397 490.6737
   490.7060 490.7329 491.0344 491.1433 491.8066 491.9142 491.9190 492.3321
   492.6850 492.8278 492.9593 496.4197 496.4511 497.3743 497.4086 497.6874
   498.1330 498.1973 498.3347 498.5498 498.8341 499.0312 499.1810 499.1859
   499.3859 499.4045 499.5245 499.7434 499.9196 500.3191 500.3589 501.4094
   501.6694 501.9017 501.9462 502.3143 505.4723 506.2336 506.3545 506.9609
   507.0625 507.3721 508.2561 508.6007 508.6149 508.6171 508.6966 508.8451
   508.8563 508.8730 509.0784 509.1724 509.2735 509.4139 509.4399 510.5503
   510.7064 511.1896 512.1375 512.3250 512.3636 512.6300 512.6615 512.9727
   513.0063 513.0556 514.4268 514.5121 515.0146 515.0596 516.0440 516.2853
   518.1553 518.2209 518.9515 519.9195 520.1159 520.1172 520.1357 520.1550
   520.3479 520.3555 521.0349 521.0639 521.2913 521.3275 521.4419 521.7311
   521.7320 522.9626 522.9810 523.0170 523.1776 523.3376 524.0505 524.2326
   524.2518 524.3498 524.3729 524.5078 525.7821 525.8821 526.2936 526.6092
   526.7257 526.8642 526.9660 527.2122 528.5693 528.6310 528.6673 528.8571
   529.0949 529.1402 529.1878 529.2114 529.2245 529.2375 529.4041 529.8531
   529.9002 529.9963 530.3115 530.6122 532.5814 532.9831 533.2369 533.3083
   536.8274 536.9575 537.2614 537.2983 537.7741 537.7988 539.1242 539.2315
   539.5013 539.6588 540.0105 540.0346 540.3360 540.7434 540.7617 541.0362
   541.2559 541.3174 541.3408 541.3786 541.3975 541.7299 542.0520 542.1117
   545.3260 545.5128 545.7302 545.9672 547.0711 547.4961 547.8632 548.0174
   548.0871 548.1273 548.1769 548.1812 548.5121 548.5882 548.7070 548.7965
   549.8688 549.9419 550.1180 550.1408 550.1667 550.1830 550.2187 550.8020
   551.3720 551.5591 551.6710 551.7284 553.0590 553.0696 554.8497 554.8932
   555.3039 555.7731 555.9744 556.1966 556.4868 556.4868 556.6799 556.7410
   556.7547 556.7636 556.8475 556.8744 557.5705 558.0154 558.5602 559.0473
   559.0768 559.2509 560.2528 562.7039 563.1432 563.4424 563.7312 563.9066
   564.0284 564.3171 564.7127 564.7683 564.7896 564.8647 565.0595 565.3219
   566.0512 566.0967 566.1351 566.1442 566.2351 566.4430 566.5590 566.7260
   566.7261 567.9414 567.9713 569.1681 569.4652 569.5135 569.5410 571.1640
   572.0011 572.0233 572.3162 573.1436 573.2769 573.4765 574.3217 574.3630
   575.3454 575.8152 575.8349 576.2454 576.2935 576.8187 577.9121 577.9981
   578.2390 578.2845 578.7027 578.9362 579.4996 579.5214 580.0884 580.2087

     the Fermi energy is     3.9874 ev
     (compare with:     7.2361 eV, computed in scf)

     Writing all to output data dir out/mp-463.save/
 
     init_run     :      0.03s CPU      0.06s WALL (       1 calls)
     electrons    :    660.55s CPU    702.44s WALL (       1 calls)

     Called by init_run:
     wfcinit      :      0.00s CPU      0.00s WALL (       1 calls)
     potinit      :      0.00s CPU      0.01s WALL (       1 calls)
     hinit0       :      0.01s CPU      0.03s WALL (       1 calls)

     Called by electrons:
     c_bands      :    660.54s CPU    702.41s WALL (       1 calls)
     v_of_rho     :      0.00s CPU      0.00s WALL (       1 calls)

     Called by c_bands:
     init_us_2    :      0.00s CPU      0.00s WALL (       8 calls)
     init_us_2:cp :      0.00s CPU      0.00s WALL (       8 calls)
     cegterg      :    604.75s CPU    642.58s WALL (      10 calls)

     Called by *egterg:
     cdiaghg      :    556.10s CPU    592.44s WALL (     125 calls)
     h_psi        :     13.06s CPU     13.57s WALL (     135 calls)
     g_psi        :      0.10s CPU      0.10s WALL (     117 calls)

     Called by h_psi:
     h_psi:calbec :      0.24s CPU      0.25s WALL (     135 calls)
     vloc_psi     :     12.46s CPU     12.95s WALL (     135 calls)
     add_vuspsi   :      0.17s CPU      0.17s WALL (     135 calls)

     General routines
     calbec       :      0.23s CPU      0.24s WALL (     135 calls)
     fft          :      0.00s CPU      0.03s WALL (      10 calls)
     fftw         :     11.35s CPU     11.79s WALL (  127094 calls)
 
     Parallel routines
 
     PWSCF        :  11m 1.36s CPU  11m44.09s WALL

 
   This run was terminated on:  17:22:37  19Nov2023            

=------------------------------------------------------------------------------=
   JOB DONE.
=------------------------------------------------------------------------------=
