
     Program PWSCF v.7.1 starts on 19Nov2023 at 13:13:45 

     This program is part of the open-source Quantum ESPRESSO suite
     for quantum simulation of materials; please cite
         "P. Giannozzi et al., J. Phys.:Condens. Matter 21 395502 (2009);
         "P. Giannozzi et al., J. Phys.:Condens. Matter 29 465901 (2017);
         "P. Giannozzi et al., J. Chem. Phys. 152 154105 (2020);
          URL http://www.quantum-espresso.org", 
     in publications or presentations arising from this work. More details at
     http://www.quantum-espresso.org/quote

     Parallel version (MPI), running on     8 processors

     MPI processes distributed on     1 nodes
     123884 MiB available memory on the printing compute node when the environment starts
 
     Reading input from pw_mp-463_nscf_k60_E93.in
Warning: card &IONS ignored
Warning: card / ignored
Warning: card &CELL ignored
Warning: card / ignored

     Current dimensions of program PWSCF are:
     Max number of different atomic species (ntypx) = 10
     Max number of k-points (npk) =  40000
     Max angular momentum in pseudopotentials (lmaxx) =  4

     Atomic positions and unit cell read from directory:
     out/mp-463.save/
     Atomic positions from file used, from input discarded
 
 
     R & G space division:  proc/nbgrp/npool/nimage =       8
     Subspace diagonalization in iterative solution of the eigenvalue problem:
     one sub-group per band group will be used
     scalapack distributed-memory algorithm (size of sub-group:  2*  2 procs)

 
     Parallelization info
     --------------------
     sticks:   dense  smooth     PW     G-vecs:    dense   smooth      PW
     Min         160     160     45                 3839     3839     585
     Max         161     161     46                 3844     3844     587
     Sum        1285    1285    367                30731    30731    4693
 
     Using Slab Decomposition
 


     bravais-lattice index     =            2
     lattice parameter (alat)  =      10.0322  a.u.
     unit-cell volume          =     252.4249 (a.u.)^3
     number of atoms/cell      =            2
     number of atomic types    =            2
     number of electrons       =        16.00
     number of Kohn-Sham states=         1200
     kinetic-energy cutoff     =      93.0000  Ry
     charge density cutoff     =     372.0000  Ry
     Exchange-correlation= PBE
                           (   1   4   3   4   0   0   0)

     celldm(1)=  10.032228  celldm(2)=   0.000000  celldm(3)=   0.000000
     celldm(4)=   0.000000  celldm(5)=   0.000000  celldm(6)=   0.000000

     crystal axes: (cart. coord. in units of alat)
               a(1) = (  -0.500000   0.000000   0.500000 )  
               a(2) = (   0.000000   0.500000   0.500000 )  
               a(3) = (  -0.500000   0.500000   0.000000 )  

     reciprocal axes: (cart. coord. in units 2 pi/alat)
               b(1) = ( -1.000000 -1.000000  1.000000 )  
               b(2) = (  1.000000  1.000000  1.000000 )  
               b(3) = ( -1.000000  1.000000 -1.000000 )  


     PseudoPot. # 1 for F  read from file:
     /usr/scratch4/magr4985/MG/HTDF/pseudo/SG15/F.upf
     MD5 check sum: 1d8275f47d602dd53cad6bcdc0eda7dc
     Pseudo is Norm-conserving, Zval =  7.0
     Generated using ONCVPSP code by D. R. Hamann
     Using radial grid of  602 points,  4 beta functions with: 
                l(1) =   0
                l(2) =   0
                l(3) =   1
                l(4) =   1

     PseudoPot. # 2 for K  read from file:
     /usr/scratch4/magr4985/MG/HTDF/pseudo/SG15/K.upf
     MD5 check sum: 254690d02b26e0029262a4c77e854448
     Pseudo is Norm-conserving, Zval =  9.0
     Generated using ONCVPSP code by D. R. Hamann
     Using radial grid of  602 points,  6 beta functions with: 
                l(1) =   0
                l(2) =   0
                l(3) =   1
                l(4) =   1
                l(5) =   2
                l(6) =   2

     atomic species   valence    mass     pseudopotential
        F              7.00    18.99840     F ( 1.00)
        K              9.00    39.09830     K ( 1.00)

     48 Sym. Ops., with inversion, found



   Cartesian axes

     site n.     atom                  positions (alat units)
         1           K   tau(   1) = (   0.0000000   0.0000000   0.0000000  )
         2           F   tau(   2) = (  -0.5000000   0.5000000   0.5000000  )

     number of k points=     8  Gaussian smearing, width (Ry)=  0.0005
                       cart. coord. in units 2pi/alat
        k(    1) = (   0.0000000   0.0000000   0.0000000), wk =   0.0312500
        k(    2) = (  -0.2500000   0.2500000  -0.2500000), wk =   0.2500000
        k(    3) = (   0.5000000  -0.5000000   0.5000000), wk =   0.1250000
        k(    4) = (   0.0000000   0.5000000   0.0000000), wk =   0.1875000
        k(    5) = (   0.7500000  -0.2500000   0.7500000), wk =   0.7500000
        k(    6) = (   0.5000000   0.0000000   0.5000000), wk =   0.3750000
        k(    7) = (   0.0000000  -1.0000000   0.0000000), wk =   0.0937500
        k(    8) = (  -0.5000000  -1.0000000   0.0000000), wk =   0.1875000

     Dense  grid:    30731 G-vectors     FFT dimensions: (  45,  45,  45)

     Estimated max dynamical RAM per process >     184.68 MB

     Estimated total dynamical RAM >       1.44 GB

     The potential is recalculated from file :
     out/mp-463.save/charge-density

     Starting wfcs are random

     Band Structure Calculation
     Davidson diagonalization with overlap

     ethr =  5.00E-06,  avg # of iterations =  7.8

     total cpu time spent up to now is      995.5 secs

     End of band structure calculation

          k = 0.0000 0.0000 0.0000 (  3839 PWs)   bands (ev):

   -24.4125 -16.9445  -7.6508  -7.6508  -7.6508   1.6481   1.6481   1.6481
     7.9545  12.3974  12.3974  12.3974  14.0515  14.0515  18.7155  26.2002
    26.2002  26.2002  26.3145  26.3145  26.3145  28.8195  28.8195  28.8195
    30.6495  30.6495  34.9441  40.6433  40.6433  40.6433  42.3626  43.8594
    43.8594  46.2010  46.2010  46.2010  54.5764  54.5764  54.5764  55.0649
    55.0649  55.0649  55.6926  56.5729  56.5729  56.5729  57.7560  57.7560
    57.7560  58.6269  58.6269  58.6269  60.9238  60.9238  60.9238  60.9575
    60.9575  62.1300  62.1517  64.2857  64.2857  69.1495  69.1495  69.1495
    71.9303  71.9303  71.9303  80.0095  80.6007  80.6007  80.6007  86.2200
    86.2200  89.7126  89.7126  89.7126  92.6927  92.6927  92.6927  94.8892
    96.3895  96.3895  96.3895  96.8825  97.8794  97.8794  99.5511  99.5511
    99.5511 100.7024 100.7024 100.7024 101.8047 101.8047 101.8047 101.9616
   101.9616 101.9616 102.1531 102.1531 102.4562 102.4562 102.4562 103.1504
   103.4337 103.4337 103.4337 105.1521 105.1521 106.0506 106.0506 106.0506
   106.7630 111.2827 111.2827 113.0840 113.0840 113.0840 114.5618 114.5618
   114.5618 119.6996 121.4726 121.4726 121.4726 124.6039 125.1925 125.1925
   125.1925 125.4794 125.4794 125.6890 125.6890 125.6890 125.7506 125.7506
   125.7506 125.7952 125.7952 125.7952 126.1805 126.1805 130.0489 130.0489
   130.0489 135.9678 136.6103 136.6103 136.6103 139.5265 140.6394 140.6394
   140.6394 140.9884 140.9884 140.9884 141.6657 141.6657 141.6657 141.7507
   141.7507 141.7507 141.8237 145.6624 145.6722 145.6722 145.6722 145.6899
   145.6899 148.1765 148.1765 148.1765 149.4895 149.4895 152.8279 152.8279
   152.8279 163.6071 163.6071 163.6071 163.7455 163.7455 163.7455 168.5007
   168.5007 168.6068 168.6068 168.6068 168.8978 175.4228 175.4228 175.9293
   175.9293 175.9293 178.1029 178.1029 178.1029 178.1815 178.1815 178.1815
   179.3169 179.3169 179.3169 180.1957 180.1957 180.1957 180.5534 180.9279
   180.9279 181.8723 181.8723 181.8723 182.2018 182.6429 183.5154 183.5154
   183.5154 183.9895 183.9895 184.0193 184.0193 184.0193 184.8969 185.1068
   185.1068 185.1068 185.2518 185.2518 185.2518 185.5181 186.7484 186.7484
   186.7484 187.0930 187.0930 187.2032 187.2032 187.2032 187.8859 187.8859
   187.8859 188.3429 189.8735 189.8735 189.8735 189.9673 189.9673 190.0059
   190.0059 190.0059 190.5505 190.5505 190.5505 190.7307 190.7307 190.7709
   190.7709 190.7709 191.4795 199.6634 199.6634 201.2048 201.2048 201.2048
   203.0398 203.0398 203.0398 207.1640 207.1640 207.1640 207.5624 207.5624
   207.5624 207.7435 207.7435 207.7435 209.8991 212.0706 212.0706 212.1572
   212.1572 212.1572 212.1704 212.1704 212.1704 212.2986 215.4567 215.4567
   215.4567 220.2207 220.2207 220.4123 224.6444 225.8534 225.8534 225.8534
   225.9276 225.9276 225.9276 226.2856 226.2856 226.2856 226.2979 226.2979
   226.3973 226.3973 226.3973 227.0980 227.0980 227.0980 227.9178 227.9178
   227.9178 229.8477 229.8477 230.2105 231.2869 231.2869 231.2869 231.3336
   231.3336 231.3336 231.3563 231.3563 231.3563 231.4337 231.4337 231.5615
   231.5615 231.5615 233.7695 238.0175 238.0175 241.4144 241.4144 241.4144
   242.9997 242.9997 242.9997 250.8320 251.1720 251.1720 251.1720 252.6443
   252.6443 252.6443 252.7208 258.7165 259.0465 259.0465 259.9069 259.9069
   259.9069 260.6853 260.6853 260.6853 262.7042 262.7042 262.7042 264.2549
   266.4195 266.4195 266.4195 267.2961 267.2961 267.8982 267.8982 267.8982
   268.4662 268.4662 268.4662 268.5105 268.5105 268.5105 268.7619 268.7619
   268.7619 269.7912 269.7912 269.7912 270.6470 270.6470 270.6470 270.7173
   271.0385 271.0385 271.0385 271.1761 271.1761 271.1779 271.1779 271.1779
   272.8839 272.8839 273.5671 273.5852 273.5852 273.5852 273.6377 273.6377
   273.6377 273.6464 273.6464 273.7617 273.7617 273.7617 273.9675 273.9675
   273.9675 274.1092 274.6580 284.0339 284.0339 284.0339 286.0383 286.0383
   286.0383 288.3331 288.3331 289.3908 292.3164 292.3164 292.3164 292.3756
   292.3756 292.3756 292.5157 292.5157 292.6806 292.6806 292.6806 292.9610
   292.9610 292.9610 293.4318 294.1071 294.1071 294.1071 296.1555 296.1555
   296.2516 296.2516 296.2867 296.2867 296.2867 296.4183 296.4183 296.4183
   296.4804 296.4804 296.4804 296.5370 296.5370 296.5370 296.7160 296.7160
   296.7160 297.6386 297.7647 297.7647 297.7647 297.8870 297.8870 297.8870
   297.9377 297.9377 298.0058 303.9855 303.9855 303.9855 304.4535 304.7793
   304.7793 304.7793 305.6337 305.6337 305.6337 307.0766 307.0766 307.0766
   307.3371 307.7913 307.7913 307.7913 308.1341 308.1341 308.4375 308.4375
   308.4375 308.7404 309.1950 311.8369 311.8369 312.0158 312.0158 312.0158
   312.3236 312.3236 312.3236 312.4341 312.4341 312.4341 312.5193 312.5193
   312.5789 312.5789 312.5789 312.9815 313.3089 313.3089 313.3089 313.4160
   313.4160 314.6310 314.6310 314.6310 314.6442 314.6442 314.6442 314.8084
   314.8084 314.8084 314.8224 314.8224 314.8224 315.8529 315.8529 315.8851
   315.8851 315.8851 315.8991 322.7252 322.7252 325.3169 325.3169 325.3169
   333.6352 342.7066 342.7066 342.7066 343.0952 343.0952 343.0952 347.6315
   347.6315 350.3104 350.3104 350.3104 351.8526 351.8526 351.8526 352.0158
   352.0158 352.3098 352.3947 352.5253 352.5253 352.5253 352.5660 352.5660
   352.5660 352.6955 352.6955 352.6955 352.8320 352.8320 352.8320 352.8721
   352.8721 352.9092 353.9113 353.9113 353.9113 354.9259 356.2831 356.2831
   356.2831 356.4936 356.4936 356.4936 356.5516 356.5516 356.5516 356.8515
   356.8515 356.8515 358.5667 360.3901 360.3901 360.3901 360.4131 360.4131
   360.4136 360.4136 360.4452 360.4452 360.4452 360.4527 360.4527 360.4527
   360.5391 360.5391 360.5391 361.3988 361.3988 361.4789 361.4789 361.4789
   361.5458 371.3537 371.3537 371.3537 372.7925 372.7925 372.7925 373.5190
   373.5190 376.2948 376.2948 376.2948 376.4376 376.4376 376.4376 376.9448
   379.7782 379.7782 379.8999 379.9216 379.9216 379.9216 380.0706 380.0706
   380.0922 380.0922 380.0922 380.1924 380.1924 380.1924 380.2115 380.2115
   380.2115 380.2819 380.2819 380.2819 381.5487 382.0574 382.0574 382.0574
   383.2622 383.2622 383.2622 384.7935 384.7935 387.0311 387.0311 387.0311
   391.4558 392.9253 392.9253 393.6855 393.6855 393.6855 393.9313 393.9313
   393.9313 393.9472 393.9472 393.9472 393.9597 393.9597 393.9597 393.9782
   394.0349 394.5970 394.5970 394.5970 395.6307 396.7548 396.7548 396.7617
   396.7617 396.7617 396.8439 396.8439 396.8439 396.8778 396.8778 396.8778
   397.1922 398.5673 398.5673 398.5673 399.6127 399.6127 399.6127 400.3110
   400.3110 400.3110 400.3305 400.3305 400.3543 400.3543 400.3543 400.4497
   400.4497 400.4497 400.5350 400.6811 400.6811 401.1357 401.1357 401.1357
   401.7998 402.1820 402.1820 402.1820 402.4267 402.4267 402.4267 402.6031
   402.6031 402.6122 402.6122 402.6122 402.7478 413.7776 413.7776 413.7776
   417.0934 417.0934 418.7182 418.7182 419.0882 419.0882 419.0882 420.2472
   420.2472 420.2472 420.4684 420.4684 420.4684 420.7671 420.7671 420.7671
   421.2768 421.2768 421.3847 421.3847 421.3847 421.5327 421.5878 421.5878
   421.5878 422.2579 426.4370 429.4151 429.4151 429.4151 430.7583 430.7583
   430.7583 432.9787 435.1202 435.1780 435.1780 435.8542 435.8542 435.8542
   435.9091 435.9091 435.9091 436.1216 436.1216 436.1216 436.1964 436.1964
   436.1964 436.2850 436.2850 438.2659 438.2659 438.2659 439.1286 439.1286
   439.1286 439.1682 439.1682 439.1682 439.2036 439.2036 439.2036 439.3351
   439.3351 439.3351 439.6375 439.6375 439.6375 439.6597 439.6597 439.7146
   439.7146 439.7146 439.7750 439.7750 439.9054 439.9054 439.9054 439.9877
   439.9877 439.9877 439.9991 439.9991 439.9991 440.8765 441.3161 441.3477
   441.3477 441.3477 441.3887 441.3887 441.3887 441.4470 441.6799 441.6799
   442.3071 442.3071 442.3071 442.4030 442.4030 442.4030 442.4300 442.4300
   442.5062 442.5062 442.5062 442.5706 442.5706 442.5706 444.2430 444.3522
   444.3947 444.3947 444.3947 444.3968 444.3968 446.2269 446.2269 446.2367
   446.2367 446.2367 446.2512 446.2512 446.2512 446.2514 446.2514 446.2514
   446.3087 446.3087 446.3195 446.3195 446.3195 446.4845 446.5997 446.5997
   446.5997 446.7098 446.7098 446.7098 446.8109 457.9054 457.9054 457.9054
   458.7649 458.7649 458.7649 459.7244 461.2875 466.7497 466.7497 466.7497
   466.8793 466.8793 466.9271 466.9271 466.9271 466.9307 466.9307 466.9307
   466.9640 466.9640 466.9696 466.9696 466.9696 469.1271 469.1271 469.1271
   470.4457 470.4457 474.6311 474.6311 474.6311 475.4006 475.4876 475.4876
   475.4876 475.6891 475.6891 475.6891 475.8161 475.8161 475.8161 478.9559
   478.9559 479.0184 479.0184 479.0184 479.1231 483.2400 483.2827 483.2827
   483.2827 483.3131 483.3131 485.2376 485.2376 485.2376 485.2666 485.2666
   485.2666 485.2932 485.2932 485.2932 485.2958 485.2958 485.2958 486.4994
   486.4994 486.5462 486.5462 486.5462 486.5701 500.8525 500.8525 500.8525
   505.4763 505.4763 505.4763 506.1665 506.1665 506.7852 507.1729 507.1729
   507.1729 507.1879 507.1879 507.1879 507.2204 507.2204 507.2204 507.2722
   507.2722 507.2764 507.2764 507.2764 507.5998 509.3694 509.3694 509.3694
   512.8363 512.8363 512.8363 515.3971 515.3971 515.8597 515.8597 515.8597
   516.4613 516.4613 516.4613 516.6775 517.0693 517.5523 517.5523 517.5523
   519.1213 519.2889 519.2889 519.2889 519.3281 519.3281 521.9539 521.9539
   521.9539 522.3201 522.3201 522.3201 522.7286 522.7286 522.9866 522.9866
   522.9866 523.1733 523.2352 523.2352 523.2352 523.4118 523.4118 523.8405
   523.8405 523.8405 524.0120 524.0120 524.0120 524.2570 524.3989 524.4314
   524.4314 524.8145 524.8145 524.8145 524.8753 524.8753 524.8753 524.9552
   524.9552 524.9552 526.0523 526.0523 526.0523 526.1068 526.1068 526.1170
   526.1170 526.1170 526.2125 526.2125 526.2154 526.2154 526.2154 526.2510
   526.2510 526.2510 526.6790 527.2006 527.2217 527.2217 527.2217 527.2628
   527.2628 527.2754 527.2754 527.2754 527.2912 527.2912 527.2912 529.7439
   529.7439 529.7823 529.7823 529.7823 529.7835 529.7835 529.7835 529.8250
   529.8250 529.8250 529.8686 543.1374 543.1374 543.1374 544.6313 544.6313
   546.2462 546.9961 546.9961 546.9961 547.3105 547.3105 547.3105 547.9654
   548.1723 548.1723 548.1723 548.2715 548.2715 548.2715 548.3738 548.3738
   548.3738 548.4696 548.4696 548.5796 548.5796 548.5796 548.7424 548.7424
   548.7424 548.8928 548.8928 549.0789 549.0789 549.0789 549.2561 549.3361
   549.3361 549.3361 549.4198 549.4198 549.4198 552.1878 552.1878 552.2091
   552.2091 552.2091 552.2345 552.2377 552.2377 552.2377 552.2437 552.2437
   552.2437 552.3701 552.3701 552.4699 552.4699 552.4699 552.5241 552.5449
   552.5449 552.5449 552.5651 552.5651 552.5651 553.5869 553.5869 553.6442
   553.6442 553.6442 553.6852 556.2979 556.2979 556.2979 559.2749 559.2749
   559.2749 559.5718 559.5718 560.2099 560.2099 560.2099 561.3165 561.5879
   561.5879 561.5879 561.5936 561.5936 561.8129 561.8129 561.8129 562.0469
   562.0469 562.0469 562.2129 565.0425 565.4711 565.4711 565.4711 565.8163
   565.8163 565.8163 566.3455 566.3455 566.3848 566.3848 566.3848 566.8273
   566.8273 566.8273 566.8389 566.9536 566.9536 566.9536 567.0172 567.0172
   567.0173 567.0173 567.0173 570.1616 570.1616 570.1616 570.2723 570.2723
   570.2723 570.2955 570.2955 570.2974 570.3533 570.3533 570.3533 570.3672

          k =-0.2500 0.2500-0.2500 (  3807 PWs)   bands (ev):

   -24.3613 -16.9930  -7.7942  -7.6698  -7.6698   1.2035   1.4630   1.4630
     9.4799  11.8220  13.1243  13.1243  14.6362  14.6362  20.2494  22.7529
    23.2804  23.2804  25.2157  27.1478  27.1478  28.0011  28.0011  31.0293
    33.7213  33.7213  37.7142  37.7142  38.4895  41.5099  42.1731  44.8243
    44.8243  44.8490  47.0961  47.0961  48.5681  50.2995  50.2995  50.3597
    52.6381  52.6381  53.4168  55.0723  55.0723  55.6227  57.0059  59.5385
    59.5385  60.5328  60.5328  62.5871  63.3118  63.3118  63.5331  65.0739
    65.0739  66.0712  68.6798  69.4678  69.9911  69.9911  71.2002  71.2002
    72.6728  72.6728  75.1097  76.6722  79.9428  79.9428  82.2130  82.2130
    83.4333  84.8015  84.8015  86.3739  88.7089  88.7089  89.0140  89.0140
    89.4064  90.6821  92.0138  92.0138  93.0801  94.8441  95.9814  95.9814
    97.8624  98.4227  98.4227  99.8790 100.1321 100.1991 100.1991 101.8224
   103.3872 103.3872 103.8010 103.8477 104.6366 104.6366 105.5779 105.5779
   107.9327 107.9327 108.0287 108.9042 108.9042 109.9352 110.5914 110.5914
   113.8593 114.2162 114.2162 114.8005 115.3954 115.8765 115.8765 116.2409
   117.5464 117.5464 118.2103 119.9112 119.9112 121.5172 121.5172 122.1404
   122.8323 124.3100 124.3100 124.9158 124.9158 125.1462 125.6390 125.6390
   126.6234 126.9491 126.9491 128.5527 131.2196 131.2196 131.4226 132.4712
   133.8205 133.8311 133.8311 134.6614 134.6614 135.7346 136.6570 136.6570
   137.4432 139.3551 139.3551 139.7350 141.7099 143.1698 143.1698 146.8091
   146.8091 147.1082 148.8395 148.8395 149.2499 150.3355 150.3355 151.0407
   153.3207 153.3207 154.6955 154.6955 155.0377 155.4573 156.6087 156.6087
   159.3818 159.3818 160.1256 160.8484 161.4156 161.4156 162.3135 162.3135
   162.9153 162.9153 164.0861 164.2501 164.4386 164.9933 164.9933 166.2494
   166.8337 166.8337 166.8816 167.4714 168.2186 168.2186 170.6892 170.6892
   170.8683 170.8683 171.9810 172.0582 173.5142 176.1064 176.1064 178.3542
   178.3542 178.5141 179.3335 179.3335 180.0849 180.4205 181.3361 181.3361
   183.0388 183.3950 183.3950 183.5445 184.0751 184.0751 184.8248 184.8248
   184.9754 186.3523 186.3523 186.3675 186.4138 188.2923 188.3043 188.3043
   188.7497 188.7497 189.4706 190.2424 190.2424 190.7493 190.7493 190.9794
   192.9622 193.2063 193.2063 193.3431 194.0467 195.7542 195.7542 196.1307
   196.1794 196.1794 196.5288 197.0415 197.0415 198.2515 198.2515 200.1524
   200.1524 200.6390 201.3515 201.5558 201.5558 202.6649 202.6753 203.6396
   203.6396 205.2218 205.3927 205.3927 205.6433 205.6433 205.8968 208.1456
   208.1456 208.7113 210.2274 210.2274 210.4958 210.4958 211.1542 211.5585
   212.8341 212.8341 213.6231 215.2139 215.3499 215.3499 216.5283 216.5283
   217.0076 217.3492 217.3927 217.3927 219.5835 219.5835 220.0565 220.6124
   221.1242 221.4546 221.4546 222.7172 222.7172 223.0007 223.0007 224.2373
   225.0639 225.0639 226.5876 228.0174 228.8120 228.8120 231.0992 231.0992
   231.7167 231.9438 232.5078 232.5078 232.5822 235.4110 235.4110 237.0266
   237.0266 237.7853 238.0707 238.0707 238.9505 239.7961 239.7961 240.4700
   240.8250 241.6678 242.6185 242.6185 243.5070 243.5070 244.5004 246.3332
   246.3332 246.7328 246.9449 246.9449 247.8269 247.8269 248.2533 248.3127
   248.7030 248.7973 248.7973 249.7020 249.7020 250.2629 250.7617 251.6736
   251.6736 252.9879 254.9604 254.9604 256.1920 256.1920 256.7986 257.9970
   258.4510 258.4510 259.2178 259.2178 259.7722 259.7722 260.3769 260.7387
   260.7387 260.8164 262.7453 262.7453 262.7789 264.9297 265.5744 265.5744
   266.1484 266.1484 266.9069 266.9584 267.1267 267.1267 268.1986 269.9371
   269.9371 271.6295 271.9071 271.9071 272.6032 272.6032 272.6353 272.8572
   273.0176 273.0176 273.8097 275.1640 275.1640 275.5433 276.2430 276.2430
   277.3146 277.6521 277.6521 278.1335 278.3668 279.0576 279.0576 279.7221
   279.7221 281.4456 281.6528 282.3923 282.7263 282.7263 284.7615 284.7615
   284.8426 284.8426 285.0712 285.3356 285.9204 285.9204 287.0638 287.0638
   288.0293 288.0293 288.0311 288.1427 288.4150 288.4150 288.4348 289.2825
   289.9952 289.9952 291.5337 291.5662 291.5662 291.8518 291.8518 292.1399
   293.2032 293.7096 293.9446 293.9446 294.7457 294.7457 295.3666 295.4725
   295.4725 295.8533 295.8533 296.1501 296.5371 296.9507 296.9507 297.0309
   297.6037 297.6037 297.7402 298.7670 299.5242 299.5242 300.1085 300.1085
   301.0893 301.0893 301.4478 301.8092 302.8197 302.8197 303.8737 303.8864
   303.8864 304.9444 304.9444 304.9779 305.4037 305.4037 305.5603 305.8906
   305.8906 306.0307 306.9330 306.9330 307.0226 308.6405 311.1911 311.1911
   312.5422 313.3039 313.3039 314.2318 314.8285 314.8285 315.7561 316.2326
   318.0731 318.0895 318.2259 318.2259 318.6950 318.6950 318.8580 318.8580
   318.9814 320.7277 321.2595 321.2595 321.4841 323.6593 323.6593 324.1582
   324.5931 324.5931 324.9913 324.9913 326.2298 326.2298 326.6904 327.1145
   327.7010 327.7010 329.1976 329.1976 329.4500 329.4500 330.3524 330.6759
   331.1322 331.1322 331.3653 331.8587 331.8587 332.0270 332.0270 332.9866
   333.8876 333.8876 334.0721 334.1932 334.1932 335.0865 335.1032 335.8864
   335.8864 338.1303 338.1867 338.1867 339.3197 340.1956 341.2695 341.2695
   342.6671 342.6998 342.6998 343.2831 344.0505 344.0505 344.0961 344.2449
   344.2449 344.2462 345.3306 345.3306 345.5336 345.8929 345.8929 346.5390
   348.1977 348.1977 349.3590 349.3590 349.9261 350.1731 350.1731 350.9015
   351.9968 351.9968 353.2721 354.1400 354.1400 354.4433 355.8101 355.8101
   357.0769 357.5937 358.6664 358.6664 359.3443 359.3443 359.8690 360.0253
   360.2813 360.2813 361.5270 361.5270 361.6010 362.0310 364.1152 364.1152
   364.2460 367.2854 367.2854 367.7575 368.1290 368.1290 369.3833 369.3833
   369.8020 369.8020 369.9630 370.3378 370.3378 370.3957 371.2131 371.2131
   371.3109 371.8117 372.0972 372.5685 372.5685 373.4055 374.5847 374.5847
   374.5857 374.9159 375.0677 375.0677 375.9286 375.9958 375.9958 376.3644
   376.3644 377.1352 377.3284 377.3284 377.8892 378.6123 378.6123 379.5813
   381.3815 381.3815 382.2981 382.3385 382.3385 384.5920 384.7377 384.7377
   384.8643 385.7208 386.8286 386.8286 387.1099 387.3018 387.3018 388.3679
   388.3679 388.3802 389.3600 389.7006 389.7006 390.2056 391.5658 391.5658
   392.0066 392.5789 393.4097 393.4097 394.2088 394.2088 394.6699 394.8188
   394.8188 395.0522 395.2860 395.2860 396.2018 396.2297 396.2297 396.5502
   396.8563 396.8563 397.6855 397.8904 397.8904 398.0207 398.1355 398.1355
   398.5331 398.5331 399.1014 401.0882 401.0882 401.4770 401.4770 402.2894
   402.2894 402.5072 402.5977 402.6651 403.7353 404.6819 404.6819 405.2505
   405.2505 405.5015 405.6703 405.6703 405.9055 406.2546 406.2546 407.0436
   407.6035 407.6035 407.9970 407.9970 408.0588 408.3126 409.0177 409.0177
   409.3529 409.9235 409.9235 410.2420 410.4715 410.4715 410.8860 410.8860
   410.9075 411.1800 411.1800 411.4900 411.7192 412.8222 412.8222 413.1789
   414.6155 414.6155 414.7903 415.5003 415.5059 415.5059 415.7824 416.0946
   416.0946 416.2713 416.5232 416.5232 417.9261 418.1781 418.1781 419.0546
   419.0546 419.1566 419.6180 423.4115 423.4115 423.4388 423.9644 423.9644
   425.1848 425.2918 425.2918 425.3225 425.3225 425.6791 425.6791 425.6906
   425.9387 427.3782 427.3782 427.7276 428.4046 428.4046 429.7776 429.7776
   429.8836 429.9085 430.4894 430.4894 431.1172 431.8536 431.8536 431.9182
   432.4587 432.4587 432.5717 433.8339 433.8339 434.2138 434.3026 434.3026
   434.4454 435.1562 435.8429 435.8429 436.4000 437.3558 437.3558 437.7749
   438.7530 438.7530 438.7538 439.1407 439.4465 439.4465 440.6909 440.6909
   440.8639 440.9180 440.9180 441.0249 441.5897 441.5897 443.0827 443.4402
   443.4402 444.2523 444.5943 444.5943 445.9715 445.9715 446.3920 447.6001
   447.8664 447.8664 448.3111 451.1035 451.1035 451.7577 451.7577 451.8735
   452.1766 452.2561 452.4326 452.4326 452.5908 452.5908 452.7438 453.2765
   453.2765 453.5136 453.5136 453.8935 453.8935 453.9040 453.9193 454.3179
   454.4271 454.4271 454.5204 457.2840 457.2840 457.3616 458.6297 458.6297
   459.2299 459.7290 459.7290 460.4497 460.5188 460.5188 460.6565 461.0515
   461.0515 461.4624 461.4784 461.4784 461.6278 462.7114 462.8774 462.8774
   464.0566 464.1215 464.1335 464.1335 465.1881 465.1881 465.2906 465.3645
   465.3645 469.1089 469.1089 469.1141 469.6149 470.3576 470.3576 471.2000
   471.4399 471.4399 471.8009 472.1552 472.1552 472.1727 472.6142 472.6142
   472.6679 472.9245 473.1690 473.1690 473.5062 476.6541 476.6541 477.6910
   478.0805 478.0805 478.6019 478.6019 478.6608 478.8200 479.6640 479.6640
   480.6164 480.6164 481.4174 481.4174 481.8762 482.6723 482.6723 483.7367
   484.7558 484.7558 484.9796 484.9796 485.4015 485.7350 486.3630 486.3630
   486.9172 487.4061 487.4061 487.6106 487.8740 487.8740 488.0669 488.4507
   488.4507 490.3189 491.1532 491.1532 491.4141 492.7929 492.7929 493.4416
   493.9547 493.9547 494.2172 494.5574 494.5574 495.9267 497.8109 497.8109
   499.1752 500.1407 500.1407 500.3554 501.3369 501.3369 501.7491 502.3955
   502.3955 502.4830 502.5289 502.7606 502.7606 503.0986 505.7084 506.7821
   506.7821 507.1884 507.1884 507.2545 507.4029 507.4029 507.5927 507.5927
   508.0280 508.0280 508.0472 508.0928 508.1451 509.3792 509.3792 509.6803
   510.6570 510.6570 510.7331 510.7331 510.9063 513.3167 513.3167 514.8133
   515.0074 515.0074 515.1764 515.1764 515.7058 516.4120 516.5100 516.5100
   516.6371 516.7462 516.7462 517.1861 517.2607 517.3013 517.3013 517.3569
   517.3569 517.6397 518.9946 519.4624 519.5176 519.5176 520.1571 520.1571
   520.1987 520.1987 520.2152 520.7655 520.7655 521.2456 521.2456 521.3082
   521.8738 521.8738 522.0031 522.8995 523.7351 524.4130 524.4130 524.6249
   524.8868 524.8868 525.0051 526.5598 526.5598 526.6119 527.6924 527.6924
   528.4393 528.4694 528.4694 528.7431 528.7431 528.7666 529.1173 529.3077
   529.3077 529.5217 530.7842 530.7842 531.1284 531.1284 531.1643 531.2318
   531.9968 531.9968 532.5430 533.4823 533.4823 533.6888 533.6888 533.7057
   533.9583 534.0657 534.0657 534.0928 534.8100 534.8100 534.8943 536.1396
   536.2564 536.2564 538.3010 538.3199 538.3199 540.3601 540.3601 540.4370
   540.6069 540.6069 540.9019 540.9019 540.9542 541.1428 544.6655 544.6655
   544.9281 545.4404 546.0257 546.0257 546.6278 546.6278 546.6729 546.8832
   546.8832 547.3997 548.6116 548.6116 548.9302 549.0500 549.0964 549.0964
   549.6682 549.6682 550.2577 550.2577 550.3996 550.5659 550.5706 550.5706
   550.7552 550.8700 550.9714 550.9714 551.1345 551.1345 551.1676 551.8006
   551.8006 551.8071 552.0636 552.0636 552.1637 553.1295 553.9029 553.9029
   555.4318 555.4318 555.6401 556.9685 556.9685 557.0448 557.8333 558.8215
   558.8215 559.2565 559.6031 559.6031 559.6432 560.7860 560.7864 560.7864
   561.0248 561.3224 561.3224 561.3952 561.3952 561.4079 561.8766 561.9725
   561.9725 562.3764 562.3764 562.4743 562.4743 562.4754 562.5660 563.2705
   564.3456 564.3456 565.1100 565.1100 566.1326 566.2966 566.2966 566.3203
   566.3565 566.3565 566.9359 567.9646 567.9646 568.0733 568.9868 568.9868
   569.5026 570.0642 570.0642 571.3939 571.3939 571.5349 571.9768 571.9768
   572.1049 572.1532 572.1532 572.2120 573.1478 573.1478 573.2064 574.8300
   574.9422 574.9422 575.2404 575.2404 575.3266 575.6342 575.6343 575.6855

          k = 0.5000-0.5000 0.5000 (  3828 PWs)   bands (ev):

   -24.3091 -17.0427  -7.9347  -7.6883  -7.6883   0.8414   1.2857   1.2857
    10.8170  12.4268  13.7864  13.7864  15.9276  15.9276  17.8491  20.2834
    20.2834  22.2921  26.6878  27.7913  27.7913  28.2817  28.2817  33.1921
    35.6649  35.6649  36.6066  36.8149  36.8149  41.7353  42.1098  42.1098
    43.0744  44.6044  44.7684  44.7684  46.8259  48.8655  51.5480  51.5480
    52.3197  53.5560  53.5560  54.4163  55.2271  55.2271  57.8313  58.2535
    58.2535  58.5589  62.7851  62.7851  65.7250  65.9981  65.9981  69.8257
    70.6436  70.6436  71.9239  71.9239  72.3633  72.3633  74.3764  74.3764
    74.8048  74.9797  76.0810  76.0810  76.9100  76.9303  77.8212  79.3005
    79.3005  82.9843  83.7883  83.7883  84.2935  86.8101  86.8101  87.3038
    87.3038  87.8704  87.8704  90.8671  90.8671  92.7238  93.6378  95.3110
    95.4067  96.1690  96.1690  98.6646  98.9107  99.3681  99.3681  99.9330
    99.9330 101.0858 103.6986 104.9081 104.9081 105.3742 107.2575 107.2575
   108.2252 108.5561 108.5561 109.3818 110.6619 111.1983 111.1983 113.8028
   113.8028 114.8617 115.6757 115.6757 115.8185 115.8185 116.8807 116.8807
   117.5532 117.7760 118.7642 120.9084 121.5888 121.5888 121.8800 124.1698
   124.1698 126.5454 126.5454 126.7744 127.6675 127.6675 129.4413 129.4413
   129.7997 129.8020 131.1449 131.1449 131.2143 132.5009 132.8824 134.0788
   134.0788 134.3214 134.3214 135.5781 138.4809 138.4809 139.0181 139.0181
   140.7057 140.7203 140.7429 140.7429 141.0313 141.0313 142.1290 142.1290
   146.5957 146.5957 147.1663 148.1040 148.1040 148.1311 150.9355 150.9355
   151.1704 151.1704 151.2302 151.2808 151.8645 152.4824 152.4824 154.2525
   155.3399 158.0260 158.0260 159.0500 159.9890 161.1920 161.1920 162.6073
   162.6073 164.3520 164.3520 164.6149 165.2638 165.6585 166.5866 166.5866
   168.2432 168.5818 168.5818 169.6718 169.6718 170.3783 170.6489 170.6489
   171.3022 171.3022 171.4634 171.5219 171.5838 171.8579 171.8579 172.1158
   172.1158 173.4131 176.5235 176.5235 177.5405 179.0954 179.9708 179.9708
   180.0636 180.0636 180.9342 181.7171 181.7171 181.7741 182.6049 182.7427
   182.7427 183.0956 183.0956 183.9505 183.9505 184.1346 184.5222 184.5222
   186.7367 187.7271 187.7271 188.0734 188.3614 190.5723 190.5723 191.3450
   191.5066 191.9279 191.9279 193.1669 197.2688 197.2688 197.4385 198.1189
   198.5611 198.5611 199.3827 199.9228 199.9228 202.0534 202.0534 202.2666
   202.4527 202.7152 202.7152 203.3047 203.3047 204.3947 205.0759 205.0759
   205.2606 205.2606 205.2840 205.5626 206.6250 206.8249 208.0474 208.0474
   208.4109 208.9727 208.9727 214.7359 214.7359 214.8231 214.8231 218.0838
   218.4757 218.8735 218.8735 219.2687 219.2687 220.5622 223.4504 223.4504
   223.6674 223.8266 223.8866 223.8866 224.0234 224.0234 224.1150 224.1150
   224.4190 224.4190 224.5371 224.5411 224.6660 225.2603 226.4379 227.3280
   227.3280 231.0949 231.6137 231.6137 232.2719 232.2719 232.4857 233.1573
   233.2396 233.4502 233.4502 233.5580 233.5580 233.5987 233.5987 233.8005
   233.8005 234.3530 234.8977 235.0858 235.0858 235.1629 235.6876 236.8514
   236.8514 236.8999 236.8999 238.1438 238.1439 240.3070 243.7863 243.7863
   244.9198 244.9198 245.9869 245.9869 246.3251 246.5008 246.5008 246.6690
   246.7875 246.7875 247.7900 247.7900 248.8504 249.2810 249.2810 251.8042
   251.8042 252.3917 252.8866 252.8866 253.9140 254.7678 255.7647 255.7647
   255.8187 255.8187 256.0264 256.0378 256.7089 256.8353 256.8353 257.2333
   257.3410 257.9532 257.9532 259.4230 259.4230 259.8890 259.8890 260.9705
   264.5662 264.5662 264.9604 265.3618 265.8251 265.8251 266.7261 266.7261
   267.0256 267.0256 267.0436 267.6206 267.7495 267.7752 267.7752 267.9118
   272.1499 273.1194 273.1194 274.0612 274.0612 275.8943 275.8943 275.9534
   275.9534 276.0782 276.4628 276.4887 276.4887 276.6513 277.2336 278.2048
   278.2048 278.4878 278.8135 279.6236 279.6236 281.3898 281.3898 281.4200
   281.8094 284.3529 284.3529 285.1133 285.3705 285.7463 285.7778 285.7778
   286.5228 286.5228 286.9116 286.9116 286.9275 286.9275 287.5024 287.8182
   288.6171 288.6171 290.3945 290.3945 290.5986 290.8255 290.8255 293.0835
   293.0835 294.0041 294.4043 295.4503 295.4503 295.6400 297.0144 297.0144
   297.6559 297.9237 297.9237 299.0587 299.1491 299.1491 299.1908 299.1908
   299.3676 299.5265 302.0438 302.0715 302.0715 302.1015 302.1015 302.1837
   302.9497 302.9497 303.3912 306.8420 306.8420 307.4959 307.5165 307.5165
   309.3049 309.3049 309.6841 309.6846 309.8681 310.6121 310.6121 312.7252
   314.3155 314.5124 314.5124 315.3477 315.3477 317.4256 317.4256 318.1965
   318.2788 318.2788 318.7116 319.3609 319.3609 319.4504 319.5882 319.7823
   320.6627 320.6627 320.8003 321.1448 321.1448 321.2048 321.2127 321.2127
   321.5979 323.3165 323.3165 324.1257 324.1257 325.1065 325.1065 325.1986
   325.6415 325.6415 326.3742 326.8292 326.8292 327.3227 328.2359 328.8345
   329.0303 329.9530 330.2780 330.2780 330.4671 330.4671 330.5182 330.7040
   330.7040 330.7282 330.7282 330.9858 330.9858 331.0362 331.0907 331.1244
   331.1244 332.2080 332.3038 332.3038 332.3907 332.3907 332.4954 332.5242
   338.9385 338.9385 340.1017 340.2516 340.2516 340.2739 340.5553 340.5553
   341.2741 341.4655 341.4655 341.6668 341.6668 341.9825 341.9825 342.0848
   342.1016 342.4161 343.1682 343.1682 343.4047 343.4047 343.4792 343.4816
   347.9995 347.9995 348.4449 349.3984 350.6963 350.6963 350.8588 350.8588
   351.2875 351.5672 351.5672 352.3223 353.2307 355.1224 355.9399 355.9399
   356.9046 357.2566 357.2566 359.4410 359.4410 359.6761 359.9932 359.9932
   360.2438 360.2438 360.7795 360.7795 360.9259 360.9259 361.0772 361.0832
   361.8857 361.8857 361.9056 363.3909 363.8729 363.8729 364.2730 364.2730
   364.6937 364.6937 365.7518 365.7519 367.6371 368.6000 368.6000 370.4328
   371.0749 371.0749 371.6412 372.0924 372.0924 372.1734 372.1734 372.9546
   373.6004 373.6004 374.0377 375.6474 375.6474 375.8603 375.8685 375.8685
   375.8824 375.8824 376.0819 376.0830 377.4531 377.4531 377.6716 378.0281
   378.7443 379.4473 380.2538 380.2538 381.9954 382.0758 382.0758 384.6672
   385.6299 385.6299 385.7284 385.7284 388.3301 388.3301 389.8498 389.8498
   390.5363 390.7928 390.7928 391.2093 391.4342 391.4342 392.1682 392.1682
   392.1906 392.5534 392.9047 392.9255 392.9374 392.9374 393.0375 393.0375
   393.0416 393.0416 393.3307 393.9296 394.1921 394.3347 394.3347 394.4159
   394.4159 394.8110 395.0227 395.0227 395.1088 395.1238 395.1238 395.5262
   395.5262 395.5907 395.8953 395.8953 395.9358 395.9824 396.9098 396.9098
   396.9429 396.9429 396.9479 397.1587 399.9285 399.9285 401.7398 401.7398
   401.9790 402.6133 402.7930 403.7953 403.7953 403.8134 403.8134 404.6675
   406.1213 406.3755 406.3755 406.5312 406.5312 406.5931 407.5187 408.9965
   408.9965 411.0900 411.0900 412.0565 413.2948 413.2948 414.3428 414.4810
   414.4810 414.5183 414.6090 414.6090 414.6991 414.7769 414.7769 415.1974
   415.4978 415.4978 415.7439 415.7439 415.9608 415.9713 416.3065 416.3065
   416.8662 417.2035 417.2035 417.6387 417.6387 417.6722 417.6722 417.7092
   417.7437 418.2198 422.1132 423.1186 423.1186 424.0977 424.7592 424.7592
   425.0743 425.5541 425.5541 425.7085 425.8797 425.8797 426.4429 426.4429
   426.9741 426.9741 426.9790 427.0113 427.0113 427.3868 427.3868 427.3894
   427.3930 427.4553 427.4613 431.0211 433.0813 433.0813 434.2761 434.2761
   434.3099 435.2713 438.0222 438.0222 438.6706 438.6706 438.6755 438.6755
   438.9296 438.9296 438.9345 439.0332 439.5132 439.5132 441.3168 441.3168
   441.6548 441.8865 442.2457 442.6352 442.6352 443.6543 443.6543 444.6123
   445.0464 445.6278 445.6278 445.7174 445.7376 445.7376 446.1916 446.1916
   446.2770 446.2907 446.2907 446.5873 446.6011 447.6195 447.6195 447.7917
   447.7917 448.1893 449.4874 449.4874 449.6746 449.6746 449.6944 449.7500
   449.8441 450.1651 450.1651 452.1306 452.1306 453.7543 457.3139 457.3139
   457.6115 457.6872 457.6872 457.9176 457.9176 457.9205 458.1872 458.3971
   458.3971 458.6130 458.6130 458.6854 458.6854 458.8355 458.8375 459.3736
   461.2493 461.2493 461.2559 461.2559 461.2629 461.2882 464.6450 464.6450
   466.4716 467.0369 467.4438 467.4571 467.4571 467.5588 467.5588 468.2378
   468.2378 468.2558 468.2558 468.5523 468.6374 468.6374 468.6666 468.6876
   469.5348 469.5348 470.0577 470.6615 470.6615 471.4608 471.4608 471.5134
   471.5136 471.5973 471.5973 472.4974 475.9986 475.9986 476.2569 478.0683
   478.1941 478.1941 478.8454 478.9360 478.9360 479.0351 479.3292 479.3551
   479.3551 479.4303 479.4801 479.6755 479.6755 479.7118 479.7118 480.0910
   484.9815 484.9815 485.5138 486.2342 486.2342 486.9962 486.9962 487.1500
   487.2924 487.5412 487.5412 487.6407 487.6407 487.7551 488.0075 488.0075
   488.3234 488.3234 488.5710 488.5710 488.5913 488.6223 488.7177 488.7177
   488.7488 488.7515 488.8815 488.9876 489.0319 489.0319 490.8541 490.8653
   491.0064 491.0064 491.0221 491.0221 492.2541 492.2541 492.2608 492.2608
   492.2767 492.3187 492.3187 492.3207 492.3518 492.3518 492.4431 492.4530
   501.2723 501.2723 501.3898 501.8380 501.8380 501.9570 502.2764 502.2764
   502.3255 502.3255 502.3927 502.4767 502.4769 502.4773 502.6034 502.6034
   502.6784 502.6784 503.8802 503.8802 506.3897 506.3897 506.5786 507.8791
   509.1827 509.1827 509.6249 509.7158 509.7158 510.2092 510.9721 510.9721
   511.4980 511.5704 511.5704 511.6730 511.7702 511.7702 511.9141 511.9141
   511.9356 511.9833 512.1840 512.1840 512.5775 512.5775 512.6511 512.6537
   514.0339 515.6523 515.6523 515.7545 515.7545 515.8936 516.1509 516.7515
   518.2051 518.8506 518.8506 519.1610 519.1610 519.2157 519.2157 519.3816
   520.7008 520.7863 520.7863 520.9524 520.9524 520.9571 520.9571 522.1552
   522.9539 523.0045 523.0045 523.0309 523.0309 523.2680 523.2680 523.2937
   523.3217 523.3353 523.3353 523.3389 523.3389 523.4869 523.4869 523.4897
   523.5223 523.5722 525.8764 525.8764 525.8794 525.8794 527.0457 527.0458
   531.3484 531.3484 532.3043 532.3043 532.3811 532.4771 534.1536 534.1536
   534.2064 534.3228 534.3228 534.6846 537.0751 537.0751 538.1988 539.7387
   539.7387 539.9346 539.9951 540.2990 540.2990 540.5978 540.5978 541.2390
   541.7328 541.7328 541.9719 541.9719 542.0655 542.1272 542.2333 542.3120
   542.3120 542.5148 542.5148 542.5253 542.5253 542.6124 542.7349 542.7349
   542.8641 543.0855 543.7255 543.7255 543.7321 543.7321 543.8453 544.0137
   547.6776 548.6774 551.8055 551.8055 552.6077 552.6077 552.6431 552.9987
   553.0205 553.0872 553.0872 553.2442 553.2442 553.4916 553.4916 553.5401
   553.5401 553.6280 553.6868 553.7480 553.7480 553.7504 553.8371 553.8904
   553.9904 553.9976 553.9976 554.0270 554.0270 554.1078 554.1305 554.1305
   555.4412 555.4412 555.7930 555.8151 555.8151 556.2136 556.2939 556.2939
   556.3095 556.3095 556.4905 556.4905 556.4929 556.4937 556.4937 556.5221
   557.2819 557.2819 557.2910 557.2910 557.3314 557.3329 561.3672 561.3672
   561.5396 562.0322 562.0322 562.5847 566.6318 566.6318 566.7307 566.7307
   566.7533 566.7677 572.5385 572.5385 572.7231 574.7140 574.7140 575.3371
   575.3371 575.3460 575.3460 575.4573 575.4573 575.4633 575.4855 575.5417
   575.6566 575.6566 575.7375 575.7375 575.7469 575.8420 575.9226 575.9226
   575.9543 576.0054 577.2321 577.2321 577.7456 577.8908 577.8908 578.1552

          k = 0.0000 0.5000 0.0000 (  3831 PWs)   bands (ev):

   -24.3471 -16.9825  -7.8150  -7.7624  -7.7624   1.1506   1.6019   1.6019
     9.7756  10.8782  13.8570  13.8570  14.3303  14.6062  21.5721  22.0790
    22.1040  22.1040  26.0893  27.2360  27.2360  27.5209  29.1540  32.7834
    32.7834  33.0931  36.1723  38.7968  38.7968  39.8251  43.3039  44.0836
    44.1834  44.1834  45.4581  47.8944  48.8714  48.8714  51.6908  51.9178
    52.3878  53.0058  53.0058  55.0885  55.1034  55.8319  55.8319  59.1150
    59.3689  59.4139  62.0591  62.0591  64.5514  64.5514  64.8541  65.7818
    65.7818  66.2675  67.0739  68.8825  70.4437  71.7196  71.7196  74.0322
    74.8174  74.8174  75.3488  77.8468  78.9158  79.7888  80.0251  80.0251
    83.1603  85.5591  85.5591  85.7972  86.0458  86.8604  86.8604  87.4445
    89.8734  89.8734  91.2996  91.3472  92.7368  92.7368  95.2595  95.5173
    96.2356  96.2356  97.2669  97.7512  98.7991 102.6258 102.6258 102.8595
   103.6161 103.9735 104.0975 104.0975 104.3001 105.4631 105.9418 105.9418
   106.9031 107.3952 110.2887 110.2887 111.1583 111.7446 113.1092 113.1092
   113.3388 114.0848 114.0848 115.3299 115.9329 116.4221 116.6063 116.6063
   116.6506 117.4656 117.4656 118.2421 118.2499 118.5253 118.5253 119.3994
   119.8299 121.8630 122.7950 123.0921 123.0921 125.0145 125.0145 125.7592
   128.1116 128.2722 129.4013 129.4013 131.2906 133.8582 133.8582 136.1678
   136.1853 137.2731 137.2731 137.3260 138.1945 138.5876 138.5876 138.9148
   140.6396 140.9601 142.9661 142.9661 143.5574 143.8714 144.5695 145.4200
   145.4200 146.8212 147.0446 147.2947 147.2947 148.8262 149.8046 149.8046
   150.5701 150.9946 152.5288 152.8615 152.8615 153.3579 157.1531 157.3700
   157.8032 158.3441 158.3441 158.9016 159.7605 159.7605 161.0236 161.0236
   161.7671 163.9520 163.9520 163.9926 164.1877 165.5584 166.6265 166.6671
   167.6285 167.6285 168.2432 168.2432 168.2760 168.7291 170.2454 170.2454
   171.1058 172.0371 172.3389 172.3389 172.3537 173.3830 173.6327 173.9132
   174.2119 174.2119 177.3545 177.3545 177.6781 177.6781 178.0653 179.0822
   179.1184 179.1889 179.1889 179.3862 180.1040 181.5730 181.7872 181.7872
   185.2906 185.4110 185.6596 186.8642 186.8642 189.3521 189.4268 189.6274
   190.4317 190.4317 191.2497 192.6895 192.6895 192.9351 192.9351 192.9722
   194.7783 195.8517 197.5861 197.5861 197.6047 197.7671 197.9033 197.9033
   198.4592 199.8511 200.2935 200.2935 200.4475 201.2493 202.1007 202.2550
   202.4468 202.4468 203.0671 204.1272 204.8115 204.8115 204.9730 205.5334
   205.8092 205.8092 208.2288 208.2288 208.3540 208.4982 208.4982 208.4986
   208.5925 208.7090 209.1434 209.1434 209.4970 210.7503 211.0328 211.7069
   211.7069 211.9856 212.0793 212.0793 212.2323 212.5442 212.7208 213.0880
   215.0555 215.0555 216.2222 216.3777 217.2650 217.2650 219.3767 219.7090
   219.8110 219.8110 220.2830 221.3094 222.2608 222.2608 222.3335 223.0952
   225.1628 225.1628 227.7805 228.1391 228.2298 228.2298 229.6419 233.0045
   233.1843 233.3463 233.3463 233.6637 233.6637 234.3766 236.3900 237.5987
   238.4827 238.4827 238.9443 239.8459 239.8459 241.0409 241.2379 241.5140
   241.5183 241.5361 241.5361 241.6204 241.6204 243.9886 244.5544 244.8461
   244.8461 244.8574 245.3336 245.4443 245.4947 245.4947 245.8399 245.9960
   246.7669 247.7021 247.7021 248.8884 250.9239 250.9239 251.1020 251.2825
   252.5044 252.5044 253.4573 254.5431 258.0444 258.5362 258.5362 258.8062
   259.3750 259.3750 260.6051 261.2528 261.2528 262.5850 263.7831 264.8503
   264.8503 265.1822 265.1977 265.1977 265.2527 265.2715 265.3296 266.4150
   266.4676 266.6085 266.6085 267.2421 267.2421 269.9299 270.1101 270.1530
   270.1530 271.8961 271.8961 272.0682 272.0793 272.4878 272.6670 273.5312
   273.7506 273.7506 273.8543 273.8815 273.8889 273.8889 274.4360 274.4391
   275.1404 275.1404 275.2938 275.3431 275.3431 275.5582 275.5997 276.0428
   276.6787 277.9088 277.9088 278.1939 278.3593 278.3746 278.3746 279.1236
   279.1236 279.8229 280.6359 283.3610 283.3780 283.3780 283.3890 283.8459
   284.7455 284.7455 284.7887 286.4943 286.4943 286.7291 287.2703 287.4283
   287.4774 287.5101 287.5101 287.6723 288.8349 288.8349 290.2394 290.3390
   291.8215 291.8215 292.9887 293.4480 293.9341 295.0291 295.5910 295.5910
   296.8124 298.3018 298.7156 298.7156 298.9870 299.0255 299.0394 299.0394
   299.1395 300.5722 301.0781 301.4380 301.4380 302.6518 302.8620 302.8620
   303.5505 304.0172 304.6243 304.6243 305.0760 305.1240 305.1240 305.2727
   305.3360 306.8497 306.8497 307.1902 307.6546 307.6546 307.6706 310.0468
   310.8496 310.8496 312.2819 313.1879 314.6825 314.6825 314.8204 315.2802
   315.2802 315.7552 316.5029 316.5607 316.5607 316.9718 316.9904 317.0447
   317.1082 317.1638 317.1638 317.6297 317.9201 317.9201 318.2115 320.0999
   320.4755 320.4755 321.9301 322.4530 323.6616 323.7222 323.7222 324.3911
   324.5992 325.1637 325.1637 325.5094 325.7033 325.9823 326.1744 326.1744
   327.0578 328.2030 328.2030 329.6784 329.8417 329.8417 330.1253 331.6427
   331.7163 331.7163 331.7334 331.8201 332.4497 333.8420 333.8450 333.8450
   335.6757 335.6757 335.8015 336.2468 336.6785 336.6785 336.9048 337.5037
   337.5645 337.5645 338.1564 338.3816 338.6542 338.6542 338.7656 339.6102
   340.0486 340.3692 340.3692 340.5225 340.6769 340.7707 340.7707 341.0981
   341.5361 342.9228 342.9228 344.2932 344.2932 344.2985 344.7203 347.1547
   347.4715 347.4715 347.6619 348.1157 350.0628 350.7893 350.7893 351.3496
   353.2641 353.2641 353.4254 354.4968 354.7028 355.6724 355.6724 356.7317
   357.6196 357.6465 357.6587 357.6587 361.7205 362.2930 362.2930 362.7763
   363.6842 364.1936 364.1936 364.8300 365.2868 365.8130 365.8130 366.1393
   367.7750 367.7750 368.4893 368.6718 368.8032 368.8032 368.8235 369.1387
   369.3470 369.3470 369.8048 369.9298 369.9307 370.0272 370.0272 370.1034
   370.1625 370.1625 370.2267 370.2381 370.3596 371.0632 371.3828 371.3828
   371.5838 371.6542 371.6542 371.6917 372.1456 372.9193 373.5353 373.5353
   374.6544 374.7310 374.7310 374.7858 374.8969 376.0834 377.2339 377.2339
   377.4696 378.0480 379.2460 379.2460 379.4988 380.2053 382.6843 382.6843
   382.6849 382.8750 383.2756 383.2756 384.2930 386.2808 389.1331 389.1331
   389.2157 390.3098 390.4605 390.6577 390.6577 390.8245 391.4125 391.7712
   391.7712 391.8377 391.9295 391.9698 391.9698 392.0935 392.2099 392.2099
   392.2213 392.2434 392.2434 392.2800 392.5188 392.5188 392.9178 393.1301
   396.0021 397.0186 397.0186 397.4701 397.8552 398.5691 398.5691 398.6074
   399.7034 400.1578 400.3231 400.3231 400.9494 400.9775 400.9924 401.0547
   401.0547 401.1154 401.1154 401.8679 402.5844 402.7695 402.7904 402.7904
   404.4511 404.7069 404.7069 404.7761 405.3815 405.5414 405.6786 405.6786
   405.8419 407.3594 407.3594 408.1731 408.5454 408.8900 408.8900 411.0248
   411.1108 411.5215 411.7212 411.7212 412.2947 412.8212 412.8212 412.9717
   413.1634 413.6196 413.6196 415.0723 415.5645 418.2555 418.2555 419.1433
   420.0771 420.2475 420.4301 420.7063 420.7063 421.0299 421.2336 421.3775
   421.3775 421.9627 422.1114 422.3123 422.4848 422.4848 422.7313 422.9922
   422.9922 423.4959 423.4959 423.6602 423.9011 424.0839 424.0839 424.1060
   424.1287 424.1777 424.1854 424.1854 424.3044 425.6813 425.7369 425.7369
   425.7836 426.3822 426.7140 426.7685 426.7685 426.7728 428.4779 428.4779
   429.0910 429.4206 429.4206 430.1255 430.1717 430.2466 430.2466 430.5783
   432.3328 432.7971 432.7971 433.9278 433.9892 434.1542 434.1692 434.1692
   434.3440 435.4460 435.4529 435.4529 435.7170 435.7262 435.7520 435.7654
   435.7654 436.4549 436.4629 436.4629 436.4889 436.6522 436.9250 437.1115
   437.1115 437.1540 438.4229 438.5984 438.5984 438.6511 438.6511 438.9357
   439.8488 441.5803 441.5803 441.9042 442.1316 442.9717 442.9717 443.0533
   443.5024 445.3428 445.3428 445.3709 445.6335 448.6687 448.8845 448.8845
   449.0090 451.1714 451.1714 451.3864 452.2078 453.6469 453.6469 454.0020
   454.3426 454.5009 454.5091 454.5091 454.7490 457.8484 457.8484 457.9584
   458.0508 458.4483 459.3563 459.3563 460.0163 461.6274 463.7243 463.7243
   464.0526 464.0526 464.2662 464.7579 464.7782 464.8842 465.2266 465.2266
   465.2622 465.3360 465.3360 465.4077 465.7638 467.0405 467.0405 467.0986
   467.5797 467.7764 468.0288 468.0288 468.1971 468.7865 469.1500 469.3670
   469.3670 469.5085 470.6136 473.0422 473.0422 473.7227 474.4682 474.5214
   474.5214 474.8837 475.2286 475.4232 475.5102 475.5102 475.7098 475.7374
   475.7374 476.4728 476.9804 478.5216 478.5216 478.8723 479.0137 479.0137
   479.1443 479.5014 479.6108 481.4937 481.4937 481.5235 483.9779 483.9779
   484.0677 484.7461 485.3439 485.5329 485.8163 485.8163 486.1766 486.3937
   486.3937 486.6584 486.7548 486.8802 486.8802 487.1499 487.1954 487.1954
   487.2194 487.2540 487.3315 487.3471 487.4879 487.4879 488.0922 488.5183
   488.5183 488.5446 488.7038 488.7062 488.7062 490.0674 490.1734 490.1734
   490.3063 491.0790 491.1332 491.1332 491.1412 492.8989 493.7274 493.8262
   493.8262 494.1499 494.2576 495.3230 495.3230 496.0444 496.0653 496.3667
   496.3667 496.4424 496.6159 496.6159 496.7866 496.8976 496.8976 496.9806
   497.2870 500.1653 500.1952 500.1952 500.2126 500.2874 500.2952 500.2952
   500.3362 501.5514 502.3629 502.4121 502.4121 502.4290 507.3487 507.3487
   508.2472 508.2708 508.2708 508.3183 508.5896 508.6845 508.8810 508.8823
   508.8823 508.9084 509.2292 509.3292 509.3292 509.4004 512.3073 513.9582
   513.9582 514.3249 514.9206 515.0730 515.0730 515.3356 516.5718 516.5718
   519.4063 519.6456 519.7445 519.9036 519.9036 519.9260 520.0730 520.1200
   520.3027 520.3027 520.5253 520.5253 520.6592 521.5785 523.0612 523.1407
   523.3081 523.4954 523.4954 523.7727 524.2272 524.2272 524.6707 524.6707
   525.0343 528.3250 528.7291 528.9322 528.9322 529.4217 529.4217 529.5187
   529.6289 529.6937 529.7120 529.7120 529.8802 529.9014 530.1613 530.3516
   530.3516 530.6157 530.6157 530.6916 530.7792 530.8974 531.0437 531.0438
   531.0438 531.0465 532.6185 534.6239 534.6239 535.8920 535.9876 535.9876
   536.2508 536.2598 538.4899 538.4899 538.7002 538.8250 538.9469 538.9469
   540.0851 540.2738 540.2931 540.3141 540.3141 540.3846 540.4614 540.8339
   540.8339 540.9555 540.9735 540.9984 541.0072 541.0072 543.4235 543.4392
   543.4404 543.4404 544.9621 544.9949 544.9949 545.0037 546.7639 546.7663
   546.7663 547.6398 549.0943 549.0943 549.4280 549.5569 549.6239 549.6239
   549.8559 549.8951 550.3541 550.7732 550.7732 550.9895 551.0503 551.0503
   551.2453 551.3848 553.3419 553.4346 553.4346 553.7096 554.0400 554.2558
   554.2558 554.7791 555.9343 558.0475 558.0475 559.2382 559.3604 559.3604
   559.4419 559.6069 559.6187 559.6187 559.7463 559.9541 560.1482 560.1482
   560.1578 560.2599 560.2964 560.3712 560.3712 560.3921 560.5015 560.5015
   560.6592 561.1693 561.6285 561.6618 561.6618 561.9409 562.4307 562.8263
   562.8263 563.1110 563.3856 563.3856 563.4686 563.5012 563.5074 563.5193
   563.5193 563.6669 564.0744 564.2114 564.2114 564.2193 564.2354 564.2354
   564.2508 564.3624 565.8344 565.8496 565.8591 565.8591 568.4854 569.2745
   569.2745 569.6702 570.6544 571.0103 571.0103 571.4544 572.6383 573.2003
   573.2003 573.3894 573.5613 573.5613 573.7477 573.8187 574.3734 574.4147
   574.4147 574.4424 574.6645 574.6858 574.6858 574.7491 576.6450 577.8848

          k = 0.7500-0.2500 0.7500 (  3830 PWs)   bands (ev):

   -24.2980 -17.0045  -8.0311  -7.8486  -7.7828   1.1974   1.3944   1.4429
    10.8192  11.7225  13.4200  14.5264  15.6967  16.2101  17.4562  20.2092
    20.2200  23.5229  26.1601  26.2585  28.9555  29.2681  30.9255  32.9579
    33.1780  34.7036  36.8428  37.2097  37.3029  37.6662  40.7020  42.0642
    43.6565  44.2147  45.8037  45.8867  46.3497  48.9064  49.9204  50.4801
    51.9069  53.8010  54.2914  55.4917  56.4937  58.0880  59.5466  60.1994
    60.8054  61.3182  62.2133  62.5466  63.6319  64.5845  65.6589  66.0443
    67.7586  69.7005  70.8031  71.1962  71.7579  72.3515  73.1343  73.8527
    75.5775  75.8337  77.7695  78.5171  79.0176  79.3842  79.9695  80.8543
    81.5287  82.0856  82.3297  83.7221  83.9974  84.4427  86.7222  88.0651
    88.2994  89.1294  89.6432  89.8532  90.9536  91.1955  91.9888  93.5167
    94.1292  94.9568  96.3306  97.7882  98.3332  98.6368  98.9943  99.9555
   100.0581 101.4684 102.0279 103.5837 103.7996 103.9683 105.6861 106.2967
   106.7304 106.9469 107.8314 107.9451 110.2515 110.7327 110.8494 111.5894
   113.3819 113.9630 114.0454 115.3232 116.1821 116.4370 118.5866 118.9780
   119.6909 120.6091 120.8969 121.9146 122.8326 123.6198 124.0144 124.2777
   124.8238 125.3873 126.0039 126.5637 127.8238 128.8458 129.0463 129.8476
   131.1156 131.1510 131.4569 132.8808 133.0460 133.3390 133.5023 134.2607
   136.0578 136.6233 137.7902 138.1137 138.1278 138.5914 139.2800 140.2433
   140.7327 141.2602 142.0201 142.7090 142.8345 143.3003 144.4531 144.9803
   145.8829 146.3659 147.2911 147.7428 148.0235 149.0162 149.2688 150.4219
   150.6735 151.5536 151.6841 151.9713 152.7151 153.3187 153.7403 155.1479
   155.1692 155.5123 156.1932 157.0442 157.6911 158.1296 159.0919 159.4831
   159.6843 159.8271 160.0947 160.6424 160.8401 162.2435 163.3036 164.3749
   164.9744 165.4883 166.2903 166.5509 167.3795 167.9338 168.3254 169.5486
   169.7562 169.9283 170.6981 171.0372 171.4531 172.2162 173.1919 173.9469
   174.8091 175.2716 175.7552 176.3588 176.5938 177.3514 177.8084 179.5590
   180.2948 180.4793 180.6547 180.8798 181.0103 181.8661 182.2639 182.6905
   183.7010 183.8491 184.2712 185.4820 185.7546 186.2519 186.8291 187.8678
   188.1663 188.8435 189.4262 189.9494 190.1096 191.4825 191.8442 192.5010
   193.2032 193.9312 195.0948 196.1340 196.5122 196.6474 198.4706 198.5806
   199.0253 199.1993 199.2408 200.0418 200.0660 200.4445 200.7099 201.0227
   202.1626 202.3636 203.8766 205.0518 205.8076 205.8310 207.4626 208.1216
   208.2556 208.6163 208.9369 209.4248 209.4707 209.7457 209.9591 210.9677
   211.6769 212.0757 213.2760 213.5869 213.7024 214.6321 214.6715 215.2728
   216.1000 216.1291 217.3923 217.4186 217.9494 218.2693 218.8826 220.5332
   221.3910 221.5892 221.5896 222.2134 222.2945 222.5619 222.9042 223.4486
   223.6233 223.8971 224.8278 225.7281 226.5263 226.8456 227.3435 227.4551
   227.7008 228.0538 228.6669 228.8510 229.2569 230.0979 230.1337 230.7735
   230.8152 231.4805 231.5860 231.6551 232.5301 232.5761 233.5020 233.9196
   235.8010 235.9453 236.7897 237.6132 237.7939 238.4825 238.6187 239.2391
   239.7205 240.0006 240.5709 241.0298 241.3118 241.7089 243.2143 243.3956
   243.5593 244.1827 244.6523 244.7361 245.1606 245.3475 245.8610 247.1728
   247.8407 247.8436 248.6865 248.9907 249.1517 249.6761 250.4454 251.8851
   251.9864 252.8028 253.1962 253.4630 253.7417 254.5889 254.9473 255.1161
   255.3865 255.5550 255.7821 255.8901 256.3840 256.8552 257.1200 258.0165
   258.3663 258.6776 259.2175 259.7710 260.0309 260.2037 261.1810 261.9491
   262.5210 262.7300 263.0954 263.5421 264.5903 265.0413 265.0725 265.5473
   266.3211 266.5739 267.3725 267.4451 267.6717 268.2328 268.2885 268.3766
   268.4923 269.4957 270.3228 270.6469 271.6543 272.2978 272.4240 273.5888
   274.7910 275.4192 275.5464 276.3193 276.9131 277.1759 277.3312 277.5960
   277.9238 278.2493 278.8757 279.5838 279.5908 280.1427 280.4050 280.5045
   281.0621 281.7977 283.6764 283.6876 283.9416 284.5430 285.1493 285.4070
   285.8232 286.2542 286.8821 287.2687 288.0305 288.0884 288.3419 288.4475
   288.9202 289.5782 290.2388 290.5717 290.7327 291.4538 292.2814 292.3018
   292.8259 293.6048 293.9963 294.0544 294.2213 295.7821 296.1027 296.8290
   297.8954 298.3892 298.9919 299.2865 300.2161 301.1016 301.4081 301.6859
   302.1570 302.3768 302.8194 303.2849 303.4007 303.8699 304.3600 304.9042
   305.4802 305.7739 305.8166 306.9449 306.9593 307.5828 308.1440 308.4794
   308.9691 309.0336 309.3369 309.7107 310.2269 310.4788 311.6803 312.1490
   312.2689 312.4506 312.6145 312.7439 312.9880 313.2667 314.4351 314.7535
   314.8413 315.1069 315.7287 315.9897 316.2733 316.5665 317.5856 317.6560
   319.1372 319.1463 319.4259 319.7332 320.0531 320.3257 320.8822 321.6147
   322.6889 323.7258 324.1365 324.2734 324.5867 324.6251 325.1662 325.4442
   326.3002 327.1398 327.2860 327.9475 327.9746 328.7691 329.4484 329.8821
   330.3007 330.5518 331.1579 331.2219 331.7748 332.3776 332.4259 332.4384
   332.7724 333.2950 333.4551 333.7156 334.0398 334.4438 334.6358 334.9423
   335.1953 335.4242 335.5122 336.0357 336.4772 336.7178 337.0493 338.5229
   339.4004 340.1354 340.8103 340.8155 341.3378 341.4838 341.8143 342.4355
   342.5507 342.6142 342.9247 343.1864 343.8189 344.2736 344.4023 344.9698
   345.2319 346.2084 346.8646 347.2940 347.7999 347.8222 348.4196 349.0280
   349.7557 350.3050 350.9101 350.9518 351.4485 351.6440 351.9294 352.1457
   352.3007 352.3408 352.7098 352.8186 353.0249 353.3623 353.5741 353.9903
   354.7303 355.2853 355.6220 356.9708 357.2143 357.4576 357.9095 357.9243
   358.4640 359.4265 359.6786 359.7394 359.8969 360.1999 360.4117 360.6864
   360.9434 361.1050 361.5176 362.4384 362.8806 364.1261 364.9406 365.4117
   365.6614 365.6784 366.5724 366.5922 367.9874 368.0623 368.2901 368.4775
   368.7507 368.8527 369.4409 369.4462 369.8250 370.1443 370.2733 370.7765
   371.0358 372.0773 372.1673 372.4800 373.2274 373.2304 373.2877 373.4635
   373.8141 374.2336 374.3807 374.8884 376.4719 376.5362 376.9082 377.2568
   377.2996 377.3556 377.5631 377.8714 378.1216 378.1936 379.3498 380.5422
   380.9454 381.4168 382.4913 382.9394 382.9550 383.1911 383.8688 384.0628
   384.1777 384.7958 384.8776 384.9896 385.2075 385.2983 386.8056 387.3455
   387.4957 387.6307 388.0589 388.3098 388.5417 388.7166 389.2911 389.8849
   389.9443 390.2633 390.4729 390.7044 390.8021 391.2013 391.6499 391.9553
   391.9948 393.2907 394.0151 394.6153 394.7740 395.2330 395.4827 395.6200
   396.0045 396.0745 396.6777 396.8024 397.1369 398.5900 398.6554 399.2296
   399.2562 399.5211 400.7687 401.0380 401.2632 401.6253 401.9113 402.0371
   403.5282 404.7884 405.5367 406.5900 406.9239 407.0912 407.6039 408.0970
   408.5561 409.1159 409.2857 409.3978 409.6868 409.9436 410.9286 410.9737
   411.6515 411.9974 412.0079 412.3076 412.5231 412.7867 412.9503 413.2359
   413.2366 413.5658 413.5835 413.6331 413.8611 414.1315 414.2774 415.0155
   415.3699 415.5272 416.1584 416.2051 417.6834 417.8890 420.5253 420.7314
   420.9270 421.2378 421.3504 421.9656 422.1177 422.4205 422.7024 423.5863
   423.6700 423.8615 423.9341 424.1324 424.3147 424.5702 424.7713 425.0573
   425.5691 426.1827 426.2557 426.8222 427.0153 427.5149 428.0674 428.7133
   429.4426 429.5426 429.5799 430.0374 430.4854 430.6379 430.8039 431.3359
   431.6455 431.6786 431.9740 432.1510 433.2744 433.4346 434.1650 434.2055
   435.6698 436.0622 436.2712 436.3043 436.9465 437.0009 437.3813 437.5246
   437.7654 438.3093 438.9581 440.3971 440.5384 440.6648 440.7584 441.1721
   441.3337 441.4780 441.8577 442.0077 442.7013 443.0310 443.3457 443.4466
   443.7892 444.0418 444.2383 444.2656 444.6358 444.8669 445.8707 446.2646
   446.7713 446.8777 446.9692 447.0864 447.7073 447.8914 447.9928 449.1138
   449.3963 449.7098 450.7266 450.7275 451.1913 451.4515 451.8736 452.0316
   452.3957 452.6520 453.2389 454.1801 454.4819 455.3030 455.3277 455.6808
   455.7072 456.6628 456.7785 456.9784 457.3668 457.8598 458.1436 459.8809
   459.9880 460.3469 460.7465 460.7974 461.1056 461.1734 461.2770 461.4185
   461.5057 462.3910 462.8373 463.4247 463.4704 463.8361 464.0827 464.7109
   465.0718 465.1864 465.5194 466.5937 467.1931 467.4420 467.9341 468.1767
   468.4602 468.7022 468.7681 468.8782 469.1118 469.2272 469.2960 470.3159
   470.4952 470.6626 470.6987 470.8000 471.3810 471.5538 472.0045 472.2008
   473.2949 473.5746 473.7557 474.1218 474.7222 474.9908 475.7942 476.0115
   476.2149 476.7418 477.0395 477.5552 477.7657 478.0647 478.0840 478.1773
   478.3731 478.6326 478.6553 478.6727 478.8045 478.9084 479.0178 479.2770
   479.6618 479.7945 479.8902 479.9383 480.5546 480.9270 481.1837 483.4668
   484.3835 485.4061 485.8637 486.7272 486.9220 487.2323 487.4436 487.6730
   488.4603 488.6486 488.7965 488.9823 489.1606 489.2039 489.4614 489.5165
   489.8506 490.3669 490.4423 490.5067 491.0935 491.2326 491.8135 492.3901
   492.5501 493.0639 493.0908 493.2648 493.3881 493.6429 493.6493 494.0441
   494.1927 494.3724 494.5838 495.0985 495.3512 495.7189 495.8829 496.1362
   496.1951 496.5033 497.2895 497.3222 498.0343 498.3199 498.3354 499.0801
   499.2382 499.8101 499.8152 500.2639 500.3048 500.6153 501.3401 502.9375
   503.1444 503.4321 503.4336 503.6483 503.7271 503.7612 505.4525 505.4754
   505.5078 505.6677 505.8350 506.1897 506.3440 506.3624 506.7552 508.0154
   508.5890 508.6292 509.0639 509.3486 509.8402 510.1970 510.6431 510.7740
   510.7955 510.8162 511.0977 511.1624 511.2876 511.4274 511.9597 512.0502
   513.4491 514.6257 514.6288 514.8558 515.5239 516.3055 516.4230 516.5458
   516.9955 517.3365 517.4490 517.8195 517.9397 518.6307 519.3715 519.8833
   520.1491 520.3207 521.1617 521.2097 521.2938 521.4097 521.8191 521.9119
   522.2113 522.2895 522.3896 522.5532 522.7470 523.2117 524.1099 524.1286
   524.4437 524.6149 524.9505 525.6169 525.6603 526.4270 526.4989 527.5585
   527.6464 529.0436 529.1379 529.1410 529.4431 529.5071 529.8324 530.0381
   530.7272 531.0270 531.6885 531.8117 532.6073 532.6253 532.9997 533.3104
   534.0685 534.1597 534.3832 534.4006 534.6101 534.7907 534.9206 535.1531
   535.3292 536.5726 536.6237 536.6806 537.2428 537.2902 537.4880 537.5209
   538.8166 539.3903 539.4848 539.6326 540.5281 540.6014 540.7402 541.0693
   541.4649 541.6081 541.8525 542.1327 542.1530 544.0313 544.3096 544.5550
   544.6349 545.1747 545.3455 545.9919 546.0906 546.1829 546.2543 546.2886
   546.4748 547.3886 547.6745 547.6849 547.7727 549.2853 549.5283 549.6914
   549.8180 550.0564 550.1789 551.4976 552.1509 552.5136 552.7125 553.0346
   553.1027 553.2278 553.3256 554.1019 554.1172 554.1943 554.3223 555.4278
   555.6091 555.7940 556.6418 556.7582 556.9038 557.4356 557.7021 558.0019
   558.7366 558.7640 558.8272 559.2596 559.3901 559.4961 559.5816 559.7410
   559.7955 559.8660 560.1597 560.6084 560.7353 561.9726 563.1048 563.5439
   563.7910 563.9034 565.3321 565.3547 565.7488 565.8184 566.0123 566.4522
   566.9601 567.9489 568.0395 568.1604 568.2453 568.6238 568.6527 569.2549
   569.7844 570.0843 570.1312 570.6166 570.8611 570.8664 571.6668 572.1188
   572.3928 572.4866 573.1654 573.2959 573.7900 574.1321 574.1940 574.7245
   574.8414 574.8707 575.0690 575.3976 575.5723 575.6850 575.7103 576.1316
   577.5355 577.5724 577.6677 577.6757 577.9497 578.0084 578.3999 578.4749

          k = 0.5000 0.0000 0.5000 (  3803 PWs)   bands (ev):

   -24.3123 -17.0151  -7.9125  -7.8578  -7.6906   1.0206   1.3090   1.5211
    10.9028  11.5838  13.4284  13.9998  15.0120  16.1912  18.2199  19.7949
    22.4708  24.1231  25.0910  25.1163  29.1343  29.3539  29.4526  30.6677
    34.3836  35.5551  36.6122  38.5414  38.6012  40.7653  40.9682  41.9161
    42.3701  43.2390  44.2099  46.6910  48.3266  49.8863  50.2181  50.9036
    50.9752  51.1587  55.7861  56.4237  56.4469  56.5425  58.6371  59.3013
    60.7354  61.2320  61.3673  61.4908  61.7669  65.9215  66.1683  68.4695
    68.5829  68.8485  69.1781  70.6329  71.4292  71.9253  72.6274  72.9213
    74.1050  75.9127  76.8932  77.5737  77.7257  77.8735  80.9494  81.9995
    82.8744  83.0556  83.3769  84.6691  85.1848  85.8295  86.0641  86.5421
    87.7744  90.1024  90.6786  91.2343  92.4901  92.9443  93.1452  93.5379
    95.6540  96.0936  96.4393  96.4395  96.8056  97.1530  98.1562  99.5592
   100.0496 100.5879 103.6310 103.6696 104.7476 105.1900 105.1966 106.3381
   106.9425 109.1211 109.7412 109.8760 111.1100 111.8878 113.2249 113.5916
   114.4689 114.6539 114.6596 116.1901 116.4706 116.5729 117.0506 117.5305
   118.1642 119.4053 119.6898 121.1274 121.2700 122.3091 123.2263 124.0013
   124.2998 124.4074 124.6168 125.0911 125.8839 126.5274 126.5968 126.6447
   127.9780 128.0425 129.2077 129.5652 131.9028 134.5843 134.9901 135.0252
   135.4575 137.4085 137.6699 137.7960 138.3175 138.4598 138.7378 141.2849
   141.4818 141.6556 141.9289 142.4373 143.2299 143.8821 144.1778 144.2483
   144.7590 145.0870 146.5679 146.6388 146.6997 148.0512 149.3154 149.7744
   151.3125 151.8440 151.9262 152.6811 153.4851 153.6502 155.3980 155.4120
   156.0106 156.8995 157.9478 158.1284 158.3880 159.3066 160.3072 160.3348
   160.5625 161.3677 162.4859 163.5536 163.9071 164.3704 164.5261 164.8445
   165.0053 166.0579 166.0628 167.6598 167.9794 168.2189 168.7231 168.8789
   170.4378 170.5006 171.4303 171.4798 174.3096 174.6279 174.7667 175.0162
   175.2921 175.4409 175.5056 176.8837 177.1600 177.7190 177.7396 178.3058
   178.5516 179.3539 179.5850 179.7789 181.5566 181.7835 181.8981 182.7594
   182.8371 185.4414 185.5760 186.2638 186.5413 186.8980 189.1389 189.2318
   189.5144 190.1182 190.1873 190.5200 190.7769 191.0865 191.7671 191.8204
   192.1526 192.3073 192.7856 194.1648 194.6826 195.5567 197.0974 197.7125
   197.9660 198.1618 198.7586 199.0466 199.5588 201.0401 201.2812 201.3392
   202.1597 202.2106 202.6659 203.1378 203.4836 204.2874 205.0318 205.4081
   207.0786 207.8304 208.4786 208.9210 208.9417 209.0591 209.6034 210.2693
   210.3025 211.4495 212.4727 213.2319 213.6122 213.6725 213.6951 213.8097
   215.6333 215.6446 215.7999 216.8577 217.3271 217.6918 217.7700 218.0483
   219.3193 220.1180 220.2798 220.6487 220.7353 221.6653 222.3688 222.7374
   224.1130 224.7534 224.7877 225.1885 225.8503 225.8572 226.7137 227.8052
   228.9198 229.0954 229.6756 229.8518 230.3680 230.7023 231.0850 231.4598
   231.8654 232.4318 232.5951 233.2717 233.9236 234.1395 234.6231 234.9776
   235.3868 235.9528 236.6726 237.5174 237.7455 238.4312 238.4804 238.9990
   239.9819 240.1063 240.5386 240.5529 241.4467 241.9906 242.2733 242.3092
   242.9529 244.3873 245.2788 245.3553 245.7879 246.8564 247.9323 248.2154
   249.0102 249.1866 250.0903 250.1115 250.5966 250.9517 252.0928 252.3510
   252.8768 253.1511 253.1533 253.4252 253.6169 254.0035 254.8027 254.8316
   255.4250 255.5049 255.5545 255.7764 255.9549 255.9584 256.0463 256.1841
   256.3080 257.4135 258.5482 259.5269 259.9107 260.1110 262.4664 263.2074
   263.2395 263.9601 265.2090 265.3989 265.9310 266.1085 266.1230 266.9082
   267.1778 267.4896 267.5382 268.4571 269.5224 269.7551 269.9066 269.9767
   270.1195 270.9758 271.3755 272.1227 272.6063 272.8028 272.9697 273.0757
   273.5263 273.8465 273.8553 274.4567 275.4001 275.7034 276.4352 277.7083
   278.1461 278.5396 280.1938 280.2043 280.2757 280.5998 282.1716 282.4684
   282.5045 282.8596 282.9965 284.0945 285.4962 285.9138 286.1178 286.2319
   286.2393 286.3317 286.3778 286.6326 287.1138 287.4636 287.5911 288.9298
   289.2699 289.5988 289.9827 291.4685 291.5019 292.4255 293.6886 293.8176
   294.3563 295.5622 295.5768 295.5996 296.2058 297.1051 298.2485 298.3784
   299.2689 299.3211 299.6923 301.1554 301.3923 301.9665 302.1368 302.7247
   302.7433 302.8861 303.1277 303.3212 303.5102 303.6327 303.8412 303.8563
   303.9028 304.4767 305.0949 305.1046 306.0136 306.1115 306.7220 306.9537
   307.5648 307.6327 307.8719 308.2520 308.5043 308.5822 308.7454 308.7767
   309.6156 309.7803 310.0513 311.0712 311.8800 312.6538 312.6773 313.1551
   314.6309 315.1850 315.3959 315.6936 315.7096 316.6930 316.8862 316.9789
   317.1669 317.8857 318.8694 318.9693 319.0205 319.1287 319.2689 320.8778
   320.8847 320.9527 320.9677 323.1329 324.2285 324.2421 324.2589 324.6344
   324.6965 324.9642 326.1132 326.8483 326.8956 327.4005 328.1752 328.2046
   328.6684 328.7210 329.4188 329.9461 329.9861 330.0412 330.2266 330.3801
   330.9733 331.1733 332.4739 332.7622 332.8899 333.0404 333.5370 333.9682
   334.9465 337.0870 337.1104 337.2399 337.3528 337.7920 338.0664 338.4301
   338.8113 338.8183 339.0463 340.2232 340.2719 340.4727 340.7717 341.1653
   342.1376 343.1267 343.5482 343.6640 344.2700 344.4810 344.7301 346.6731
   346.9944 347.5564 347.9139 348.3884 348.4737 348.6963 349.7234 350.0032
   350.2024 350.7774 350.9698 351.1722 351.2118 351.3564 351.4826 351.6131
   351.7870 352.3359 352.4583 353.8668 354.5463 354.5560 354.6972 354.8745
   355.2055 355.9313 356.0514 356.9624 357.8060 358.1234 358.2710 359.1563
   359.2166 359.2432 360.0996 360.1789 360.3715 360.8849 361.3535 361.4075
   361.6025 362.6025 362.6898 362.7116 363.0326 363.2075 363.3076 363.9949
   365.0401 366.0836 366.1751 366.6245 366.9601 367.1312 367.2252 367.2342
   367.5374 368.1594 369.5240 370.4406 370.6167 370.6324 371.1675 371.2343
   371.8537 371.8975 373.3745 373.4312 373.6550 374.0331 375.2273 376.1089
   376.5551 376.6509 376.8270 377.2640 377.5638 377.5645 377.8273 377.8808
   377.9214 377.9844 378.0661 378.7456 378.8072 379.7155 381.4041 381.6131
   381.6718 382.3365 382.4406 382.6089 382.6983 383.3105 383.3833 383.5545
   383.6581 383.6951 383.8320 383.8639 385.4355 386.1381 386.5379 387.3138
   387.3711 387.4567 390.2723 390.3845 390.7514 390.8756 391.5459 391.9114
   392.9618 393.3828 394.1158 394.3884 394.4237 394.6394 395.2899 395.8487
   395.8918 395.9964 396.0649 397.1612 397.2410 397.4162 398.2585 398.8141
   399.2457 400.1728 400.3288 400.6412 400.7563 401.1438 401.6967 401.9566
   401.9618 402.1175 402.1308 402.2999 402.3128 402.8714 403.0429 403.2656
   403.3547 403.4289 404.3720 404.3783 405.3505 405.6171 406.1936 406.5430
   407.5185 407.7328 408.7235 408.8691 409.1367 409.3065 409.7065 410.2170
   411.6081 411.8026 412.7311 412.8117 412.8130 412.8393 412.9285 413.1343
   413.3936 413.3981 413.5768 413.6875 413.8960 414.6561 414.6762 414.7242
   415.1321 415.4771 415.5733 415.6230 415.6599 416.0442 416.0770 416.7923
   416.8344 417.1078 417.5132 417.5138 418.0289 418.1634 418.3994 419.4012
   420.3371 420.7393 422.6943 422.8245 424.7014 424.7054 424.9710 425.0109
   425.1625 425.1777 425.1947 425.2830 426.7267 426.8631 427.2700 427.3881
   427.7991 428.6031 428.8020 429.1081 429.4754 429.7709 429.7907 429.8294
   429.9725 430.2723 430.8129 430.9025 430.9972 431.0876 431.3897 431.4308
   434.2697 434.3123 435.0124 435.1345 435.6390 435.6633 435.6975 435.9178
   438.6446 438.8271 439.5601 440.1025 441.0745 441.2028 441.5143 441.6101
   441.6277 441.6555 441.6996 441.7332 441.8536 441.9474 442.0252 442.9013
   443.1030 443.5543 443.7564 444.2000 445.0107 445.3253 445.3765 445.9211
   446.6662 446.8637 447.0771 447.2184 447.2886 447.4953 448.4371 448.8974
   449.5018 449.7320 449.7493 450.4734 451.4349 451.6916 451.6957 451.7752
   451.8287 452.9853 453.1641 453.2217 453.4294 453.5410 454.1319 454.4437
   455.6639 455.6950 455.7290 455.7889 457.1256 457.5927 457.8504 458.1270
   458.3513 458.4102 458.4146 458.4988 460.0614 460.6455 461.7578 462.1029
   462.1768 462.4258 462.5550 462.6345 462.7031 462.7291 462.8342 462.9756
   463.3777 463.7777 463.9853 464.1924 464.7482 464.8116 465.8832 465.9517
   466.0030 466.7633 466.8315 466.8828 467.1041 467.3715 467.3920 468.8048
   468.8476 468.9620 468.9875 469.0292 469.4413 470.7248 471.6466 472.1467
   473.3199 473.4403 473.7629 473.8392 473.9320 475.0601 475.6929 475.9852
   476.3044 477.6046 477.6740 477.7090 477.8948 478.2319 478.5248 478.6084
   478.9791 479.0025 479.9914 480.0806 480.1063 480.2054 480.2181 480.2244
   480.2645 480.2777 480.4099 483.1232 483.6462 484.5062 484.7750 485.5212
   485.5240 486.4083 486.4488 486.6433 487.1323 487.4408 488.1058 488.1240
   488.3298 488.4395 488.4979 488.5810 489.8388 490.3244 490.6287 491.2475
   491.4596 491.7256 492.5402 492.8414 493.1059 493.1333 493.2791 493.5802
   493.8963 493.9191 493.9450 494.0367 494.2022 494.4116 494.8785 494.9515
   494.9539 495.1122 495.1265 496.2625 496.9311 497.1741 497.2290 497.6994
   497.7193 497.7952 497.8648 498.3201 498.3786 498.3989 498.5822 498.7292
   499.4194 499.4303 499.5164 500.4716 500.4766 500.6841 500.7274 502.5485
   503.2722 504.0442 504.2626 506.4686 506.6011 506.8872 507.9041 507.9354
   508.1862 508.2490 508.9331 509.1125 509.2033 509.4046 509.5168 509.5965
   509.8474 510.4480 510.5995 510.9947 511.1916 511.2167 511.2327 511.2951
   511.3917 511.4393 511.6227 511.6339 511.6424 511.7737 511.8803 512.4007
   512.8446 513.5717 513.7801 513.8066 513.8443 515.5486 515.7742 515.8700
   516.1935 516.5787 516.6332 516.6453 517.0395 518.6961 518.7567 519.4171
   519.7397 520.2031 520.4882 520.7487 521.0607 521.5220 522.7072 522.7872
   522.9097 523.5302 523.9024 524.0385 524.1278 524.5520 524.7944 525.0201
   525.0528 527.3413 527.3449 527.4018 527.4061 527.4347 527.4971 527.5352
   527.5542 529.6287 529.6552 529.8782 530.5497 530.7216 530.8124 531.5316
   531.6906 531.8841 531.8877 531.8980 531.8993 531.9311 531.9703 532.0334
   532.2499 533.8062 534.1847 534.8636 534.9972 535.0580 535.8913 536.0529
   536.2338 536.2442 536.4238 536.7632 536.7953 537.0415 537.1424 537.6961
   537.8981 537.9669 538.9644 539.1366 539.6287 540.2123 540.3027 540.4781
   541.3150 541.9061 541.9690 542.1016 542.1320 542.9594 542.9919 543.3112
   543.6656 543.9831 544.0575 544.2393 544.2419 546.5259 546.8291 546.9250
   547.1562 547.5554 547.6424 547.7087 547.8140 549.4424 549.4604 549.5016
   549.5159 550.8657 551.3269 551.6176 551.6824 551.7030 551.7668 551.8923
   552.3732 552.7770 553.0513 553.1658 553.4329 553.6287 553.6568 554.5573
   554.5681 555.3619 556.7245 556.7750 557.8139 558.2963 558.4163 559.0596
   559.3018 559.3188 559.9840 560.3291 560.3959 560.8167 560.9657 561.3347
   561.3742 561.3991 561.7295 563.5535 563.5827 563.6470 563.8361 564.0665
   564.0871 564.1522 564.2122 564.2289 564.3228 565.4953 565.5040 566.1428
   566.5319 567.3116 568.5174 568.6944 568.9186 569.0969 569.1711 569.2781
   569.3532 570.5838 570.6749 571.1044 571.5171 571.5702 571.5713 572.6419
   572.8998 572.9287 573.0498 573.8143 573.9363 574.0780 574.1769 574.8252
   574.8491 575.0643 575.1707 575.1745 575.2700 575.5047 575.6219 575.6919
   575.7064 575.7522 575.7832 576.2753 576.3875 577.0887 577.2158 577.5475

          k = 0.0000-1.0000 0.0000 (  3860 PWs)   bands (ev):

   -24.2867 -16.9664  -8.2417  -7.8742  -7.8742   1.4493   1.5965   1.5965
     9.9009  12.0870  13.6255  15.2697  15.8485  15.8485  17.6514  19.3795
    19.3795  23.4339  27.3944  28.0809  29.1359  29.1359  32.7732  33.0944
    34.2003  34.2003  34.7614  35.1005  35.9944  35.9944  40.4826  40.4826
    41.8437  44.8883  47.0652  47.1680  49.0310  49.2388  51.2037  51.2037
    51.7933  51.7933  53.8462  56.7792  57.2667  57.3015  57.6152  57.6152
    60.7850  60.7850  61.6874  64.8352  66.1992  66.1992  66.6891  69.2915
    69.5866  70.5570  71.3257  71.3257  71.8679  72.9426  73.7899  73.7899
    73.9873  73.9873  74.7044  75.4059  75.5724  77.7516  80.0691  80.0691
    83.1928  83.2144  86.0361  86.0361  86.3530  86.8320  87.1009  87.1009
    87.4876  89.5338  89.5338  89.6683  90.3190  91.5064  91.5064  92.1111
    92.1111  92.2454  96.3496  97.0965  97.0965  97.1194  97.6487  97.7292
    99.4152  99.4152 100.1900 103.6518 106.0111 106.0111 106.1306 107.1490
   107.1490 108.1456 108.8169 109.5224 111.1125 111.2420 111.6554 111.6554
   112.1165 112.1894 112.4195 112.4195 114.2987 115.8642 115.8642 116.1580
   116.4216 119.4191 119.4191 122.0816 123.7533 123.7533 125.1185 125.5528
   125.8071 126.8629 127.9270 129.3556 129.3556 130.1987 130.1987 130.4657
   133.0278 133.2769 134.4361 136.0482 136.8749 137.0534 137.0534 137.4113
   137.4113 137.5090 138.0985 138.0985 139.3064 139.3908 139.4208 140.5141
   140.7443 140.7443 141.1775 141.4832 141.4832 144.6004 147.8051 148.4352
   148.4352 148.9939 149.4574 149.4574 150.4238 150.4238 150.6282 150.6282
   150.7015 150.8939 151.8950 151.9371 151.9371 152.0819 152.1282 152.2848
   152.5522 152.7819 153.0041 153.0041 154.1763 154.4364 155.1855 158.8217
   158.8217 159.3050 159.4734 159.4734 159.6088 159.7670 159.8741 160.1762
   163.0781 163.0781 165.5638 165.5638 165.6951 166.2577 166.6658 166.6658
   170.1245 171.6446 171.7784 171.8277 171.8277 172.0147 172.2154 173.3742
   173.9877 173.9877 175.0706 175.1591 175.3509 175.3509 176.9277 177.1439
   177.1439 177.5457 177.9952 177.9952 178.1852 178.2191 178.7968 180.1363
   180.3631 180.3631 181.6304 185.7998 185.7998 187.7962 189.8372 194.0695
   194.0695 194.5128 195.2919 195.7850 195.7997 195.7997 195.8851 196.5603
   198.2335 198.2335 198.8080 198.8080 198.9704 199.6538 199.8588 199.8588
   200.0621 200.0621 200.1454 200.3316 201.0547 201.0547 201.9977 202.1081
   202.6717 202.6717 204.2516 204.2595 204.3580 205.8633 209.6278 209.8200
   209.8200 210.0582 210.0582 210.2449 210.2594 210.6476 212.1396 212.1396
   213.2039 213.5149 213.5149 213.8494 214.8654 215.0841 215.1824 215.1824
   215.1893 215.4895 215.4895 215.8443 216.7526 218.0368 218.0368 218.1215
   218.1658 218.2451 218.3733 218.3733 218.4217 218.5810 221.5543 222.5667
   222.5667 222.8290 222.9283 222.9283 223.1313 223.1744 224.1620 226.3582
   228.2024 228.2024 228.7255 228.7255 229.7926 230.7852 232.5567 233.4651
   233.6000 233.6000 233.9618 234.1371 234.1371 235.7929 235.7929 235.8166
   235.8433 236.1867 236.1867 236.4663 237.2419 237.3810 237.4581 237.4820
   238.0030 238.0030 238.1119 238.1119 238.9512 239.1426 240.1158 241.1404
   242.5738 242.5738 243.2532 243.5603 244.8031 245.2878 245.2878 245.4199
   245.4199 246.5659 246.5834 247.7364 251.2819 251.2819 253.8342 254.9556
   254.9556 255.3335 255.9572 256.4392 256.6210 256.6577 256.6577 256.6698
   256.7053 256.7785 256.7785 256.9045 256.9835 256.9835 257.3568 258.1911
   258.1911 258.2280 258.9775 259.4180 260.1354 260.1354 260.1999 262.8443
   264.0550 264.1878 264.3536 264.3536 264.4170 264.4170 264.5252 264.8000
   265.2544 265.3223 265.3223 265.5321 267.1525 268.1842 268.2107 268.2107
   270.1693 273.5000 273.5000 274.3439 275.2169 276.0944 276.0944 276.6803
   276.6803 276.6906 277.6047 277.6047 277.6255 277.7873 277.9238 277.9238
   278.9610 279.0055 279.3859 279.3859 279.4604 279.5198 281.0855 281.4510
   281.4598 281.7283 282.1136 282.1136 282.9878 283.0405 283.0405 283.0786
   283.0786 283.0857 283.3110 283.6053 283.6053 283.7439 283.7553 285.0065
   285.0146 285.0762 285.0762 285.4125 287.2359 287.2493 287.3254 287.3254
   287.4799 287.5032 287.5032 287.5166 292.2268 292.8836 292.8836 294.4510
   294.4510 295.9845 297.8892 298.3288 300.4394 300.4939 300.5284 300.7107
   300.7983 300.7983 300.9047 300.9267 300.9267 301.7403 301.7403 301.7408
   302.6657 303.9244 303.9244 304.0992 306.7250 306.7250 307.8389 309.8026
   310.9074 310.9074 313.4861 314.5347 314.7252 315.8894 315.8894 316.5118
   318.3947 318.3947 318.7012 318.7482 319.3825 319.3825 319.3877 320.1600
   320.1600 320.3436 321.1167 321.6285 322.0054 322.0537 322.0828 322.1611
   322.1611 322.1916 322.1916 322.4356 324.4033 324.9080 324.9080 326.0361
   326.0361 326.1112 326.2107 326.2311 326.4214 326.9565 326.9565 326.9784
   327.1452 327.1452 327.2281 327.3173 327.3568 329.3788 329.4438 329.4438
   329.5401 329.5638 329.5844 329.5844 329.7556 329.7569 330.0079 330.0079
   330.3250 332.0522 336.5775 336.7783 336.7783 338.1221 338.1221 340.1098
   340.2566 340.4248 340.4248 340.6380 340.7631 340.9234 341.5206 341.5206
   341.7862 341.9623 342.1259 342.1259 342.2558 342.2558 342.3001 342.3694
   342.4343 342.4724 343.4612 343.5495 343.5495 343.8781 343.8781 344.2993
   344.3953 344.4912 345.3980 345.3980 345.4495 345.4867 345.8203 346.2026
   346.2026 346.2353 346.2353 346.4583 346.8543 348.2583 348.3834 348.3834
   348.4584 348.4584 351.6696 351.7232 351.7232 351.7245 351.7499 351.7656
   351.7656 351.7923 353.6126 353.6411 355.9933 356.9172 356.9172 357.9362
   358.1083 358.9757 359.1009 359.1009 359.7087 359.7087 359.8808 361.0399
   361.4434 361.5606 361.5606 362.1134 362.9678 365.1111 365.1111 365.2670
   365.2670 365.3965 365.4116 365.6419 365.6419 365.7374 365.7374 365.7731
   365.8455 366.1059 366.8836 366.9857 366.9857 367.1093 367.1608 367.4586
   367.4586 367.4816 367.5333 368.0012 370.7215 370.8841 371.1267 371.1267
   371.1736 371.1736 371.4392 371.4698 371.7758 375.5073 375.9333 375.9333
   378.2967 378.2967 378.8352 380.2912 381.4349 382.4999 382.4999 383.0547
   383.1297 383.4852 383.4852 383.6599 383.8070 384.4671 384.4671 385.1103
   385.1103 387.1090 387.9353 387.9353 388.2585 388.3188 388.3912 388.4186
   388.4723 388.7688 388.7688 389.0535 389.3133 389.3133 389.8352 389.8546
   389.8631 389.8740 390.1364 390.1364 390.2569 390.2675 390.2675 390.8045
   391.4746 391.5067 391.5067 391.5353 392.6035 392.6107 394.5696 394.5696
   394.5883 394.5883 395.8205 395.8460 398.1755 398.2969 398.2969 399.4611
   399.7333 399.7333 401.9562 404.0866 404.4129 405.1712 405.1712 405.6692
   406.0814 406.0814 406.1325 406.2293 406.3992 406.4821 406.4821 406.6334
   407.0932 407.1744 407.1744 407.2391 408.6616 408.7021 408.7738 408.7738
   408.7762 408.8244 408.8445 408.8445 408.9084 408.9841 408.9841 409.4470
   409.4470 409.6671 409.8677 410.4581 412.6299 413.5173 413.5613 413.5613
   413.6165 413.6956 413.6956 413.8171 415.1761 417.2675 417.4854 417.4854
   418.1813 420.1655 421.4912 421.4912 422.3967 422.8466 423.3898 423.7093
   423.7093 423.8593 425.6160 425.6160 426.3804 426.8220 426.8220 426.9864
   427.1060 427.1468 427.3332 427.5697 427.5697 427.5958 428.2500 428.2500
   428.2551 428.5067 429.2088 431.6689 431.6953 431.6953 431.7379 431.9037
   431.9120 431.9120 431.9265 432.1196 432.1196 432.1279 432.1279 433.1312
   433.2358 433.3207 435.7829 435.9494 435.9494 435.9745 439.8626 440.1794
   440.1794 442.5228 442.5269 442.6791 442.9947 442.9947 443.4594 443.4594
   444.5908 445.1004 446.1249 446.1355 446.1355 447.5581 447.6116 447.7310
   447.7310 447.9704 447.9704 450.3911 450.7418 450.7418 450.7709 450.8178
   450.9878 451.1815 451.1815 451.4371 451.7800 452.3029 452.3402 452.8304
   453.0383 453.0383 453.0523 453.0523 453.5936 454.1713 457.3349 457.5218
   457.5453 457.5453 457.5889 457.6241 457.6241 457.6726 457.9245 457.9514
   457.9514 457.9722 458.2012 458.2364 458.2364 458.2417 462.7941 462.7941
   463.4453 465.1879 465.2423 465.2423 466.7856 467.0162 467.9516 468.3812
   468.9200 468.9315 468.9315 468.9530 468.9530 469.1393 469.1393 469.1400
   469.4141 469.5562 469.5562 469.6501 469.7167 469.7697 469.8078 469.8619
   470.0612 470.1044 470.1044 470.1347 470.1347 470.2717 470.2925 470.2925
   470.3335 470.3605 470.4163 470.4238 470.4238 470.4247 470.4868 470.6216
   470.6216 470.7312 470.9484 470.9599 470.9599 470.9971 470.9971 471.0818
   471.3679 472.1525 472.2247 472.3845 472.3845 472.5328 472.5328 472.5754
   472.6286 473.2290 473.2290 473.3395 473.3493 473.3641 474.0154 474.0154
   474.2716 474.6784 474.8013 474.9548 474.9548 474.9926 477.6603 477.6664
   477.6664 477.7007 477.7977 477.7977 477.8028 477.8207 479.4695 479.4924
   479.6617 479.6617 479.6780 479.6780 479.9179 479.9250 491.0239 491.0239
   491.2953 491.3347 491.3347 491.4584 491.5134 491.6402 491.6633 491.6795
   491.6795 491.6996 491.7900 491.7900 492.1114 492.1900 493.1873 493.1873
   493.6427 495.2752 495.2752 495.4482 495.9929 496.1509 496.4882 496.8026
   496.8026 496.8406 496.8406 497.0012 497.0801 497.2066 497.3654 497.4253
   497.5110 497.5110 497.5441 497.5441 497.6801 497.6948 497.7451 497.7459
   497.9225 497.9225 498.0038 498.0186 498.0186 498.0928 505.8459 508.3740
   508.3740 509.8128 510.2703 510.2703 510.6885 511.3373 511.3373 511.6365
   511.6904 511.7727 511.7727 511.8625 511.8629 512.2817 512.6191 512.6191
   512.9300 513.1533 513.3550 513.3550 513.6395 513.6479 513.6874 514.3908
   514.4531 514.4531 514.4668 515.5859 515.5859 515.9238 515.9238 516.0919
   516.1508 516.2501 519.4204 519.4204 520.0775 520.1450 520.2636 520.2636
   520.2779 520.2779 520.4063 520.4355 521.5435 522.2556 522.2856 522.2867
   522.2867 522.2949 522.3347 522.3347 522.3460 522.6984 523.4956 524.1844
   524.2397 525.3214 525.3214 525.9984 528.7018 529.7486 529.7486 529.7600
   529.7600 530.1478 530.2526 531.3467 532.4736 532.5083 532.5216 532.5216
   533.9643 533.9647 534.1118 534.1118 534.1213 534.1213 534.1361 534.2164
   535.3816 535.3816 535.4205 535.4751 535.7967 535.8143 535.8144 535.8144
   535.8379 535.8379 535.8805 535.8950 537.0675 537.0700 537.2127 537.2127
   537.2315 537.2315 537.2719 537.2970 537.3238 537.3238 537.4068 537.4184
   538.5268 538.5268 538.9577 539.1131 539.1136 539.1136 539.1152 539.7148
   540.5008 540.5008 540.5120 540.5120 540.8478 540.9123 540.9123 540.9235
   545.7619 545.7724 549.7073 549.7073 550.6197 550.7116 550.8166 550.8166
   551.1234 552.0184 554.1249 554.4741 554.4741 554.5795 554.5795 554.6351
   554.8903 555.0873 555.1329 555.1402 555.1402 555.1595 555.1679 555.2018
   555.2064 555.2064 556.2010 556.2010 557.8080 558.2512 558.6653 558.6743
   558.7771 558.7771 558.8632 559.1563 559.1563 559.1684 559.5747 559.5747
   559.5845 559.5872 559.7406 560.3057 560.3057 560.6801 560.7597 561.0495
   561.0495 561.1915 561.2002 561.2002 561.4756 561.5629 561.6020 561.7498
   561.7498 561.8219 569.6825 572.8224 572.8224 573.6754 574.1662 574.5331
   574.6636 574.7784 574.7784 574.9001 575.0261 575.1119 575.1119 575.5533
   575.6287 575.6301 575.6628 575.6628 576.0877 576.0877 576.4656 576.4656
   577.8755 577.8755 577.9012 578.0364 578.2896 578.2896 578.3700 578.4837
   578.4918 578.4933 578.4933 578.5001 578.5018 578.5157 578.5157 579.0280

          k =-0.5000-1.0000 0.0000 (  3828 PWs)   bands (ev):

   -24.2836 -16.9931  -8.0605  -8.0605  -7.7403   1.2316   1.4920   1.4920
    11.4696  11.4696  12.9662  15.1362  15.8567  16.7493  17.8393  17.8393
    20.1757  24.4154  24.4154  28.5380  29.4921  30.4141  31.6286  31.6286
    33.2356  35.7875  35.9232  35.9232  37.5778  37.5882  40.0162  40.0162
    42.2560  42.2560  45.5488  45.7920  46.9753  50.0134  50.2919  50.2919
    54.8270  54.8974  54.8974  55.9327  56.5332  58.5856  59.1527  59.1527
    60.6578  62.2794  63.0462  63.0462  64.6022  64.6022  64.7133  66.5895
    68.3504  69.3166  69.9733  69.9733  72.3505  72.3505  74.3834  75.4521
    76.2522  76.2522  76.4598  76.8021  77.8909  78.2002  78.2002  79.1264
    81.6727  82.3467  82.3467  84.6779  85.9181  87.9815  87.9815  88.0548
    89.5378  89.9843  89.9843  91.0087  91.1467  92.5132  92.5132  93.8414
    94.8486  94.8486  95.0871  96.6925  97.4200  97.4200  97.4382  97.9283
    98.4324 100.3610 100.4312 100.4312 102.2925 102.2925 102.3616 102.4586
   102.5635 104.7312 106.9616 107.6037 107.6037 110.5137 111.9611 111.9611
   112.9844 115.1905 115.1905 115.8407 118.7327 119.0045 119.0045 122.1444
   122.6221 123.6017 123.6017 124.0119 124.6665 124.6665 126.1903 126.4912
   127.0500 127.0500 127.7422 129.4927 129.4927 129.6029 130.0302 130.0302
   130.3625 131.1107 131.2200 133.2632 133.7305 133.7305 134.5060 134.5564
   135.6743 135.6743 136.7920 137.7464 139.4790 140.0808 140.1358 140.1358
   140.1401 140.7346 141.2381 141.2381 141.7714 142.1800 142.1800 143.3518
   145.5343 145.5343 147.7650 148.1585 148.2769 148.8013 149.0071 149.9457
   149.9457 151.8930 151.9575 151.9575 152.6880 153.6113 154.0769 154.0769
   154.6061 155.2101 155.7981 155.7981 157.5680 158.7066 160.4233 160.4233
   160.5258 160.6766 160.8755 160.8755 161.1473 161.8865 161.8865 162.8731
   163.8610 163.9046 164.1132 164.1132 164.5137 164.5732 164.8497 164.8497
   167.8156 168.7174 168.7174 170.1925 171.5163 172.5089 172.5089 172.8813
   172.8813 173.0482 173.1456 173.3641 177.7928 178.1112 178.1112 180.3868
   180.3868 180.5409 181.2460 183.3846 183.7717 183.8045 183.8045 184.0537
   184.0537 184.8360 186.4300 186.4919 186.6499 186.9998 186.9998 187.3430
   188.4115 190.4242 190.4242 192.1752 192.1752 192.4551 193.0382 194.3211
   194.8026 194.8026 195.0074 195.0703 195.7793 196.7286 196.7286 196.9408
   197.7381 197.7381 197.7556 197.8533 198.7335 200.5224 201.2030 201.3951
   201.4149 201.4149 203.3746 203.3746 203.5178 204.2671 206.8688 206.8688
   208.8010 208.9349 208.9349 209.1886 209.5874 209.5874 210.7502 210.7502
   211.1035 212.4831 213.1821 214.9551 214.9956 215.1642 215.1642 216.0448
   217.1039 217.1695 218.5933 218.5933 219.0181 220.0661 221.8282 221.8282
   224.5196 224.5867 225.0371 225.0371 225.7848 225.9620 226.0561 226.0561
   226.4654 226.6687 226.7178 226.9270 226.9270 227.4852 227.9037 227.9037
   228.2187 228.9262 229.0392 229.3283 229.3283 230.2609 230.2609 231.6362
   231.7890 231.7890 233.2226 234.2346 234.2882 234.3654 234.3654 234.9512
   236.3237 236.3237 236.5009 236.5009 236.5871 236.6407 236.8522 236.8780
   238.6762 239.0184 239.0184 240.2269 241.0728 242.9173 242.9173 243.8737
   244.0376 244.7700 244.7700 245.7055 246.4190 246.4333 246.4333 246.6241
   246.6241 247.2364 248.2618 248.3973 249.0806 249.0806 249.2012 249.2352
   250.4298 250.4298 250.6480 250.7349 250.7733 250.7733 250.8706 250.9310
   251.0669 251.0669 251.5224 251.5248 253.9381 253.9381 254.6747 255.0099
   257.2985 257.2985 257.3107 257.9096 258.3972 258.3972 258.4382 259.0657
   262.5836 262.5836 262.6511 262.7565 264.7357 264.7357 264.9333 265.0233
   265.4626 265.6900 266.0414 266.0414 267.7010 268.0827 268.0827 268.2145
   268.8524 268.8524 268.9242 269.4931 271.7366 271.7366 272.0636 273.3875
   276.0068 276.4320 276.4742 276.4742 277.0883 277.2279 277.2279 278.1752
   278.1752 278.2546 279.2225 279.6354 280.4324 282.2772 282.2772 283.8351
   285.6693 287.0671 287.0671 287.8731 287.9793 288.0162 288.1529 288.1529
   288.8847 288.8847 288.8993 288.9038 289.3196 289.6061 289.6061 290.4615
   290.8113 290.9978 290.9978 291.1078 291.4036 291.4459 291.4459 291.4996
   291.4996 291.6605 291.6607 291.6969 291.7529 292.7343 293.9955 293.9955
   295.5413 296.3590 297.2828 299.0005 299.0005 300.0397 300.4251 300.8644
   300.8644 300.9651 303.2454 303.5430 303.5430 303.8605 303.8605 304.0250
   305.1075 305.6272 305.6272 306.8185 307.4872 307.6194 307.6194 308.5356
   309.9479 309.9479 311.0530 311.1434 311.3841 311.3841 311.4436 311.4471
   311.5402 311.5402 311.7003 311.7899 312.7950 313.8114 315.0708 315.0708
   315.7264 315.7264 315.8837 315.9270 316.6862 316.6862 317.1095 317.1095
   317.1151 318.2255 319.2173 319.5522 319.8748 319.8748 320.0412 321.0921
   321.3444 321.3444 321.5756 321.9150 322.0476 322.0476 322.6730 323.3345
   325.6674 325.6674 326.1209 326.1509 327.4327 327.7065 327.7065 329.2001
   332.0418 332.0418 332.2646 332.5599 332.7598 333.7279 334.2398 334.2398
   336.9731 337.3340 337.3340 338.3990 338.3990 339.0074 339.3750 339.6744
   340.4467 341.1219 341.1219 341.6031 341.7017 341.7017 341.8954 342.4930
   342.8051 342.8051 342.8583 343.0719 343.7083 343.9931 343.9931 344.2806
   344.3915 344.3915 344.4124 344.5457 344.5457 344.9066 345.4813 346.3029
   346.4291 346.4449 346.4449 346.4826 346.8147 349.0341 349.0341 351.5544
   351.9477 351.9892 351.9892 352.4351 353.0587 353.0587 353.1207 353.2080
   353.4309 353.5793 353.5793 353.6861 353.7519 353.7519 354.1741 354.2804
   354.5934 354.6184 354.7122 354.7122 355.7862 355.7862 356.2655 356.2741
   356.2877 356.3161 356.3161 357.1947 357.3016 357.4872 357.4872 357.6211
   358.3379 358.3806 358.3806 358.4160 360.4779 362.0785 362.0785 362.7566
   363.6556 363.6556 363.9524 364.8189 364.8189 365.0098 365.1514 365.1653
   367.7676 368.3654 368.3654 369.7288 369.8284 371.5666 371.5666 371.5872
   373.3518 373.3518 373.6041 373.8480 373.8560 373.8560 374.0126 374.0291
   374.4031 374.4031 374.7994 374.9403 375.1601 375.8571 375.8571 375.8900
   375.9072 376.0514 376.0514 376.2709 376.5181 376.9392 378.4070 378.7481
   378.7481 378.8235 380.3840 380.4142 380.4142 381.9501 382.2835 382.2835
   383.4689 383.6926 383.9986 384.0642 384.3616 384.3616 385.9094 385.9722
   385.9722 386.0433 386.1853 386.1853 386.6013 386.6144 386.6723 386.6990
   386.6990 386.7887 386.7887 386.8074 387.2031 387.2657 389.2418 389.2418
   390.2181 390.2217 390.2383 390.2383 394.4299 394.4299 395.1068 395.6736
   397.0546 397.1590 397.1590 397.3270 397.7110 397.8281 397.8686 397.8686
   398.2567 398.2567 398.2755 398.2843 400.2128 401.3893 401.3893 402.7571
   403.1238 403.1238 403.3992 403.8589 404.6939 404.6939 406.0489 406.6490
   406.8069 407.0287 407.0287 407.2161 407.4101 407.4101 409.3326 410.5087
   410.9688 410.9688 411.4575 411.4650 411.6018 411.6018 411.7260 411.7418
   411.9309 411.9757 411.9757 417.2925 417.3205 417.3294 417.3294 417.7129
   418.0994 418.1480 418.1480 418.3412 419.2937 419.7916 419.7916 420.2329
   421.5511 421.5919 421.5919 421.6806 423.1241 425.4271 425.4271 425.7387
   425.7387 426.1603 426.2052 426.2904 427.0674 427.0674 427.3564 427.4569
   427.7640 427.7640 427.8776 427.9613 427.9613 428.3838 428.5325 428.7015
   429.0711 429.2973 429.2973 429.4783 436.9355 436.9355 437.2830 438.0266
   438.0266 438.0390 438.0772 438.7433 438.8758 438.8837 438.9201 438.9201
   439.1974 439.1974 439.5060 439.6429 439.8597 439.8597 439.9542 440.0611
   441.0152 442.7398 442.7398 443.0627 443.4275 443.4275 444.7223 444.7960
   445.4148 445.4148 446.0121 447.2739 447.8240 447.8240 447.8407 448.0185
   448.1033 448.1033 448.3641 448.7612 448.7667 448.8655 448.8655 448.9525
   449.1639 449.9461 449.9724 449.9724 450.0074 450.0715 450.0715 450.4645
   450.4822 450.4822 450.5850 450.6304 450.6304 450.6374 450.7077 450.7105
   450.7390 450.8739 450.8739 451.1724 451.2403 451.3554 451.3554 451.5375
   451.9207 451.9207 452.0979 452.2794 454.1675 454.1809 454.1809 454.2216
   458.9827 459.3105 459.3105 459.6792 459.6792 459.7712 460.1183 460.1762
   460.1764 460.1764 460.3388 461.1480 461.1930 461.2425 461.2425 461.3742
   461.4284 461.7224 461.7224 461.8768 462.1877 462.2271 462.2271 462.2588
   462.5253 462.6301 462.6301 462.6795 465.2759 466.8420 466.8420 467.0539
   467.2771 467.2771 468.0520 468.0787 468.4501 470.2131 470.5838 470.5838
   470.9750 471.3883 475.6068 475.6068 475.6168 475.6197 476.9526 476.9526
   477.5931 477.6391 477.7175 477.7175 479.5541 480.0157 480.2801 480.2801
   480.6482 480.8459 480.8459 480.8896 480.9209 481.2630 481.2700 481.2700
   481.4888 481.6839 482.6634 482.6634 482.7549 482.7688 482.7688 482.8015
   482.8494 482.8766 484.2238 484.2238 484.3009 484.3216 484.3216 484.3286
   484.3954 484.4755 485.2684 485.2684 485.9106 486.0422 486.0422 487.0398
   490.1109 490.1109 490.5831 490.8863 491.3500 491.3500 492.1355 492.1437
   492.2069 492.3730 492.3730 492.5342 496.0048 496.0114 496.0114 496.0591
   497.7628 498.2497 498.2497 498.8710 498.8710 498.9048 498.9389 499.8512
   500.8912 500.8912 501.6529 502.0294 502.2036 502.2036 502.3223 502.5836
   502.6191 502.6191 503.1970 503.2054 503.3355 503.3355 503.4717 503.4985
   503.7214 503.7214 503.7731 503.9380 503.9628 503.9628 504.0292 504.1209
   507.1063 507.1063 507.4921 507.5062 507.9246 507.9246 507.9849 507.9873
   509.3049 509.3049 510.2632 510.9541 510.9799 511.0826 511.3427 511.3427
   511.5522 511.8232 511.8324 511.8324 512.5196 512.5196 512.8404 512.8854
   512.9268 513.0828 513.0828 513.2556 514.1888 514.1911 514.2558 514.2558
   514.5586 514.5586 514.7520 514.8494 514.8499 514.8499 514.9281 514.9412
   514.9412 514.9481 515.0579 515.0900 515.1776 515.1776 515.3243 515.4558
   515.4559 515.8403 515.8403 515.8929 521.4125 521.4125 522.4764 522.8268
   523.4734 523.6555 523.6555 523.8376 526.3472 526.3797 526.3797 526.3864
   526.4680 526.4680 526.4918 526.5035 532.0128 532.3379 532.3379 533.4931
   533.5974 533.5974 533.7121 533.7561 533.9178 533.9178 534.1209 534.7267
   534.8198 534.9009 534.9009 534.9205 535.0219 535.1533 535.1533 535.2780
   536.1068 536.6332 536.6332 537.0543 537.0689 537.0689 537.1162 537.1428
   538.4479 538.4479 538.4610 538.4863 542.4897 542.4897 542.5081 543.3634
   543.4080 543.4080 543.6587 543.8293 543.9992 543.9992 544.3281 544.8190
   545.8463 545.8734 545.9388 545.9388 546.0416 546.0416 546.0802 546.0931
   546.2787 546.3784 546.3784 546.4610 546.5814 546.5814 546.6328 546.7698
   546.7821 546.7855 546.7855 546.7861 546.8323 546.8362 546.8362 546.9248
   550.4150 550.4150 550.4240 550.4344 552.7641 552.7641 552.8379 553.2876
   555.6153 555.6153 556.1880 556.3607 556.3835 556.3835 556.4990 556.6941
   557.8763 557.8763 557.9173 557.9254 557.9419 557.9487 557.9487 558.0095
   558.7153 558.7153 558.8262 560.4101 562.1271 562.6941 562.6941 562.8876
   563.1866 563.2984 563.3243 563.3243 567.7767 567.7767 567.8119 567.9029
   567.9289 567.9289 567.9308 567.9979 570.4147 570.4176 570.4176 570.5159
   570.9510 570.9510 570.9918 570.9957 571.6386 571.6406 571.6582 571.6582
   572.2531 573.4456 573.4456 573.4668 574.6240 574.6240 575.8689 575.8689
   575.9897 576.0053 576.3808 576.4093 576.4678 576.5726 576.6608 576.6608
   576.7671 576.7671 576.8104 576.8376 576.8932 577.4973 577.4974 577.7892

     the Fermi energy is     3.8171 ev
     (compare with:     7.3061 eV, computed in scf)

     Writing all to output data dir out/mp-463.save/
 
     init_run     :      0.07s CPU      0.09s WALL (       1 calls)
     electrons    :    923.80s CPU    995.19s WALL (       1 calls)

     Called by init_run:
     wfcinit      :      0.00s CPU      0.00s WALL (       1 calls)
     potinit      :      0.01s CPU      0.02s WALL (       1 calls)
     hinit0       :      0.02s CPU      0.04s WALL (       1 calls)

     Called by electrons:
     c_bands      :    923.79s CPU    995.19s WALL (       1 calls)
     v_of_rho     :      0.01s CPU      0.01s WALL (       1 calls)

     Called by c_bands:
     init_us_2    :      0.00s CPU      0.00s WALL (       8 calls)
     init_us_2:cp :      0.00s CPU      0.00s WALL (       8 calls)
     cegterg      :    902.92s CPU    973.17s WALL (       8 calls)

     Called by *egterg:
     cdiaghg      :    845.27s CPU    914.35s WALL (      70 calls)
     h_psi        :     16.84s CPU     17.36s WALL (      78 calls)
     g_psi        :      0.11s CPU      0.11s WALL (      62 calls)

     Called by h_psi:
     h_psi:calbec :      0.26s CPU      0.28s WALL (      78 calls)
     vloc_psi     :     16.28s CPU     16.77s WALL (      78 calls)
     add_vuspsi   :      0.19s CPU      0.19s WALL (      78 calls)

     General routines
     calbec       :      0.26s CPU      0.28s WALL (      78 calls)
     fft          :      0.01s CPU      0.03s WALL (      10 calls)
     fftw         :     14.73s CPU     15.17s WALL (  116212 calls)
 
     Parallel routines
 
     PWSCF        :  15m24.60s CPU  16m36.55s WALL

 
   This run was terminated on:  13:30:21  19Nov2023            

=------------------------------------------------------------------------------=
   JOB DONE.
=------------------------------------------------------------------------------=
