
     Program PWSCF v.7.1 starts on 14Nov2023 at 22:20:37 

     This program is part of the open-source Quantum ESPRESSO suite
     for quantum simulation of materials; please cite
         "P. Giannozzi et al., J. Phys.:Condens. Matter 21 395502 (2009);
         "P. Giannozzi et al., J. Phys.:Condens. Matter 29 465901 (2017);
         "P. Giannozzi et al., J. Chem. Phys. 152 154105 (2020);
          URL http://www.quantum-espresso.org", 
     in publications or presentations arising from this work. More details at
     http://www.quantum-espresso.org/quote

     Parallel version (MPI), running on     8 processors

     MPI processes distributed on     1 nodes
     123634 MiB available memory on the printing compute node when the environment starts
 
     Reading input from pw_mp-1087_nscf_k0_E53.in
Warning: card &IONS ignored
Warning: card / ignored
Warning: card &CELL ignored
Warning: card / ignored

     Current dimensions of program PWSCF are:
     Max number of different atomic species (ntypx) = 10
     Max number of k-points (npk) =  40000
     Max angular momentum in pseudopotentials (lmaxx) =  4

     Atomic positions and unit cell read from directory:
     out/mp-1087.save/
     Atomic positions from file used, from input discarded
 
 
     R & G space division:  proc/nbgrp/npool/nimage =       8
     Subspace diagonalization in iterative solution of the eigenvalue problem:
     one sub-group per band group will be used
     scalapack distributed-memory algorithm (size of sub-group:  2*  2 procs)

 
     Parallelization info
     --------------------
     sticks:   dense  smooth     PW     G-vecs:    dense   smooth      PW
     Min         119     119     30                 2446     2446     302
     Max         120     120     31                 2450     2450     304
     Sum         955     955    241                19579    19579    2421
 
     Using Slab Decomposition
 


     bravais-lattice index     =            2
     lattice parameter (alat)  =      11.4291  a.u.
     unit-cell volume          =     373.2322 (a.u.)^3
     number of atoms/cell      =            2
     number of atomic types    =            2
     number of electrons       =        16.00
     number of Kohn-Sham states=          880
     kinetic-energy cutoff     =      53.0000  Ry
     charge density cutoff     =     212.0000  Ry
     Exchange-correlation= PBE
                           (   1   4   3   4   0   0   0)

     celldm(1)=  11.429126  celldm(2)=   0.000000  celldm(3)=   0.000000
     celldm(4)=   0.000000  celldm(5)=   0.000000  celldm(6)=   0.000000

     crystal axes: (cart. coord. in units of alat)
               a(1) = (  -0.500000   0.000000   0.500000 )  
               a(2) = (   0.000000   0.500000   0.500000 )  
               a(3) = (  -0.500000   0.500000   0.000000 )  

     reciprocal axes: (cart. coord. in units 2 pi/alat)
               b(1) = ( -1.000000 -1.000000  1.000000 )  
               b(2) = (  1.000000  1.000000  1.000000 )  
               b(3) = ( -1.000000  1.000000 -1.000000 )  


     PseudoPot. # 1 for S  read from file:
     /usr/scratch4/magr4985/MG/HTDF/pseudo/SG15/S.upf
     MD5 check sum: f9d020296ee6110346977bfd66d424f6
     Pseudo is Norm-conserving, Zval =  6.0
     Generated using ONCVPSP code by D. R. Hamann
     Using radial grid of  602 points,  4 beta functions with: 
                l(1) =   0
                l(2) =   0
                l(3) =   1
                l(4) =   1

     PseudoPot. # 2 for Sr read from file:
     /usr/scratch4/magr4985/MG/HTDF/pseudo/SG15/Sr.upf
     MD5 check sum: 3f9bc8d6f3e8472da0cbe0e6a3044a9f
     Pseudo is Norm-conserving, Zval = 10.0
     Generated using ONCVPSP code by D. R. Hamann
     Using radial grid of  602 points,  6 beta functions with: 
                l(1) =   0
                l(2) =   0
                l(3) =   1
                l(4) =   1
                l(5) =   2
                l(6) =   2

     atomic species   valence    mass     pseudopotential
        S              6.00    32.06500     S ( 1.00)
        Sr            10.00    87.62000     Sr( 1.00)

     48 Sym. Ops., with inversion, found



   Cartesian axes

     site n.     atom                  positions (alat units)
         1           Sr  tau(   1) = (   0.0000000   0.0000000   0.0000000  )
         2           S   tau(   2) = (  -0.5000000   0.5000000   0.5000000  )

     number of k points=     1  Gaussian smearing, width (Ry)=  0.0005
                       cart. coord. in units 2pi/alat
        k(    1) = (   0.0000000   0.0000000   0.0000000), wk =   2.0000000

     Dense  grid:    19579 G-vectors     FFT dimensions: (  40,  40,  40)

     Estimated max dynamical RAM per process >      59.61 MB

     Estimated total dynamical RAM >     476.92 MB

     The potential is recalculated from file :
     out/mp-1087.save/charge-density

     Starting wfcs are random

     Band Structure Calculation
     Davidson diagonalization with overlap

     ethr =  5.00E-06,  avg # of iterations =  6.0

     total cpu time spent up to now is       41.0 secs

     End of band structure calculation

          k = 0.0000 0.0000 0.0000 (  2421 PWs)   bands (ev):

   -27.8246  -9.7672  -9.7672  -9.7672  -5.1110   5.6595   5.6595   5.6595
     9.2512  10.1093  10.1093  10.1093  10.9868  10.9868  15.4277  20.5896
    20.5896  20.5896  22.6138  22.6138  22.6138  24.0628  24.0628  27.8265
    27.8265  27.8265  28.2920  30.3406  30.3406  30.6248  30.6248  30.6248
    32.0767  32.0767  32.0767  38.9728  40.4695  40.4695  40.4695  41.7630
    41.9682  41.9682  41.9682  43.4808  43.4808  43.4808  44.2338  44.2338
    44.2338  45.8015  45.9881  45.9881  45.9881  47.1979  47.1979  47.1979
    47.2563  47.2563  47.8524  47.8524  49.3265  55.2383  55.2383  55.2383
    61.5072  61.5072  61.5072  63.6761  64.8579  64.8579  64.8579  66.0140
    66.0140  66.0140  66.5653  66.5653  67.7507  67.7507  67.7507  71.2849
    72.5835  72.5835  73.4456  73.4456  73.4456  74.2855  74.2855  74.2855
    75.1086  75.9496  75.9496  75.9496  76.4101  76.4101  76.4101  77.4684
    77.4684  77.4684  77.9766  77.9766  77.9766  79.0440  79.0440  79.2406
    79.2406  79.2406  79.9040  79.9040  81.3809  81.3809  81.3809  82.3613
    83.9126  83.9126  84.1243  86.8771  88.2579  88.2579  88.2579  91.8330
    91.8330  91.8330  92.7204  92.7204  92.7204  95.9055  95.9055  95.9814
    95.9814  95.9814  96.0479  96.0479  96.2376  96.2376  96.2376  96.3314
    96.3314  96.3314  97.0990  97.0990  97.0990  98.6157  98.6157  98.6157
    99.3102 102.7815 103.8566 104.8635 104.8635 104.8635 105.4216 105.4216
   105.4216 106.1311 106.1311 106.1311 107.7515 107.7515 107.7515 108.1791
   108.1791 108.1791 109.8156 112.6383 112.6383 112.7609 112.7609 112.7609
   112.9578 115.9663 118.3515 118.3515 118.4427 118.4427 118.4427 121.6714
   121.6714 121.6714 123.1686 123.1686 123.1686 123.6568 123.6568 123.6568
   124.2938 124.2938 128.4282 128.5025 128.5025 128.5025 129.6961 129.6961
   131.1194 131.1194 131.1194 134.3077 134.3077 134.3077 134.5061 134.9276
   134.9276 134.9276 135.6373 135.6373 135.6373 135.7228 135.7228 135.7228
   136.4546 136.4546 137.3488 137.6386 138.1627 138.1627 138.1627 139.2776
   139.2776 139.2776 139.4954 140.1791 140.1835 140.1835 140.1835 140.7178
   140.7178 142.5826 142.5826 142.5826 143.1384 143.1384 143.1384 143.9789
   143.9789 143.9789 144.5821 144.5821 144.6625 144.6625 144.6625 145.0136
   145.0136 145.0136 145.1137 145.1137 145.1137 145.3372 145.3372 145.3372
   145.4163 145.4163 145.6741 145.6741 145.6741 145.7564 145.7564 145.7884
   145.8065 145.8065 145.8065 153.8368 154.1646 154.1646 154.8555 154.8555
   154.8555 155.2760 155.2760 155.2760 155.6695 155.6695 155.6695 155.6808
   155.6808 155.6808 157.2095 157.2095 157.2095 162.2842 162.2842 162.2842
   162.5778 162.5778 162.6441 162.6441 162.6441 162.7408 163.1801 164.6417
   166.6670 166.6670 166.6670 169.3015 169.3015 172.8833 172.8833 172.8833
   173.0062 173.0062 173.0062 173.1353 173.1353 173.1580 173.1580 173.1580
   173.1933 173.3882 173.3882 173.3882 173.5145 173.5145 173.5145 174.6511
   175.6324 175.6324 176.0513 176.0513 176.0513 176.2040 176.2040 176.2040
   176.3419 176.3419 176.5107 176.5107 176.5107 176.8407 176.8407 176.8407
   177.6695 177.6695 177.6695 178.8886 178.8886 180.7488 185.3878 185.3878
   185.3878 187.5313 187.5313 187.5313 189.7096 189.7096 189.7096 189.8002
   190.1604 191.7237 191.7237 191.7237 194.1526 194.1526 194.7268 194.7268
   194.7268 194.7498 194.7498 194.7498 196.2892 197.5298 197.5298 197.5298
   198.1486 198.1486 198.8302 199.2823 199.2823 199.2823 203.8154 203.8154
   203.8154 204.3306 204.3306 204.3306 204.5795 204.5795 204.5795 204.6215
   204.6215 204.6215 205.9601 205.9601 205.9601 207.2201 207.4512 207.4512
   207.4744 207.4744 207.4744 208.0790 208.0790 208.0790 208.3380 208.3380
   208.4568 208.4568 208.4568 208.6900 208.6900 208.6900 208.9566 208.9566
   208.9566 209.1843 209.1843 209.1843 209.3448 211.2657 211.2657 211.2820
   211.2820 211.2820 211.3216 216.6057 216.6057 216.6057 217.6461 219.7091
   219.7302 219.7302 219.7302 220.6393 220.6393 221.1364 221.1364 221.1364
   222.2116 222.2116 222.4769 222.4769 222.4769 222.7130 222.7130 222.7130
   222.9914 222.9914 222.9914 223.2688 223.2688 223.5551 223.5551 223.5551
   223.6352 227.6375 227.6375 227.6949 227.6949 227.6949 227.7062 227.7062
   227.7062 227.7156 227.7156 227.7156 227.7618 227.7618 227.7618 227.7701
   227.7701 227.7701 227.8942 227.8971 227.8971 228.7672 228.7672 228.7672
   229.2498 229.2498 229.2498 229.4110 229.4110 229.4110 229.5045 229.5420
   229.7237 229.7237 229.7237 230.3002 230.3002 230.3002 232.2673 232.2673
   232.2673 233.3238 233.4948 233.4948 233.4948 233.9317 233.9317 234.3091
   234.3091 234.3091 234.7214 235.4563 235.4563 237.7658 237.7658 238.6137
   238.6137 238.6137 239.1401 239.1401 239.1401 239.2406 239.2406 239.2406
   240.0251 240.0251 240.0251 240.0269 240.0269 240.1238 240.5920 240.5920
   240.5920 240.6342 240.6342 242.2423 242.2423 242.2423 242.3927 242.3927
   242.3927 242.5754 242.5754 242.5754 242.7092 242.7092 242.7092 242.7584
   243.5999 243.5999 243.5999 243.7025 243.7713 243.7713 243.7713 243.8040
   243.8040 253.6972 253.6972 253.6972 262.4296 263.1525 263.1525 263.1525
   263.5259 263.5259 264.7607 264.7607 264.7607 265.3240 267.5053 267.5053
   267.5053 267.6006 267.6006 268.3085 268.6159 268.6159 268.6159 269.0690
   269.0772 269.0772 269.0772 269.4884 269.4884 269.4884 269.5016 269.5016
   269.5016 269.5401 269.5401 269.5401 269.5888 269.5888 269.5888 269.7163
   269.7163 269.8432 269.8432 269.8432 269.9851 269.9851 269.9851 270.4990
   270.6154 270.6154 270.6154 275.7352 275.7352 276.0054 276.0054 276.0054
   276.0317 276.0317 276.0317 276.1983 276.1983 276.2503 276.2503 276.2503
   276.4297 276.4297 276.4297 277.3914 277.3914 277.5167 277.5167 277.5167
   277.6648 279.5599 279.5599 279.5599 281.0598 281.0598 284.1245 284.1245
   284.1245 284.5090 284.7990 284.7990 284.7990 285.4261 285.4261 285.4261
   286.2982 286.2982 286.4609 286.4609 286.4609 287.4128 288.8389 288.8389
   288.8389 290.5295 290.7173 290.7173 290.7173 290.8191 290.8191 290.9109
   290.9109 291.4421 291.4421 291.4421 291.5533 291.5533 291.5533 291.5736
   291.5736 291.5736 292.0194 292.0194 292.0194 292.3098 292.3098 292.3098
   292.8188 297.2752 297.2752 298.7592 298.8655 298.8655 298.8655 299.8777
   299.8777 299.8777 300.5054 300.5054 300.5054 300.6641 300.6641 300.6641
   300.6740 300.6740 300.6740 300.8153 301.5819 303.5756 303.5756 303.5756
   304.4295 304.4295 304.4295 304.4528 304.4528 304.7511 304.7511 304.7511
   305.0875 305.5941 305.5941 305.5941 305.8429 305.8429 306.0029 306.0029
   306.0029 306.2744 306.9896 307.1918 307.1918 307.1918 307.4334 307.4334
   307.5432 307.5432 307.5432 307.6391 307.6391 307.6391 307.7983 307.7983
   307.7983 307.8033 307.8033 308.5184 308.5184 308.5184 308.5508 308.5508
   308.6030 308.6030 308.6030 308.6603 308.6603 308.6603 308.7062 311.3926
   311.3926 311.3926 313.0684 315.4770 315.4770 317.8215 317.8215 317.8215
   319.3748 319.3748 319.3748 319.9355 319.9355 319.9355 320.0198 320.0198
   320.0198 320.0665 320.0665 320.0665 320.1697 320.8781 321.0621 321.0621
   321.0621 321.0921 321.0921 323.3209 323.3209 323.3209 327.8267 327.8267
   327.8267 328.4691 329.0342 331.4822 331.4822 331.9180 331.9180 331.9180
   332.1614 332.1614 332.1614 332.4085 332.4085 332.4085 332.6866 332.6866
   332.6866 332.7882 332.7882 333.2564 333.2564 333.2564 335.1366 335.2297
   335.2297 335.2297 335.5511 335.5511 335.5511 335.6130 335.6130 335.6130
   335.7104 335.7104 335.7104 336.1941 336.1941 336.1941 336.7223 336.7223
   336.7324 336.7324 336.7324 336.7543 336.7543 337.1528 337.1528 337.1528
   337.1644 337.5539 337.5539 337.5539 337.8751 337.8751 337.8751 338.4306
   338.4306 338.5430 338.5430 338.5732 338.5732 338.5732 338.6228 338.6228
   338.6228 338.6316 338.6316 338.6316 338.8636 338.8636 338.8636 339.9959
   340.1092 340.1092 340.1092 340.1861 340.1861 340.1861 340.2358 342.7791
   342.8217 342.8217 342.8217 342.8276 342.8276 342.8276 342.8368 342.8368
   342.8702 342.8702 342.9412 342.9412 342.9412 343.0304 343.0304 343.0304
   343.0520 343.0520 343.0520 343.1155 343.1155 343.1452 343.2700 343.2700
   343.2700 343.3834 343.3834 343.3834 343.4798 347.6082 347.6082 347.6082
   348.7928 348.7928 348.7928 349.0048 349.0408 353.6554 353.6554 357.3150

     the Fermi energy is     8.2314 ev
     (compare with:     8.2314 eV, computed in scf)

     Writing all to output data dir out/mp-1087.save/
 
     init_run     :      0.04s CPU      0.09s WALL (       1 calls)
     electrons    :     37.76s CPU     40.74s WALL (       1 calls)

     Called by init_run:
     wfcinit      :      0.00s CPU      0.00s WALL (       1 calls)
     potinit      :      0.01s CPU      0.01s WALL (       1 calls)
     hinit0       :      0.02s CPU      0.06s WALL (       1 calls)

     Called by electrons:
     c_bands      :     37.76s CPU     40.74s WALL (       1 calls)
     v_of_rho     :      0.01s CPU      0.01s WALL (       1 calls)

     Called by c_bands:
     init_us_2    :      0.00s CPU      0.00s WALL (       1 calls)
     init_us_2:cp :      0.00s CPU      0.00s WALL (       1 calls)
     cegterg      :     36.57s CPU     39.41s WALL (       1 calls)

     Called by *egterg:
     cdiaghg      :     34.32s CPU     37.14s WALL (       7 calls)
     h_psi        :      0.81s CPU      0.86s WALL (       8 calls)
     g_psi        :      0.01s CPU      0.01s WALL (       6 calls)

     Called by h_psi:
     h_psi:calbec :      0.02s CPU      0.03s WALL (       8 calls)
     vloc_psi     :      0.78s CPU      0.82s WALL (       8 calls)
     add_vuspsi   :      0.01s CPU      0.01s WALL (       8 calls)

     General routines
     calbec       :      0.02s CPU      0.03s WALL (       8 calls)
     fft          :      0.01s CPU      0.04s WALL (      10 calls)
     fftw         :      0.70s CPU      0.73s WALL (   10268 calls)
 
     Parallel routines
 
     PWSCF        :     38.02s CPU     41.13s WALL

 
   This run was terminated on:  22:21:18  14Nov2023            

=------------------------------------------------------------------------------=
   JOB DONE.
=------------------------------------------------------------------------------=
