
     Program PWSCF v.7.1 starts on 15Nov2023 at  0:19:25 

     This program is part of the open-source Quantum ESPRESSO suite
     for quantum simulation of materials; please cite
         "P. Giannozzi et al., J. Phys.:Condens. Matter 21 395502 (2009);
         "P. Giannozzi et al., J. Phys.:Condens. Matter 29 465901 (2017);
         "P. Giannozzi et al., J. Chem. Phys. 152 154105 (2020);
          URL http://www.quantum-espresso.org", 
     in publications or presentations arising from this work. More details at
     http://www.quantum-espresso.org/quote

     Parallel version (MPI), running on    24 processors

     MPI processes distributed on     1 nodes
     123271 MiB available memory on the printing compute node when the environment starts
 
     Reading input from pw_mp-1087_scf_k3000_E53.in
Warning: card &CELL ignored
Warning: card / ignored

     Current dimensions of program PWSCF are:
     Max number of different atomic species (ntypx) = 10
     Max number of k-points (npk) =  40000
     Max angular momentum in pseudopotentials (lmaxx) =  4
 
     K-points division:     npool     =       2
     R & G space division:  proc/nbgrp/npool/nimage =      12
     Subspace diagonalization in iterative solution of the eigenvalue problem:
     a serial algorithm will be used

 
     Parallelization info
     --------------------
     sticks:   dense  smooth     PW     G-vecs:    dense   smooth      PW
     Min          79      79     24                 1629     1629     267
     Max          80      80     26                 1633     1633     269
     Sum         955     955    295                19579    19579    3215
 
     Using Slab Decomposition
 


     bravais-lattice index     =            2
     lattice parameter (alat)  =      11.4291  a.u.
     unit-cell volume          =     373.2322 (a.u.)^3
     number of atoms/cell      =            2
     number of atomic types    =            2
     number of electrons       =        16.00
     number of Kohn-Sham states=           16
     kinetic-energy cutoff     =      53.0000  Ry
     charge density cutoff     =     212.0000  Ry
     scf convergence threshold =      1.0E-10
     mixing beta               =       0.7000
     number of iterations used =            8  plain     mixing
     Exchange-correlation= PBE
                           (   1   4   3   4   0   0   0)

     celldm(1)=  11.429126  celldm(2)=   0.000000  celldm(3)=   0.000000
     celldm(4)=   0.000000  celldm(5)=   0.000000  celldm(6)=   0.000000

     crystal axes: (cart. coord. in units of alat)
               a(1) = (  -0.500000   0.000000   0.500000 )  
               a(2) = (   0.000000   0.500000   0.500000 )  
               a(3) = (  -0.500000   0.500000   0.000000 )  

     reciprocal axes: (cart. coord. in units 2 pi/alat)
               b(1) = ( -1.000000 -1.000000  1.000000 )  
               b(2) = (  1.000000  1.000000  1.000000 )  
               b(3) = ( -1.000000  1.000000 -1.000000 )  


     PseudoPot. # 1 for S  read from file:
     /usr/scratch4/magr4985/MG/HTDF/pseudo/SG15/S.upf
     MD5 check sum: f9d020296ee6110346977bfd66d424f6
     Pseudo is Norm-conserving, Zval =  6.0
     Generated using ONCVPSP code by D. R. Hamann
     Using radial grid of  602 points,  4 beta functions with: 
                l(1) =   0
                l(2) =   0
                l(3) =   1
                l(4) =   1

     PseudoPot. # 2 for Sr read from file:
     /usr/scratch4/magr4985/MG/HTDF/pseudo/SG15/Sr.upf
     MD5 check sum: 3f9bc8d6f3e8472da0cbe0e6a3044a9f
     Pseudo is Norm-conserving, Zval = 10.0
     Generated using ONCVPSP code by D. R. Hamann
     Using radial grid of  602 points,  6 beta functions with: 
                l(1) =   0
                l(2) =   0
                l(3) =   1
                l(4) =   1
                l(5) =   2
                l(6) =   2

     atomic species   valence    mass     pseudopotential
        S              6.00    32.06500     S ( 1.00)
        Sr            10.00    87.62000     Sr( 1.00)

     48 Sym. Ops., with inversion, found



   Cartesian axes

     site n.     atom                  positions (alat units)
         1           Sr  tau(   1) = (   0.0000000   0.0000000   0.0000000  )
         2           S   tau(   2) = (  -0.5000000   0.5000000   0.5000000  )

     number of k points=    72  Gaussian smearing, width (Ry)=  0.0005
                       cart. coord. in units 2pi/alat
        k(    1) = (   0.0000000   0.0000000   0.0000000), wk =   0.0011574
        k(    2) = (  -0.0833333   0.0833333  -0.0833333), wk =   0.0092593
        k(    3) = (  -0.1666667   0.1666667  -0.1666667), wk =   0.0092593
        k(    4) = (  -0.2500000   0.2500000  -0.2500000), wk =   0.0092593
        k(    5) = (  -0.3333333   0.3333333  -0.3333333), wk =   0.0092593
        k(    6) = (  -0.4166667   0.4166667  -0.4166667), wk =   0.0092593
        k(    7) = (   0.5000000  -0.5000000   0.5000000), wk =   0.0046296
        k(    8) = (   0.0000000   0.1666667   0.0000000), wk =   0.0069444
        k(    9) = (  -0.0833333   0.2500000  -0.0833333), wk =   0.0277778
        k(   10) = (  -0.1666667   0.3333333  -0.1666667), wk =   0.0277778
        k(   11) = (  -0.2500000   0.4166667  -0.2500000), wk =   0.0277778
        k(   12) = (  -0.3333333   0.5000000  -0.3333333), wk =   0.0277778
        k(   13) = (   0.5833333  -0.4166667   0.5833333), wk =   0.0277778
        k(   14) = (   0.5000000  -0.3333333   0.5000000), wk =   0.0277778
        k(   15) = (   0.4166667  -0.2500000   0.4166667), wk =   0.0277778
        k(   16) = (   0.3333333  -0.1666667   0.3333333), wk =   0.0277778
        k(   17) = (   0.2500000  -0.0833333   0.2500000), wk =   0.0277778
        k(   18) = (   0.1666667  -0.0000000   0.1666667), wk =   0.0138889
        k(   19) = (   0.0000000   0.3333333   0.0000000), wk =   0.0069444
        k(   20) = (  -0.0833333   0.4166667  -0.0833333), wk =   0.0277778
        k(   21) = (  -0.1666667   0.5000000  -0.1666667), wk =   0.0277778
        k(   22) = (  -0.2500000   0.5833333  -0.2500000), wk =   0.0277778
        k(   23) = (   0.6666667  -0.3333333   0.6666667), wk =   0.0277778
        k(   24) = (   0.5833333  -0.2500000   0.5833333), wk =   0.0277778
        k(   25) = (   0.5000000  -0.1666667   0.5000000), wk =   0.0277778
        k(   26) = (   0.4166667  -0.0833333   0.4166667), wk =   0.0277778
        k(   27) = (   0.3333333   0.0000000   0.3333333), wk =   0.0138889
        k(   28) = (   0.0000000   0.5000000   0.0000000), wk =   0.0069444
        k(   29) = (  -0.0833333   0.5833333  -0.0833333), wk =   0.0277778
        k(   30) = (  -0.1666667   0.6666667  -0.1666667), wk =   0.0277778
        k(   31) = (   0.7500000  -0.2500000   0.7500000), wk =   0.0277778
        k(   32) = (   0.6666667  -0.1666667   0.6666667), wk =   0.0277778
        k(   33) = (   0.5833333  -0.0833333   0.5833333), wk =   0.0277778
        k(   34) = (   0.5000000   0.0000000   0.5000000), wk =   0.0138889
        k(   35) = (   0.0000000   0.6666667   0.0000000), wk =   0.0069444
        k(   36) = (  -0.0833333   0.7500000  -0.0833333), wk =   0.0277778
        k(   37) = (   0.8333333  -0.1666667   0.8333333), wk =   0.0277778
        k(   38) = (   0.7500000  -0.0833333   0.7500000), wk =   0.0277778
        k(   39) = (   0.6666667  -0.0000000   0.6666667), wk =   0.0138889
        k(   40) = (   0.0000000   0.8333333   0.0000000), wk =   0.0069444
        k(   41) = (   0.9166667  -0.0833333   0.9166667), wk =   0.0277778
        k(   42) = (   0.8333333   0.0000000   0.8333333), wk =   0.0138889
        k(   43) = (   0.0000000  -1.0000000   0.0000000), wk =   0.0034722
        k(   44) = (  -0.1666667   0.3333333   0.0000000), wk =   0.0277778
        k(   45) = (  -0.2500000   0.4166667  -0.0833333), wk =   0.0555556
        k(   46) = (  -0.3333333   0.5000000  -0.1666667), wk =   0.0555556
        k(   47) = (   0.5833333  -0.4166667   0.7500000), wk =   0.0555556
        k(   48) = (   0.5000000  -0.3333333   0.6666667), wk =   0.0277778
        k(   49) = (  -0.1666667   0.5000000   0.0000000), wk =   0.0277778
        k(   50) = (  -0.2500000   0.5833333  -0.0833333), wk =   0.0555556
        k(   51) = (   0.6666667  -0.3333333   0.8333333), wk =   0.0555556
        k(   52) = (   0.5833333  -0.2500000   0.7500000), wk =   0.0555556
        k(   53) = (   0.5000000  -0.1666667   0.6666667), wk =   0.0555556
        k(   54) = (   0.4166667  -0.0833333   0.5833333), wk =   0.0555556
        k(   55) = (   0.3333333   0.0000000   0.5000000), wk =   0.0277778
        k(   56) = (  -0.1666667   0.6666667  -0.0000000), wk =   0.0277778
        k(   57) = (   0.7500000  -0.2500000   0.9166667), wk =   0.0555556
        k(   58) = (   0.6666667  -0.1666667   0.8333333), wk =   0.0555556
        k(   59) = (   0.5833333  -0.0833333   0.7500000), wk =   0.0555556
        k(   60) = (   0.5000000   0.0000000   0.6666667), wk =   0.0277778
        k(   61) = (   0.8333333  -0.1666667   1.0000000), wk =   0.0277778
        k(   62) = (   0.7500000  -0.0833333   0.9166667), wk =   0.0555556
        k(   63) = (   0.6666667   0.0000000   0.8333333), wk =   0.0277778
        k(   64) = (  -0.1666667  -1.0000000  -0.0000000), wk =   0.0138889
        k(   65) = (   0.6666667  -0.3333333   1.0000000), wk =   0.0277778
        k(   66) = (   0.5833333  -0.2500000   0.9166667), wk =   0.0555556
        k(   67) = (   0.5000000  -0.1666667   0.8333333), wk =   0.0277778
        k(   68) = (   0.6666667  -0.1666667   1.0000000), wk =   0.0277778
        k(   69) = (   0.5833333  -0.0833333   0.9166667), wk =   0.0555556
        k(   70) = (   0.5000000   0.0000000   0.8333333), wk =   0.0277778
        k(   71) = (  -0.3333333  -1.0000000   0.0000000), wk =   0.0138889
        k(   72) = (  -0.5000000  -1.0000000   0.0000000), wk =   0.0069444

     Dense  grid:    19579 G-vectors     FFT dimensions: (  40,  40,  40)

     Estimated max dynamical RAM per process >       3.89 MB

     Estimated total dynamical RAM >      88.51 MB

     Initial potential from superposition of free atoms

     starting charge      15.7089, renormalised to      16.0000
     Starting wfcs are random

     total cpu time spent up to now is        0.3 secs

     Self-consistent Calculation

     iteration #  1     ecut=    53.00 Ry     beta= 0.70
     Davidson diagonalization with overlap
     ethr =  1.00E-02,  avg # of iterations =  8.4

     Threshold (ethr) on eigenvalues was too large:
     Diagonalizing with lowered threshold

     Davidson diagonalization with overlap
     ethr =  6.60E-04,  avg # of iterations =  1.4

     total cpu time spent up to now is        1.4 secs

     total energy              =     -83.00093844 Ry
     estimated scf accuracy    <       0.10630121 Ry

     iteration #  2     ecut=    53.00 Ry     beta= 0.70
     Davidson diagonalization with overlap
     ethr =  6.64E-04,  avg # of iterations =  2.5

     total cpu time spent up to now is        1.8 secs

     total energy              =     -83.02851844 Ry
     estimated scf accuracy    <       0.04899329 Ry

     iteration #  3     ecut=    53.00 Ry     beta= 0.70
     Davidson diagonalization with overlap
     ethr =  3.06E-04,  avg # of iterations =  2.2

     total cpu time spent up to now is        2.1 secs

     total energy              =     -83.03933995 Ry
     estimated scf accuracy    <       0.00074459 Ry

     iteration #  4     ecut=    53.00 Ry     beta= 0.70
     Davidson diagonalization with overlap
     ethr =  4.65E-06,  avg # of iterations =  7.5

     total cpu time spent up to now is        2.6 secs

     total energy              =     -83.03943946 Ry
     estimated scf accuracy    <       0.00001048 Ry

     iteration #  5     ecut=    53.00 Ry     beta= 0.70
     Davidson diagonalization with overlap
     ethr =  6.55E-08,  avg # of iterations =  2.1

     total cpu time spent up to now is        3.0 secs

     total energy              =     -83.03944277 Ry
     estimated scf accuracy    <       0.00000040 Ry

     iteration #  6     ecut=    53.00 Ry     beta= 0.70
     Davidson diagonalization with overlap
     ethr =  2.51E-09,  avg # of iterations =  2.2

     total cpu time spent up to now is        3.3 secs

     total energy              =     -83.03944298 Ry
     estimated scf accuracy    <       0.00000002 Ry

     iteration #  7     ecut=    53.00 Ry     beta= 0.70
     Davidson diagonalization with overlap
     ethr =  1.04E-10,  avg # of iterations =  2.2

     total cpu time spent up to now is        3.7 secs

     total energy              =     -83.03944299 Ry
     estimated scf accuracy    <          2.9E-10 Ry

     iteration #  8     ecut=    53.00 Ry     beta= 0.70
     Davidson diagonalization with overlap
     ethr =  1.81E-12,  avg # of iterations =  3.4

     total cpu time spent up to now is        4.1 secs

     End of self-consistent calculation

          k = 0.0000 0.0000 0.0000 (  2421 PWs)   bands (ev):

   -27.8246  -9.7672  -9.7672  -9.7672  -5.1110   5.6594   5.6594   5.6594
     9.2512  10.1093  10.1093  10.1093  10.9868  10.9868  15.4277  20.5896

          k =-0.0833 0.0833-0.0833 (  2433 PWs)   bands (ev):

   -27.8235  -9.7945  -9.7687  -9.7687  -5.0601   5.3967   5.5667   5.5667
     9.5325  10.1424  10.2211  10.2211  11.1808  11.1808  15.7274  19.8850

          k =-0.1667 0.1667-0.1667 (  2433 PWs)   bands (ev):

   -27.8204  -9.8667  -9.7727  -9.7727  -4.9214   4.8155   5.3373   5.3373
     9.8964  10.5378  10.5378  10.5588  11.7227  11.7227  16.4894  18.6991

          k =-0.2500 0.2500-0.2500 (  2442 PWs)   bands (ev):

   -27.8162  -9.9606  -9.7782  -9.7782  -4.7322   4.1878   5.0662   5.0662
    10.0705  11.0301  11.0301  11.3986  12.5100  12.5100  16.7803  18.0568

          k =-0.3333 0.3333-0.3333 (  2442 PWs)   bands (ev):

   -27.8119 -10.0497  -9.7836  -9.7836  -4.5420   3.6589   4.8297   4.8297
    10.3503  11.6622  11.6622  12.0844  13.4140  13.4140  16.2034  16.8077

          k =-0.4167 0.4167-0.4167 (  2431 PWs)   bands (ev):

   -27.8088 -10.1123  -9.7876  -9.7876  -4.4011   3.3094   4.6729   4.6729
    10.7446  12.2089  12.3353  12.3353  14.2522  14.2522  15.7278  15.7278

          k = 0.5000-0.5000 0.5000 (  2452 PWs)   bands (ev):

   -27.8077 -10.1347  -9.7890  -9.7890  -4.3490   3.1872   4.6184   4.6184
    11.0068  12.0493  12.6998  12.6998  14.6639  14.6639  15.1970  15.1970

          k = 0.0000 0.1667 0.0000 (  2449 PWs)   bands (ev):

   -27.8231  -9.7946  -9.7733  -9.7733  -5.0458   5.2391   5.5959   5.5959
     9.5806   9.9038  10.3744  10.3744  11.0487  11.4604  15.8212  19.7962

          k =-0.0833 0.2500-0.0833 (  2445 PWs)   bands (ev):

   -27.8207  -9.8471  -9.7800  -9.7756  -4.9439   4.8062   5.4172   5.4611
     9.7809  10.0261  10.7147  10.7153  11.3081  12.0836  16.4288  18.7707

          k =-0.1667 0.3333-0.1667 (  2445 PWs)   bands (ev):

   -27.8168  -9.9303  -9.7870  -9.7794  -4.7825   4.2958   5.1195   5.2266
     9.8347  10.6636  11.1975  11.2551  11.9090  12.8926  16.9398  17.9155

          k =-0.2500 0.4167-0.2500 (  2442 PWs)   bands (ev):

   -27.8126 -10.0174  -9.7925  -9.7859  -4.6042   3.8168   4.8487   4.9766
    10.0603  11.3388  11.8116  11.9189  12.7011  13.6827  16.2444  16.9017

          k =-0.3333 0.5000-0.3333 (  2440 PWs)   bands (ev):

   -27.8091 -10.0859  -9.7949  -9.7935  -4.4558   3.4564   4.6701   4.7734
    10.4516  11.9749  12.2936  12.4648  13.5240  14.3071  15.7563  15.9452

          k = 0.5833-0.4167 0.5833 (  2435 PWs)   bands (ev):

   -27.8073 -10.1202  -9.8001  -9.7937  -4.3775   3.2765   4.6050   4.6536
    10.8877  11.9447  12.6994  12.7528  14.3300  14.7177  15.1197  15.4194

          k = 0.5000-0.3333 0.5000 (  2437 PWs)   bands (ev):

   -27.8077 -10.1133  -9.8038  -9.7891  -4.3915   3.3081   4.6346   4.6560
    10.8543  12.0041  12.3371  12.8270  13.8894  15.0178  15.3660  15.5186

          k = 0.4167-0.2500 0.4167 (  2433 PWs)   bands (ev):

   -27.8101 -10.0667  -9.8033  -9.7824  -4.4940   3.5487   4.7193   4.8135
    10.4586  11.6692  12.0412  12.3764  13.1842  14.2629  15.9259  16.5033

          k = 0.3333-0.1667 0.3333 (  2434 PWs)   bands (ev):

   -27.8140  -9.9907  -9.7987  -9.7754  -4.6562   3.9630   4.8965   5.0526
    10.1539  11.0501  11.3563  11.7551  12.6520  13.3145  16.4217  17.2737

          k = 0.2500-0.0833 0.2500 (  2444 PWs)   bands (ev):

   -27.8182  -9.9038  -9.7905  -9.7699  -4.8348   4.4870   5.1372   5.3216
    10.0171  10.5510  10.5773  11.1479  11.9547  12.4052  16.9096  17.7337

          k = 0.1667-0.0000 0.1667 (  2443 PWs)   bands (ev):

   -27.8217  -9.8309  -9.7796  -9.7675  -4.9826   5.0230   5.3874   5.5253
     9.8663  10.0673  10.2922  10.6353  11.3616  11.6605  16.1822  18.9492

          k = 0.0000 0.3333 0.0000 (  2445 PWs)   bands (ev):

   -27.8190  -9.8593  -9.7899  -9.7899  -4.8969   4.5272   5.4568   5.4568
     9.4380  10.0885  11.0934  11.0934  11.2254  12.7620  16.8287  18.5661

          k =-0.0833 0.4167-0.0833 (  2445 PWs)   bands (ev):

   -27.8158  -9.9134  -9.7996  -9.7966  -4.7944   4.2091   5.2718   5.3261
     9.3217  10.4965  11.4418  11.5806  11.6734  13.5441  17.1859  17.6431

          k =-0.1667 0.5000-0.1667 (  2442 PWs)   bands (ev):

   -27.8120  -9.9828  -9.8067  -9.8043  -4.6644   3.9221   4.9679   5.1233
     9.4601  11.1578  11.9595  12.1146  12.3267  14.1225  16.1273  16.9871

          k =-0.2500 0.5833-0.2500 (  2437 PWs)   bands (ev):

   -27.8085 -10.0436  -9.8162  -9.8091  -4.5408   3.6871   4.7079   4.9148
     9.8153  11.8623  12.5482  12.6511  12.9402  14.1888  15.4525  16.2034

          k = 0.6667-0.3333 0.6667 (  2430 PWs)   bands (ev):

   -27.8063 -10.0809  -9.8293  -9.8064  -4.4553   3.5250   4.5814   4.7518
    10.3508  11.9438  12.9068  12.9149  13.7241  14.2850  14.9866  15.8439

          k = 0.5833-0.2500 0.5833 (  2427 PWs)   bands (ev):

   -27.8061 -10.0868  -9.8393  -9.7992  -4.4307   3.4711   4.6007   4.6648
    10.8867  11.5675  12.4790  13.0211  13.8733  14.7522  15.4094  15.8040

          k = 0.5000-0.1667 0.5000 (  2427 PWs)   bands (ev):

   -27.8077 -10.0616  -9.8420  -9.7893  -4.4746   3.5530   4.6677   4.7399
    10.7198  11.7923  11.8463  12.5639  13.2991  15.0873  15.8312  16.1511

          k = 0.4167-0.0833 0.4167 (  2441 PWs)   bands (ev):

   -27.8109 -10.0131  -9.8343  -9.7796  -4.5760   3.7714   4.7602   4.9559
    10.4176  11.2631  11.3380  12.4842  12.7433  14.2367  15.9390  17.0008

          k = 0.3333 0.0000 0.3333 (  2445 PWs)   bands (ev):

   -27.8148  -9.9553  -9.8157  -9.7725  -4.7080   4.1002   4.9274   5.1814
    10.2252  10.7569  10.8261  11.7632  12.5214  13.2756  16.5416  17.2946

          k = 0.0000 0.5000 0.0000 (  2429 PWs)   bands (ev):

   -27.8134  -9.9264  -9.8125  -9.8125  -4.7669   4.0640   5.3253   5.3253
     8.9374  10.6118  11.4875  12.0883  12.0883  14.2502  16.6957  17.5530

          k =-0.0833 0.5833-0.0833 (  2438 PWs)   bands (ev):

   -27.8103  -9.9644  -9.8240  -9.8223  -4.7086   3.9550   5.1587   5.2238
     8.8727  11.0441  11.7779  12.5969  12.6352  14.6465  15.6864  17.0699

          k =-0.1667 0.6667-0.1667 (  2428 PWs)   bands (ev):

   -27.8072 -10.0039  -9.8412  -9.8264  -4.6341   3.9000   4.8589   5.0616
     9.1107  11.7209  12.3364  12.9512  13.0814  14.2074  15.1532  16.5823

          k = 0.7500-0.2500 0.7500 (  2424 PWs)   bands (ev):

   -27.8050 -10.0300  -9.8643  -9.8237  -4.5614   3.8627   4.5995   4.8914
     9.5862  12.1859  13.0740  13.0899  13.1558  13.6990  15.0138  16.4370

          k = 0.6667-0.1667 0.6667 (  2411 PWs)   bands (ev):

   -27.8044 -10.0385  -9.8848  -9.8149  -4.5087   3.7811   4.5214   4.7561
    10.2519  11.7670  12.7471  12.9856  13.8098  14.0138  15.3640  16.6318

          k = 0.5833-0.0833 0.5833 (  2430 PWs)   bands (ev):

   -27.8054 -10.0347  -9.8896  -9.8024  -4.4910   3.6904   4.6161   4.6831
    10.9879  11.3033  12.1807  12.3288  14.0210  14.9301  15.7583  16.3630

          k = 0.5000 0.0000 0.5000 (  2421 PWs)   bands (ev):

   -27.8078 -10.0265  -9.8703  -9.7894  -4.5152   3.6764   4.6846   4.7876
    10.8102  11.4429  11.6540  12.2507  13.3686  15.0858  15.8959  16.5533

          k = 0.0000 0.6667 0.0000 (  2417 PWs)   bands (ev):

   -27.8079  -9.9718  -9.8352  -9.8352  -4.7261   3.9812   5.2413   5.2413
     8.5286  11.1763  11.7794  13.0743  13.0743  14.7352  15.2733  17.0910

          k =-0.0833 0.7500-0.0833 (  2423 PWs)   bands (ev):

   -27.8055  -9.9881  -9.8507  -9.8420  -4.7117   4.0403   5.0883   5.1700
     8.5444  11.6005  12.0566  13.3402  13.4037  14.0379  15.1787  17.0663

          k = 0.8333-0.1667 0.8333 (  2428 PWs)   bands (ev):

   -27.8037  -9.9940  -9.8819  -9.8408  -4.6676   4.1303   4.7619   5.0382
     8.8828  12.2560  12.5781  13.0203  13.4226  13.5155  15.2114  17.1966

          k = 0.7500-0.0833 0.7500 (  2422 PWs)   bands (ev):

   -27.8030  -9.9845  -9.9237  -9.8321  -4.6043   4.1768   4.4540   4.8892
     9.4599  12.3121  12.9173  13.0953  13.2707  13.2933  15.5944  17.0856

          k = 0.6667-0.0000 0.6667 (  2424 PWs)   bands (ev):

   -27.8036  -9.9952  -9.9309  -9.8180  -4.5391   3.9409   4.4813   4.7619
    10.2162  11.7701  12.4944  12.6297  13.9784  14.1103  16.0400  16.1566

          k = 0.0000 0.8333 0.0000 (  2446 PWs)   bands (ev):

   -27.8039  -9.9923  -9.8518  -9.8518  -4.7529   4.1406   5.2033   5.2033
     8.2680  11.6403  12.0173  13.6368  13.6368  13.6587  15.1351  17.5790

          k = 0.9167-0.0833 0.9167 (  2431 PWs)   bands (ev):

   -27.8028  -9.9925  -9.8684  -9.8533  -4.7456   4.2294   5.0492   5.1510
     8.3737  11.9288  12.2324  13.3134  13.5333  13.6596  15.1336  18.0727

          k = 0.8333 0.0000 0.8333 (  2424 PWs)   bands (ev):

   -27.8025  -9.9789  -9.9060  -9.8461  -4.6912   4.3054   4.6874   5.0337
     8.8044  12.4530  12.6733  12.9391  13.1445  13.4465  15.4485  17.7924

          k = 0.0000-1.0000 0.0000 (  2450 PWs)   bands (ev):

   -27.8024  -9.9972  -9.8579  -9.8579  -4.7743   4.2501   5.1936   5.1936
     8.1790  11.7722  12.1108  13.3473  13.7560  13.7560  14.9237  18.7306

          k =-0.1667 0.3333 0.0000 (  2436 PWs)   bands (ev):

   -27.8179  -9.8951  -9.7968  -9.7773  -4.8388   4.4228   5.2231   5.3701
     9.7076  10.3404  10.9505  11.2450  11.6771  12.8303  17.0436  17.6290

          k =-0.2500 0.4167-0.0833 (  2440 PWs)   bands (ev):

   -27.8140  -9.9641  -9.8115  -9.7813  -4.6963   4.0357   4.9685   5.1591
     9.8100  10.8850  11.3822  11.8136  12.3371  13.6157  16.4749  17.3080

          k =-0.3333 0.5000-0.1667 (  2431 PWs)   bands (ev):

   -27.8102 -10.0327  -9.8204  -9.7888  -4.5544   3.7073   4.7527   4.9225
    10.0852  11.5260  11.9725  12.4945  12.7981  14.2466  15.8435  16.5935

          k = 0.5833-0.4167 0.7500 (  2432 PWs)   bands (ev):

   -27.8074 -10.0817  -9.8239  -9.7966  -4.4505   3.4853   4.6270   4.7388
    10.5208  11.8760  12.4004  12.8775  13.3919  14.8669  15.2827  15.8523

          k = 0.5000-0.3333 0.6667 (  2424 PWs)   bands (ev):

   -27.8063 -10.0995  -9.8243  -9.8002  -4.4125   3.4066   4.5952   4.6623
    10.8823  11.5892  12.8039  12.9436  14.0539  14.5736  15.4241  15.4520

          k =-0.1667 0.5000 0.0000 (  2442 PWs)   bands (ev):

   -27.8127  -9.9533  -9.8203  -9.8002  -4.7149   4.0031   5.1137   5.2207
     9.2380  10.8490  11.7834  11.9667  12.3036  14.1803  16.2993  17.3045

          k =-0.2500 0.5833-0.0833 (  2427 PWs)   bands (ev):

   -27.8092  -9.9996  -9.8371  -9.8073  -4.6217   3.8514   4.8709   5.0374
     9.4304  11.3823  12.3857  12.4339  12.7800  14.3550  15.5392  16.7690

          k = 0.6667-0.3333 0.8333 (  2439 PWs)   bands (ev):

   -27.8064 -10.0372  -9.8493  -9.8152  -4.5390   3.7497   4.6551   4.8579
     9.8376  11.8981  12.6061  12.9029  13.2358  14.3431  15.0850  16.2637

          k = 0.5833-0.2500 0.7500 (  2426 PWs)   bands (ev):

   -27.8050 -10.0561  -9.8601  -9.8161  -4.4874   3.6801   4.5620   4.7304
    10.4179  11.5354  13.0081  13.0884  13.4518  14.4311  15.2310  16.1189

          k = 0.5000-0.1667 0.6667 (  2424 PWs)   bands (ev):

   -27.8054 -10.0530  -9.8665  -9.8087  -4.4807   3.6507   4.6046   4.6898
    10.7793  11.2765  12.5703  12.7762  13.7575  14.8280  15.5157  16.0018

          k = 0.4167-0.0833 0.5833 (  2430 PWs)   bands (ev):

   -27.8074 -10.0316  -9.8614  -9.7973  -4.5217   3.6923   4.6868   4.8018
    10.3546  11.5788  12.1672  12.3606  13.3358  14.9562  15.4258  16.5023

          k = 0.3333 0.0000 0.5000 (  2436 PWs)   bands (ev):

   -27.8106  -9.9995  -9.8414  -9.7869  -4.6005   3.8225   4.8043   4.9987
    10.0099  11.1881  11.6939  12.5296  12.6570  14.2692  15.8723  17.0246

          k =-0.1667 0.6667-0.0000 (  2429 PWs)   bands (ev):

   -27.8075  -9.9851  -9.8438  -9.8291  -4.6793   3.9509   5.0432   5.1206
     8.8514  11.3955  12.1209  12.9973  13.0607  14.4410  15.2077  16.9481

          k = 0.7500-0.2500 0.9167 (  2428 PWs)   bands (ev):

   -27.8051 -10.0008  -9.8650  -9.8377  -4.6336   3.9944   4.7906   4.9750
     9.1383  11.8767  12.5781  13.0805  13.3150  13.8959  15.1501  16.7786

          k = 0.6667-0.1667 0.8333 (  2428 PWs)   bands (ev):

   -27.8037 -10.0050  -9.8933  -9.8368  -4.5824   4.0309   4.5477   4.8380
     9.6553  11.9354  12.6706  13.2347  13.3598  13.8688  15.3951  16.8733

          k = 0.5833-0.0833 0.7500 (  2426 PWs)   bands (ev):

   -27.8036 -10.0049  -9.9128  -9.8264  -4.5390   3.9367   4.5122   4.7325
    10.3527  11.3380  12.6079  13.0249  13.4375  14.7035  15.7277  16.3521

          k = 0.5000 0.0000 0.6667 (  2442 PWs)   bands (ev):

   -27.8050 -10.0173  -9.8991  -9.8114  -4.5162   3.7809   4.6406   4.6798
    10.7944  11.1458  12.1802  12.5783  13.9181  14.9770  15.5443  16.3666

          k = 0.8333-0.1667 1.0000 (  2423 PWs)   bands (ev):

   -27.8038  -9.9907  -9.8610  -9.8558  -4.7094   4.1443   4.9945   5.0709
     8.6055  11.8464  12.4121  13.1568  13.6160  13.6193  15.2279  17.3771

          k = 0.7500-0.0833 0.9167 (  2423 PWs)   bands (ev):

   -27.8027  -9.9802  -9.8952  -9.8559  -4.6721   4.2622   4.6934   4.9514
     8.9851  12.1919  12.5279  13.1195  13.2409  13.6364  15.5080  17.5723

          k = 0.6667 0.0000 0.8333 (  2431 PWs)   bands (ev):

   -27.8027  -9.9541  -9.9470  -9.8441  -4.6094   4.2987   4.3950   4.8330
     9.5907  11.9161  12.6242  12.9457  13.3910  13.9877  15.8581  16.8770

          k =-0.1667-1.0000-0.0000 (  2428 PWs)   bands (ev):

   -27.8024  -9.9879  -9.8679  -9.8673  -4.7319   4.2779   4.9673   5.0569
     8.5217  11.9734  12.5423  13.1191  13.2439  13.7615  15.2679  18.2831

          k = 0.6667-0.3333 1.0000 (  2433 PWs)   bands (ev):

   -27.8064 -10.0091  -9.8672  -9.8178  -4.5799   3.8501   4.7520   4.8717
     9.6844  11.6222  12.4037  12.7995  13.2719  14.4776  15.1661  16.6742

          k = 0.5833-0.2500 0.9167 (  2429 PWs)   bands (ev):

   -27.8044 -10.0120  -9.8872  -9.8316  -4.5499   3.8985   4.6262   4.7331
    10.1372  11.4629  12.3089  13.1707  13.5857  14.5475  15.4302  16.4413

          k = 0.5000-0.1667 0.8333 (  2430 PWs)   bands (ev):

   -27.8036 -10.0122  -9.8937  -9.8382  -4.5390   3.9327   4.5545   4.6916
    10.6640  10.8478  12.8675  12.9843  13.3569  15.0711  15.5704  16.2845

          k = 0.6667-0.1667 1.0000 (  2425 PWs)   bands (ev):

   -27.8034  -9.9864  -9.8860  -9.8592  -4.6200   4.1268   4.6803   4.8040
     9.4683  11.8920  12.1737  13.3709  13.5649  13.8459  15.5943  16.9174

          k = 0.5833-0.0833 0.9167 (  2430 PWs)   bands (ev):

   -27.8027  -9.9655  -9.9158  -9.8669  -4.5970   4.2337   4.5146   4.6977
    10.0114  11.2610  12.4113  12.9204  13.6473  14.7895  15.9744  16.7430

          k = 0.5000 0.0000 0.8333 (  2435 PWs)   bands (ev):

   -27.8030  -9.9749  -9.9201  -9.8529  -4.5711   4.1043   4.5609   4.6536
    10.6356  10.7070  12.4018  13.0955  13.4781  15.4759  15.5885  16.3790

          k =-0.3333-1.0000 0.0000 (  2424 PWs)   bands (ev):

   -27.8023  -9.9626  -9.8929  -9.8877  -4.6459   4.3685   4.5640   4.7836
     9.3942  11.8929  12.1754  12.9766  13.7726  13.9595  15.8700  17.4529

          k =-0.5000-1.0000 0.0000 (  2468 PWs)   bands (ev):

   -27.8023  -9.9278  -9.9278  -9.8975  -4.6021   4.3806   4.5365   4.5365
    10.5750  10.5750  12.3159  12.8023  13.7782  15.6061  15.9806  16.6100

     the Fermi energy is     7.0004 ev

!    total energy              =     -83.03944299 Ry
     estimated scf accuracy    <          2.5E-11 Ry
     smearing contrib. (-TS)   =      -0.00000000 Ry
     internal energy E=F+TS    =     -83.03944299 Ry

     The total energy is F=E-TS. E is the sum of the following terms:
     one-electron contribution =     -17.61277168 Ry
     hartree contribution      =      13.90662581 Ry
     xc contribution           =     -13.33444594 Ry
     ewald contribution        =     -65.99885118 Ry

     convergence has been achieved in   8 iterations

     Writing all to output data dir out/mp-1087.save/
 
     init_run     :      0.13s CPU      0.20s WALL (       1 calls)
     electrons    :      3.40s CPU      3.80s WALL (       1 calls)

     Called by init_run:
     wfcinit      :      0.11s CPU      0.14s WALL (       1 calls)
     potinit      :      0.00s CPU      0.01s WALL (       1 calls)
     hinit0       :      0.01s CPU      0.04s WALL (       1 calls)

     Called by electrons:
     c_bands      :      2.95s CPU      3.24s WALL (       9 calls)
     sum_band     :      0.41s CPU      0.49s WALL (       9 calls)
     v_of_rho     :      0.03s CPU      0.03s WALL (       9 calls)
     mix_rho      :      0.01s CPU      0.01s WALL (       9 calls)

     Called by c_bands:
     init_us_2    :      0.04s CPU      0.04s WALL (     684 calls)
     init_us_2:cp :      0.04s CPU      0.04s WALL (     684 calls)
     cegterg      :      2.60s CPU      2.74s WALL (     324 calls)

     Called by *egterg:
     cdiaghg      :      0.40s CPU      0.43s WALL (    1419 calls)
     h_psi        :      2.07s CPU      2.19s WALL (    1491 calls)
     g_psi        :      0.01s CPU      0.01s WALL (    1131 calls)

     Called by h_psi:
     h_psi:calbec :      0.06s CPU      0.06s WALL (    1491 calls)
     vloc_psi     :      1.96s CPU      2.07s WALL (    1491 calls)
     add_vuspsi   :      0.04s CPU      0.04s WALL (    1491 calls)

     General routines
     calbec       :      0.05s CPU      0.06s WALL (    1491 calls)
     fft          :      0.01s CPU      0.04s WALL (      90 calls)
     ffts         :      0.00s CPU      0.00s WALL (       9 calls)
     fftw         :      2.08s CPU      2.20s WALL (   36528 calls)
     davcio       :      0.04s CPU      0.19s WALL (    1112 calls)
 
     Parallel routines
 
     PWSCF        :      3.65s CPU      4.27s WALL

 
   This run was terminated on:   0:19:30  15Nov2023            

=------------------------------------------------------------------------------=
   JOB DONE.
=------------------------------------------------------------------------------=
