
     Program PWSCF v.7.1 starts on  5Apr2024 at 10:24:29 

     This program is part of the open-source Quantum ESPRESSO suite
     for quantum simulation of materials; please cite
         "P. Giannozzi et al., J. Phys.:Condens. Matter 21 395502 (2009);
         "P. Giannozzi et al., J. Phys.:Condens. Matter 29 465901 (2017);
         "P. Giannozzi et al., J. Chem. Phys. 152 154105 (2020);
          URL http://www.quantum-espresso.org", 
     in publications or presentations arising from this work. More details at
     http://www.quantum-espresso.org/quote

     Parallel version (MPI), running on     8 processors

     MPI processes distributed on     1 nodes
     248121 MiB available memory on the printing compute node when the environment starts
 
     Reading input from pw_MoS2_nscf_k12_E45.in
Warning: card &IONS ignored
Warning: card / ignored
Warning: card &CELL ignored
Warning: card / ignored

     Current dimensions of program PWSCF are:
     Max number of different atomic species (ntypx) = 10
     Max number of k-points (npk) =  40000
     Max angular momentum in pseudopotentials (lmaxx) =  4

     Atomic positions and unit cell read from directory:
     out/MoS2.save/
     Atomic positions from file used, from input discarded
 
 
     R & G space division:  proc/nbgrp/npool/nimage =       8
     Subspace diagonalization in iterative solution of the eigenvalue problem:
     one sub-group per band group will be used
     scalapack distributed-memory algorithm (size of sub-group:  2*  2 procs)

 
     Parallelization info
     --------------------
     sticks:   dense  smooth     PW     G-vecs:    dense   smooth      PW
     Min          54      54     15                 6964     6964    1103
     Max          55      55     16                 6997     6997    1136
     Sum         439     439    127                55897    55897    8915
 
     Using Slab Decomposition
 


     bravais-lattice index     =            4
     lattice parameter (alat)  =       6.0206  a.u.
     unit-cell volume          =    1373.5622 (a.u.)^3
     number of atoms/cell      =            3
     number of atomic types    =            2
     number of electrons       =        26.00
     number of Kohn-Sham states=         1200
     kinetic-energy cutoff     =      45.0000  Ry
     charge density cutoff     =     180.0000  Ry
     Exchange-correlation= PBE
                           (   1   4   3   4   0   0   0)

     celldm(1)=   6.020601  celldm(2)=   0.000000  celldm(3)=   7.267720
     celldm(4)=   0.000000  celldm(5)=   0.000000  celldm(6)=   0.000000

     crystal axes: (cart. coord. in units of alat)
               a(1) = (   1.000000   0.000000   0.000000 )  
               a(2) = (  -0.500000   0.866025   0.000000 )  
               a(3) = (   0.000000   0.000000   7.267720 )  

     reciprocal axes: (cart. coord. in units 2 pi/alat)
               b(1) = (  1.000000  0.577350  0.000000 )  
               b(2) = (  0.000000  1.154701  0.000000 )  
               b(3) = (  0.000000  0.000000  0.137595 )  


     PseudoPot. # 1 for Mo read from file:
     /usr/scratch4/magr4985/FGWC/FGWC/pseudo/SG15/Mo.upf
     MD5 check sum: 2665c9f4159700498d9a5f7573bd8e9f
     Pseudo is Norm-conserving, Zval = 14.0
     Generated using ONCVPSP code by D. R. Hamann
     Using radial grid of  602 points,  6 beta functions with: 
                l(1) =   0
                l(2) =   0
                l(3) =   1
                l(4) =   1
                l(5) =   2
                l(6) =   2

     PseudoPot. # 2 for S  read from file:
     /usr/scratch4/magr4985/FGWC/FGWC/pseudo/SG15/S.upf
     MD5 check sum: f9d020296ee6110346977bfd66d424f6
     Pseudo is Norm-conserving, Zval =  6.0
     Generated using ONCVPSP code by D. R. Hamann
     Using radial grid of  602 points,  4 beta functions with: 
                l(1) =   0
                l(2) =   0
                l(3) =   1
                l(4) =   1

     atomic species   valence    mass     pseudopotential
        Mo            14.00    95.94000     Mo( 1.00)
        S              6.00    32.06500     S ( 1.00)

     12 Sym. Ops. (no inversion) found



   Cartesian axes

     site n.     atom                  positions (alat units)
         1           Mo  tau(   1) = (   0.5000000   0.2886752   3.6338604  )
         2           S   tau(   2) = (   0.0000000   0.5773502   3.1431775  )
         3           S   tau(   3) = (   0.0000000   0.5773502   4.1245433  )

     number of k points=     4  Gaussian smearing, width (Ry)=  0.0005
                       cart. coord. in units 2pi/alat
        k(    1) = (   0.0000000   0.0000000   0.0000000), wk =   0.1250000
        k(    2) = (   0.0000000   0.2886751   0.0000000), wk =   0.7500000
        k(    3) = (   0.0000000  -0.5773503   0.0000000), wk =   0.3750000
        k(    4) = (   0.2500000   0.4330127   0.0000000), wk =   0.7500000

     Dense  grid:    55897 G-vectors     FFT dimensions: (  25,  25, 192)

     Estimated max dynamical RAM per process >     215.57 MB

     Estimated total dynamical RAM >       1.68 GB

     The potential is recalculated from file :
     out/MoS2.save/charge-density

     Starting wfcs are random

     Band Structure Calculation
     Davidson diagonalization with overlap

     ethr =  5.00E-06,  avg # of iterations = 11.8

     total cpu time spent up to now is      298.6 secs

     End of band structure calculation

          k = 0.0000 0.0000 0.0000 (  6981 PWs)   bands (ev):

   -62.5416 -36.6828 -36.4836 -36.4836 -15.7443 -14.4429  -7.2587  -4.2770
    -4.2770  -3.4272  -3.1666  -3.1666  -1.6583   1.1006   1.1006   1.3356
     1.3356   3.7543   3.9500   4.4451   4.7609   5.2602   6.0775   7.2430
     7.4167   8.2585   9.2863   9.2863   9.9668  10.6395  11.3304  11.3304
    11.7127  13.3322  14.2195  14.5744  14.6503  14.6503  14.8303  14.8303
    16.7424  17.3047  18.1502  18.6521  21.0978  21.0978  21.5836  21.8266
    22.6755  22.6755  23.1378  23.2280  23.2280  23.2410  23.4273  23.4273
    23.6636  23.8530  23.9539  23.9539  24.2025  24.2156  24.2156  24.3004
    24.5394  24.5394  24.5795  24.5795  24.6889  24.8705  24.8705  25.1316
    25.1799  25.4782  25.4782  25.6956  26.0172  26.0172  26.1210  26.1210
    26.2712  26.3054  26.7478  26.7478  26.8450  27.2488  27.3032  27.3032
    27.6796  27.9430  28.0482  28.0482  28.3849  28.3849  28.6503  29.3471
    29.3471  29.4176  29.4176  29.4988  30.0587  30.4811  30.5937  30.5937
    31.1585  31.1585  31.5375  31.6292  32.1817  32.1817  32.4003  32.4911
    32.4911  32.8872  33.4845  33.5744  33.5744  33.8579  34.1288  34.1288
    35.2540  35.5637  35.5637  35.6866  35.9205  35.9205  35.9714  35.9714
    36.2716  36.8361  36.9154  37.5751  37.5751  38.1311  38.1566  38.1566
    38.6821  39.6064  39.7105  39.7105  40.3049  40.3049  40.3073  40.3235
    41.1142  41.1142  41.8528  41.9748  41.9748  43.0691  43.2870  43.2870
    44.0289  44.0585  44.0585  44.6120  44.7097  44.7097  45.1771  45.1771
    45.3381  45.6650  45.7147  45.9802  45.9802  47.4927  47.4927  47.5625
    48.5701  48.5701  48.6290  48.7806  48.8613  49.6432  49.6432  50.4197
    51.4611  51.4611  51.6752  51.6752  51.7452  52.6981  52.7506  53.4933
    53.4933  53.8454  54.1386  54.3283  54.3283  54.6188  54.6188  54.8573
    55.0616  55.0616  55.8939  55.8939  56.0417  56.8339  57.4393  57.6506
    57.6506  58.0846  58.9866  58.9866  59.3122  59.3122  59.4279  59.7529
    59.9745  59.9745  60.1839  60.4011  60.8678  60.8678  61.0749  61.0749
    61.1395  61.6358  62.2052  62.2052  62.2269  62.8123  62.8540  62.8540
    62.9835  62.9835  63.3635  63.5770  63.5918  63.5918  63.6319  63.6345
    63.6872  63.6872  63.7794  63.7794  63.9222  64.0782  64.0782  64.1266
    64.1802  64.1802  64.4051  64.4499  64.6083  64.6239  64.7560  64.7560
    64.9019  64.9019  64.9184  65.0617  65.0617  65.2411  65.2411  65.6893
    65.6893  65.9108  66.1974  66.1974  66.4486  66.5459  66.5816  66.6440
    66.7732  66.7732  66.9390  66.9390  67.0274  67.0274  67.0445  67.3153
    67.3153  67.7027  67.7027  68.1840  68.3982  68.3982  68.8887  68.8887
    69.2301  69.2381  69.2556  69.3120  69.3120  69.3774  69.5931  69.5931
    69.6197  70.0284  70.1345  70.1345  70.3714  70.9212  70.9212  71.1690
    71.6370  71.6370  72.2663  72.2663  72.4060  72.4060  72.5850  72.5866
    72.7258  72.8010  72.9598  73.4447  73.4447  73.6198  73.6198  73.7408
    73.7408  73.8929  74.4961  74.4961  74.8808  74.8808  74.8955  74.8955
    75.2542  76.3530  76.3697  76.3697  76.5311  76.5378  76.5739  76.8984
    76.8984  76.9656  77.2185  77.2185  78.0578  78.2506  78.2995  78.2995
    78.7628  78.7628  78.8430  78.8526  79.4087  79.4087  79.6598  79.9753
    79.9753  80.3023  80.3023  80.8052  81.0719  81.1842  81.3552  81.3552
    81.4350  81.4350  81.6697  81.6899  81.8207  81.8207  82.0312  82.1194
    82.1194  82.1638  82.1638  82.6329  82.6329  82.9973  82.9973  83.0283
    83.1517  83.1928  83.1928  83.2261  83.3558  83.3558  83.3899  83.4318
    83.5185  83.7211  83.7211  83.7279  83.7279  84.0220  84.0220  84.0257
    84.0257  84.2219  84.3019  84.3883  84.4555  84.7351  84.7351  84.8394
    84.8394  85.0070  85.0070  85.2475  85.2475  85.4930  85.6010  85.6010
    85.6275  85.9859  86.0533  86.0533  86.1241  86.1668  86.3956  86.4213
    86.4213  86.6067  86.6067  86.7419  86.9024  87.0324  87.0324  87.2630
    87.3399  87.3425  87.3425  87.8534  87.8534  88.1802  88.2316  88.2316
    88.2783  88.9201  89.0598  89.1461  89.2779  89.2779  89.3617  89.3617
    89.3791  89.3791  89.5852  89.5852  90.1026  90.1344  90.1344  90.1473
    90.1473  90.5458  91.1057  91.5727  91.5727  91.6101  91.6101  91.7770
    91.7812  91.7812  91.8455  91.8455  92.0617  92.1379  92.1379  92.1888
    92.2241  92.2901  92.2901  92.4036  92.6199  92.6199  92.6768  93.0574
    93.2925  93.2925  93.4251  93.9559  94.7023  94.7023  94.8951  94.8951
    95.3337  95.8172  96.0832  96.1816  96.1816  96.3437  96.3437  96.3835
    96.7634  96.7634  97.1515  97.2346  97.2346  97.2400  97.4574  97.4574
    97.5649  97.5720  98.3286  98.3286  98.5332  98.8437  98.8437  98.9179
    98.9179  98.9938  99.0605  99.5193  99.5193  99.8026  99.9313  99.9314
   100.3361 100.3361 100.3529 100.5031 100.5031 100.9090 100.9587 101.0017
   101.0017 101.1054 101.2519 101.6277 101.8318 101.8318 101.8374 102.4906
   102.4906 102.5521 102.5521 102.9548 102.9548 103.1794 104.2349 104.3378
   104.3378 105.0079 105.0079 105.1135 105.1135 105.2943 105.3033 105.3033
   105.4142 105.6549 105.6650 105.8594 106.0265 106.0265 106.2493 106.5135
   106.9984 106.9984 107.0792 107.8638 108.0231 108.0231 108.4251 108.4251
   108.5699 108.5699 108.9030 108.9030 109.1901 109.1901 109.4943 109.4943
   109.5692 110.0719 110.0719 110.1183 110.3737 110.6748 110.6748 110.9539
   111.1035 111.4244 111.4653 111.5995 111.5995 111.7719 112.1113 112.1113
   112.1744 112.3807 112.3807 112.4720 112.4720 112.4827 112.6552 112.9677
   113.0382 113.2568 113.2568 113.3400 113.3400 114.6320 115.1128 115.6603
   115.6984 115.6984 115.7826 116.2011 116.2871 116.2871 116.4065 116.4065
   116.5438 117.7351 117.7422 117.9859 117.9859 118.1590 118.1835 118.1835
   118.3100 118.3100 118.5024 118.5024 118.7517 118.7517 119.3158 119.4775
   119.4775 119.9896 120.0622 120.0622 120.0955 120.0955 120.4082 120.4082
   120.5298 120.7003 120.8892 120.8892 120.9001 121.2600 121.2600 121.2660
   121.7796 122.0122 122.0122 122.1842 122.3976 122.4640 123.5325 123.5325
   123.9365 123.9365 123.9796 123.9796 124.2782 124.2782 124.3603 124.5701
   124.8367 125.2989 125.3401 125.3401 125.5183 125.5183 125.5798 125.7689
   125.7689 126.1118 126.3066 126.3066 126.6913 126.9291 127.2382 127.6420
   127.6420 128.7081 128.7081 129.1599 129.1599 129.2087 129.2087 129.3357
   129.3847 129.4377 129.7186 129.7186 129.8412 129.8412 129.9578 129.9578
   130.0270 130.3583 130.5030 130.5030 130.7140 130.8607 130.8607 131.3272
   131.6712 131.6712 131.8055 131.8055 132.0333 132.3382 132.3382 132.4808
   132.6783 132.6783 132.6951 132.7014 132.7943 133.2353 133.2353 133.4872
   133.8635 133.9908 133.9908 134.3608 134.3898 134.3898 134.9151 135.4038
   135.4038 136.0068 136.6523 136.6523 136.9655 137.0855 137.0855 137.0860
   137.0860 137.4530 137.5558 138.0947 138.0947 138.2352 138.2783 138.4905
   138.4905 138.6914 138.6914 138.7088 138.7088 139.2854 139.3952 139.7306
   139.7306 139.7315 140.1151 140.1151 140.2712 140.3920 140.3920 140.5173
   140.6157 140.8774 140.8774 141.0807 141.4260 141.4260 141.4513 141.4513
   141.4819 141.5965 141.5965 141.6439 141.6596 141.6862 141.6862 141.9925
   142.0084 142.0084 142.0276 142.2755 142.2755 142.4336 142.4336 142.4999
   142.4999 142.5088 142.5642 142.5642 142.5897 142.5899 142.6139 142.6139
   142.6596 142.6596 142.6687 142.7184 142.7596 142.7596 142.7696 142.8292
   142.8292 142.8830 142.8830 142.9204 142.9419 143.0418 143.0418 143.2467
   143.2467 143.3372 143.3570 143.3815 143.3815 143.3822 143.4701 143.5030
   143.5030 143.6219 143.6680 143.7610 143.7610 143.8097 143.8097 143.8109
   143.8194 143.8194 143.8759 144.1285 144.1412 144.1412 144.4221 144.4221
   144.4734 144.5824 144.5824 144.9314 144.9314 145.1037 145.1205 145.1369
   145.2125 145.2829 145.2829 145.5057 145.5057 145.5411 145.5411 145.7638
   145.7638 145.7676 145.8460 145.8504 145.8994 145.8994 146.0326 146.0326
   146.2979 146.2979 146.3079 146.3079 146.5068 146.7400 146.7400 146.7486
   147.0472 147.1994 147.3737 147.3737 147.4124 147.4693 147.6647 147.7603
   147.7603 147.8011 147.8011 148.0381 148.1944 148.1944 148.3389 148.3389
   148.4425 148.4642 148.4642 148.4737 148.5688 148.5688 148.7081 148.8745
   148.8745 149.0450 149.0546 149.1188 149.1188 149.4112 149.4112 149.4506
   149.5838 149.6620 149.7359 149.7359 149.9885 149.9885 150.0427 150.3151
   150.4219 150.4219 150.4988 150.4988 150.9494 150.9494 151.1010 151.1128
   151.1787 151.1787 151.1909 151.3712 151.5437 151.6581 151.7690 151.7690
   151.8020 151.8020 151.8357 151.8357 152.0310 152.0399 152.1804 152.2156
   152.2156 152.2673 152.2673 153.0040 153.0040 153.3340 153.3340 153.3873
   153.7176 153.7176 154.0103 154.0103 154.1620 154.1620 154.2729 154.4327
   154.4327 154.5018 154.6431 154.6431 154.6550 154.7680 154.8114 155.0847
   155.2278 155.2278 155.3209 155.3209 155.4135 155.4900 155.6936 155.6936
   155.8228 155.8228 155.8529 155.8529 156.0100 156.0323 156.1240 156.1240
   156.4872 156.5031 156.5031 156.7649 156.7649 157.2645 157.4448 157.4448
   157.7091 157.9332 157.9332 157.9818 158.0163 158.3657 158.4006 158.6385
   158.6385 158.6929 158.6929 158.8075 158.8200 158.8200 159.0085 159.0085
   159.1256 159.1256 159.1681 159.2360 159.4313 159.5572 159.7565 159.7565
   159.8028 159.8098 159.8098 160.1104 160.1456 160.3094 160.3094 160.3540
   160.3540 160.3605 160.3605 160.5788 160.5788 160.6907 160.7223 160.7237
   161.1478 161.2443 161.2443 161.7592 161.7592 161.7736 162.1810 162.6495
   162.6495 162.7311 162.7757 162.7757 163.0241 163.8266 163.9534 164.1358
   164.1358 164.3894 164.4883 164.7374 164.7374 164.8095 164.8095 164.8258
   164.9010 164.9010 165.1951 165.1951 165.3091 165.3091 165.6196 165.6196
   165.7125 165.8295 165.8295 165.8791 165.8858 165.9217 165.9347 165.9347
   166.3970 166.3970 166.4676 166.4676 166.6375 166.7420 166.7420 167.3557
   167.3557 167.4391 167.4391 167.5951 167.6762 168.1097 168.1097 168.1178
   168.1178 168.2130 168.3742 168.6840 168.6840 168.7121 168.8828 169.0723
   169.0898 169.0898 169.1559 169.4832 169.4832 169.6386 169.6386 169.7569
   169.7750 170.1095 170.1095 170.1293 170.1293 170.7552 170.7856 170.7856
   171.0452 171.0452 171.0699 171.0725 171.0725 171.1590 171.2125 171.4801
   171.5220 171.5220 171.6991 171.7390 171.8298 171.8298 171.9533 171.9533
   172.0942 172.4969 172.6050 172.6050 173.1649 173.6993 173.6993 174.0896
   174.0896 174.1596 174.1738 174.1738 174.1983 175.6943 176.1752 176.1867
   176.1867 176.2129 176.3017 176.3775 176.3887 176.3887 176.6815 176.6815
   177.1372 177.1372 177.1968 177.1968 177.4278 177.7034 177.7034 177.7091
   178.0035 178.0035 178.0290 178.0490 178.0950 178.3251 178.3251 178.4575
   178.4575 178.5768 178.5768 178.6334 178.8345 178.9543 178.9543 179.0802
   179.0802 179.2042 179.3055 179.3055 179.5019 179.5019 179.8595 179.8691
   179.8691 179.8947 180.0068 180.1580 180.1580 180.2192 180.2192 180.4824
   180.4824 180.6841 180.8022 180.8022 180.9323 181.0547 181.1005 181.1005
   181.2724 181.2795 181.3565 181.3565 181.4279 181.4279 181.4651 181.9287
   181.9287 181.9543 182.0292 182.0292 182.0629 182.1231 182.1231 182.1652
   182.3725 182.4961 182.4961 182.6587 182.6953 182.6953 182.7566 182.8244
   182.8244 182.8856 183.0003 183.0003 183.4538 183.6041 183.6041 183.6501

          k = 0.0000 0.2887 0.0000 (  7053 PWs)   bands (ev):

   -62.5232 -36.6695 -36.6459 -36.5263 -14.9269 -14.1104  -6.6400  -5.4699
    -5.2208  -4.1438  -3.4548  -2.9826  -2.3778   0.5120   0.6861   1.2366
     2.1066   4.9455   5.1009   5.7251   6.4024   6.7091   7.3374   7.5966
     7.9277   8.4552   9.3615  10.2413  10.6135  11.1171  11.3523  11.6686
    12.1105  12.4574  12.8353  13.7218  14.6175  15.1309  15.2459  15.7241
    15.7249  16.2103  16.3788  17.2934  18.0285  18.3391  18.8944  19.1656
    19.2170  19.4336  19.6764  19.9443  20.2649  20.4142  20.4762  20.8784
    21.1379  21.2409  21.2457  21.5140  21.6560  22.2935  22.3546  22.8119
    22.8285  22.8645  23.0839  23.4970  23.8184  24.1858  24.4651  24.8400
    25.4472  25.6692  25.8330  26.2928  27.1395  27.2624  27.5777  27.6371
    27.6405  28.3199  28.7086  28.8575  29.0155  29.0322  29.3183  29.4375
    29.8357  29.8478  30.1673  30.1953  30.2172  30.5928  30.6818  30.7168
    30.9727  31.4685  31.7418  31.7809  31.8980  32.2520  32.6408  32.7083
    32.7091  33.2284  33.2339  33.6104  33.6236  33.8055  34.0518  34.3252
    34.5386  34.7354  35.0435  35.2862  35.6473  35.6723  35.9885  35.9936
    36.2741  36.3119  36.9533  36.9727  36.9806  37.5400  37.7827  38.0661
    38.2481  38.2544  38.7053  38.7783  39.2997  39.6143  39.8121  40.1714
    40.2706  40.3546  40.7536  41.1850  41.4259  41.6266  41.6577  41.7402
    42.0195  42.6780  42.7196  43.0417  43.2696  43.6542  43.7150  44.3581
    44.6171  44.7272  44.7933  44.8914  45.2266  45.6065  45.9738  46.2039
    46.5846  46.7867  46.8569  47.1242  47.2725  47.5080  47.9834  48.1190
    48.1614  48.5020  48.5571  49.0582  49.1560  49.7427  49.7869  49.8404
    49.8957  50.1668  50.4187  50.4277  50.5809  50.6204  51.0091  51.0230
    51.4003  51.5282  51.5737  51.6649  52.1210  52.1395  52.4003  52.8305
    52.9298  53.0923  53.3496  53.3572  53.5755  53.9808  54.0279  54.0403
    54.2372  54.6686  54.9299  54.9315  55.0505  55.3233  55.5713  55.9969
    56.0581  56.1956  56.8659  57.0182  57.1019  57.3333  57.6148  57.8139
    58.1110  58.5920  58.6348  58.7412  58.8758  59.2143  59.3753  59.3827
    59.6431  59.6582  59.7102  60.8521  60.8818  61.0054  61.3354  61.4833
    61.5333  62.0917  62.2464  62.4405  62.7007  62.9005  62.9513  62.9986
    63.4776  63.4815  63.9763  64.2641  64.3447  64.3524  64.4411  64.7158
    64.7320  64.8260  64.9097  64.9263  64.9670  65.2529  65.2624  65.3009
    65.4383  65.6773  65.7465  65.9588  66.1360  66.1636  66.4165  66.4510
    66.8738  66.9034  66.9260  66.9706  67.1213  67.4641  67.6469  67.6606
    68.3945  68.4193  68.7250  68.7828  68.8385  68.9533  69.0390  69.1581
    69.3846  69.9698  70.0065  70.0457  70.4220  70.4492  70.6405  70.6985
    70.7695  71.0200  71.2057  71.4557  71.4995  71.7488  71.7531  71.8720
    71.9703  72.3382  72.4754  72.5809  72.8930  73.0177  73.1524  73.1526
    73.4251  73.5738  73.7932  74.0119  74.0226  74.1023  74.3663  74.6268
    74.7201  74.8143  74.9322  74.9966  75.0438  75.2936  75.4821  75.4911
    75.5440  75.5946  75.9862  76.1185  76.1273  76.2110  76.4776  76.7132
    76.7389  77.0515  77.0890  77.2645  77.6317  77.6558  77.7299  77.8316
    77.9604  78.0606  78.2091  78.4441  78.5367  78.7093  78.8143  78.8282
    78.9199  79.0772  79.3041  79.4396  79.5009  79.5183  79.5860  79.6188
    79.7127  79.8817  80.0453  80.1421  80.2230  80.2744  80.5138  80.6510
    80.7397  80.7766  80.8321  81.0635  81.1025  81.1385  81.3107  81.5397
    81.5408  82.0600  82.1369  82.3065  82.3117  82.5393  82.5782  82.8349
    82.9077  83.0809  83.1296  83.3217  83.6027  83.6165  83.7745  84.1833
    84.2808  84.4293  84.4362  84.8578  85.0445  85.0542  85.1366  85.4387
    85.6473  85.6710  85.8551  85.8756  86.0367  86.0782  86.3580  86.5877
    86.6896  86.9210  87.0994  87.3615  87.4097  87.5860  87.6569  87.9220
    88.1659  88.2255  88.2676  88.6135  88.6554  88.7382  88.8454  89.3168
    89.3258  89.3640  89.6301  89.7482  89.8900  90.4029  90.4553  90.6122
    90.7471  90.8323  90.9946  91.2784  91.3432  91.3722  91.7949  91.9899
    92.1258  92.3468  92.3847  92.7068  92.7262  92.8218  92.8796  93.0089
    93.1779  93.3964  93.7342  93.7859  93.8926  94.1497  94.1793  94.4423
    94.4601  94.5181  94.6541  94.7956  95.0321  95.1219  95.2113  95.2853
    95.3350  95.4944  95.4992  95.5018  95.6185  95.7258  95.7397  96.0350
    96.3502  96.3742  96.7795  96.9959  97.0034  97.1521  97.1939  97.2908
    97.4857  97.5389  97.6601  97.8871  98.1824  98.1920  98.3745  98.5316
    98.6396  98.7625  98.8123  99.0843  99.1699  99.4038  99.4331  99.6690
    99.9168  99.9993 100.2524 100.3063 100.3989 100.5810 100.7833 100.8046
   101.0775 101.1054 101.3061 101.4901 101.6255 101.6724 101.8147 102.1231
   102.4209 102.4512 102.5560 102.7364 102.7586 103.0757 103.3967 103.7216
   103.7302 103.7560 103.8331 103.9413 104.3445 104.3758 104.3849 104.5721
   104.6406 104.7238 104.9460 104.9691 105.0676 105.2652 105.3155 105.4350
   105.4533 105.8032 106.0750 106.2991 106.3758 106.7229 106.7488 106.8767
   106.9701 107.1377 107.1616 107.2853 107.5105 107.5912 107.6415 107.6915
   107.7346 107.7563 108.0428 108.0651 108.0928 108.4822 108.5209 109.1654
   109.1991 109.3555 109.5403 109.7034 109.8519 110.1602 110.2706 110.5720
   110.6701 110.7519 111.1374 111.1630 111.1722 111.3254 111.5235 111.5412
   111.8532 111.9211 112.2188 112.2529 112.4207 112.7141 112.9598 113.0184
   113.0926 113.3176 113.3832 113.5240 113.9499 114.0265 114.3599 114.3880
   114.4447 114.6535 114.8076 115.0949 115.1994 115.3039 115.4006 115.6021
   115.6116 115.6937 115.7828 115.9110 116.3009 116.4256 116.5451 116.6644
   116.8766 116.8804 117.1621 117.1630 117.2058 117.2676 117.4180 117.7669
   117.9682 118.0568 118.2060 118.2852 118.3264 118.7968 118.8831 119.0645
   119.1077 119.1288 119.4043 119.4239 119.5771 119.9611 120.0290 120.0401
   120.0731 120.3785 120.4807 120.7826 120.8467 120.8554 121.1099 121.2175
   121.2298 121.4437 121.5054 121.7247 121.7288 121.7979 121.9619 122.1604
   122.2291 122.2485 122.4840 122.6094 122.6826 122.7479 122.9204 123.1403
   123.1479 123.3213 123.4477 123.4609 123.5203 123.7471 123.9387 123.9638
   123.9776 124.1409 124.1804 124.2092 124.2604 124.3668 124.4217 124.7286
   124.8381 124.9544 125.1223 125.1274 125.1276 125.1330 125.3525 125.3963
   125.4854 125.5318 125.5487 126.1110 126.2070 126.2540 126.2840 126.3832
   126.5740 126.9453 126.9811 126.9936 127.0056 127.1466 127.2037 127.3999
   127.5126 127.6140 127.7798 127.8508 127.8965 128.1003 128.1187 128.4395
   128.5789 128.6346 128.6445 128.8316 128.9760 129.3483 129.4572 129.5396
   129.7566 129.8107 129.8480 130.1091 130.1651 130.1883 130.3969 130.4759
   130.7868 130.8435 131.0213 131.0557 131.3193 131.3331 131.7657 131.8859
   131.8884 132.2573 132.2684 132.2927 132.5799 132.5839 132.8207 132.8385
   132.9004 133.1001 133.1344 133.2628 133.5065 133.5154 133.6930 133.9183
   134.0226 134.1534 134.2030 134.3636 134.5635 134.6874 134.8326 134.9010
   135.3655 135.4463 135.5456 135.5763 135.6042 136.1049 136.1147 136.2458
   136.2955 136.4846 136.5053 136.5739 136.5754 136.6894 136.9525 136.9938
   137.1359 137.4092 137.5098 137.5405 137.6562 137.9201 138.0986 138.1189
   138.1420 138.3707 138.4819 138.5359 138.6199 138.6815 138.7284 138.9140
   138.9297 138.9911 139.0143 139.2777 139.4304 139.5274 139.6390 139.8146
   139.8176 139.8447 140.0039 140.1521 140.3646 140.4069 140.4146 140.8415
   141.0070 141.1685 141.2887 141.2977 141.4684 141.4846 141.5716 141.6868
   141.7806 141.8122 142.0622 142.1767 142.2004 142.2568 142.4775 142.5439
   142.6758 142.6808 142.9256 143.2421 143.3666 143.5448 143.6330 143.7982
   143.9292 143.9487 144.0811 144.1611 144.3344 144.6052 144.6230 144.7922
   144.9591 145.0703 145.2437 145.5120 145.5266 145.6076 145.9392 146.1001
   146.1871 146.2499 146.2789 146.5883 146.5937 146.7041 146.7366 146.8153
   146.8842 147.0506 147.0512 147.5234 147.5900 147.6511 147.6649 147.7859
   147.9427 147.9619 147.9802 148.1548 148.1797 148.3090 148.4638 148.5161
   148.5613 148.6715 148.7080 148.8280 148.8570 149.0104 149.0314 149.0726
   149.3188 149.3529 149.5501 149.7610 149.7807 149.8265 149.8829 149.9093
   150.0955 150.3743 150.4857 150.5244 150.6307 150.7317 151.0302 151.0559
   151.1983 151.2029 151.2986 151.3490 151.3888 151.5638 151.5998 151.6164
   151.8149 151.8170 151.8697 152.0254 152.2327 152.2882 152.3301 152.4847
   152.5306 152.6367 152.6694 153.1024 153.1910 153.3219 153.5993 153.6249
   153.8173 153.8336 153.9011 154.0265 154.0291 154.0818 154.1086 154.3627
   154.3930 154.4257 154.6060 154.6302 154.8640 154.9208 155.0350 155.0471
   155.2916 155.4939 155.5595 155.7091 155.8160 155.9881 156.0194 156.1143
   156.1298 156.4418 156.4467 156.5404 156.7518 156.9113 157.2286 157.3420
   157.3979 157.4373 157.8400 157.8585 157.9107 158.1049 158.1876 158.1959
   158.2335 158.3193 158.6419 158.7645 158.8538 159.1297 159.1508 159.4139
   159.4815 159.6588 159.6627 159.8535 159.8617 159.9202 160.0249 160.3440
   160.4447 160.4696 160.6818 160.8029 160.9098 160.9912 160.9962 161.0043
   161.2298 161.2338 161.2727 161.2754 161.3200 161.5823 161.7234 161.7989
   161.8314 161.9838 162.0468 162.0909 162.1259 162.4384 162.4789 162.5723
   162.7533 162.7906 162.9756 163.0457 163.0808 163.3160 163.3210 163.3762
   163.4320 163.4718 163.5999 163.6144 163.9935 164.0019 164.1492 164.1826
   164.3003 164.4996 164.5591 164.5717 164.6618 164.9629 165.1537 165.2627
   165.5163 165.5229 165.7401 165.7488 165.8408 165.8412 165.9895 166.0974
   166.1306 166.2938 166.3567 166.3912 166.6263 166.6631 166.6665 166.8502
   166.9792 167.0146 167.3424 167.3644 167.4357 167.4547 167.6422 167.6688
   167.7955 167.9492 168.0105 168.1028 168.1171 168.1782 168.4004 168.4229
   168.4883 168.5389 168.5576 168.5897 168.6407 168.6578 168.7467 168.7468
   169.0028 169.0514 169.1476 169.2047 169.2256 169.3198 169.3638 169.4204
   169.5608 169.5952 169.6201 169.7406 169.7435 169.7995 169.9018 170.0296
   170.1424 170.3228 170.3712 170.4709 170.5294 170.6178 170.6421 170.6991
   170.9319 171.0054 171.1540 171.1646 171.1801 171.2009 171.3276 171.3836
   171.3975 171.4076 171.5280 171.5473 171.6988 171.7566 171.8162 172.0463
   172.0768 172.1353 172.2090 172.3589 172.3656 172.3839 172.6536 172.6736
   172.8359 172.9266 172.9503 173.1255 173.1415 173.3168 173.3352 173.4645
   173.5429 173.6555 173.7348 173.8178 173.8699 173.8729 174.0927 174.1210
   174.3111 174.3671 174.3916 174.5134 174.5758 174.7011 174.9524 175.1770
   175.3305 175.3433 175.4775 175.6515 175.6685 175.6698 175.8718 176.0493
   176.1734 176.1914 176.3122 176.3531 176.4758 176.5224 176.5966 176.6712
   176.8096 176.9419 176.9703 176.9952 177.1734 177.3531 177.3957 177.4791
   177.6039 177.8682 177.9169 178.0673 178.0871 178.1631 178.4256 178.5097
   178.7051 178.7295 178.7551 178.7556 179.0613 179.2686 179.3200 179.5900
   179.6163 179.7301 179.8883 179.9184 179.9332 180.2784 180.3751 180.6495
   180.6598 180.6857 180.8357 180.8847 181.1193 181.1826 181.2126 181.2160
   181.3272 181.3446 181.5101 181.6402 181.7476 181.8337 182.0149 182.0849
   182.1012 182.1417 182.1733 182.2488 182.4673 182.5149 182.6626 182.6923
   182.7807 182.9474 183.0590 183.2244 183.6107 183.6715 183.9424 183.9451

          k = 0.0000-0.5774 0.0000 (  7002 PWs)   bands (ev):

   -62.5047 -36.8500 -36.6088 -36.5686 -13.8937 -13.7086  -7.4148  -6.4304
    -5.7183  -4.8239  -3.5279  -2.6450  -2.2899   0.5576   1.0706   2.2134
     2.6362   4.5373   6.3067   6.5936   7.3278   8.0877   8.6128   9.0348
     9.2698   9.5512   9.6065   9.6641   9.9960  10.0463  10.8566  11.1008
    11.4870  11.8927  12.9432  13.1280  13.6276  13.9962  14.3903  15.3617
    15.5322  15.8271  15.9601  16.4456  16.6008  17.2752  17.6763  17.8813
    17.9872  18.1636  18.6945  18.9626  19.2080  19.2884  19.3174  19.4254
    20.1964  20.2006  20.2504  20.3285  21.0407  21.1798  21.3009  21.8897
    22.1996  22.2995  22.5958  22.7566  22.9514  23.2590  23.4210  24.2270
    24.2418  24.3132  24.9236  25.2832  25.6889  26.0320  27.2494  27.3371
    27.4157  27.5117  28.2742  28.5098  28.5565  29.5634  29.6399  30.2968
    30.3533  30.7173  30.8745  31.5000  31.6319  31.6812  31.8008  32.1849
    32.8732  32.9490  33.4911  34.4456  34.4609  34.6690  34.9727  35.8937
    36.0050  36.1283  36.3180  36.6870  36.7349  37.0799  37.2700  37.6244
    37.6450  38.4091  38.5010  38.5461  38.6446  38.7152  38.7399  38.8921
    38.9829  39.1648  39.1860  39.2078  39.2753  39.6517  39.6584  39.7131
    39.8120  39.8479  40.4500  40.4595  40.5257  40.7831  40.8811  41.0657
    41.1994  41.3407  41.6083  41.6468  41.7429  41.7955  42.2212  42.6001
    42.7846  43.1637  43.2567  43.3585  43.3750  43.6096  43.9258  44.2473
    44.4800  44.7256  44.9680  45.0265  45.0826  45.3549  45.5053  45.9027
    45.9764  46.2227  46.4277  46.6911  46.7722  46.8639  47.2741  47.5641
    47.5848  47.8339  47.8361  47.9380  48.1040  48.6807  48.7951  48.8139
    48.9048  48.9968  49.2953  49.3335  49.4525  49.5133  49.8357  49.9979
    50.1028  50.1247  50.4682  50.4901  50.5834  50.6215  50.9867  51.0571
    51.4474  51.5576  51.9350  51.9419  52.1988  52.3187  52.4266  52.6511
    52.9503  52.9683  53.2310  53.3089  53.7877  53.8449  53.9168  54.0183
    54.3264  54.3284  55.2264  55.3439  55.4019  55.8386  55.8793  56.2083
    56.3712  56.4512  56.4978  56.6478  56.9393  57.3774  57.4724  57.5509
    57.7641  57.8366  57.8877  58.0820  58.4587  58.8295  58.9553  59.7625
    59.9135  60.4445  60.4803  60.7266  60.8855  61.2700  61.3128  61.5239
    61.6365  61.6576  61.7603  61.8181  62.3179  62.4827  62.6780  62.6897
    62.7152  63.3717  63.4899  63.9476  64.2155  64.8053  64.8142  65.0038
    65.1897  65.4201  65.9281  65.9501  66.1935  66.3965  66.6350  66.6588
    66.8753  66.9926  67.0908  67.1923  67.5564  67.6083  67.7448  67.8189
    68.0927  68.1900  68.3412  68.4090  68.4880  68.5888  68.6071  68.6305
    68.6388  68.9254  68.9263  68.9745  69.1277  69.2166  69.4215  69.4606
    69.5126  69.5339  69.7720  70.2166  70.2870  70.3864  70.4026  70.5658
    70.7859  70.8626  71.0975  71.1442  71.1946  71.3559  71.3589  71.4784
    71.6821  72.1301  72.4044  72.5372  72.6896  72.7903  72.7974  72.8888
    72.9067  72.9352  73.2704  73.7779  73.8979  73.9943  74.1923  74.2686
    74.4592  74.5235  74.9139  74.9367  75.1888  75.4648  75.5521  75.5668
    75.7451  75.9366  76.1546  76.2858  76.3064  76.5678  76.7336  76.7994
    76.9848  77.0733  77.1948  77.5617  77.6346  77.7032  77.7886  78.1273
    78.2194  78.7578  78.8336  79.1367  79.3388  79.5100  79.6218  79.7085
    79.8042  80.0888  80.3238  80.8131  80.8213  80.9114  80.9416  81.2761
    81.3971  81.4841  81.5245  81.8633  82.0194  82.4281  82.8227  82.9843
    83.1359  83.7166  83.8482  83.9427  84.0817  84.0832  84.2132  84.3508
    84.5830  84.6902  84.7067  84.9447  85.2046  85.5726  85.6384  85.6728
    86.1432  86.2167  86.6437  86.7441  86.8023  86.8497  86.8595  87.1920
    87.4773  87.6298  87.6739  88.1451  88.2500  88.3243  88.4638  88.6855
    89.2912  89.3102  89.4208  89.7259  89.8900  89.9568  90.1142  90.1878
    90.3741  90.5267  91.0755  91.2663  91.4434  91.6855  91.7932  91.8088
    92.0739  92.5586  92.6115  92.7172  93.2969  93.3065  93.3619  93.5736
    93.6900  93.9835  94.1065  94.1236  94.2730  94.3409  94.7109  94.8023
    94.9649  95.2040  95.4921  95.6357  95.7155  95.8974  95.9790  96.3729
    96.5704  96.6788  96.7566  96.8955  96.9006  96.9203  97.4504  97.5438
    97.7186  97.8919  97.9392  97.9638  97.9975  98.0690  98.1805  98.1931
    98.2206  98.3552  98.6201  98.6271  98.8007  98.8853  98.9281  98.9900
    99.0823  99.0946  99.2006  99.2340  99.4088  99.4814  99.5162  99.6214
    99.6360  99.8971 100.3033 100.4019 100.7743 100.7969 100.9339 100.9381
   101.0101 101.2057 101.4268 101.6930 101.9031 101.9776 101.9780 102.0954
   102.2180 102.2883 102.3480 102.4381 102.5640 102.5688 103.0809 103.2629
   103.3395 103.4498 103.5611 103.8059 103.8542 103.9395 103.9865 104.1706
   104.3009 104.3537 104.4137 104.4337 104.6157 104.6632 104.9832 105.0341
   105.1212 105.1775 105.2493 105.4904 105.5266 105.5804 105.8010 105.8512
   106.0212 106.1548 106.5379 106.6673 106.8411 106.8485 106.9615 107.0028
   107.0177 107.1791 107.1986 107.3587 107.3914 107.3990 107.4699 107.7505
   107.7718 107.8104 107.8400 107.9150 108.0894 108.1707 108.1946 108.2813
   108.3275 108.4018 108.5805 108.7295 108.7969 108.8825 108.8852 108.9148
   109.2170 109.2563 109.2788 109.3179 109.3914 109.5736 109.7383 109.8313
   110.0344 110.1488 110.1627 110.4169 110.5315 110.6899 110.7200 110.7324
   110.8381 111.0651 111.1379 111.2308 111.2490 111.4705 111.4863 111.5754
   111.6932 111.8196 111.8538 112.1518 112.2639 112.4199 112.4279 112.4739
   112.5701 112.7075 112.8133 113.3867 113.4946 113.5817 113.6066 113.7088
   113.7689 113.8137 113.8610 113.9816 114.0742 114.1034 114.4157 114.5233
   114.5759 114.6340 114.6817 115.1335 115.1653 115.2568 115.4799 115.6256
   115.6531 115.6808 115.7024 115.7531 116.0306 116.0917 116.1016 116.3918
   116.4270 116.6384 116.7680 116.7997 116.8168 116.8637 116.9515 117.1222
   117.2848 117.3013 117.4427 117.4512 117.5321 117.5960 117.8462 118.0866
   118.2779 118.7513 119.0212 119.2126 119.3650 119.4245 119.5612 119.6930
   120.0174 120.0794 120.2388 120.4228 120.8349 120.8639 121.1041 121.2490
   121.3106 121.3136 121.3372 121.4501 121.5125 121.5369 121.9897 122.2293
   122.4266 122.6411 122.8165 122.9427 123.2948 123.3415 123.3867 123.6639
   123.7999 123.9286 124.0677 124.1621 124.2817 124.3943 124.6251 124.7489
   124.9219 125.1396 125.1773 125.2949 125.5264 125.5353 125.7538 125.7586
   125.8245 125.9160 126.0249 126.0822 126.2632 126.3222 126.3789 126.5297
   126.5958 126.6993 126.7049 126.8101 126.8729 126.9564 126.9616 127.1113
   127.3176 127.4368 127.5174 127.7733 127.8440 127.8734 127.9222 128.0133
   128.2312 128.3714 128.5463 128.5878 128.7411 128.7414 128.7685 129.1164
   129.3727 129.3881 129.5033 129.6508 129.8914 130.2558 130.3133 130.4541
   130.6944 130.7490 131.0196 131.0339 131.0408 131.2766 131.2909 131.5093
   131.7154 131.8542 132.1639 132.4633 132.4701 132.4804 132.6363 132.7287
   132.8652 132.8707 133.0418 133.2029 133.3629 133.4807 133.5420 133.6736
   133.7039 133.8023 133.8721 134.1204 134.3157 134.3365 134.4324 134.5284
   134.5658 134.7339 134.8082 134.9593 135.0227 135.1236 135.3100 135.3178
   135.5376 135.6067 135.8296 135.9218 136.0313 136.1850 136.3041 136.4348
   136.4422 136.4533 136.6391 136.6599 136.7353 136.7522 136.8496 136.9815
   137.2382 137.5481 137.5646 137.6273 137.6975 137.7137 137.8514 137.9755
   138.2330 138.2946 138.4435 138.4634 138.6652 138.7276 138.7522 138.9350
   139.1683 139.2475 139.4028 139.4374 139.5810 139.7087 139.7818 139.7893
   139.9778 140.0022 140.1735 140.2066 140.4657 140.5190 140.6263 140.6729
   140.8687 140.9493 140.9866 141.1182 141.2998 141.3404 141.6910 142.1098
   142.2940 142.3701 142.4292 142.6191 142.6379 142.8371 142.9181 143.0304
   143.1177 143.3151 143.3679 143.5828 143.7614 143.7631 143.9064 144.0776
   144.2895 144.2982 144.4155 144.4200 144.7208 144.7981 145.0410 145.1126
   145.1405 145.1464 145.1918 145.4473 145.6099 145.6276 145.7649 145.8270
   145.9214 145.9647 146.3464 146.3579 146.5003 146.5937 146.7487 146.7646
   146.8048 146.8998 147.0034 147.2453 147.3474 147.3609 147.4762 147.5684
   148.2424 148.5644 148.7429 148.8311 149.0543 149.1014 149.1234 149.4410
   149.4827 149.6009 149.6070 149.7170 149.7713 149.8112 149.8826 149.9735
   150.2003 150.5635 150.6966 151.0854 151.2082 151.3263 151.3966 151.6657
   151.6893 151.7956 151.8957 151.9370 152.1104 152.1621 152.3589 152.3733
   152.8924 152.9823 153.0798 153.0982 153.2860 153.3246 153.7689 153.9738
   154.1025 154.4120 154.5525 154.6998 154.7225 154.7836 154.8329 155.0419
   155.1028 155.1160 155.1753 155.3201 155.4591 155.5892 155.8006 155.8150
   155.8661 155.9348 155.9961 155.9990 156.1086 156.1968 156.6663 156.7048
   156.8091 156.8917 156.9143 156.9747 157.0226 157.0580 157.1204 157.1951
   157.2221 157.3120 157.3737 157.4632 157.4941 157.5358 157.5940 157.6540
   157.6734 157.8137 157.8306 157.8489 158.0669 158.2614 158.3655 158.3745
   158.4369 158.4827 158.6145 158.6149 158.6546 158.6970 159.1266 159.1734
   159.4177 159.5810 159.6931 159.7601 159.7743 159.9886 160.1751 160.2126
   160.3766 160.3896 160.5083 160.6529 160.6858 160.7403 161.0766 161.1592
   161.1665 161.1756 161.3389 161.4719 161.5802 161.7627 161.9385 161.9637
   162.1838 162.2253 162.4122 162.7172 162.7573 162.8879 162.9367 162.9597
   163.2817 163.3402 163.3766 163.4375 163.4602 163.5293 163.5520 163.6232
   163.7685 164.0648 164.1098 164.2157 164.6110 164.8746 164.8846 165.0199
   165.0678 165.1009 165.2517 165.2977 165.3686 165.3882 165.5206 165.6497
   165.7084 165.8061 165.8401 165.9428 165.9624 166.1405 166.2840 166.3100
   166.3449 166.5011 166.6287 166.7684 166.8326 166.8523 166.9184 167.0221
   167.2539 167.3026 167.8198 167.8260 168.0903 168.2152 168.3990 168.5897
   168.6015 168.6540 169.0596 169.0619 169.0741 169.1556 169.1847 169.1980
   169.4874 169.5032 169.7770 170.0354 170.0432 170.1843 170.2778 170.4177
   170.6612 170.6885 170.8796 171.0054 171.5110 171.5200 171.6862 171.7981
   171.8581 171.8600 172.1110 172.2314 172.3169 172.5703 172.6823 172.8911
   173.0087 173.1397 173.4816 173.6154 173.7199 173.7805 173.8922 173.9764
   174.1640 174.3550 174.3966 174.4219 174.4767 174.5753 174.7509 174.7805
   174.8640 175.0992 175.1685 175.1898 175.2334 175.2703 175.2937 175.3270
   175.5334 175.6851 175.7033 175.7545 175.7800 175.7934 175.7950 176.1438
   176.2453 176.5910 176.9176 177.1197 177.2447 177.4822 177.7044 177.8171
   177.9925 178.0586 178.1307 178.2831 178.5360 178.6361 178.7871 178.9261
   179.0563 179.1242 179.2389 179.3552 179.5345 179.6568 179.8001 179.8302
   179.8388 180.0879 180.2541 180.3837 180.4393 180.5456 180.6239 180.8270
   180.9009 180.9223 181.0705 181.1317 181.2726 181.3095 181.5177 181.6413
   182.0740 182.1585 182.3752 182.4310 182.4764 182.6959 182.7479 182.9728
   182.9872 183.1211 183.3619 183.4282 183.5657 183.5833 183.6540 183.7070
   183.7450 183.8255 184.1867 184.2718 184.3290 184.4477 184.6979 184.8435
   184.9129 184.9339 185.0561 185.3012 185.3744 185.5443 185.5978 185.6667
   185.7054 185.9560 186.0601 186.2390 186.2629 186.3090 186.3576 186.4890
   186.5049 186.8178 186.9003 186.9307 186.9567 186.9768 187.0750 187.1274
   187.1515 187.3132 187.3184 187.3692 187.4999 187.6051 187.6340 187.6765

          k = 0.2500 0.4330 0.0000 (  6974 PWs)   bands (ev):

   -62.5047 -36.7827 -36.6384 -36.6088 -13.9208 -13.6869  -6.7587  -6.5652
    -5.2636  -4.8822  -4.5619  -3.2939  -2.1859   0.5017   1.1353   1.4468
     2.9086   5.8996   6.7168   7.0121   7.6981   8.1955   8.1964   8.7763
     9.2680   9.8209   9.8505  10.6709  10.7623  11.0113  11.3180  11.6025
    12.5527  12.7246  12.8054  12.9733  13.1965  13.2911  13.3837  13.5430
    14.3031  14.5515  14.6040  14.8888  15.6788  15.8362  16.4552  16.5144
    16.7425  17.0653  17.8568  18.4531  18.8315  19.0121  19.0844  19.2737
    20.3095  20.4072  20.7256  21.1506  21.5488  21.9635  22.3068  22.6010
    23.0547  23.2530  23.7594  24.6300  24.7369  25.1947  25.6428  26.0320
    26.4020  26.4584  26.8070  27.1756  27.2783  27.6784  27.8690  27.8955
    28.0203  28.1670  28.4123  28.6027  28.7662  28.8242  29.4558  29.5601
    29.5935  30.0325  30.1053  30.4422  30.6083  31.0174  31.4089  31.5345
    31.5969  32.0260  32.2240  32.6201  32.8446  33.1094  33.4041  33.8526
    34.3239  34.6401  34.7861  35.1385  35.8359  35.9831  36.1925  36.2233
    36.2909  36.6476  36.7024  37.2872  37.4589  37.5100  37.7131  37.8814
    37.9990  38.5236  38.7544  38.8778  39.6130  39.6981  39.9727  40.2802
    40.5628  40.6861  40.8017  40.9752  41.0630  41.0967  41.3091  41.8395
    41.9848  42.1197  42.3439  42.3497  42.6667  42.7660  42.8516  42.9906
    43.3073  43.3887  43.4307  43.6258  43.7232  43.7631  44.1135  44.2490
    44.4290  44.6665  44.8135  45.0271  45.3481  45.4747  45.7988  45.9673
    45.9752  45.9822  46.2669  46.7332  46.9607  47.3712  47.4600  47.5691
    47.7331  48.0210  48.2175  48.5491  48.7740  48.9574  49.4343  49.5757
    49.9948  50.0847  50.0935  50.5474  50.5579  50.9413  51.1714  51.2634
    51.4982  51.7409  51.8041  52.0170  52.0675  52.4015  52.5963  52.8998
    52.9261  53.1310  53.1443  53.3999  53.5082  53.7225  53.8310  54.1580
    54.1684  54.2691  54.3444  54.5566  54.7193  55.1221  55.1978  55.2284
    55.2359  55.5849  55.7193  55.8107  55.8472  55.9324  56.3310  56.4638
    56.5796  56.7600  56.9974  57.0952  57.1757  57.3976  57.4244  57.7065
    57.8117  57.8662  57.8904  58.0237  58.1284  58.1435  58.3335  58.6220
    58.7302  58.7605  59.1965  59.2201  59.4800  59.5595  59.6778  60.1019
    60.1518  60.3155  60.5014  60.5641  60.6435  61.0466  61.2074  61.4008
    61.6071  61.7059  61.9401  61.9718  62.0279  62.1418  62.3177  62.4844
    62.6808  62.7163  63.1832  63.2274  63.7477  63.8402  63.9642  64.3523
    64.4075  64.6914  64.8316  64.8812  65.0058  65.2557  65.6122  65.8215
    65.8874  66.0432  66.1102  66.2763  66.5498  67.1111  67.2275  67.2465
    67.4227  67.6930  68.0544  68.1945  68.4289  68.7997  68.8629  68.8703
    69.0050  69.3628  69.7329  69.9688  70.2197  70.2207  70.4237  70.6077
    70.6382  70.8227  70.9009  70.9781  71.3273  71.6425  72.1168  72.1697
    72.2465  72.5572  72.7093  73.3737  73.5630  73.7503  73.8595  73.9082
    74.0924  74.1645  74.2023  74.7750  75.0725  75.3322  75.6055  75.7894
    75.9462  75.9992  76.3903  76.4828  76.8436  77.0081  77.1463  77.3008
    77.6889  77.7448  77.9057  78.1232  78.5996  78.7553  78.7885  79.0506
    79.1407  79.3888  79.6395  79.9485  80.0283  80.1490  80.1796  80.6775
    80.7434  80.8954  80.8967  81.4311  81.5083  81.8757  81.9682  81.9931
    82.1297  82.2515  82.3413  82.4504  82.6451  82.7692  82.9806  83.0048
    83.2175  83.2835  83.3258  83.4555  83.6988  83.8838  84.0025  84.2104
    84.2393  84.6015  84.7892  84.9389  85.1054  85.1620  85.2463  85.3003
    85.5312  85.6735  85.7577  85.9788  86.1935  86.3896  86.4432  86.5678
    86.7281  86.7969  86.9247  87.0484  87.1356  87.1646  87.2910  87.3050
    87.5376  87.6823  87.8654  87.8782  88.1446  88.2308  88.2606  88.3151
    88.5372  88.5524  88.8300  88.9100  89.0842  89.2130  89.3964  89.5590
    89.6031  89.7188  89.9981  90.0223  90.2947  90.3916  90.5423  90.6505
    91.0647  91.1467  91.2900  91.4755  91.5847  91.5949  91.8897  91.9478
    92.2754  92.3064  92.3957  92.5660  92.8383  93.0317  93.0445  93.1994
    93.3803  93.4081  93.6507  93.9304  93.9985  94.0830  94.1683  94.4772
    94.7534  94.8583  94.8597  94.9135  95.1192  95.4083  95.5943  95.6818
    95.8168  95.8571  95.9566  96.0354  96.3080  96.5721  96.6851  96.7027
    96.8484  97.0619  97.1881  97.3226  97.5608  97.5739  97.8708  97.9679
    98.1355  98.1775  98.5403  98.6815  98.8108  98.8928  99.2013  99.2042
    99.3744  99.4650  99.5473  99.7607  99.7649  99.8829 100.1818 100.3246
   100.5635 100.6730 100.8928 100.9388 100.9606 101.0663 101.1230 101.4356
   101.6563 101.7161 101.7199 101.8560 101.8573 101.9214 102.0500 102.0861
   102.2013 102.2945 102.3251 102.4627 102.6146 102.7981 102.8861 102.8872
   103.0610 103.0799 103.1728 103.4133 103.4520 103.7448 103.7636 104.0782
   104.1300 104.2916 104.6249 104.6390 104.7760 105.1979 105.2456 105.3026
   105.3436 105.4016 105.5421 105.5516 105.8281 105.9528 106.1598 106.1721
   106.5447 106.7216 106.8821 106.9776 107.0189 107.4005 107.6238 107.7063
   107.7751 107.8124 108.0463 108.1054 108.2620 108.3518 108.5369 108.6633
   108.7105 108.9206 109.1277 109.1813 109.3366 109.5233 109.6851 109.7189
   109.9812 110.0201 110.1238 110.3796 110.3810 110.6054 110.6452 110.8306
   111.0129 111.2223 111.2888 111.4132 111.7333 111.7903 111.9751 111.9945
   112.0351 112.2652 112.4158 112.4509 112.8501 112.8751 113.0320 113.1746
   113.4540 113.5828 113.6653 113.8819 114.0437 114.2063 114.2387 114.5214
   114.6199 114.7002 114.8622 114.9270 114.9596 115.3269 115.4321 115.5770
   115.5811 115.8514 116.0315 116.1013 116.1932 116.2793 116.4022 116.4397
   116.5433 116.5527 116.6449 116.6921 116.7452 116.8220 116.8716 117.0124
   117.1535 117.2623 117.3436 117.3522 117.5006 117.5342 117.5735 117.6238
   117.6952 117.7315 117.7682 117.9180 118.0327 118.0491 118.0978 118.3318
   118.3735 118.4212 118.7483 118.8044 118.8840 119.0773 119.1991 119.3985
   119.4256 119.4259 119.5540 119.6243 119.6871 119.7130 119.7492 119.9355
   120.0145 120.1146 120.3406 120.5076 120.6236 120.7069 120.9132 121.0643
   121.4021 121.5080 121.5984 121.6070 121.8171 121.8334 122.0861 122.2610
   122.3832 122.4447 122.5366 122.6078 122.6561 122.8284 122.9117 123.0850
   123.1816 123.3049 123.4183 123.6127 123.6518 123.8204 123.9856 124.0369
   124.3145 124.3556 124.5809 124.6154 124.8009 124.9398 125.0130 125.1373
   125.1614 125.2282 125.3592 125.5981 125.6250 125.6923 125.7768 125.8926
   126.1323 126.1765 126.3614 126.5542 126.6523 126.9929 127.1835 127.1914
   127.2063 127.3259 127.6808 127.7555 127.9712 128.0662 128.5502 128.6380
   128.8307 128.9188 129.1147 129.2582 129.2771 129.3461 129.3809 129.4927
   129.5718 129.6221 129.7941 129.8511 129.9652 130.1397 130.3778 130.4868
   130.5107 130.7182 130.8872 130.9815 131.0953 131.1913 131.2419 131.2614
   131.3662 131.4815 131.5053 131.6570 131.6629 131.8024 132.0392 132.1546
   132.2949 132.3376 132.3663 132.3898 132.6632 132.8392 133.0325 133.0840
   133.1922 133.2712 133.3556 133.5070 133.5123 133.6311 133.9072 134.0110
   134.0391 134.1232 134.1525 134.3642 134.3814 134.5181 134.6661 134.7539
   134.8715 134.9514 135.2481 135.2825 135.6161 135.6574 135.8562 136.1065
   136.1143 136.1308 136.4543 136.5701 136.6863 136.8674 136.8676 136.9135
   137.1391 137.1864 137.2786 137.4521 137.4877 137.6018 137.6271 137.7959
   138.2448 138.4464 138.4690 138.5709 138.5730 138.7916 139.1288 139.1337
   139.1763 139.1846 139.3073 139.3369 139.4315 139.6364 139.6519 139.7806
   139.9630 140.1264 140.1953 140.3448 140.5237 140.7002 140.7260 140.9827
   141.0496 141.1194 141.1840 141.2046 141.3691 141.4820 141.5211 141.5444
   141.8499 141.9991 142.1421 142.2426 142.2709 142.5794 142.7111 142.8221
   142.9131 143.1765 143.2267 143.4437 143.4492 143.4975 143.6661 143.6885
   143.7988 143.9526 144.0623 144.1997 144.2464 144.3683 144.3976 144.6761
   144.7445 144.7988 144.7989 144.9686 144.9981 145.0917 145.1227 145.2828
   145.3912 145.4081 145.5978 145.6216 145.8422 145.9240 145.9924 146.1899
   146.1959 146.3242 146.5978 146.6810 146.7809 147.0732 147.4540 147.4765
   147.4942 147.8787 147.9349 147.9978 148.0743 148.1093 148.3947 148.4494
   148.5218 148.6193 148.7273 148.8232 149.0433 149.1598 149.3566 149.5783
   149.7486 149.8147 149.9091 150.1426 150.2750 150.4484 150.5162 150.5525
   150.5651 150.5725 150.7636 150.8396 151.1340 151.2764 151.4270 151.5948
   151.6235 151.8335 151.9351 152.2812 152.3077 152.4525 152.5528 152.7566
   152.8721 153.0016 153.0290 153.2066 153.3944 153.5426 153.7587 153.7911
   153.9799 154.0507 154.0775 154.1774 154.2571 154.3278 154.4885 154.7617
   155.1617 155.3096 155.4512 155.5679 155.8614 155.9150 155.9243 156.0377
   156.1358 156.2652 156.2977 156.4005 156.7183 156.8413 157.0162 157.2397
   157.2502 157.5016 157.6238 157.7946 157.8274 157.9453 158.1236 158.1314
   158.3966 158.4308 158.6141 158.6325 158.9352 159.0245 159.0493 159.0604
   159.2460 159.3212 159.3497 159.4289 159.5238 159.5374 159.9123 159.9651
   159.9853 160.0884 160.3614 160.4105 160.6598 160.7523 160.8173 160.9640
   160.9805 161.1650 161.1727 161.3918 161.4351 161.5116 161.5771 161.5996
   161.9387 161.9603 162.1061 162.2078 162.2105 162.2936 162.3960 162.4725
   162.9697 162.9834 163.0228 163.0741 163.1227 163.5394 163.5774 163.6845
   163.7227 163.7862 163.8128 164.0130 164.2159 164.3197 164.3739 164.3779
   164.6933 164.8553 164.9372 164.9517 165.0363 165.3531 165.5504 165.8214
   165.9201 165.9220 166.1132 166.2255 166.3187 166.3458 166.5330 166.5330
   166.6816 166.7375 166.8852 167.0302 167.1990 167.2501 167.3252 167.5951
   167.7882 167.8632 167.9410 168.1603 168.2375 168.3643 168.7236 168.7463
   168.9453 169.0212 169.0676 169.1005 169.1399 169.1597 169.5035 169.5071
   169.5851 169.6503 169.8180 169.9259 170.0410 170.1122 170.2217 170.4932
   170.7032 170.8230 170.8649 170.9560 171.0875 171.2955 171.3695 171.3776
   171.6175 171.7330 171.8151 171.9676 172.1704 172.1746 172.5039 172.7285
   172.7891 173.0049 173.0225 173.0247 173.2374 173.3016 173.3113 173.5765
   173.8316 173.8324 173.9457 174.0905 174.1485 174.2198 174.4140 174.4183
   174.6378 174.7637 174.7936 174.8916 174.9309 175.2155 175.3890 175.4777
   175.5174 175.6116 175.6432 175.8688 175.9111 175.9781 176.0112 176.1569
   176.1681 176.3955 176.4060 176.6602 176.7228 176.7845 176.8263 176.9195
   177.0408 177.0480 177.1158 177.4674 177.6635 177.7280 177.9054 178.0599
   178.1281 178.1380 178.3320 178.4846 178.6130 178.7969 178.9036 179.0514
   179.0914 179.2322 179.3761 179.4237 179.5959 179.6310 179.6918 179.7774
   180.1159 180.2634 180.3768 180.3929 180.4506 180.6635 180.9224 180.9723
   181.0904 181.1333 181.2581 181.3529 181.3607 181.4411 181.6178 181.6775
   181.8715 182.1018 182.1141 182.2371 182.3573 182.4567 182.5504 182.6603
   182.7866 182.7989 182.8561 182.9433 183.0239 183.1386 183.1402 183.2295
   183.3396 183.5174 183.6051 183.6428 183.7580 183.9004 183.9102 184.0856
   184.0959 184.2127 184.3148 184.4283 184.4949 184.6148 184.6469 184.8642
   184.8802 184.9189 184.9897 185.1595 185.1864 185.4037 185.4747 185.4800
   185.6373 185.6706 185.7418 185.8203 185.8693 185.9437 185.9671 185.9701
   186.2932 186.2933 186.3406 186.4036 186.5571 186.6626 186.8352 186.8651

     the Fermi energy is    -0.0183 ev
     (compare with:    -0.8909 eV, computed in scf)

     Writing all to output data dir out/MoS2.save/
 
     init_run     :      0.15s CPU      0.18s WALL (       1 calls)
     electrons    :    289.85s CPU    298.20s WALL (       1 calls)

     Called by init_run:
     wfcinit      :      0.00s CPU      0.00s WALL (       1 calls)
     potinit      :      0.02s CPU      0.02s WALL (       1 calls)
     hinit0       :      0.04s CPU      0.07s WALL (       1 calls)

     Called by electrons:
     c_bands      :    289.85s CPU    298.20s WALL (       1 calls)
     v_of_rho     :      0.01s CPU      0.01s WALL (       1 calls)

     Called by c_bands:
     init_us_2    :      0.00s CPU      0.00s WALL (       4 calls)
     init_us_2:cp :      0.00s CPU      0.00s WALL (       4 calls)
     cegterg      :    283.13s CPU    291.28s WALL (       4 calls)

     Called by *egterg:
     cdiaghg      :    254.45s CPU    262.18s WALL (      51 calls)
     h_psi        :      6.15s CPU      6.27s WALL (      55 calls)
     g_psi        :      0.05s CPU      0.05s WALL (      47 calls)

     Called by h_psi:
     h_psi:calbec :      0.14s CPU      0.15s WALL (      55 calls)
     vloc_psi     :      5.83s CPU      5.93s WALL (      55 calls)
     add_vuspsi   :      0.12s CPU      0.12s WALL (      55 calls)

     General routines
     calbec       :      0.14s CPU      0.15s WALL (      55 calls)
     fft          :      0.01s CPU      0.03s WALL (      10 calls)
     fftw         :      5.31s CPU      5.41s WALL (   72882 calls)
 
     Parallel routines
 
     PWSCF        :   4m50.75s CPU   4m59.49s WALL

 
   This run was terminated on:  10:29:29   5Apr2024            

=------------------------------------------------------------------------------=
   JOB DONE.
=------------------------------------------------------------------------------=
