
     Program PWSCF v.7.1 starts on 14Nov2023 at 10:11: 9 

     This program is part of the open-source Quantum ESPRESSO suite
     for quantum simulation of materials; please cite
         "P. Giannozzi et al., J. Phys.:Condens. Matter 21 395502 (2009);
         "P. Giannozzi et al., J. Phys.:Condens. Matter 29 465901 (2017);
         "P. Giannozzi et al., J. Chem. Phys. 152 154105 (2020);
          URL http://www.quantum-espresso.org", 
     in publications or presentations arising from this work. More details at
     http://www.quantum-espresso.org/quote

     Parallel version (MPI), running on    24 processors

     MPI processes distributed on     1 nodes
     123348 MiB available memory on the printing compute node when the environment starts
 
     Reading input from pw_mp-149_scf_k3000_E23.in
Warning: card &CELL ignored
Warning: card / ignored

     Current dimensions of program PWSCF are:
     Max number of different atomic species (ntypx) = 10
     Max number of k-points (npk) =  40000
     Max angular momentum in pseudopotentials (lmaxx) =  4
 
     K-points division:     npool     =       2
     R & G space division:  proc/nbgrp/npool/nimage =      12
     Subspace diagonalization in iterative solution of the eigenvalue problem:
     a serial algorithm will be used

 
     Parallelization info
     --------------------
     sticks:   dense  smooth     PW     G-vecs:    dense   smooth      PW
     Min          27      27     10                  334      334      68
     Max          29      29     11                  336      336      70
     Sum         337     337    121                 4015     4015     821
 
     Using Slab Decomposition
 


     bravais-lattice index     =            2
     lattice parameter (alat)  =      10.2871  a.u.
     unit-cell volume          =     272.1571 (a.u.)^3
     number of atoms/cell      =            2
     number of atomic types    =            1
     number of electrons       =         8.00
     number of Kohn-Sham states=            8
     kinetic-energy cutoff     =      23.0000  Ry
     charge density cutoff     =      92.0000  Ry
     scf convergence threshold =      1.0E-10
     mixing beta               =       0.7000
     number of iterations used =            8  plain     mixing
     Exchange-correlation= PBE
                           (   1   4   3   4   0   0   0)

     celldm(1)=  10.287106  celldm(2)=   0.000000  celldm(3)=   0.000000
     celldm(4)=   0.000000  celldm(5)=   0.000000  celldm(6)=   0.000000

     crystal axes: (cart. coord. in units of alat)
               a(1) = (  -0.500000   0.000000   0.500000 )  
               a(2) = (   0.000000   0.500000   0.500000 )  
               a(3) = (  -0.500000   0.500000   0.000000 )  

     reciprocal axes: (cart. coord. in units 2 pi/alat)
               b(1) = ( -1.000000 -1.000000  1.000000 )  
               b(2) = (  1.000000  1.000000  1.000000 )  
               b(3) = ( -1.000000  1.000000 -1.000000 )  


     PseudoPot. # 1 for Si read from file:
     /usr/scratch4/magr4985/MG/HTDF/pseudo/SG15/Si.upf
     MD5 check sum: 7f029a58b69e3aa87b46a36c608bf45e
     Pseudo is Norm-conserving, Zval =  4.0
     Generated using ONCVPSP code by D. R. Hamann
     Using radial grid of  602 points,  4 beta functions with: 
                l(1) =   0
                l(2) =   0
                l(3) =   1
                l(4) =   1

     atomic species   valence    mass     pseudopotential
        Si             4.00    28.08550     Si( 1.00)

     48 Sym. Ops., with inversion, found (24 have fractional translation)



   Cartesian axes

     site n.     atom                  positions (alat units)
         1           Si  tau(   1) = (  -0.2500000   0.2500001   0.2500000  )
         2           Si  tau(   2) = (  -0.5000000   0.5000000   0.5000000  )

     number of k points=    72  Gaussian smearing, width (Ry)=  0.0005
                       cart. coord. in units 2pi/alat
        k(    1) = (   0.0000000   0.0000000   0.0000000), wk =   0.0011574
        k(    2) = (  -0.0833333   0.0833333  -0.0833333), wk =   0.0092593
        k(    3) = (  -0.1666667   0.1666667  -0.1666667), wk =   0.0092593
        k(    4) = (  -0.2500000   0.2500000  -0.2500000), wk =   0.0092593
        k(    5) = (  -0.3333333   0.3333333  -0.3333333), wk =   0.0092593
        k(    6) = (  -0.4166667   0.4166667  -0.4166667), wk =   0.0092593
        k(    7) = (   0.5000000  -0.5000000   0.5000000), wk =   0.0046296
        k(    8) = (   0.0000000   0.1666667   0.0000000), wk =   0.0069444
        k(    9) = (  -0.0833333   0.2500000  -0.0833333), wk =   0.0277778
        k(   10) = (  -0.1666667   0.3333333  -0.1666667), wk =   0.0277778
        k(   11) = (  -0.2500000   0.4166667  -0.2500000), wk =   0.0277778
        k(   12) = (  -0.3333333   0.5000000  -0.3333333), wk =   0.0277778
        k(   13) = (   0.5833333  -0.4166667   0.5833333), wk =   0.0277778
        k(   14) = (   0.5000000  -0.3333333   0.5000000), wk =   0.0277778
        k(   15) = (   0.4166667  -0.2500000   0.4166667), wk =   0.0277778
        k(   16) = (   0.3333333  -0.1666667   0.3333333), wk =   0.0277778
        k(   17) = (   0.2500000  -0.0833333   0.2500000), wk =   0.0277778
        k(   18) = (   0.1666667  -0.0000000   0.1666667), wk =   0.0138889
        k(   19) = (   0.0000000   0.3333333   0.0000000), wk =   0.0069444
        k(   20) = (  -0.0833333   0.4166667  -0.0833333), wk =   0.0277778
        k(   21) = (  -0.1666667   0.5000000  -0.1666667), wk =   0.0277778
        k(   22) = (  -0.2500000   0.5833333  -0.2500000), wk =   0.0277778
        k(   23) = (   0.6666667  -0.3333333   0.6666667), wk =   0.0277778
        k(   24) = (   0.5833333  -0.2500000   0.5833333), wk =   0.0277778
        k(   25) = (   0.5000000  -0.1666667   0.5000000), wk =   0.0277778
        k(   26) = (   0.4166667  -0.0833333   0.4166667), wk =   0.0277778
        k(   27) = (   0.3333333   0.0000000   0.3333333), wk =   0.0138889
        k(   28) = (   0.0000000   0.5000000   0.0000000), wk =   0.0069444
        k(   29) = (  -0.0833333   0.5833333  -0.0833333), wk =   0.0277778
        k(   30) = (  -0.1666667   0.6666667  -0.1666667), wk =   0.0277778
        k(   31) = (   0.7500000  -0.2500000   0.7500000), wk =   0.0277778
        k(   32) = (   0.6666667  -0.1666667   0.6666667), wk =   0.0277778
        k(   33) = (   0.5833333  -0.0833333   0.5833333), wk =   0.0277778
        k(   34) = (   0.5000000   0.0000000   0.5000000), wk =   0.0138889
        k(   35) = (   0.0000000   0.6666667   0.0000000), wk =   0.0069444
        k(   36) = (  -0.0833333   0.7500000  -0.0833333), wk =   0.0277778
        k(   37) = (   0.8333333  -0.1666667   0.8333333), wk =   0.0277778
        k(   38) = (   0.7500000  -0.0833333   0.7500000), wk =   0.0277778
        k(   39) = (   0.6666667  -0.0000000   0.6666667), wk =   0.0138889
        k(   40) = (   0.0000000   0.8333333   0.0000000), wk =   0.0069444
        k(   41) = (   0.9166667  -0.0833333   0.9166667), wk =   0.0277778
        k(   42) = (   0.8333333   0.0000000   0.8333333), wk =   0.0138889
        k(   43) = (   0.0000000  -1.0000000   0.0000000), wk =   0.0034722
        k(   44) = (  -0.1666667   0.3333333   0.0000000), wk =   0.0277778
        k(   45) = (  -0.2500000   0.4166667  -0.0833333), wk =   0.0555556
        k(   46) = (  -0.3333333   0.5000000  -0.1666667), wk =   0.0555556
        k(   47) = (   0.5833333  -0.4166667   0.7500000), wk =   0.0555556
        k(   48) = (   0.5000000  -0.3333333   0.6666667), wk =   0.0277778
        k(   49) = (  -0.1666667   0.5000000   0.0000000), wk =   0.0277778
        k(   50) = (  -0.2500000   0.5833333  -0.0833333), wk =   0.0555556
        k(   51) = (   0.6666667  -0.3333333   0.8333333), wk =   0.0555556
        k(   52) = (   0.5833333  -0.2500000   0.7500000), wk =   0.0555556
        k(   53) = (   0.5000000  -0.1666667   0.6666667), wk =   0.0555556
        k(   54) = (   0.4166667  -0.0833333   0.5833333), wk =   0.0555556
        k(   55) = (   0.3333333   0.0000000   0.5000000), wk =   0.0277778
        k(   56) = (  -0.1666667   0.6666667  -0.0000000), wk =   0.0277778
        k(   57) = (   0.7500000  -0.2500000   0.9166667), wk =   0.0555556
        k(   58) = (   0.6666667  -0.1666667   0.8333333), wk =   0.0555556
        k(   59) = (   0.5833333  -0.0833333   0.7500000), wk =   0.0555556
        k(   60) = (   0.5000000   0.0000000   0.6666667), wk =   0.0277778
        k(   61) = (   0.8333333  -0.1666667   1.0000000), wk =   0.0277778
        k(   62) = (   0.7500000  -0.0833333   0.9166667), wk =   0.0555556
        k(   63) = (   0.6666667   0.0000000   0.8333333), wk =   0.0277778
        k(   64) = (  -0.1666667  -1.0000000  -0.0000000), wk =   0.0138889
        k(   65) = (   0.6666667  -0.3333333   1.0000000), wk =   0.0277778
        k(   66) = (   0.5833333  -0.2500000   0.9166667), wk =   0.0555556
        k(   67) = (   0.5000000  -0.1666667   0.8333333), wk =   0.0277778
        k(   68) = (   0.6666667  -0.1666667   1.0000000), wk =   0.0277778
        k(   69) = (   0.5833333  -0.0833333   0.9166667), wk =   0.0555556
        k(   70) = (   0.5000000   0.0000000   0.8333333), wk =   0.0277778
        k(   71) = (  -0.3333333  -1.0000000   0.0000000), wk =   0.0138889
        k(   72) = (  -0.5000000  -1.0000000   0.0000000), wk =   0.0069444

     Dense  grid:     4015 G-vectors     FFT dimensions: (  24,  24,  24)

     Estimated max dynamical RAM per process >       0.67 MB

     Estimated total dynamical RAM >      15.17 MB

     Initial potential from superposition of free atoms

     starting charge       7.9075, renormalised to       8.0000
     Starting wfcs are random

     total cpu time spent up to now is        0.1 secs

     Self-consistent Calculation

     iteration #  1     ecut=    23.00 Ry     beta= 0.70
     Davidson diagonalization with overlap
     ethr =  1.00E-02,  avg # of iterations =  7.8

     Threshold (ethr) on eigenvalues was too large:
     Diagonalizing with lowered threshold

     Davidson diagonalization with overlap
     ethr =  6.29E-04,  avg # of iterations =  1.6

     total cpu time spent up to now is        0.4 secs

     total energy              =     -15.76122885 Ry
     estimated scf accuracy    <       0.05160001 Ry

     iteration #  2     ecut=    23.00 Ry     beta= 0.70
     Davidson diagonalization with overlap
     ethr =  6.45E-04,  avg # of iterations =  1.0

     total cpu time spent up to now is        0.4 secs

     total energy              =     -15.76364419 Ry
     estimated scf accuracy    <       0.00204287 Ry

     iteration #  3     ecut=    23.00 Ry     beta= 0.70
     Davidson diagonalization with overlap
     ethr =  2.55E-05,  avg # of iterations =  4.9

     total cpu time spent up to now is        0.5 secs

     total energy              =     -15.76378277 Ry
     estimated scf accuracy    <       0.00004130 Ry

     iteration #  4     ecut=    23.00 Ry     beta= 0.70
     Davidson diagonalization with overlap
     ethr =  5.16E-07,  avg # of iterations =  4.2

     total cpu time spent up to now is        0.6 secs

     total energy              =     -15.76379180 Ry
     estimated scf accuracy    <       0.00000012 Ry

     iteration #  5     ecut=    23.00 Ry     beta= 0.70
     Davidson diagonalization with overlap
     ethr =  1.45E-09,  avg # of iterations =  3.7

     total cpu time spent up to now is        0.7 secs

     total energy              =     -15.76379207 Ry
     estimated scf accuracy    <          5.2E-09 Ry

     iteration #  6     ecut=    23.00 Ry     beta= 0.70
     Davidson diagonalization with overlap
     ethr =  6.46E-11,  avg # of iterations =  2.0

     total cpu time spent up to now is        0.8 secs

     total energy              =     -15.76379207 Ry
     estimated scf accuracy    <          2.3E-10 Ry

     iteration #  7     ecut=    23.00 Ry     beta= 0.70
     Davidson diagonalization with overlap
     ethr =  2.93E-12,  avg # of iterations =  2.0

     total cpu time spent up to now is        0.8 secs

     End of self-consistent calculation

          k = 0.0000 0.0000 0.0000 (   531 PWs)   bands (ev):

    -5.7638   6.1611   6.1611   6.1611   8.7211   8.7211   8.7211   9.3966

          k =-0.0833 0.0833-0.0833 (   531 PWs)   bands (ev):

    -5.6733   5.2980   6.0182   6.0182   8.7457   8.9314   8.9314  10.0841

          k =-0.1667 0.1667-0.1667 (   519 PWs)   bands (ev):

    -5.4049   3.7786   5.7133   5.7133   8.4765   9.3670   9.3670  11.5238

          k =-0.2500 0.2500-0.2500 (   510 PWs)   bands (ev):

    -4.9694   2.2389   5.4058   5.4058   8.1478   9.6660   9.6660  12.9958

          k =-0.3333 0.3333-0.3333 (   504 PWs)   bands (ev):

    -4.3966   0.8384   5.1662   5.1662   7.8807   9.6734   9.6734  13.9836

          k =-0.4167 0.4167-0.4167 (   498 PWs)   bands (ev):

    -3.7815  -0.2845   5.0183   5.0183   7.7117   9.5669   9.5669  13.9463

          k = 0.5000-0.5000 0.5000 (   502 PWs)   bands (ev):

    -3.4514  -0.7855   4.9680   4.9680   7.6575   9.5136   9.5136  13.8654

          k = 0.0000 0.1667 0.0000 (   532 PWs)   bands (ev):

    -5.6431   5.4561   5.7341   5.7341   8.4471   9.2969   9.2969  10.0497

          k =-0.0833 0.2500-0.0833 (   517 PWs)   bands (ev):

    -5.4334   4.2276   5.3730   5.5580   8.4679   9.3570   9.8346  10.9949

          k =-0.1667 0.3333-0.1667 (   511 PWs)   bands (ev):

    -5.0521   2.7321   5.0614   5.2352   8.5815   9.3542  10.2226  11.5532

          k =-0.2500 0.4167-0.2500 (   508 PWs)   bands (ev):

    -4.5200   1.3028   4.8521   4.8834   8.4249   9.4535  10.2517  12.1265

          k =-0.3333 0.5000-0.3333 (   506 PWs)   bands (ev):

    -3.8994   0.0797   4.5883   4.7622   8.2556   9.4287  10.0619  13.1685

          k = 0.5833-0.4167 0.5833 (   504 PWs)   bands (ev):

    -3.4138  -0.6840   4.3845   4.7926   8.1751   9.4332   9.8642  14.0558

          k = 0.5000-0.3333 0.5000 (   508 PWs)   bands (ev):

    -3.5333  -0.5079   4.2902   4.9347   8.1994   9.5496   9.7534  14.1608

          k = 0.4167-0.2500 0.4167 (   508 PWs)   bands (ev):

    -4.1096   0.4575   4.3183   5.1727   8.3308   9.7185   9.7586  13.6145

          k = 0.3333-0.1667 0.3333 (   510 PWs)   bands (ev):

    -4.7128   1.7648   4.4785   5.4814   8.5567   9.6314   9.9057  12.6419

          k = 0.2500-0.0833 0.2500 (   517 PWs)   bands (ev):

    -5.1982   3.2163   4.7826   5.8089   8.8433   9.3271   9.6840  11.8426

          k = 0.1667-0.0000 0.1667 (   519 PWs)   bands (ev):

    -5.5233   4.5652   5.3041   6.0434   8.9698   9.0601   9.1228  10.9003

          k = 0.0000 0.3333 0.0000 (   516 PWs)   bands (ev):

    -5.2827   4.1069   4.9766   4.9766   7.8649  10.4192  10.4961  10.4961

          k =-0.0833 0.4167-0.0833 (   510 PWs)   bands (ev):

    -4.9577   3.0274   4.6275   4.6438   7.8851  10.0323  10.8393  11.0580

          k =-0.1667 0.5000-0.1667 (   517 PWs)   bands (ev):

    -4.4731   1.7251   4.1742   4.4259   8.1236  10.1978  10.6804  11.2309

          k =-0.2500 0.5833-0.2500 (   510 PWs)   bands (ev):

    -3.8698   0.4986   3.7364   4.3421   8.1674  10.3919  11.0562  11.2049

          k = 0.6667-0.3333 0.6667 (   508 PWs)   bands (ev):

    -3.2918  -0.4284   3.3936   4.3950   8.1974  10.2556  10.7865  12.5670

          k = 0.5833-0.2500 0.5833 (   510 PWs)   bands (ev):

    -3.1789  -0.5866   3.1815   4.5777   8.3384  10.2105  10.5604  14.1167

          k = 0.5000-0.1667 0.5000 (   507 PWs)   bands (ev):

    -3.6731   0.1660   3.1268   4.8708   8.5979  10.2693  10.3922  13.4147

          k = 0.4167-0.0833 0.4167 (   509 PWs)   bands (ev):

    -4.2925   1.3050   3.2730   5.2368   8.9221  10.1593  10.3280  12.2549

          k = 0.3333 0.0000 0.3333 (   513 PWs)   bands (ev):

    -4.8207   2.4403   3.7635   5.5984   9.1707   9.7139   9.9983  11.7891

          k = 0.0000 0.5000 0.0000 (   504 PWs)   bands (ev):

    -4.6887   2.6314   4.2838   4.2838   7.2938   9.2899  11.9042  11.9042

          k =-0.0833 0.5833-0.0833 (   504 PWs)   bands (ev):

    -4.2550   1.7266   3.8197   4.0383   7.3779   8.9394  12.1828  12.3872

          k =-0.1667 0.6667-0.1667 (   505 PWs)   bands (ev):

    -3.6838   0.7048   3.1898   3.9311   7.5960   9.4093  12.0399  12.3510

          k = 0.7500-0.2500 0.7500 (   504 PWs)   bands (ev):

    -3.0650  -0.2140   2.6453   3.9690   7.6846  10.6070  11.8684  12.0784

          k = 0.6667-0.1667 0.6667 (   512 PWs)   bands (ev):

    -2.7450  -0.6244   2.2845   4.1477   7.8607  11.6041  11.7809  12.2966

          k = 0.5833-0.0833 0.5833 (   509 PWs)   bands (ev):

    -3.1172  -0.1348   2.1672   4.4507   8.1828  11.4762  11.5800  13.3047

          k = 0.5000 0.0000 0.5000 (   512 PWs)   bands (ev):

    -3.7343   0.6827   2.4310   4.8403   8.6018  10.9406  11.2818  12.2560

          k = 0.0000 0.6667 0.0000 (   500 PWs)   bands (ev):

    -3.8716   1.1441   3.7586   3.7586   6.8936   8.1574  13.4054  13.4054

          k =-0.0833 0.7500-0.0833 (   500 PWs)   bands (ev):

    -3.3405   0.3624   3.2754   3.6162   7.0555   8.0281  13.7187  13.7806

          k = 0.8333-0.1667 0.8333 (   503 PWs)   bands (ev):

    -2.7162  -0.4016   2.5524   3.6221   7.2301   8.8776  13.6040  13.6048

          k = 0.7500-0.0833 0.7500 (   504 PWs)   bands (ev):

    -2.2522  -0.8885   1.9778   3.7748   7.4056  10.3220  13.2505  13.4361

          k = 0.6667-0.0000 0.6667 (   506 PWs)   bands (ev):

    -2.5235  -0.6035   1.7772   4.0616   7.7301  11.9655  12.6224  13.2010

          k = 0.0000 0.8333 0.0000 (   496 PWs)   bands (ev):

    -2.8487  -0.2990   3.4345   3.4345   6.7404   7.3456  14.9634  14.9634

          k = 0.9167-0.0833 0.9167 (   494 PWs)   bands (ev):

    -2.2391  -0.9830   3.0062   3.4009   6.9417   7.5092  15.2105  15.2967

          k = 0.8333 0.0000 0.8333 (   496 PWs)   bands (ev):

    -1.7880  -1.3840   2.3409   3.5174   7.1009   8.7045  14.6573  15.1530

          k = 0.0000-1.0000 0.0000 (   492 PWs)   bands (ev):

    -1.6454  -1.6454   3.3255   3.3255   6.8795   6.8795  16.2085  16.2085

          k =-0.1667 0.3333 0.0000 (   517 PWs)   bands (ev):

    -5.1665   3.4267   4.5377   5.4567   8.4955   9.6713  10.3074  11.0603

          k =-0.2500 0.4167-0.0833 (   512 PWs)   bands (ev):

    -4.7331   2.1919   4.0060   5.1836   8.7722   9.6465  10.7156  11.0582

          k =-0.3333 0.5000-0.1667 (   511 PWs)   bands (ev):

    -4.1621   0.8980   3.7351   4.8587   8.8029   9.5443  10.7744  11.7012

          k = 0.5833-0.4167 0.7500 (   509 PWs)   bands (ev):

    -3.5457  -0.1844   3.6068   4.6142   8.7406   9.3667  10.6960  12.9095

          k = 0.5000-0.3333 0.6667 (   508 PWs)   bands (ev):

    -3.2110  -0.6782   3.5709   4.5234   8.7163   9.2855  10.6517  14.2025

          k =-0.1667 0.5000 0.0000 (   511 PWs)   bands (ev):

    -4.5791   2.2337   3.8459   4.5431   7.9511   9.6785  10.9640  11.7840

          k =-0.2500 0.5833-0.0833 (   510 PWs)   bands (ev):

    -4.0502   1.1895   3.3095   4.2570   8.2825   9.9021  10.7041  12.1695

          k = 0.6667-0.3333 0.8333 (   504 PWs)   bands (ev):

    -3.4296   0.1428   2.9524   4.0482   8.4037  10.3634  10.9564  12.1533

          k = 0.5833-0.2500 0.7500 (   507 PWs)   bands (ev):

    -2.9378  -0.5573   2.7072   4.0301   8.5308  10.0887  12.0451  12.4227

          k = 0.5000-0.1667 0.6667 (   505 PWs)   bands (ev):

    -3.0720  -0.3718   2.5904   4.2015   8.7770   9.9012  11.9573  12.8183

          k = 0.4167-0.0833 0.5833 (   507 PWs)   bands (ev):

    -3.6571   0.4981   2.6662   4.5161   9.1304   9.7620  11.4347  11.9216

          k = 0.3333 0.0000 0.5000 (   507 PWs)   bands (ev):

    -4.2552   1.4716   3.0810   4.8954   9.3687   9.5010  10.8280  11.4865

          k =-0.1667 0.6667-0.0000 (   505 PWs)   bands (ev):

    -3.7739   0.9704   3.3390   3.7648   7.5556   8.6414  12.2035  13.3547

          k = 0.7500-0.2500 0.9167 (   505 PWs)   bands (ev):

    -3.1727   0.1396   2.7543   3.5493   7.8899   9.1694  11.9028  13.7220

          k = 0.6667-0.1667 0.8333 (   502 PWs)   bands (ev):

    -2.5884  -0.5695   2.2363   3.5570   8.0436  10.4624  11.6075  13.6507

          k = 0.5833-0.0833 0.7500 (   510 PWs)   bands (ev):

    -2.5188  -0.6396   1.9498   3.7540   8.2981  11.2121  12.1991  12.8690

          k = 0.5000 0.0000 0.6667 (   509 PWs)   bands (ev):

    -3.0519  -0.0527   2.0362   4.0969   8.6865  10.7973  11.6478  12.9924

          k = 0.8333-0.1667 1.0000 (   498 PWs)   bands (ev):

    -2.7722  -0.3356   3.0567   3.2530   7.3866   7.9005  13.5798  14.9559

          k = 0.7500-0.0833 0.9167 (   499 PWs)   bands (ev):

    -2.1480  -0.9752   2.4335   3.2090   7.6787   8.8024  13.2615  14.7297

          k = 0.6667 0.0000 0.8333 (   499 PWs)   bands (ev):

    -1.9959  -1.0869   1.9393   3.4050   7.9152  10.3294  12.8007  13.1917

          k =-0.1667-1.0000-0.0000 (   494 PWs)   bands (ev):

    -1.6082  -1.6082   3.0220   3.0220   7.4903   7.4903  15.0444  15.0444

          k = 0.6667-0.3333 1.0000 (   507 PWs)   bands (ev):

    -3.4899   0.5167   2.6134   3.8810   9.0102   9.8782  10.3727  13.2098

          k = 0.5833-0.2500 0.9167 (   501 PWs)   bands (ev):

    -2.8707  -0.2484   2.2676   3.5466   9.3864   9.9220  10.9008  13.6411

          k = 0.5000-0.1667 0.8333 (   510 PWs)   bands (ev):

    -2.5138  -0.6739   2.1743   3.4182   9.5226   9.7012  12.2550  12.6524

          k = 0.6667-0.1667 1.0000 (   503 PWs)   bands (ev):

    -2.5608  -0.4795   2.4165   3.0330   8.8415   9.2477  11.5253  14.4466

          k = 0.5833-0.0833 0.9167 (   505 PWs)   bands (ev):

    -2.0421  -0.9832   2.1041   2.8795   9.1837  10.4497  11.2475  12.6366

          k = 0.5000 0.0000 0.8333 (   509 PWs)   bands (ev):

    -2.2722  -0.7543   1.9799   3.1029   9.4848  10.6323  11.1425  12.3834

          k =-0.3333-1.0000 0.0000 (   506 PWs)   bands (ev):

    -1.5285  -1.5285   2.5405   2.5405   8.9098   8.9098  12.9037  12.9037

          k =-0.5000-1.0000 0.0000 (   516 PWs)   bands (ev):

    -1.4855  -1.4855   2.3346   2.3346  10.4361  10.4361  11.1341  11.1341

     the Fermi energy is     6.6035 ev

!    total energy              =     -15.76379207 Ry
     estimated scf accuracy    <          1.0E-12 Ry
     smearing contrib. (-TS)   =      -0.00000000 Ry
     internal energy E=F+TS    =     -15.76379207 Ry

     The total energy is F=E-TS. E is the sum of the following terms:
     one-electron contribution =       4.69416921 Ry
     hartree contribution      =       1.10598159 Ry
     xc contribution           =      -4.80728261 Ry
     ewald contribution        =     -16.75666026 Ry

     convergence has been achieved in   7 iterations

     Writing all to output data dir out/mp-149.save/
 
     init_run     :      0.02s CPU      0.07s WALL (       1 calls)
     electrons    :      0.58s CPU      0.72s WALL (       1 calls)

     Called by init_run:
     wfcinit      :      0.02s CPU      0.03s WALL (       1 calls)
     potinit      :      0.00s CPU      0.00s WALL (       1 calls)
     hinit0       :      0.00s CPU      0.04s WALL (       1 calls)

     Called by electrons:
     c_bands      :      0.53s CPU      0.64s WALL (       8 calls)
     sum_band     :      0.05s CPU      0.06s WALL (       8 calls)
     v_of_rho     :      0.00s CPU      0.00s WALL (       8 calls)
     mix_rho      :      0.00s CPU      0.00s WALL (       8 calls)

     Called by c_bands:
     init_us_2    :      0.01s CPU      0.01s WALL (     612 calls)
     init_us_2:cp :      0.01s CPU      0.01s WALL (     612 calls)
     cegterg      :      0.46s CPU      0.54s WALL (     288 calls)

     Called by *egterg:
     cdiaghg      :      0.10s CPU      0.12s WALL (    1258 calls)
     h_psi        :      0.32s CPU      0.38s WALL (    1330 calls)
     g_psi        :      0.00s CPU      0.00s WALL (    1006 calls)

     Called by h_psi:
     h_psi:calbec :      0.01s CPU      0.02s WALL (    1330 calls)
     vloc_psi     :      0.29s CPU      0.34s WALL (    1330 calls)
     add_vuspsi   :      0.01s CPU      0.01s WALL (    1330 calls)

     General routines
     calbec       :      0.01s CPU      0.02s WALL (    1330 calls)
     fft          :      0.00s CPU      0.04s WALL (      80 calls)
     ffts         :      0.00s CPU      0.00s WALL (       8 calls)
     fftw         :      0.30s CPU      0.36s WALL (   16874 calls)
 
     Parallel routines
 
     PWSCF        :      0.65s CPU      0.90s WALL

 
   This run was terminated on:  10:11:10  14Nov2023            

=------------------------------------------------------------------------------=
   JOB DONE.
=------------------------------------------------------------------------------=
