
     Program PWSCF v.7.1 starts on 18Dec2023 at 14: 4: 1 

     This program is part of the open-source Quantum ESPRESSO suite
     for quantum simulation of materials; please cite
         "P. Giannozzi et al., J. Phys.:Condens. Matter 21 395502 (2009);
         "P. Giannozzi et al., J. Phys.:Condens. Matter 29 465901 (2017);
         "P. Giannozzi et al., J. Chem. Phys. 152 154105 (2020);
          URL http://www.quantum-espresso.org", 
     in publications or presentations arising from this work. More details at
     http://www.quantum-espresso.org/quote

     Parallel version (MPI), running on     8 processors

     MPI processes distributed on     1 nodes
     123276 MiB available memory on the printing compute node when the environment starts
 
     Reading input from pw_mp-984_nscf_k40_E80.in
Warning: card &IONS ignored
Warning: card / ignored
Warning: card &CELL ignored
Warning: card / ignored

     Current dimensions of program PWSCF are:
     Max number of different atomic species (ntypx) = 10
     Max number of k-points (npk) =  40000
     Max angular momentum in pseudopotentials (lmaxx) =  4

     Atomic positions and unit cell read from directory:
     out/mp-984.save/
     Atomic positions from file used, from input discarded
 
 
     R & G space division:  proc/nbgrp/npool/nimage =       8
     Subspace diagonalization in iterative solution of the eigenvalue problem:
     one sub-group per band group will be used
     scalapack distributed-memory algorithm (size of sub-group:  2*  2 procs)

 
     Parallelization info
     --------------------
     sticks:   dense  smooth     PW     G-vecs:    dense   smooth      PW
     Min          62      62     18                 3442     3442     548
     Max          63      63     19                 3457     3457     557
     Sum         499     499    151                27593    27593    4431
 
     Using Slab Decomposition
 


     bravais-lattice index     =            4
     lattice parameter (alat)  =       4.7478  a.u.
     unit-cell volume          =     284.3248 (a.u.)^3
     number of atoms/cell      =            4
     number of atomic types    =            2
     number of electrons       =        16.00
     number of Kohn-Sham states=         1704
     kinetic-energy cutoff     =      80.0000  Ry
     charge density cutoff     =     320.0000  Ry
     Exchange-correlation= PBE
                           (   1   4   3   4   0   0   0)

     celldm(1)=   4.747801  celldm(2)=   0.000000  celldm(3)=   3.067656
     celldm(4)=   0.000000  celldm(5)=   0.000000  celldm(6)=   0.000000

     crystal axes: (cart. coord. in units of alat)
               a(1) = (   1.000000   0.000000   0.000000 )  
               a(2) = (  -0.500000   0.866025   0.000000 )  
               a(3) = (   0.000000   0.000000   3.067656 )  

     reciprocal axes: (cart. coord. in units 2 pi/alat)
               b(1) = (  1.000000  0.577350  0.000000 )  
               b(2) = (  0.000000  1.154701  0.000000 )  
               b(3) = (  0.000000  0.000000  0.325982 )  


     PseudoPot. # 1 for B  read from file:
     /usr/scratch4/magr4985/MG/HTDF/pseudo/SG15/B.upf
     MD5 check sum: eb3cbeacc2d324d57d903df00f564d27
     Pseudo is Norm-conserving, Zval =  3.0
     Generated using ONCVPSP code by D. R. Hamann
     Using radial grid of  602 points,  4 beta functions with: 
                l(1) =   0
                l(2) =   0
                l(3) =   1
                l(4) =   1

     PseudoPot. # 2 for N  read from file:
     /usr/scratch4/magr4985/MG/HTDF/pseudo/SG15/N.upf
     MD5 check sum: c233fa8df51455e992258b7c3dee8a9f
     Pseudo is Norm-conserving, Zval =  5.0
     Generated using ONCVPSP code by D. R. Hamann
     Using radial grid of  602 points,  4 beta functions with: 
                l(1) =   0
                l(2) =   0
                l(3) =   1
                l(4) =   1

     atomic species   valence    mass     pseudopotential
        B              3.00    10.81100     B ( 1.00)
        N              5.00    14.00670     N ( 1.00)

     12 Sym. Ops., with inversion, found



   Cartesian axes

     site n.     atom                  positions (alat units)
         1           B   tau(   1) = (   0.5000000   0.2886752   0.7669140  )
         2           B   tau(   2) = (   0.0000000   0.5773502   2.3007420  )
         3           N   tau(   3) = (   0.5000000   0.2886752   2.3007420  )
         4           N   tau(   4) = (   0.0000000   0.5773502   0.7669140  )

     number of k points=     8  Gaussian smearing, width (Ry)=  0.0005
                       cart. coord. in units 2pi/alat
        k(    1) = (   0.0000000   0.0000000   0.0000000), wk =   0.0625000
        k(    2) = (   0.0000000   0.0000000  -0.1629909), wk =   0.0625000
        k(    3) = (   0.0000000   0.2886751   0.0000000), wk =   0.3750000
        k(    4) = (   0.0000000   0.2886751  -0.1629909), wk =   0.3750000
        k(    5) = (   0.0000000  -0.5773503   0.0000000), wk =   0.1875000
        k(    6) = (   0.0000000  -0.5773503  -0.1629909), wk =   0.1875000
        k(    7) = (   0.2500000   0.4330127   0.0000000), wk =   0.3750000
        k(    8) = (   0.2500000   0.4330127  -0.1629909), wk =   0.3750000

     Dense  grid:    27593 G-vectors     FFT dimensions: (  27,  27,  90)

     Estimated max dynamical RAM per process >     191.38 MB

     Estimated total dynamical RAM >       1.50 GB

     The potential is recalculated from file :
     out/mp-984.save/charge-density

     Starting wfcs are random

     Band Structure Calculation
     ParO style diagonalization

     ethr =  5.00E-06,  avg # of iterations =  5.6

     total cpu time spent up to now is     2047.8 secs

     End of band structure calculation

          k = 0.0000 0.0000 0.0000 (  3413 PWs)   bands (ev):

   -14.3901 -14.3041  -2.4315  -1.4654   1.8396   1.8396   1.8469   1.8469
     7.8588  11.7847  14.1997  14.7241  14.7241  14.7573  14.7573  15.8011
    17.1694  17.9293  21.0648  26.7670  28.4196  28.8636  32.1982  32.1982
    34.3227  34.3227  34.4724  34.8508  34.8508  36.1110  38.0960  38.0960
    38.1052  38.1052  38.9686  38.9686  40.4177  40.6209  41.3364  42.5837
    43.9543  45.6514  45.6514  45.7071  45.7071  48.3157  48.3157  51.1325
    51.1368  51.1368  53.1862  53.1862  53.6461  53.7907  57.2373  57.2373
    57.2608  57.8907  60.8349  63.2212  63.2212  64.8286  64.8286  67.3740
    68.0155  68.0155  70.1510  70.1510  70.6356  73.4941  76.8761  76.8761
    77.3891  77.3891  79.9703  80.8289  82.5303  82.8887  82.8983  82.8983
    83.0007  86.7444  87.1682  87.1682  87.2206  89.8496  89.8496  90.7913
    90.7913  92.9472  92.9472  93.2274  93.4756  95.9095  96.2200  96.2200
    96.4815  97.0759  97.0759  97.1877  97.1877  97.3724  97.3724  97.8661
    98.3812  99.9418  99.9418 100.9083 100.9083 100.9772 103.4585 103.4585
   103.8659 106.1770 106.1770 106.2401 107.0049 109.2691 110.9340 110.9340
   111.1884 111.1884 111.7922 113.2970 113.2970 113.4772 113.4772 113.9349
   114.2168 114.2168 114.3071 114.3101 114.3717 114.7254 114.7254 115.3128
   115.3128 115.6633 116.1209 117.2899 117.2899 118.0129 118.0129 119.4839
   120.2992 122.6930 123.8526 125.8619 126.5349 126.5349 126.6998 126.6998
   128.3338 128.3338 128.6919 128.6919 128.7248 128.8183 129.0498 129.0498
   129.4041 130.2217 130.2217 131.3256 131.3844 132.1392 132.1392 132.2714
   133.1837 133.1837 133.5528 133.5528 133.5705 135.5383 135.5383 135.8919
   137.4458 137.8740 138.4410 138.5865 138.5865 141.0147 141.0147 143.3118
   143.3118 143.8830 143.8830 144.1833 144.9057 145.9725 146.6167 146.9159
   146.9159 147.6799 147.6799 147.9518 147.9518 148.6648 148.6648 149.3834
   152.9942 153.1168 153.1168 153.3214 153.3214 153.6787 153.6787 153.8432
   153.9800 154.2712 154.2712 154.3902 154.4212 154.8520 154.8520 154.9967
   157.4636 159.9844 159.9844 160.0276 160.4613 160.4613 161.0394 161.3604
   161.3604 163.8850 166.4235 169.0056 169.0056 170.3062 170.8072 173.9406
   173.9406 176.1886 176.1886 177.2658 177.2658 178.3701 180.3335 180.3335
   180.7279 180.7279 181.6245 181.6250 181.7726 182.1441 183.0558 183.0558
   183.1795 183.1795 183.9763 183.9763 184.5923 185.6119 185.7431 185.7431
   186.7934 186.7934 187.2044 188.4185 188.4185 189.9629 189.9629 190.1309
   190.1309 190.1726 190.2126 190.2127 191.0433 191.0926 193.2038 193.2038
   197.6936 201.0411 201.0959 202.6215 202.6215 203.3221 203.3221 203.9002
   206.4247 206.5215 207.7657 208.4387 209.0544 209.0544 209.3797 210.2012
   210.2012 210.9700 210.9700 210.9760 211.0334 211.0334 211.3062 211.3062
   211.4095 211.4369 211.4369 211.4533 211.4533 211.7508 211.7508 212.3265
   212.3974 213.2667 213.2667 213.6411 213.6411 214.4482 214.6943 217.7511
   221.0880 221.0880 221.2306 221.3827 221.8997 222.1780 222.1780 222.6485
   222.8603 223.2352 223.2352 224.1696 224.1696 224.5593 225.0170 225.1425
   225.1613 225.1613 225.6281 225.6281 225.8064 226.4839 226.4839 227.8558
   227.8558 228.0933 228.0933 228.4053 228.4053 228.6152 228.6152 228.8527
   228.9391 228.9391 229.2743 229.7004 229.9356 229.9356 231.2943 231.2943
   231.5132 231.7224 231.8716 232.6612 232.6612 232.7656 232.7878 232.7878
   233.0689 234.0343 234.0343 234.1158 235.3333 236.2678 236.2678 237.0923
   237.0923 238.1363 238.1363 238.5521 238.5521 238.6076 239.0187 239.9043
   241.2648 241.2648 241.5676 241.5676 241.9221 241.9875 242.0624 242.0624
   242.0960 242.1616 242.1616 242.3846 243.1034 243.8155 243.9367 243.9367
   244.0124 244.0124 244.1500 244.1500 244.7829 244.7829 245.9045 246.7522
   247.5084 248.2173 248.2441 248.2441 249.6991 249.6991 251.0162 251.0162
   251.1747 251.1747 251.3306 252.2726 252.3107 252.3437 253.2438 253.2438
   253.6673 253.6673 254.7355 254.7355 255.6118 255.7234 255.7691 255.7691
   257.0532 257.0532 257.2845 258.1671 258.3337 258.3337 259.0070 259.0070
   259.2325 259.2325 259.5839 259.6056 259.9408 260.5232 263.4653 263.4653
   267.0675 267.0675 267.1961 267.1961 267.3742 267.5902 271.2266 271.9040
   272.2993 272.2993 272.5567 273.8198 273.8198 275.1454 275.1454 275.6260
   275.8542 275.8542 276.6972 276.9736 276.9736 277.1526 277.1526 277.9795
   278.0917 278.6232 279.9870 279.9870 280.1619 280.1619 280.4086 280.4086
   280.4648 280.4648 280.9751 281.2019 281.5375 281.5375 281.6309 281.6309
   281.8449 281.8449 281.9578 282.0960 282.2125 282.5391 282.5391 282.5754
   282.6461 282.6461 282.7448 282.9292 282.9292 283.5313 285.7626 286.2015
   287.4454 287.5893 287.5893 287.7073 287.7073 287.7829 288.9786 289.7655
   289.7655 289.8501 289.8501 289.8968 290.1868 290.1868 291.5402 291.5402
   292.1200 292.1200 293.6947 293.6947 293.7216 294.2636 294.2636 294.3116
   294.3116 295.4518 295.4699 295.4819 295.5188 299.0182 299.2804 299.5639
   299.5639 300.7712 301.4638 301.4638 301.8071 302.6241 302.6241 303.0081
   303.0081 303.1406 303.1914 303.3578 303.3578 303.6854 303.8552 303.8552
   304.2371 304.2371 304.7758 304.7758 305.3588 305.6320 305.6684 305.8812
   306.4839 306.4839 308.1327 308.1327 309.3298 309.3298 309.3414 309.3414
   309.8079 309.8122 309.9530 311.5041 316.6489 316.6489 318.9386 318.9386
   319.1292 320.1500 320.1500 320.2508 320.2729 320.2729 320.3305 320.3305
   320.5505 321.0630 322.3478 322.3478 324.6241 324.6902 324.6902 325.1666
   325.1666 326.4060 326.7247 327.0722 327.5854 329.0000 330.2233 330.2233
   330.7873 331.1254 331.1254 331.1867 331.1867 333.4686 333.4686 333.8849
   333.8849 334.5501 334.5501 334.6652 335.0628 336.3164 336.3164 336.6335
   337.1262 337.1262 337.3321 337.3321 338.2613 338.3693 338.3693 338.3754
   338.4055 339.6400 339.6400 339.9194 339.9194 341.0414 341.0414 341.4756
   341.5003 341.5003 342.2757 342.2757 342.3316 342.3609 342.3609 342.6153
   342.6780 343.0397 343.4811 343.5692 343.5738 343.5738 343.8328 343.8328
   343.9864 343.9864 344.2759 344.4741 344.4741 344.5241 345.5555 348.5806
   348.5806 351.7597 352.1461 352.1461 355.8574 356.8259 358.0524 358.0524
   359.8455 359.8455 360.0047 360.0832 360.8967 360.8967 363.8213 365.2120
   366.4558 368.6133 368.6133 368.7890 368.7890 368.8950 368.8950 369.5401
   369.5401 369.5427 369.5878 369.5878 369.6431 372.0393 372.0393 372.1313
   372.1313 372.9775 372.9775 373.2666 373.9859 374.1461 374.4984 375.2270
   375.2270 376.2733 376.2790 376.8425 376.9472 376.9472 376.9970 376.9970
   377.2635 377.2635 377.7001 377.7407 378.6204 379.6392 379.6392 379.9207
   379.9207 380.2482 380.2482 380.3352 380.3352 380.3423 380.4926 380.6244
   381.0422 381.0422 381.2531 382.3692 382.3692 382.3917 382.3917 382.4056
   382.9918 383.6001 384.5826 384.8320 384.8320 384.8357 384.8357 384.8367
   387.1415 387.1415 387.1764 387.1764 388.6160 388.6160 388.6251 388.7104
   388.7104 388.8326 388.8326 388.9024 390.6533 390.8025 391.5060 391.5060
   391.8333 391.9535 391.9535 392.1307 392.1307 392.1321 392.2449 392.2449
   392.2961 392.2961 393.4756 395.2032 395.2032 395.2985 395.2985 395.3931
   395.8381 395.8381 396.2919 396.5531 396.5865 396.5865 396.6890 397.0929
   397.5454 397.8004 397.8004 398.1060 398.1060 398.1524 398.1524 398.2696
   398.7566 398.7980 399.6752 399.6752 399.9913 400.0540 400.0540 400.7128
   401.5156 401.5183 401.5183 402.1126 402.2248 402.2341 402.2341 402.6569
   402.7646 402.7646 402.8968 402.8968 402.9053 402.9053 402.9854 409.4549
   411.4458 411.4458 412.0705 412.4229 412.4229 413.2625 413.2625 413.5994
   413.5994 413.7981 413.8885 413.8885 413.9302 414.1259 414.1259 414.1440
   414.3328 414.9115 415.0874 415.0874 415.1419 415.1419 415.1554 415.4314
   415.4314 415.5393 415.6534 415.7662 415.7662 415.8132 415.8132 416.7618
   416.7618 417.4835 417.7831 417.7831 417.8095 417.8095 418.1111 418.2906
   418.7558 418.7558 419.0828 419.0828 419.2597 419.2726 419.2726 419.3354
   419.4777 419.9429 420.6048 420.6048 420.9342 421.0152 421.1370 421.1827
   421.4075 421.4075 421.7240 421.7240 421.7488 421.8435 422.0363 422.0363
   422.5009 422.5009 423.1359 423.3237 423.3237 423.3902 423.3902 423.6055
   423.6802 425.0466 426.6294 426.6644 426.6644 426.7560 426.7664 426.7664
   426.9263 426.9263 427.2951 427.2951 427.4388 427.4388 428.4869 428.6757
   428.6757 428.9554 429.3370 429.3370 429.4568 429.4805 429.4805 430.4066
   430.5896 430.5905 430.5905 430.8620 430.8620 430.9676 430.9938 431.0692
   431.0692 431.1911 431.1911 431.2432 431.5830 432.2003 436.6447 436.6447
   436.6589 436.6589 437.5545 438.2051 438.2051 438.2185 438.2853 438.2853
   438.2999 438.2999 438.3090 439.5680 439.9714 439.9714 440.0395 440.0395
   440.3544 440.3544 440.4246 440.6541 441.9405 442.1764 442.1764 442.3727
   443.2994 445.9986 445.9986 446.2954 446.3453 446.3453 446.3855 446.3855
   446.5166 446.6821 447.5197 447.7509 447.8280 448.0078 448.0078 448.0611
   448.0611 448.4330 448.4330 448.5169 448.5169 448.5678 448.5722 448.6805
   450.0271 450.0271 450.5504 450.5504 451.8986 451.9036 451.9036 452.0428
   452.0428 452.9005 453.5097 453.5097 453.5929 453.5929 454.7119 454.8084
   455.3550 455.3550 455.3850 455.3850 456.2102 456.4490 461.1982 461.1982
   461.6979 461.6979 463.8313 464.1707 464.1708 464.6712 464.6712 465.0339
   465.0339 465.1628 465.2103 465.2103 465.2291 465.2378 465.2378 466.0686
   466.0686 466.1423 466.1423 466.6691 466.8596 466.8646 467.3003 467.3683
   467.6688 467.6688 468.1236 468.2173 468.2173 468.5751 468.5751 469.3860
   470.0043 470.1428 470.2421 470.3499 470.4006 470.4006 470.6761 470.6761
   470.8651 470.8651 471.0181 471.0181 471.0414 471.0414 471.1699 471.1699
   471.2362 471.3236 471.6451 471.7994 471.7994 471.8856 471.8856 472.1075
   472.1932 478.5470 479.0382 479.0382 481.8115 483.1209 483.1209 483.1790
   483.1790 483.3552 483.3552 483.5937 483.5937 483.6119 483.8706 483.9816
   484.3131 484.6006 484.6006 484.8018 485.0056 485.0056 485.0596 485.0596
   485.4930 485.4930 485.9325 486.1391 486.1391 487.4387 487.4387 487.9500
   487.9718 487.9718 488.3345 489.0717 489.5738 492.4152 492.8039 493.8911
   495.2466 495.2466 495.4282 495.4282 495.7735 495.7735 495.9453 495.9453
   495.9567 497.1384 497.3393 497.3587 497.3587 497.5397 497.5480 497.7677
   497.8791 497.8791 498.0013 498.0013 498.4361 498.4361 498.4581 498.5012
   498.5623 498.5623 498.5769 498.5769 498.8436 498.8436 498.8458 498.8458
   499.0087 499.0465 499.9546 505.3665 506.7882 509.7119 509.7425 509.7425
   509.7493 509.7493 510.2663 511.1550 512.1890 512.2634 512.2634 512.2834
   512.2834 512.3908 512.7222 512.7222 512.9587 512.9587 513.3817 513.3817
   513.4178 514.3378 515.7242 515.7242 515.8553 515.8553 516.1949 516.2676
   516.2676 516.5835 516.5906 516.5906 517.3694 517.3694 517.7599 517.8528
   519.0230 519.0230 519.0715 519.0715 519.3453 519.9836 519.9836 520.1415
   520.1415 520.2894 520.3665 521.7519 523.1140 523.3049 523.3049 523.5591
   523.6162 523.6162 523.8033 523.8033 523.8651 523.8651 523.9886 524.1484
   524.1484 524.9152 524.9442 524.9442 525.0159 525.0159 525.1329 525.1329
   525.1653 525.3165 525.3165 525.3348 525.4059 525.4059 525.4286 525.4389
   525.9042 527.5039 527.5105 527.5105 528.5064 528.5064 528.9525 528.9525
   529.1153 529.1428 529.1428 529.1995 529.3685 529.3685 529.8913 530.3181
   530.8363 530.8539 531.0699 531.0699 531.2125 531.2125 531.2827 531.2827
   531.6488 531.6488 531.6844 531.6844 531.6980 531.6980 531.7589 531.7589
   531.8884 531.8974 531.9994 532.0470 532.5890 535.9792 536.0111 536.1793
   536.1793 536.2808 536.2808 536.3194 536.3194 536.7749 536.7917 536.7917
   537.3322 540.4411 540.4411 541.9488 542.1006 542.1006 542.4305 542.4549
   542.4549 542.4726 542.4726 542.7275 543.0874 544.3014 547.1567 547.1567
   547.3804 547.3804 547.4063 547.9981 548.4013 548.4013 548.5207 548.5207
   549.3002 558.2403 558.2403 558.9413 561.3877 561.5401 561.5401 561.6230
   564.2712 564.2831 564.2831 564.5442 564.5442 564.7503 564.7503 564.9627
   565.1060 565.2340 566.2012 566.2012 566.4133 566.4133 566.8021 566.8021
   566.8636 567.2144 567.4376 568.2285 568.3871 568.6062 568.6062 568.9905
   568.9905 569.5005 569.5005 569.6229 569.6229 569.7998 569.8549 571.7481
   572.3055 572.3055 572.4770 572.4770 572.7473 576.0164 576.0472 576.0472
   576.1848 576.2357 576.2357 576.7552 576.7552 576.7698 576.7698 577.2786
   577.2786 577.4177 577.5187 577.5347 577.5347 577.6745 577.6745 577.7601
   578.4704 578.5927 578.6825 578.6825 578.7018 578.7018 578.8600 578.8979
   578.8979 579.4056 579.4420 579.4420 579.4763 579.7623 579.7623 580.9981
   581.0715 581.5279 581.5279 581.6147 581.6147 582.2464 582.3383 582.8144
   583.6483 584.6871 584.7358 584.7924 584.7924 584.8400 584.8400 585.0046
   585.0046 585.0151 585.1201 585.2261 585.2261 585.2742 585.2742 585.4315
   585.4315 585.9459 586.5193 586.5193 586.5456 586.5456 586.6285 586.6285
   587.0996 587.3767 587.4678 588.2177 588.2177 589.8923 589.8923 590.1594
   590.2087 590.2087 590.2623 590.5206 590.8444 592.2122 592.3035 592.5471
   592.5471 592.5595 592.5595 592.6226 592.6226 593.0535 593.0570 593.0570
   593.2220 593.4129 593.4129 593.4179 593.4179 596.4599 597.1465 597.1465
   597.1893 597.1893 597.5227 602.2424 603.0388 603.0388 603.0497 603.0497
   603.0565 604.7719 604.8987 604.9327 604.9327 605.0051 605.0051 606.1375
   606.1375 606.2333 606.4568 606.5082 606.5082 606.5252 606.5252 606.5342
   608.8623 608.8623 609.3288 609.3289 609.3850 609.3850 609.5731 609.5971
   609.7409 609.7409 609.7739 609.8329 609.8329 609.8827 610.1137 610.1137
   610.2625 610.5513 610.5533 610.5533 610.7391 611.4505 611.5041 611.6580
   611.6580 611.9044 611.9044 611.9981 611.9981 612.2740 612.2740 612.2785
   612.3475 612.5907 612.6006 612.6006 612.6625 612.6625 612.8283 612.8992
   615.2970 615.3277 615.3277 615.6565 615.6565 616.3877 616.5410 616.5410
   616.8471 616.8471 617.4100 617.9989 617.9989 618.8195 618.8195 619.0671
   619.1304 619.2828 619.3334 619.3334 619.3882 619.3882 619.4184 619.9520
   619.9520 622.0371 622.0371 622.0780 622.1754 622.1798 622.4796 622.4796
   622.6405 622.6405 622.7229 624.1979 624.1979 624.3624 625.4002 625.4002
   625.5772 625.6833 625.6833 625.8023 625.8023 625.8293 625.8630 625.8630
   625.9234 625.9267 626.9000 626.9000 626.9222 626.9222 626.9569 626.9928
   626.9928 627.0328 627.1656 633.4814 633.4814 634.6271 634.6271 635.0226
   635.2950 635.6509 635.6509 635.6515 635.6543 635.6543 635.8402 636.0393
   636.0393 636.0963 638.6890 638.7287 638.7287 638.7787 638.7787 639.1426
   639.2990 639.2990 639.3938 639.3938 639.3991 639.6104 639.6104 639.6462
   639.6512 639.6512 639.6733 639.7254 639.8123 640.0885 640.6917 640.6917
   640.9892 640.9892 642.0523 642.1311 642.1908 642.1908 642.4578 642.9429
   643.1726 643.1731 643.1731 643.2936 643.2936 643.4253 643.4253 643.5311
   643.5321 643.9199 643.9199 644.3219 644.3219 644.4165 644.4165 644.5628
   644.6313 644.6313 644.6622 644.7270 644.7270 645.5661 645.5661 645.6501
   645.6501 646.0376 646.0865 646.1273 646.6710 651.5315 652.1389 652.1804
   652.1804 652.2608 652.2608 652.4672 652.5212 652.5212 652.5846 652.5846
   652.6002 652.6100 654.6218 654.6218 654.6856 655.2433 656.3916 656.3916
   656.6018 656.6018 656.8153 656.8153 656.8997 656.8997 657.0181 657.1449
   657.1449 657.2509 657.3296 657.3296 657.5883 657.9993 658.0337 658.0447
   658.0447 658.1064 658.1064 658.2731 658.2731 658.2739 658.6045 659.1541
   659.1541 659.2163 659.2163 659.5834 659.6080 660.0467 660.0467 660.1157
   660.1157 660.2721 660.3508 660.6786 660.6786 660.7609 660.7609 660.9346
   661.0196 661.6028 661.9123 661.9123 662.0107 662.0107 662.0635 662.1427
   662.1427 662.4665 662.4665 662.4876 662.4989 663.2986 663.5942 663.8621
   663.8621 664.0386 664.0556 664.0556 664.0869 664.0869 664.0977 664.0977
   664.2133 664.3631 665.1061 667.9588 668.0257 668.0257 668.1131 668.1405
   668.1405 669.3715 669.3967 669.3967 669.4457 669.4457 669.4697 669.8371

          k = 0.0000 0.0000-0.1630 (  3426 PWs)   bands (ev):

   -14.3475 -14.3475  -1.9846  -1.9846   1.8432   1.8432   1.8432   1.8432
     9.4551   9.4551  14.7406  14.7406  14.7406  14.7406  15.3271  15.3271
    17.4625  17.4625  23.7227  23.7227  28.7069  28.7069  32.9856  32.9856
    32.9856  32.9856  35.4570  35.4570  35.7922  35.7922  35.7922  35.7922
    40.7627  40.7627  40.8933  40.8933  40.8933  40.8933  41.6226  41.6226
    42.8640  42.8640  42.8640  42.8640  47.9265  47.9265  51.8000  51.8000
    51.8000  51.8000  52.3762  52.3762  55.2337  55.2337  55.2337  55.2337
    57.2436  57.2436  61.2462  61.2462  61.2462  61.2462  68.0213  68.0213
    70.5417  70.5417  73.4850  73.4850  73.4850  73.4850  76.3061  76.3062
    77.6029  77.6029  77.6029  77.6029  79.2191  79.2191  79.2191  79.2191
    82.9440  82.9440  88.2004  88.2004  90.7621  90.7621  92.0179  92.0179
    92.0179  92.0179  93.3696  93.3696  95.8721  95.8721  95.8721  95.8721
    98.1582  98.1582  98.1582  98.1582  98.9261  98.9261 100.4224 100.4224
   102.2056 102.2056 102.2056 102.2056 103.1220 103.1220 103.1220 103.1220
   103.4592 103.4592 104.1807 104.1807 104.1807 104.1807 107.1419 107.1419
   107.1419 107.1419 107.6807 107.6807 109.4814 109.4814 111.1847 111.1847
   111.1847 111.1847 114.5843 114.5843 116.2799 116.2799 118.2274 118.2274
   118.6353 118.6353 118.6353 118.6353 120.9938 120.9938 120.9938 120.9938
   122.0540 122.0540 125.6755 125.6755 128.6001 128.6001 128.6001 128.6001
   129.7985 129.7985 129.8728 129.8728 129.8728 129.8728 129.9882 129.9882
   129.9882 129.9882 130.9906 130.9906 131.4546 131.4546 132.0056 132.0056
   132.0056 132.0056 136.4063 136.4063 136.4063 136.4063 136.6801 136.6801
   136.6801 136.6801 137.0796 137.0796 138.6362 138.6362 140.3921 140.3921
   141.2607 141.2607 141.2607 141.2607 141.4010 141.4010 141.4010 141.4010
   141.9821 141.9821 142.8306 142.8306 148.8071 148.8071 148.8071 148.8071
   151.3487 151.3487 151.3487 151.3487 153.1126 153.1126 154.6129 154.6129
   156.7502 156.7502 160.3319 160.3319 160.3319 160.3319 160.8485 160.8485
   163.8016 163.8016 163.8016 163.8016 166.6045 166.6045 166.6045 166.6045
   167.1294 167.1294 167.9225 167.9225 167.9225 167.9225 171.0464 171.0464
   171.0464 171.0464 171.5912 171.5912 171.5912 171.5912 171.6391 171.6391
   173.2759 173.2759 173.8590 173.8590 176.4772 176.4772 179.5352 179.5352
   179.5352 179.5352 187.2369 187.2369 187.2369 187.2369 188.8963 188.8963
   191.8157 191.8157 195.3854 195.3854 195.3854 195.3854 196.2936 196.2936
   196.2936 196.2936 196.7450 196.7450 196.7450 196.7450 197.3657 197.3657
   197.4535 197.4535 197.4535 197.4535 197.4886 197.4886 198.3952 198.3952
   201.1029 201.1029 204.3397 204.3397 204.3397 204.3397 206.1614 206.1614
   206.1614 206.1614 210.2152 210.2152 210.8275 210.8275 210.8275 210.8275
   211.3576 211.3576 211.3576 211.3576 211.6761 211.6761 212.4740 212.4740
   216.4106 216.4106 217.7671 217.7671 220.8050 220.8050 221.4219 221.4219
   221.4219 221.4219 222.6379 222.6379 222.6380 222.6380 223.6851 223.6852
   224.5730 224.5730 224.5730 224.5730 224.6500 224.6500 225.8788 225.8788
   225.8788 225.8788 226.6073 226.6073 226.6073 226.6073 226.9006 226.9006
   226.9665 226.9665 227.1004 227.1004 227.1004 227.1004 227.5719 227.5719
   228.0793 228.0793 228.0793 228.0793 230.1596 230.1596 231.5033 231.5033
   231.5033 231.5033 231.5684 231.5684 231.5684 231.5684 232.1772 232.1772
   232.1772 232.1772 232.2848 232.2848 232.5897 232.5897 232.9925 232.9925
   233.8119 233.8119 233.8119 233.8119 235.3300 235.3300 235.3300 235.3300
   235.6369 235.6369 236.7532 236.7532 242.4207 242.4207 242.4207 242.4207
   244.4032 244.4032 244.8265 244.8266 244.8266 244.8266 246.5196 246.5196
   247.0656 247.0656 247.0656 247.0656 247.3305 247.3305 248.9593 248.9593
   249.7857 249.7857 249.7857 249.7857 250.1922 250.1922 251.2500 251.2501
   251.2501 251.2501 254.6973 254.6973 255.3513 255.3513 255.3513 255.3513
   256.2314 256.2314 256.2314 256.2314 259.7797 259.7797 261.2782 261.2782
   261.2782 261.2782 261.3459 261.3459 262.4228 262.4228 262.4228 262.4228
   263.6088 263.6088 263.6088 263.6088 264.9388 264.9388 265.5348 265.5348
   265.5348 265.5348 266.1853 266.1853 266.3439 266.3439 267.0727 267.0727
   267.0727 267.0727 268.7168 268.7168 268.7168 268.7168 268.9914 268.9914
   269.7539 269.7539 269.7539 269.7539 269.9023 269.9023 270.1907 270.1907
   270.6314 270.6314 270.6314 270.6314 272.5325 272.5325 272.5325 272.5325
   273.0532 273.0532 273.5318 273.5318 277.6654 277.6654 284.1514 284.1514
   286.5692 286.5692 286.5692 286.5692 287.3977 287.3977 287.3977 287.3977
   287.5113 287.5113 288.3400 288.3400 288.6631 288.6631 288.6631 288.6631
   290.3332 290.3332 290.3332 290.3332 291.1945 291.1945 292.8791 292.8791
   292.8791 292.8791 293.1379 293.1379 294.8988 294.8988 294.8988 294.8988
   295.2874 295.2874 296.0053 296.0053 296.0771 296.0771 296.0771 296.0771
   296.9404 296.9404 296.9404 296.9404 297.1312 297.1312 298.1220 298.1220
   298.1220 298.1220 299.6518 299.6518 302.7630 302.7630 302.9936 302.9936
   302.9936 302.9936 303.8953 303.8953 305.1949 305.1949 305.1949 305.1949
   305.4350 305.4350 306.7628 306.7628 306.7628 306.7628 309.1063 309.1063
   309.1063 309.1063 310.9773 310.9773 310.9773 310.9773 310.9838 310.9838
   311.5359 311.5359 312.5495 312.5495 314.3798 314.3798 314.3798 314.3798
   317.5820 317.5820 317.5820 317.5820 317.7990 317.7991 317.7991 317.7991
   318.3933 318.3933 318.8436 318.8436 319.6885 319.6885 319.6885 319.6885
   321.4033 321.4033 322.4610 322.4610 322.4611 322.4611 324.5955 324.5955
   324.9869 324.9869 324.9869 324.9869 325.5999 325.5999 327.1952 327.1952
   330.0632 330.0632 330.0632 330.0632 330.8628 330.8628 330.9448 330.9448
   330.9448 330.9448 332.2280 332.2280 339.7629 339.7629 341.7233 341.7233
   341.7233 341.7233 345.2487 345.2487 345.2487 345.2487 348.5369 348.5369
   348.5369 348.5369 348.8070 348.8070 351.8213 351.8213 353.1717 353.1717
   353.1717 353.1717 353.3276 353.3276 353.8976 353.8976 355.7015 355.7015
   355.7015 355.7015 356.1696 356.1696 356.1696 356.1696 356.6201 356.6201
   357.6306 357.6306 357.9055 357.9055 357.9055 357.9055 359.1938 359.1938
   359.1938 359.1938 359.5861 359.5861 359.6809 359.6809 360.1033 360.1033
   360.1033 360.1033 360.7626 360.7626 360.7626 360.7626 360.7998 360.7998
   361.1158 361.1158 361.1158 361.1158 361.4508 361.4508 362.4623 362.4623
   362.5546 362.5546 362.5546 362.5546 365.0146 365.0146 365.0146 365.0146
   368.1874 368.1874 368.1874 368.1874 369.4447 369.4447 369.5787 369.5787
   372.6578 372.6578 372.6578 372.6578 381.0534 381.0534 382.7790 382.7790
   382.7790 382.7790 383.1415 383.1415 383.1415 383.1415 383.2376 383.2376
   383.5813 383.5813 383.5813 383.5813 384.2862 384.2862 385.3031 385.3031
   385.4180 385.4180 385.4180 385.4180 387.1253 387.1253 387.3076 387.3076
   389.7196 389.7196 389.7196 389.7196 391.3144 391.3144 391.6035 391.6035
   391.6727 391.6727 391.6727 391.6727 392.3783 392.3783 392.3783 392.3783
   393.0216 393.0216 393.0216 393.0216 394.1890 394.1890 395.1389 395.1389
   395.1389 395.1389 396.0541 396.0541 397.3809 397.3809 397.9724 397.9724
   397.9724 397.9724 398.6768 398.6768 399.6062 399.6062 399.9332 399.9332
   399.9332 399.9332 400.0289 400.0289 400.0959 400.0959 400.0959 400.0959
   400.6110 400.6110 400.6595 400.6595 400.6595 400.6595 400.9622 400.9622
   400.9622 400.9622 401.2446 401.2446 401.3323 401.3323 401.3323 401.3323
   401.5747 401.5747 405.1283 405.1283 405.1283 405.1283 406.1304 406.1304
   406.1304 406.1304 406.2305 406.2305 407.1818 407.1818 410.7893 410.7893
   413.7912 413.7912 414.0685 414.0685 414.0685 414.0685 414.5085 414.5085
   414.6710 414.6710 414.6710 414.6710 415.7639 415.7639 416.0410 416.0410
   416.1326 416.1326 416.1326 416.1326 416.5168 416.5168 416.5168 416.5168
   416.6552 416.6552 417.2819 417.2819 417.2819 417.2819 419.6466 419.6466
   419.6466 419.6466 420.6902 420.6902 420.6902 420.6902 421.0928 421.0928
   421.7182 421.7182 421.7182 421.7182 421.8224 421.8224 422.3388 422.3388
   422.3388 422.3388 422.6182 422.6182 422.6182 422.6182 422.9875 422.9875
   423.0256 423.0256 423.1742 423.1742 423.1742 423.1742 423.7251 423.7251
   423.8134 423.8134 423.8134 423.8134 424.1048 424.1048 424.1048 424.1048
   424.2996 424.2996 424.2996 424.2996 424.4977 424.4977 424.8495 424.8495
   425.0799 425.0799 426.7703 426.7703 426.7703 426.7703 427.2779 427.2779
   427.2779 427.2779 427.3804 427.3804 427.6998 427.6998 433.6585 433.6585
   433.6585 433.6585 436.3916 436.3916 436.7859 436.7859 436.7859 436.7859
   437.9112 437.9112 438.4640 438.4640 438.6120 438.6120 438.6120 438.6120
   438.7544 438.7544 438.9844 438.9844 438.9844 438.9844 439.2316 439.2316
   439.5175 439.5175 439.5175 439.5175 441.4454 441.4454 441.4454 441.4454
   442.7960 442.7960 444.9489 444.9489 445.2478 445.2478 445.2478 445.2478
   446.5447 446.5447 446.5447 446.5447 446.8201 446.8201 450.3750 450.3750
   450.3750 450.3750 450.6842 450.6842 451.4088 451.4088 451.4088 451.4088
   451.4478 451.4478 452.4386 452.4386 452.9229 452.9229 453.9378 453.9378
   453.9378 453.9378 454.9627 454.9627 454.9627 454.9627 455.4879 455.4879
   455.4879 455.4879 455.7343 455.7343 455.9242 455.9242 455.9242 455.9242
   456.1753 456.1753 458.2658 458.2658 458.3872 458.3872 458.5357 458.5357
   458.5357 458.5357 459.0826 459.0826 459.0826 459.0826 459.3058 459.3058
   460.8597 460.8597 460.8597 460.8597 461.6335 461.6335 461.7284 461.7284
   461.7284 461.7284 462.4502 462.4502 474.1673 474.1673 476.2547 476.2547
   476.2547 476.2547 478.1550 478.1550 479.7593 479.7593 479.7594 479.7594
   479.9377 479.9377 480.6385 480.6385 480.6385 480.6385 480.9028 480.9028
   481.6488 481.6488 481.6488 481.6488 481.8388 481.8388 481.8438 481.8438
   481.8438 481.8438 482.2196 482.2196 483.5477 483.5477 483.7848 483.7848
   483.7848 483.7848 484.2915 484.2915 484.2915 484.2915 484.5036 484.5036
   484.5216 484.5216 484.5216 484.5216 485.2465 485.2465 485.2465 485.2465
   485.7689 485.7689 486.4816 486.4816 486.4816 486.4816 487.5672 487.5672
   487.5672 487.5672 488.1770 488.1771 488.9107 488.9107 488.9107 488.9107
   488.9953 488.9953 489.6591 489.6591 490.2465 490.2465 490.2465 490.2465
   491.9881 491.9881 491.9881 491.9881 493.2381 493.2381 494.0698 494.0698
   496.0608 496.0608 496.7813 496.7813 496.7813 496.7813 497.7108 497.7108
   497.7108 497.7108 498.0191 498.0191 505.2131 505.2131 505.2132 505.2132
   505.5663 505.5664 506.9108 506.9108 506.9108 506.9108 507.1931 507.1931
   509.5821 509.5821 509.7936 509.7936 509.7936 509.7936 510.3005 510.3005
   510.3005 510.3005 510.4800 510.4800 510.9764 510.9764 510.9764 510.9764
   511.7958 511.7958 512.0371 512.0371 512.0371 512.0371 512.7086 512.7086
   513.6265 513.6265 513.6720 513.6720 514.0021 514.0021 514.0021 514.0021
   514.5983 514.5983 514.5983 514.5983 514.8231 514.8231 515.2079 515.2079
   515.2079 515.2079 516.1053 516.1053 516.1053 516.1053 516.1371 516.1371
   516.4465 516.4465 516.4465 516.4465 516.4502 516.4502 516.6160 516.6160
   516.6160 516.6160 517.3678 517.3678 519.2569 519.2569 519.2569 519.2569
   519.3761 519.3761 519.3761 519.3761 519.5469 519.5469 519.9200 519.9200
   523.9144 523.9144 532.0374 532.0374 532.0374 532.0374 532.9701 532.9701
   532.9701 532.9701 532.9797 532.9797 533.5107 533.5107 538.0887 538.0887
   541.3882 541.3882 541.3882 541.3882 543.6669 543.6669 545.4254 545.4254
   545.4254 545.4254 545.9078 545.9078 545.9078 545.9078 547.4974 547.4974
   547.5503 547.5503 548.1552 548.1552 548.1552 548.1552 548.2398 548.2398
   548.4962 548.4962 548.4962 548.4962 549.1242 549.1242 549.5384 549.5384
   549.5384 549.5384 549.9956 549.9956 549.9956 549.9956 550.0424 550.0424
   550.0424 550.0424 550.1976 550.1976 550.3853 550.3853 550.6184 550.6184
   551.8705 551.8705 551.8705 551.8705 552.3224 552.3224 552.3224 552.3224
   552.4551 552.4551 552.8686 552.8686 553.3140 553.3140 553.3140 553.3140
   553.4502 553.4502 554.2151 554.2151 554.2151 554.2151 554.5913 554.5913
   554.7350 554.7350 554.7350 554.7350 554.8453 554.8454 555.9331 555.9331
   555.9331 555.9331 556.2951 556.2951 556.2951 556.2951 556.8379 556.8379
   557.9202 557.9202 558.5968 558.5968 558.5968 558.5968 559.1793 559.1793
   559.1793 559.1793 559.2267 559.2267 559.9515 559.9515 559.9515 559.9515
   560.0100 560.0100 569.5237 569.5237 569.5237 569.5237 576.7341 576.7341
   576.7341 576.7341 577.2552 577.2552 577.4714 577.4714 578.2559 578.2559
   578.2559 578.2559 578.2744 578.2744 578.6245 578.6245 578.6996 578.6996
   578.6996 578.6996 580.4150 580.4150 580.8272 580.8272 580.8272 580.8272
   581.9499 581.9499 581.9499 581.9499 582.3724 582.3725 586.0618 586.0618
   586.2156 586.2156 586.2156 586.2156 586.9280 586.9280 586.9280 586.9280
   587.8836 587.8836 587.8836 587.8836 588.0083 588.0083 589.3303 589.3303
   589.8432 589.8432 589.8432 589.8432 590.1958 590.1958 590.1958 590.1958
   590.2281 590.2281 590.5026 590.5026 590.5026 590.5026 590.7198 590.7198
   590.8284 590.8284 598.7402 598.7402 600.6956 600.6956 600.8915 600.8915
   600.8915 600.8915 602.1075 602.1075 602.1075 602.1075 602.2605 602.2605
   603.5057 603.5057 603.8245 603.8245 603.8245 603.8245 603.8743 603.8743
   603.8743 603.8743 603.8860 603.8860 605.3034 605.3034 606.5408 606.5408
   606.5408 606.5408 607.2164 607.2164 607.3958 607.3958 607.3958 607.3958
   607.5403 607.5403 607.5403 607.5403 607.5733 607.5733 607.6654 607.6654
   607.6654 607.6654 608.3287 608.3287 608.4136 608.4136 608.4136 608.4136
   608.6224 608.6224 608.8112 608.8112 608.8112 608.8112 609.3962 609.3962
   609.8721 609.8721 611.5027 611.5027 611.5027 611.5027 613.0612 613.0612
   613.0612 613.0612 613.1983 613.1983 613.1983 613.1983 613.3489 613.3489
   613.3514 613.3514 613.3716 613.3716 613.3716 613.3716 613.4310 613.4310
   613.4310 613.4310 613.4939 613.4939 613.5777 613.5777 613.5777 613.5777
   613.6758 613.6758 613.6891 613.6891 615.7356 615.7356 615.7356 615.7356
   616.0631 616.0631 616.0745 616.0745 616.0745 616.0745 616.2116 616.2116
   617.6659 617.6659 619.6473 619.6473 619.6473 619.6473 622.0378 622.0378
   622.0378 622.0378 623.0910 623.0910 624.0868 624.0868 625.2540 625.2540
   625.2540 625.2540 626.4983 626.4983 626.5755 626.5755 626.5755 626.5755
   626.6333 626.6333 629.0080 629.0080 629.0080 629.0080 630.1448 630.1448
   630.2429 630.2429 630.2429 630.2429 630.3205 630.3205 631.5203 631.5203
   631.5666 631.5666 631.5666 631.5666 632.1342 632.1342 632.1342 632.1342
   632.8499 632.8499 632.8499 632.8499 633.3938 633.3938 635.0465 635.0465
   635.3972 635.3972 635.3972 635.3972 635.5513 635.5513 635.7524 635.7524
   635.7524 635.7524 636.0452 636.0452 636.0452 636.0452 636.2657 636.2657
   638.2208 638.2208 638.2208 638.2208 643.2921 643.2921 643.4222 643.4222
   643.4222 643.4222 644.0455 644.0455 644.4788 644.4788 644.4788 644.4788
   644.6426 644.6426 644.8594 644.8594 644.8594 644.8594 645.6205 645.6205
   645.9564 645.9564 645.9564 645.9564 646.1606 646.1606 646.2933 646.2933
   646.2933 646.2933 646.8457 646.8457 649.4216 649.4216 649.6511 649.6511
   649.6511 649.6511 649.6929 649.6929 650.2127 650.2127 650.2127 650.2127
   650.4524 650.4524 651.4683 651.4683 651.4683 651.4683 651.9619 651.9619
   652.0910 652.0910 652.0910 652.0910 652.5956 652.5956 652.7251 652.7251
   652.7251 652.7251 652.9522 652.9522 652.9522 652.9522 652.9698 652.9698
   653.2734 653.2734 653.2734 653.2734 653.3401 653.3401 653.4832 653.4832
   653.4832 653.4832 653.9076 653.9076 667.7766 667.7766 668.4205 668.4205
   668.4205 668.4205 668.4810 668.4810 668.4810 668.4810 668.5510 668.5510
   669.8947 669.8947 670.0003 670.0003 670.0003 670.0003 670.0583 670.0583
   670.1265 670.1265 670.1265 670.1265 670.1774 670.1774 670.4357 670.4357
   670.4357 670.4357 671.4441 671.4441 671.4441 671.4441 671.4584 671.4584
   671.6892 671.6892 672.3427 672.3427 672.3427 672.3427 673.4783 673.4783
   673.4783 673.4783 673.7164 673.7164 673.9133 673.9133 674.2288 674.2288

          k = 0.0000 0.2887 0.0000 (  3422 PWs)   bands (ev):

   -13.2427 -13.1711  -1.8826  -1.8734  -0.8369   0.0236   0.2245   0.2367
     9.7428  11.4428  12.4547  13.6712  14.3346  16.1433  17.2348  19.1346
    19.1734  20.1262  22.4653  23.3515  25.4241  27.0795  27.4883  30.0396
    31.0271  31.4157  31.8798  32.6322  32.8920  35.0038  37.8045  38.1944
    38.3471  39.7987  40.3522  42.2417  42.5076  44.6797  45.6194  46.1071
    46.3011  47.2454  47.7781  48.3999  49.2020  50.5344  51.2111  51.2674
    51.3023  53.4136  54.3228  56.7629  58.1455  58.1496  58.5596  59.0559
    59.3324  59.6261  60.4160  60.4430  62.9243  66.2048  67.2822  68.2192
    68.3404  69.2083  69.7267  71.1807  71.8688  74.7589  75.2054  75.2527
    76.2274  76.7691  77.1402  78.2808  78.4127  78.8672  79.4656  79.6742
    81.5653  81.6391  82.0444  82.7652  82.9088  84.8012  86.5006  86.6480
    86.7478  87.4023  87.4312  88.3992  89.5530  91.3450  92.3546  92.5905
    93.2855  94.0660  96.2262  97.3029  97.3987  98.2305  98.6770  99.0349
    99.2920  99.8105 100.4322 100.7593 100.8267 101.1925 102.7119 102.7428
   103.1739 104.8646 104.9965 105.8919 106.0614 106.0762 107.7003 107.7974
   107.8918 109.6424 110.4966 110.6473 111.4093 112.0592 112.6056 112.7332
   112.9058 113.2167 114.8042 115.6055 115.7930 116.3744 116.4189 116.7675
   117.5059 118.5973 118.9258 119.1305 120.3878 121.0439 121.4928 122.4838
   123.0628 123.0687 124.1183 124.4733 124.8898 125.3841 125.4954 126.9482
   127.3654 127.3834 128.1248 128.4987 129.1155 129.2863 129.3761 129.8430
   131.1301 131.3815 131.5873 131.6990 132.0488 132.1456 132.2713 133.5584
   133.9583 134.2161 136.1649 136.2427 138.0316 138.6378 138.8209 138.8805
   140.7922 140.7929 141.4295 142.2666 143.2885 144.1601 144.3252 144.9922
   146.1066 146.5871 146.6267 146.9403 148.8168 149.6224 150.0727 150.1499
   150.1972 150.6821 151.4284 152.1792 153.1153 153.2626 153.2744 153.8992
   154.4030 154.4226 155.4718 156.1392 156.3543 157.0647 157.2277 157.7664
   157.9459 158.6058 159.7206 159.7829 160.8998 160.9749 161.4626 161.5881
   162.2012 162.6326 162.6969 162.9183 162.9339 164.8031 165.5637 165.6528
   167.0038 168.5101 168.7737 169.6587 169.7192 170.8260 171.0384 172.7838
   172.8165 173.6767 174.3950 175.1178 176.4353 177.0328 177.5194 178.2108
   178.5107 178.8340 179.1006 179.3469 179.8432 179.9303 180.3694 181.0309
   181.4787 181.5749 181.8840 182.2154 182.2951 183.2438 184.5464 184.9646
   186.3328 186.7280 186.7702 187.4535 188.5952 188.5971 190.0591 190.5431
   190.7716 191.1901 191.5476 192.6294 193.1180 193.9829 194.1359 195.1598
   195.6276 195.9264 196.1022 196.2593 196.7877 196.8088 197.0664 197.4591
   197.4617 198.0928 198.3571 198.5401 198.5964 199.4210 199.6685 200.2525
   200.4742 200.8720 201.0415 201.2037 201.4418 202.1045 202.7146 202.9015
   203.1135 204.4644 205.8816 206.1850 206.4574 207.7937 207.8273 207.9218
   209.5592 209.8157 209.9184 210.1596 211.3728 211.8608 212.1799 213.5415
   214.5122 214.8160 215.4172 215.5699 216.2303 216.9024 216.9167 217.4422
   217.4782 217.6084 217.8099 218.8967 219.2033 219.2629 219.6792 221.3265
   221.4432 221.8011 222.1121 222.3224 223.1201 223.7893 224.3864 224.9168
   226.1124 226.2921 226.7061 226.8847 227.8012 227.8113 228.1942 228.4918
   228.6946 228.7525 229.2027 229.5462 229.7862 230.4242 230.6922 230.9655
   232.0866 232.3231 232.6267 232.6961 232.9692 233.1443 234.7630 235.0560
   235.0567 235.0858 235.4481 236.2901 236.3922 237.0759 237.9084 238.1180
   238.3942 238.4284 238.5434 239.8600 240.4516 240.9282 241.1498 241.1882
   241.3230 241.4120 241.5436 241.8890 241.9743 242.1662 243.1842 244.4144
   244.4312 245.0753 246.3280 246.4245 247.7440 247.8989 248.5969 248.9786
   249.0747 249.1311 249.2134 249.2385 249.5354 249.6387 249.9184 250.1884
   250.2535 250.4211 250.7029 250.8490 251.2754 251.3146 251.8698 251.9175
   252.8271 253.4304 254.6935 256.4879 256.8650 256.9775 257.0891 257.5279
   257.7223 259.1015 259.3721 260.1960 260.2026 261.8919 261.9811 262.2929
   263.6834 264.2087 264.2638 264.4850 264.7168 265.1127 265.1954 266.0042
   266.0452 266.2272 266.2452 266.4423 266.7547 266.8265 267.0304 267.8200
   267.8222 268.1550 268.3930 269.0622 269.3024 269.7751 269.9995 270.0952
   270.1271 270.4793 270.6212 270.6663 271.6054 272.0461 272.0510 272.1959
   272.2185 272.5061 272.6402 272.6808 272.7848 272.9436 273.2143 273.2987
   273.3270 273.4902 273.9117 274.5343 274.7827 276.2250 276.8921 276.9708
   276.9827 277.1874 277.2645 277.4999 277.5394 278.5637 278.9730 279.1869
   280.5250 281.3931 281.7267 281.9469 282.4229 282.6371 282.6613 285.0358
   285.8730 286.1740 287.0534 288.1237 288.2128 288.4095 288.6491 288.9722
   289.2067 289.4351 289.9151 290.1837 290.8726 291.0645 291.1662 291.3595
   294.1527 294.1538 294.5581 294.7578 295.1935 295.5139 296.1896 296.3803
   297.0787 297.3552 297.3780 297.6171 297.9804 298.8305 299.1428 299.2637
   299.8242 299.8447 299.8792 299.9720 300.4328 300.8794 301.0525 301.2021
   301.5205 301.8387 301.8524 301.9163 301.9561 302.5146 305.0426 305.6170
   306.9646 307.9959 308.8253 309.2110 309.2137 309.6677 310.8929 311.4802
   311.5379 311.7862 311.9205 312.0795 312.2636 313.0703 313.1117 313.6043
   313.6116 314.3452 315.0330 315.0513 315.2317 315.2904 315.5958 316.1437
   316.2091 316.4536 317.1884 317.4096 317.4159 317.5629 319.0946 319.2765
   319.3325 319.6675 319.7894 320.1335 320.2260 320.3402 320.3584 320.3949
   320.6954 320.8006 322.0617 322.3318 322.5192 323.1915 323.3495 323.9246
   324.4527 325.4020 325.9020 325.9194 327.6591 328.4977 329.0730 329.2849
   330.3693 331.3934 331.4747 331.7205 332.3037 333.2460 334.9288 334.9704
   335.8955 336.5624 336.6589 336.7176 337.0692 337.4203 337.4633 338.7254
   338.9099 339.2203 339.3530 339.8134 339.9313 340.0316 340.0788 340.1870
   340.5813 340.7036 342.1411 342.3090 342.7330 342.9320 342.9547 343.1714
   343.4669 343.8009 343.9635 344.0145 344.2041 344.4010 344.4966 345.1494
   345.4815 345.6283 345.8169 346.0823 346.3461 346.4247 346.5036 347.6382
   347.6512 347.7434 347.9595 348.2959 349.0681 349.0697 349.5791 349.6252
   349.6347 349.7620 350.0100 350.0233 350.7388 350.8980 351.5135 351.5849
   352.5371 352.6514 352.9398 353.5803 354.6070 355.4051 355.8299 356.0749
   356.1381 356.8064 356.9683 357.0959 358.1330 358.1619 358.6343 358.9475
   359.2512 359.5827 360.1489 360.2303 361.6698 361.7307 363.7037 364.0341
   364.3443 364.6590 365.1806 365.2415 367.0680 367.2759 367.3484 367.5666
   367.8147 367.8804 368.1112 368.3587 368.6453 369.0120 369.1368 369.2882
   369.5543 369.8251 370.1988 370.9368 371.2043 371.2361 371.7486 371.8785
   371.9423 372.3195 372.8704 372.8816 373.1680 373.1791 374.6264 374.8387
   375.7051 376.4591 376.5077 376.5816 377.2597 377.6133 377.7061 378.1665
   378.6573 378.8016 379.2298 379.4172 379.5966 380.2583 380.3262 380.6901
   380.9975 381.2172 381.4218 382.6641 382.7532 382.9315 382.9469 383.4227
   383.4808 383.7617 383.8307 383.9109 384.0578 384.4031 384.4606 384.4932
   385.6246 385.7646 386.7626 387.2364 387.5191 388.6725 388.8126 389.2580
   389.4934 389.7409 390.1280 390.6567 390.8581 390.9209 390.9609 391.2074
   391.3731 391.3847 391.3957 391.6178 391.7489 392.3503 393.2345 393.5036
   393.8136 393.9455 393.9518 394.1239 394.2090 394.2248 394.5735 394.6688
   394.8483 395.2614 395.7569 395.7954 396.2484 396.5827 396.6387 397.0285
   397.2112 397.5028 398.0754 398.0799 399.0849 399.1874 400.5268 400.6382
   400.7140 401.6584 401.7839 402.6576 402.8774 403.1122 403.6013 403.8878
   404.6951 405.6091 406.2635 406.3187 406.5395 407.7764 408.3187 408.4667
   408.5547 408.9609 408.9931 409.1856 409.5729 410.1442 410.3596 410.7257
   410.9463 411.0485 411.2246 411.6265 411.7833 411.9292 412.8703 413.1111
   414.0871 414.7539 415.0284 415.1379 415.1848 415.5562 415.7007 415.7881
   416.0884 416.0911 416.3954 416.4655 416.5554 416.9056 417.0752 417.1179
   417.2339 417.8232 417.8793 418.3419 418.4022 418.4179 420.1739 420.5086
   420.5229 420.5352 420.5615 420.5968 420.9646 421.0255 421.0971 421.3683
   421.6681 422.1197 422.4113 424.7981 424.8863 425.4303 425.6924 425.8442
   427.1945 427.2534 427.5686 428.5915 428.9155 429.6061 429.7203 429.8057
   430.3964 430.7873 430.8654 430.9921 431.4916 431.5697 431.6981 431.8579
   432.0633 432.1258 432.2217 432.3906 432.4520 432.4885 432.9286 433.1054
   433.2071 434.1464 434.2492 434.2661 434.6250 435.0180 435.0543 435.3088
   435.3831 435.6951 436.9108 437.5522 438.0495 438.2634 438.5570 438.8383
   438.8500 439.0823 439.3487 439.4158 439.5019 439.5749 439.7461 439.7557
   440.7226 441.2251 442.1734 442.2078 443.0836 443.4940 444.0448 444.8303
   444.9060 444.9622 446.3391 446.3584 447.1232 447.1549 447.4064 447.4989
   447.6344 447.7176 447.7520 448.1223 448.3003 448.4800 448.5318 449.2862
   449.9524 450.7396 451.1071 451.2666 451.3815 451.5951 452.0085 452.2727
   452.3015 452.4913 453.3284 453.3766 453.5178 453.9624 453.9761 453.9914
   453.9954 454.3718 454.6200 455.1090 455.5226 455.7848 455.9204 456.4127
   456.4776 456.5756 456.7764 457.4526 457.7014 457.7997 458.0812 458.2286
   458.2329 458.5695 459.2909 459.4257 460.1115 460.1879 460.4851 460.7458
   460.8907 461.3123 461.6544 461.7540 461.8094 461.8862 462.2362 462.3507
   462.3908 462.8144 462.8398 463.2488 463.5091 463.5566 463.6765 463.7029
   463.7808 463.8228 463.9236 463.9978 464.2390 464.5632 464.8126 464.8281
   464.9167 466.1633 466.2863 466.3024 466.8102 467.1333 467.9622 468.0341
   468.1968 468.4935 469.8819 470.9626 470.9941 471.0031 471.0819 471.2351
   471.3172 471.5113 471.7880 471.9982 472.1132 472.8369 473.5214 473.6926
   474.5867 474.6378 475.7349 476.6617 477.3384 477.5470 477.5592 477.8597
   477.8771 478.7422 478.8794 478.8945 479.3197 479.4847 479.6418 479.9437
   480.0124 480.6472 480.8128 481.3715 481.6810 481.8326 482.6094 483.5795
   483.6228 483.9433 484.0221 484.2241 484.6679 484.9345 485.1788 485.4147
   485.4830 485.8397 486.2790 486.2987 486.4969 486.5048 487.1862 487.3290
   487.7305 487.8214 488.4773 488.4922 488.5621 488.8189 488.9219 489.2754
   489.3521 489.4786 489.5168 489.7949 489.9651 490.0501 490.1091 490.5684
   490.6891 490.7942 491.1363 491.5625 491.5898 491.8696 492.5409 492.6745
   494.2125 494.8414 494.8992 495.1297 495.7188 496.0979 496.1636 496.2092
   496.2114 497.9364 497.9722 499.3244 499.3872 499.6165 500.1397 500.2682
   502.1784 502.5988 502.7856 503.3128 503.5392 503.5945 503.9578 504.1035
   504.5716 505.5748 505.7118 505.7236 507.6433 507.8007 507.9103 507.9713
   508.2280 508.4915 509.1172 509.2084 509.7667 510.0291 510.0688 510.6381
   510.7714 511.2243 511.3542 511.4958 511.8843 511.9813 512.0223 512.5082
   512.6903 512.8339 512.8501 512.8744 513.9130 513.9576 513.9865 514.0006
   514.4193 514.7768 514.8468 514.9967 515.1753 515.2145 515.3054 515.3847
   515.4448 515.5090 515.5310 515.5817 515.7441 515.8665 516.5625 516.6892
   516.9797 517.3155 517.4508 517.7260 517.7582 518.0847 518.0939 518.1001
   518.3777 518.4172 518.5262 519.1556 521.1289 521.5220 523.7808 523.8426
   525.2914 525.3526 527.5448 528.2000 528.3492 528.5551 529.1962 529.2455
   529.7743 529.9536 530.0585 530.3380 530.6773 530.9081 531.0518 531.3299
   531.6071 531.6196 531.9788 532.0074 532.1190 532.8115 532.9238 532.9449
   533.1503 533.5043 533.5534 533.9319 534.0011 534.4110 534.5043 534.5872
   535.1365 535.2715 535.5319 535.7683 536.7835 537.0335 537.8832 538.0600
   538.1627 538.6812 538.6845 538.7130 538.7923 538.9069 539.2144 539.5542
   539.8173 539.9328 540.2144 540.4903 542.3488 542.4532 542.4826 542.5544
   542.8064 542.9553 543.3564 543.4390 545.1061 545.1122 545.8418 546.0047
   546.3422 547.0638 547.1832 547.5513 547.6143 547.7206 547.7727 547.9543
   548.0488 549.1463 549.2466 549.3476 549.6098 549.8293 549.9895 550.1176
   551.0662 551.1009 551.4600 551.7227 551.8489 552.6130 553.0980 553.6963
   553.8337 553.9176 554.1109 554.1594 554.2268 554.2677 554.3285 555.0708
   555.1351 555.9213 556.0103 556.0357 556.6607 556.7661 557.4017 557.4745
   557.6962 557.8725 557.9621 558.1727 558.3001 558.4675 559.1732 559.2175
   559.3068 559.4915 559.5489 559.5604 560.0169 560.7584 561.2993 561.3847
   562.2501 562.4291 562.5212 562.5913 562.8543 562.9483 563.3222 563.3431
   563.3517 563.5777 563.6805 563.8217 564.2520 564.5107 564.7066 564.8472
   565.4076 566.0031 566.0323 566.1847 566.7367 566.9100 567.6252 567.6842
   569.8819 570.3447 570.4867 571.5346 571.6669 571.8544 571.9215 572.3700
   572.7764 572.7782 573.0334 573.2681 573.3433 573.3487 573.7126 573.8196
   575.1621 575.2843 575.3162 575.6423 575.9120 575.9917 576.0127 576.1464
   576.3579 576.5213 576.6157 576.6943 577.5843 578.5318 579.3443 579.7314
   579.7613 580.1620 580.7501 580.7983 580.8062 581.0775 581.3165 581.4150
   581.5926 581.6780 581.8489 582.6275 583.1486 583.2911 584.1777 584.4635
   584.5253 584.6224 584.7892 584.9031 585.1228 585.1439 585.2479 585.5579
   585.5593 585.7468 585.8232 585.8681 585.9341 586.0490 586.1761 586.4771
   586.5866 587.5399 588.4290 588.8248 588.9236 589.1128 589.1148 590.3983
   590.4731 590.7906 590.8441 590.8489 591.5636 591.6733 592.5725 593.7047
   594.0833 594.3075 594.4002 595.5849 596.1221 596.4620 596.9897 597.1571
   597.5298 597.7359 597.8429 597.9813 598.0303 598.0327 598.3150 598.5173
   598.5858 598.8468 598.8923 598.9478 598.9801 599.0831 599.1265 599.4767
   600.1156 600.5765 600.7208 600.9784 600.9900 601.0043 601.1842 601.3099
   601.6550 601.6569 602.2666 602.3456 602.4527 602.6309 602.6904 602.7994
   603.3576 604.6765 605.2988 605.3711 605.3720 605.5391 605.6773 605.6987
   605.9293 606.1625 606.2383 606.4712 606.6324 606.7017 606.9741 607.1244
   607.2694 607.4270 607.4523 607.4942 607.8188 608.1841 608.3266 608.8021
   608.9545 610.0109 610.2888 610.5016 610.5301 610.7271 610.8226 612.0361
   612.4892 612.5212 613.0656 613.1890 613.2039 613.3838 613.4058 613.5027
   613.5282 613.5500 613.6571 613.7624 613.8930 614.4021 614.5182 615.7764
   616.1530 616.2210 616.2525 617.3143 617.4139 618.3261 618.7416 619.0569
   619.5587 620.3404 620.4441 620.8447 621.2858 621.4576 621.9533 622.3677
   622.4729 622.9895 623.0422 623.2364 623.3559 623.5461 624.2479 624.3190
   625.0576 625.0594 625.1473 625.3986 625.5569 625.7203 625.8126 626.0679
   626.1976 626.2433 626.2866 626.4540 626.8230 626.8871 627.1471 627.5482
   627.7133 627.7798 627.8511 628.3212 628.4116 628.6224 628.6780 629.0855
   629.1189 629.2753 629.3369 629.3830 629.6078 629.7874 630.4708 630.5144
   630.5611 630.8192 630.8820 630.9640 630.9705 631.2460 631.4253 631.5005
   631.6987 632.2236 632.7345 632.7795 633.0301 633.2221 633.5094 633.5446
   633.5488 633.6178 634.0788 634.1736 634.2443 634.3795 634.4963 634.8816
   634.9185 634.9669 635.0249 635.3808 635.4636 635.5266 635.5330 635.9357
   636.1010 636.1188 636.4441 636.6774 636.9321 637.0055 637.2859 637.3766
   637.4089 638.6622 638.7475 638.8700 638.9152 641.0438 641.8715 643.4998
   643.5812 645.0196 645.1402 645.5880 645.6976 646.7472 646.7741 647.4961
   647.7019 647.7494 647.9567 649.3763 649.4256 649.4367 649.7960 650.2943
   650.5011 650.9880 650.9968 651.8856 651.9560 651.9677 651.9824 652.4207
   652.6734 652.7751 652.8007 652.8390 652.9216 653.0742 653.1262 653.4970
   653.8485 653.9959 654.0003 654.6424 654.7894 654.9245 655.4866 655.6512
   655.7598 655.8511 655.8948 655.9291 656.6921 657.8550 658.0031 658.1846
   658.2194 658.5898 658.6492 658.7745 659.1032 659.3387 659.3518 659.4414
   659.8169 659.8795 660.0467 660.3041 660.5372 660.6843 660.7365 662.0764
   662.1326 662.1663 662.6036 662.6051 662.8687 662.9045 662.9386 664.1762
   664.2044 665.4079 666.1440 666.3977 666.6867 666.7442 666.9792 667.0387
   667.1090 667.2217 667.5084 667.5626 667.9570 668.2957 668.5155 668.5583
   668.7434 668.9221 669.5755 669.7044 669.8114 670.2573 670.4108 670.5907
   670.6889 670.7559 671.2571 671.7595 672.0828 672.6073 672.8179 673.0328
   673.0577 673.3885 673.4177 673.4759 673.9642 674.0372 674.1023 674.8732

          k = 0.0000 0.2887-0.1630 (  3430 PWs)   bands (ev):

   -13.2072 -13.2072  -1.8809  -1.8809  -0.4304  -0.4304   0.2306   0.2306
    10.7359  10.7359  13.0368  13.0368  14.4591  14.4591  19.1536  19.1536
    19.4112  19.4112  22.9223  22.9223  26.6769  26.6769  28.3736  28.3736
    30.4495  30.4495  31.8096  31.8096  35.9175  35.9175  36.1022  36.1022
    39.2015  39.2015  43.1100  43.1100  44.3567  44.3567  44.6081  44.6081
    46.2444  46.2444  48.7074  48.7074  50.7919  50.7919  51.0768  51.0768
    52.6215  52.6215  53.4915  53.4915  54.2807  54.2807  59.0320  59.0320
    61.3604  61.3604  65.5192  65.5192  65.5439  65.5439  66.0955  66.0956
    68.4729  68.4729  71.1855  71.1855  71.4012  71.4012  74.1497  74.1497
    74.9418  74.9418  76.3832  76.3832  77.7006  77.7006  81.5066  81.5066
    82.6233  82.6233  83.6772  83.6772  84.6655  84.6655  85.9512  85.9512
    87.6830  87.6830  88.4540  88.4540  88.8457  88.8457  93.0287  93.0287
    95.4715  95.4715  97.4983  97.4983  97.9524  97.9524  98.9457  98.9457
    99.0632  99.0632 100.0972 100.0972 100.7184 100.7184 100.8474 100.8474
   102.2365 102.2365 104.5549 104.5549 106.4675 106.4675 108.1485 108.1485
   108.4359 108.4359 109.9795 109.9795 111.5606 111.5606 114.2079 114.2079
   115.0414 115.0414 115.4716 115.4716 117.2126 117.2126 117.8803 117.8803
   118.7962 118.7962 119.3766 119.3766 120.7704 120.7704 122.0162 122.0162
   122.4661 122.4661 123.7512 123.7512 124.1454 124.1455 124.1789 124.1789
   125.5081 125.5081 126.4224 126.4224 127.0814 127.0814 128.1927 128.1927
   130.5860 130.5860 132.5325 132.5325 134.7194 134.7194 136.6580 136.6580
   136.7492 136.7492 138.6463 138.6463 139.3922 139.3922 140.4390 140.4390
   140.9112 140.9112 142.4541 142.4541 143.3318 143.3318 143.9888 143.9888
   144.0629 144.0629 145.8562 145.8562 146.9305 146.9305 147.3815 147.3815
   148.3245 148.3245 149.1810 149.1810 151.3889 151.3889 152.5082 152.5082
   155.3070 155.3070 156.7517 156.7517 157.7816 157.7816 158.5963 158.5963
   159.5664 159.5664 160.9093 160.9093 161.7641 161.7641 162.8825 162.8825
   164.3355 164.3355 164.8196 164.8196 165.6265 165.6265 166.7350 166.7350
   167.3300 167.3300 169.3010 169.3010 170.4180 170.4180 171.6022 171.6022
   172.2997 172.2997 172.8776 172.8776 175.3667 175.3667 175.4568 175.4568
   176.4014 176.4014 178.0419 178.0419 178.9187 178.9187 181.0960 181.0960
   181.7643 181.7643 183.9698 183.9698 185.3107 185.3107 185.8775 185.8775
   185.9320 185.9320 187.3834 187.3834 189.3113 189.3113 190.7066 190.7066
   191.1365 191.1365 191.4934 191.4934 191.8108 191.8108 193.5551 193.5551
   194.2571 194.2572 194.9314 194.9314 195.1485 195.1485 196.6159 196.6159
   196.6647 196.6647 198.0237 198.0237 199.7309 199.7309 201.6469 201.6469
   201.8423 201.8423 203.3425 203.3425 203.3724 203.3724 203.8519 203.8519
   205.2098 205.2098 206.1914 206.1914 207.7660 207.7660 209.5610 209.5610
   210.2995 210.2995 211.1296 211.1296 213.3088 213.3088 213.3817 213.3817
   213.9379 213.9379 214.2727 214.2727 214.9652 214.9652 217.3800 217.3800
   217.7429 217.7429 218.3979 218.3979 218.7846 218.7846 218.9876 218.9876
   219.7696 219.7696 220.3867 220.3867 222.2573 222.2573 224.1036 224.1036
   224.7211 224.7211 225.8624 225.8624 226.6923 226.6923 227.6340 227.6340
   228.2621 228.2621 229.5770 229.5770 230.5987 230.5987 231.1527 231.1527
   231.9159 231.9159 232.8046 232.8046 234.3024 234.3024 234.5083 234.5083
   234.9176 234.9176 236.1171 236.1171 236.1213 236.1213 238.9011 238.9011
   239.4611 239.4611 240.1376 240.1376 241.1036 241.1036 242.0616 242.0616
   242.4336 242.4336 243.4576 243.4576 243.9861 243.9861 244.6502 244.6502
   245.0361 245.0361 245.7250 245.7250 246.1634 246.1634 248.1257 248.1257
   249.6258 249.6258 250.0876 250.0876 250.2467 250.2467 250.5571 250.5571
   250.8799 250.8799 251.3696 251.3696 252.9842 252.9842 254.9594 254.9594
   255.1385 255.1385 256.0806 256.0806 256.3848 256.3848 257.3226 257.3226
   258.4267 258.4267 258.5361 258.5361 259.2474 259.2474 259.9118 259.9118
   260.0128 260.0128 261.2217 261.2217 262.3037 262.3037 263.6049 263.6049
   264.2223 264.2223 265.4045 265.4045 265.5339 265.5339 266.0537 266.0537
   266.5433 266.5433 266.7357 266.7357 267.1411 267.1412 267.5897 267.5897
   269.3663 269.3663 270.5111 270.5111 271.5873 271.5873 272.8260 272.8260
   273.9642 273.9642 274.5530 274.5530 274.5747 274.5747 275.5659 275.5659
   275.8727 275.8727 276.7350 276.7350 277.3371 277.3371 277.8949 277.8949
   278.5788 278.5788 280.3518 280.3518 280.5140 280.5140 282.3261 282.3261
   283.5394 283.5394 284.3884 284.3884 284.6071 284.6071 285.0257 285.0257
   286.3321 286.3321 287.5715 287.5715 288.1952 288.1952 288.3371 288.3371
   288.9161 288.9161 289.7846 289.7846 290.3553 290.3553 290.7083 290.7083
   291.0600 291.0600 292.3417 292.3417 293.3000 293.3000 294.0536 294.0536
   295.6575 295.6575 295.7939 295.7939 296.3278 296.3278 297.5157 297.5157
   297.6089 297.6089 298.7639 298.7639 299.0862 299.0862 300.2373 300.2373
   301.4610 301.4610 302.0591 302.0591 304.9584 304.9584 306.9129 306.9129
   307.4530 307.4530 308.3512 308.3512 309.9681 309.9681 310.1972 310.1972
   311.7802 311.7802 312.5829 312.5829 313.7425 313.7425 313.7686 313.7686
   314.1849 314.1849 314.5373 314.5373 315.5930 315.5930 315.9008 315.9008
   316.9705 316.9705 317.7107 317.7107 319.3280 319.3280 319.9703 319.9703
   321.0616 321.0616 321.1371 321.1371 321.7086 321.7086 322.3359 322.3359
   322.7628 322.7628 323.5664 323.5664 323.9663 323.9663 324.8878 324.8878
   327.0139 327.0139 327.2088 327.2088 328.1766 328.1766 329.7474 329.7474
   330.4653 330.4653 331.4097 331.4097 332.8325 332.8325 333.0739 333.0739
   334.5236 334.5236 334.5278 334.5278 335.4242 335.4242 335.5740 335.5740
   336.3205 336.3205 336.7951 336.7951 336.9803 336.9803 337.6637 337.6637
   337.9127 337.9127 338.2609 338.2609 339.4151 339.4151 341.1047 341.1047
   342.2382 342.2382 343.3411 343.3411 343.4092 343.4092 343.9985 343.9985
   345.0003 345.0003 345.7139 345.7139 346.3156 346.3156 346.9872 346.9872
   348.4807 348.4807 349.7897 349.7897 350.9603 350.9603 352.5161 352.5161
   353.3045 353.3045 354.3229 354.3229 354.4717 354.4717 354.9006 354.9007
   355.9360 355.9360 356.6409 356.6409 358.1340 358.1340 359.0161 359.0161
   359.2303 359.2303 359.9044 359.9044 360.1185 360.1185 360.8826 360.8826
   361.5384 361.5384 362.0751 362.0751 362.4776 362.4776 362.9913 362.9913
   363.1895 363.1895 363.3243 363.3243 364.2497 364.2497 365.7078 365.7078
   366.0076 366.0076 367.2611 367.2611 368.0890 368.0890 368.4074 368.4074
   368.7117 368.7117 368.7145 368.7145 369.0103 369.0103 369.4752 369.4752
   370.4284 370.4284 371.1570 371.1570 371.2075 371.2075 371.2863 371.2863
   374.4917 374.4917 376.3952 376.3952 377.0522 377.0522 377.5072 377.5072
   377.6225 377.6225 378.7770 378.7770 380.0505 380.0505 380.0694 380.0694
   380.9783 380.9783 381.2177 381.2177 381.8095 381.8095 382.4059 382.4059
   382.8687 382.8687 384.5824 384.5824 384.6534 384.6534 385.2255 385.2255
   385.3451 385.3451 385.3792 385.3792 386.6337 386.6337 386.8345 386.8345
   387.2749 387.2749 390.5612 390.5612 390.7606 390.7606 391.4131 391.4131
   391.8447 391.8447 392.2369 392.2369 393.4329 393.4329 393.8399 393.8399
   394.0260 394.0260 395.1696 395.1696 396.7074 396.7074 397.3379 397.3379
   398.6730 398.6730 399.4965 399.4965 399.5802 399.5802 400.9129 400.9129
   401.3282 401.3282 401.5695 401.5695 401.6574 401.6574 402.0189 402.0189
   402.0343 402.0343 403.1262 403.1262 403.6794 403.6794 404.7198 404.7198
   405.1781 405.1781 405.5920 405.5920 405.7709 405.7709 406.3048 406.3048
   406.7828 406.7828 406.9761 406.9761 408.0007 408.0007 408.3556 408.3556
   408.9918 408.9918 409.5100 409.5100 410.2317 410.2317 411.2672 411.2672
   411.5973 411.5973 412.3670 412.3670 412.5481 412.5481 413.2102 413.2102
   414.5745 414.5745 414.8046 414.8046 415.1538 415.1538 416.3574 416.3574
   417.2843 417.2843 417.5253 417.5253 419.4894 419.4894 419.7546 419.7546
   422.1344 422.1344 423.3007 423.3007 423.4669 423.4669 423.9025 423.9025
   424.3056 424.3056 425.2277 425.2277 427.0588 427.0588 427.0704 427.0704
   427.9570 427.9570 428.7779 428.7779 430.3009 430.3009 430.5756 430.5756
   430.7616 430.7616 431.8461 431.8461 432.2263 432.2263 432.7454 432.7454
   433.0623 433.0623 433.0746 433.0746 433.3290 433.3290 433.9165 433.9165
   434.0485 434.0485 434.4203 434.4203 434.9906 434.9906 435.2214 435.2214
   436.3885 436.3885 436.8128 436.8128 438.9754 438.9754 439.4615 439.4615
   439.5625 439.5625 440.6743 440.6743 441.1288 441.1288 441.1355 441.1355
   441.4578 441.4578 441.8162 441.8162 441.8998 441.8998 442.2728 442.2728
   442.3597 442.3597 443.6228 443.6228 443.8618 443.8618 444.4546 444.4546
   444.7616 444.7616 445.2274 445.2274 445.3654 445.3654 446.9866 446.9866
   447.1063 447.1063 448.9643 448.9643 449.8273 449.8273 451.1932 451.1932
   451.7050 451.7050 452.4169 452.4169 452.9089 452.9089 454.2341 454.2341
   454.3202 454.3202 454.9974 454.9974 455.1016 455.1016 455.9006 455.9006
   456.4599 456.4599 456.5758 456.5758 456.8850 456.8850 457.0176 457.0176
   457.1124 457.1124 457.8096 457.8096 458.2000 458.2000 458.2310 458.2310
   459.6286 459.6287 460.4372 460.4372 460.6738 460.6738 461.4291 461.4291
   461.9414 461.9414 465.0254 465.0254 465.4314 465.4314 465.5632 465.5632
   466.0875 466.0875 468.3107 468.3107 468.5792 468.5792 469.1675 469.1675
   469.6750 469.6750 470.3079 470.3079 470.3958 470.3958 471.1638 471.1638
   471.3445 471.3445 471.8012 471.8012 472.1994 472.1994 473.5042 473.5042
   474.4376 474.4376 474.5911 474.5911 474.8080 474.8080 475.0112 475.0112
   475.4512 475.4512 475.9466 475.9466 477.0254 477.0254 477.5389 477.5389
   479.3677 479.3677 479.5822 479.5822 479.6233 479.6233 480.8065 480.8065
   480.8107 480.8108 480.9543 480.9543 481.0277 481.0277 481.4243 481.4243
   481.9887 481.9887 482.6479 482.6479 483.5260 483.5260 484.2492 484.2492
   484.5327 484.5327 485.0171 485.0171 485.5086 485.5086 485.9849 485.9849
   487.0188 487.0188 487.3258 487.3258 487.3359 487.3359 487.8009 487.8010
   487.8609 487.8609 488.9397 488.9397 489.3780 489.3780 489.7161 489.7161
   490.9468 490.9468 492.5101 492.5101 494.1573 494.1573 494.4758 494.4758
   495.7776 495.7776 496.0761 496.0761 497.2001 497.2001 497.9565 497.9565
   498.7614 498.7614 499.3225 499.3225 499.4281 499.4281 500.0565 500.0565
   500.2025 500.2025 500.6520 500.6520 501.0363 501.0363 501.3031 501.3031
   501.7973 501.7973 502.9533 502.9533 503.3428 503.3428 503.8610 503.8610
   504.6599 504.6599 504.7508 504.7508 505.7014 505.7014 507.8630 507.8630
   509.1045 509.1045 509.4704 509.4704 510.3049 510.3049 510.7369 510.7369
   511.2023 511.2023 511.2091 511.2091 513.0714 513.0714 513.0957 513.0957
   513.3576 513.3576 515.5575 515.5575 515.7855 515.7856 516.5242 516.5242
   517.5671 517.5671 517.8152 517.8152 518.1821 518.1821 518.7790 518.7790
   520.1252 520.1252 520.8190 520.8190 522.7014 522.7014 522.8143 522.8143
   523.3950 523.3950 524.4909 524.4909 524.6037 524.6037 525.0900 525.0900
   525.8955 525.8955 526.6439 526.6439 526.8772 526.8772 529.1189 529.1189
   529.4207 529.4207 529.7894 529.7894 530.8356 530.8356 530.8695 530.8695
   532.0026 532.0026 532.5776 532.5776 532.6727 532.6727 533.1838 533.1838
   533.2147 533.2147 533.7753 533.7753 533.8540 533.8540 534.1047 534.1047
   534.5809 534.5809 535.5381 535.5381 535.7485 535.7485 535.8914 535.8914
   536.4529 536.4529 537.9997 537.9997 538.4173 538.4173 540.4162 540.4162
   541.5148 541.5148 542.9540 542.9540 543.1076 543.1076 543.6296 543.6296
   543.7699 543.7699 544.3737 544.3737 544.4070 544.4070 546.5846 546.5846
   547.7056 547.7056 547.9833 547.9833 548.6109 548.6109 549.8530 549.8530
   550.0710 550.0710 550.4251 550.4251 550.7530 550.7530 550.8617 550.8617
   551.4100 551.4100 551.9225 551.9225 552.1393 552.1393 552.1894 552.1894
   552.4434 552.4434 552.7318 552.7318 553.0538 553.0538 553.4723 553.4723
   553.6420 553.6420 554.8934 554.8934 555.0048 555.0048 555.9664 555.9664
   556.1823 556.1823 556.4734 556.4734 557.8578 557.8578 558.6271 558.6271
   560.0276 560.0276 560.0880 560.0880 561.0682 561.0682 561.0687 561.0688
   564.3627 564.3627 564.5352 564.5352 565.0408 565.0408 565.5490 565.5490
   565.7192 565.7192 566.3790 566.3790 566.5099 566.5099 567.1105 567.1105
   567.3566 567.3566 567.6218 567.6218 567.6944 567.6944 567.7994 567.7994
   568.1143 568.1143 569.0494 569.0494 570.3304 570.3304 570.7499 570.7499
   571.8457 571.8457 572.0303 572.0303 572.9971 572.9971 573.4778 573.4778
   574.0073 574.0073 574.8614 574.8614 575.3481 575.3481 575.6819 575.6819
   575.7282 575.7282 575.9884 575.9884 576.2166 576.2166 576.5385 576.5385
   577.7838 577.7838 578.9234 578.9234 578.9866 578.9866 580.2970 580.2970
   581.1080 581.1080 581.5860 581.5860 581.9538 581.9538 582.0986 582.0986
   582.8121 582.8121 583.2519 583.2519 583.5727 583.5727 583.7958 583.7958
   584.8595 584.8595 586.0418 586.0418 586.0563 586.0563 586.5733 586.5733
   586.7243 586.7243 589.8109 589.8109 590.1132 590.1132 590.3395 590.3395
   590.6367 590.6367 591.1986 591.1986 593.2075 593.2075 593.6173 593.6173
   594.4162 594.4162 594.8692 594.8692 595.7777 595.7777 596.4154 596.4154
   596.7227 596.7227 596.7569 596.7569 598.2901 598.2901 598.8504 598.8504
   599.1533 599.1533 599.2406 599.2406 599.5209 599.5209 599.5214 599.5214
   599.7703 599.7703 600.7335 600.7335 600.9531 600.9531 601.2251 601.2251
   601.6840 601.6840 603.0754 603.0754 603.0791 603.0791 604.1433 604.1433
   604.5686 604.5686 604.5954 604.5954 605.4953 605.4953 606.2215 606.2215
   606.5478 606.5478 606.6696 606.6696 606.8760 606.8760 607.2440 607.2440
   607.3377 607.3377 608.0949 608.0949 608.4816 608.4816 608.5601 608.5602
   608.6220 608.6220 609.5570 609.5570 610.9312 610.9312 611.2054 611.2054
   611.6407 611.6407 611.6967 611.6967 613.0005 613.0005 613.1197 613.1197
   614.5719 614.5719 615.8922 615.8922 615.9291 615.9291 616.1870 616.1870
   618.0750 618.0750 618.6244 618.6244 618.7281 618.7281 619.5737 619.5737
   619.9925 619.9925 620.8159 620.8159 620.8502 620.8502 621.1394 621.1394
   621.7949 621.7949 621.8428 621.8428 622.3540 622.3540 622.3942 622.3942
   623.3211 623.3211 623.5096 623.5096 623.8705 623.8705 623.9981 623.9981
   624.0646 624.0646 624.2506 624.2506 624.6559 624.6559 626.4242 626.4242
   626.7202 626.7202 627.2819 627.2819 627.6559 627.6559 627.6784 627.6784
   629.6888 629.6888 629.9792 629.9792 632.0793 632.0793 632.5110 632.5110
   632.6421 632.6421 632.7335 632.7335 634.9835 634.9836 636.2497 636.2497
   636.4771 636.4771 637.7345 637.7345 638.2508 638.2508 638.5125 638.5125
   638.5364 638.5364 638.6787 638.6787 638.7498 638.7498 639.2573 639.2573
   639.7859 639.7859 640.3818 640.3818 640.6664 640.6664 641.6590 641.6590
   641.8213 641.8213 642.0077 642.0077 642.1391 642.1391 642.2671 642.2671
   642.6401 642.6401 643.1539 643.1539 643.3839 643.3839 643.7242 643.7242
   644.0091 644.0091 644.0598 644.0598 645.5840 645.5840 645.7547 645.7547
   645.9143 645.9143 646.3523 646.3523 646.3963 646.3963 646.9234 646.9234
   647.0459 647.0459 647.2366 647.2366 647.8557 647.8557 648.0759 648.0759
   648.0929 648.0929 649.5935 649.5935 649.8227 649.8227 651.1843 651.1843
   651.4075 651.4075 651.5719 651.5719 651.8183 651.8183 651.9035 651.9035
   652.2929 652.2929 652.3091 652.3091 652.3645 652.3645 652.8231 652.8231
   652.8287 652.8287 654.6294 654.6294 654.8887 654.8887 654.9342 654.9342
   655.2074 655.2074 655.4114 655.4114 656.3949 656.3949 656.5569 656.5569
   658.4265 658.4265 658.5869 658.5869 661.9864 661.9864 662.8495 662.8495
   662.8841 662.8841 662.9475 662.9475 663.0707 663.0707 665.0349 665.0349
   665.8345 665.8345 666.2828 666.2828 666.5154 666.5154 666.6661 666.6661
   667.9495 667.9495 668.4327 668.4327 669.1287 669.1287 669.6779 669.6779
   670.1334 670.1334 670.1421 670.1421 670.4403 670.4403 670.8284 670.8284
   670.9797 670.9797 671.0315 671.0315 671.5816 671.5816 671.5965 671.5965

          k = 0.0000-0.5774 0.0000 (  3466 PWs)   bands (ev):

   -11.3076 -11.2890  -5.6427  -5.6240  -0.9539  -0.9396   2.1139   2.5235
     7.7330   8.3987  12.6912  13.1781  15.4615  16.2560  17.7270  19.4678
    21.8122  22.4490  23.2914  24.6497  24.7770  25.5480  28.1335  28.2982
    28.5918  29.1034  31.0250  31.1391  32.5199  33.7727  34.0382  37.4664
    37.6965  40.4536  41.1887  41.5153  42.3704  43.4232  44.3628  45.9486
    47.2530  51.3452  53.6162  53.9872  54.1844  55.7026  55.9584  56.9885
    57.0387  57.5835  57.9181  59.6111  59.8313  60.1962  60.5719  60.9489
    61.1710  61.6855  62.2447  63.0934  63.7484  64.2104  65.3584  66.5510
    66.6694  68.7373  68.7879  69.9403  71.2194  72.7809  73.0469  73.5934
    73.7276  74.4017  74.4369  74.4914  75.2944  76.2090  76.7306  76.8902
    77.7006  79.4348  80.3396  81.2578  81.8006  82.7189  83.5500  84.1631
    85.3522  86.3077  86.6068  88.3907  88.6420  88.7885  89.4386  89.6811
    90.0992  90.5879  90.7330  90.8368  91.0282  92.0308  92.5736  92.7533
    96.5196  98.5972  99.7002 102.1712 102.2307 102.8788 103.4032 104.7722
   105.5801 105.7924 106.0005 106.1449 106.2329 106.4688 107.3184 107.3535
   107.5849 108.4781 108.9601 109.0994 109.8399 110.0031 110.2297 110.4949
   111.4729 111.7314 112.1854 112.3324 113.4945 113.6000 116.3800 116.7042
   116.7073 117.9258 118.4211 119.5923 120.4130 120.8988 121.5787 122.1868
   123.2479 123.4912 123.4955 124.7610 124.8762 125.3650 125.7135 127.2281
   127.5919 128.6043 129.6843 130.3806 130.7609 132.3161 133.8679 134.1434
   134.7551 134.8155 136.2090 138.0481 138.0642 138.1246 138.3230 138.5757
   138.8920 139.5379 140.1877 140.9818 141.1852 141.3013 141.5145 141.5331
   142.8774 143.6222 144.0906 145.7048 146.9454 147.4194 148.6083 148.6518
   149.1358 149.2326 150.0054 150.9369 152.5839 152.6728 152.6962 153.5910
   154.0261 155.2975 155.3694 155.3936 155.6066 156.1181 157.0282 157.2107
   158.4464 158.5746 158.9325 159.2362 159.6586 159.9286 160.7768 160.8246
   161.4023 161.4708 162.0794 162.7152 163.9709 165.0863 165.5500 165.6945
   165.9074 166.8975 167.2741 167.4003 167.5132 167.5837 168.3141 168.7528
   169.4187 169.8035 169.8199 170.2094 170.3276 170.5234 170.7271 170.8593
   171.1749 172.9976 173.0917 173.3080 173.5340 173.8638 174.1359 174.1528
   174.4808 175.2885 175.5451 175.9193 177.4406 178.0555 178.2651 179.0081
   179.4091 179.5762 180.1561 180.5606 181.2761 182.1174 182.8317 183.5138
   183.6288 184.3416 184.3665 184.4172 184.4745 184.8155 185.1106 185.1723
   185.7590 186.2003 186.3239 186.5897 186.5937 186.6292 186.6783 187.8408
   189.3330 189.3551 189.9446 190.0707 190.2204 190.9542 191.5886 192.0760
   195.8588 198.6293 198.7464 198.8503 199.3411 199.8785 199.9660 200.0525
   200.4540 200.9416 200.9467 201.1718 201.9282 202.4917 202.8248 202.9199
   204.3214 204.4665 204.9227 204.9894 206.1043 206.4946 206.9427 207.1928
   207.5664 207.5741 207.9359 208.2252 208.2470 208.3522 208.7343 210.4132
   211.0331 211.2201 211.4959 211.9464 212.0808 212.6880 213.8671 214.4050
   215.1143 215.5681 216.0782 216.2573 216.2654 216.2995 217.1626 217.4132
   217.6904 218.3830 219.1732 219.3523 219.6920 220.7449 221.3395 221.7354
   222.1033 222.3383 223.0489 223.2351 223.3997 223.6056 223.6283 223.7670
   223.9582 224.1365 224.6436 224.8716 224.9704 225.0948 225.3009 227.4511
   228.1302 229.3036 229.3895 229.4788 229.6849 231.0971 231.1304 231.4020
   231.5946 231.7373 233.2945 233.4473 233.8345 234.3176 235.2735 235.3892
   235.4588 235.7010 235.8920 235.9166 237.6780 239.0424 241.2110 243.3576
   243.9274 243.9979 245.6619 246.3226 247.5207 247.6470 247.6976 248.0943
   248.8005 248.8922 249.3838 249.4298 249.6627 249.7123 249.7343 250.2337
   250.7666 250.9886 251.1818 251.3609 251.5961 251.8803 251.8973 252.3817
   252.9099 253.0292 253.7847 253.8067 254.0333 254.1380 254.2330 254.4819
   254.6381 254.8600 255.0750 255.2518 255.2914 255.7036 256.0655 256.0742
   256.2679 258.6756 258.7036 258.8319 260.0692 260.1547 260.3505 260.4614
   260.6912 260.7771 261.0693 262.0928 263.2554 263.5222 263.5625 263.8112
   264.2097 265.2930 266.3265 266.6647 266.7712 267.8761 268.1008 268.7061
   268.7592 268.8174 269.8735 270.0299 270.3126 270.5495 270.6998 271.1990
   271.2156 271.2959 271.3173 271.3629 271.4736 271.5825 271.7502 272.2082
   273.2366 274.8706 277.6312 278.8568 279.8315 280.0482 280.5523 280.5675
   280.6327 280.9990 281.2043 281.4191 281.6318 281.8987 281.9801 282.3841
   283.2403 283.7409 283.7972 283.8638 283.9586 284.7269 286.4925 288.2811
   288.7634 291.4219 291.4699 292.1950 293.5333 293.7044 294.7616 294.7811
   294.7831 294.8910 294.9450 295.0681 295.3868 295.8503 297.1500 297.2130
   297.2497 297.3349 297.4466 297.4602 297.9777 299.1778 299.5552 299.6721
   299.7195 299.9655 300.1998 301.0545 301.3329 301.3638 301.3781 301.5908
   301.6630 301.7804 301.8443 302.2694 302.5706 302.6521 302.7931 302.7946
   302.7967 302.8125 302.9091 303.0875 303.1112 303.5368 303.6175 304.0264
   304.3000 305.5857 306.5340 306.6328 306.8099 306.8790 306.9078 307.2910
   307.6101 307.8824 308.7479 308.8708 309.0043 309.7519 310.2435 310.2484
   310.6706 311.6703 312.0612 312.2442 312.4010 312.7274 312.7876 312.7879
   313.5337 314.6596 314.7002 314.7021 314.8820 315.0769 315.1680 315.3114
   315.9164 316.0110 317.3415 317.5631 317.9412 318.1797 318.2306 318.3584
   318.6246 318.9009 319.3322 320.0190 320.8224 320.8369 321.4419 321.4974
   321.5257 321.5933 321.9713 322.1168 322.3580 323.5845 323.9270 323.9524
   325.1668 325.2243 325.7732 326.2354 326.2637 327.1380 327.3843 327.5071
   327.5172 327.7136 327.8648 327.9064 328.1918 328.2195 328.2347 328.3804
   328.8333 329.1590 329.3610 329.9437 330.4551 330.5431 330.8294 331.3016
   331.3631 331.4093 331.6812 331.7773 331.9641 335.0205 337.7838 339.6682
   341.5151 341.8900 342.2568 342.7249 342.7823 342.7901 342.9370 343.3602
   343.9338 344.0788 344.6972 344.6998 345.0068 345.0364 345.3196 345.3706
   345.4958 345.6655 345.7583 345.8871 345.8974 346.8850 347.8098 348.1728
   348.5541 348.5600 348.6362 348.6969 348.7958 348.8720 349.0364 349.4414
   349.6484 349.6854 350.2566 350.3608 350.4732 350.5099 350.5549 350.5854
   350.8689 351.1182 351.4509 351.6434 352.1448 352.6982 353.0315 353.1562
   353.3713 353.8210 354.7210 354.8740 355.1636 355.4526 356.0764 356.7290
   358.2441 358.5634 358.7342 358.8385 358.9002 358.9100 359.0112 360.2905
   360.8245 361.2025 361.5529 361.5691 361.8267 362.1046 362.6017 362.9053
   362.9461 363.1908 363.4412 363.4881 363.9406 364.6638 364.8092 364.9953
   365.2634 365.8077 365.8643 365.9409 366.0283 366.0793 366.1134 366.1813
   366.1978 366.2294 367.2711 367.6017 367.7164 367.7776 367.8668 367.8711
   368.4969 369.0541 369.3653 370.0181 370.7171 371.0264 371.3122 371.3274
   372.3485 372.6220 372.7938 373.2554 373.2670 374.0833 374.1627 374.7442
   374.7648 374.8022 375.5252 375.7703 376.9133 376.9654 377.2102 378.2326
   378.5195 378.5198 378.5500 378.5546 379.4824 379.5399 381.4393 381.9710
   382.1875 382.5495 387.6082 388.1051 388.5902 388.6679 388.8462 390.2596
   390.3740 390.6285 390.8123 391.8646 392.0008 392.5732 392.5734 393.0044
   393.7678 393.8208 393.9188 394.2004 394.4510 394.9234 395.0407 395.0424
   395.0452 395.1277 395.1838 395.3234 395.7089 395.8906 395.9503 396.0873
   396.1188 396.5257 396.8645 397.0588 397.0777 397.0834 397.3319 397.5992
   397.7303 397.7532 397.7691 397.8531 397.9035 397.9182 398.3872 398.7187
   398.7974 399.1644 399.3246 399.5966 399.7847 400.2574 400.6410 400.7498
   401.2821 401.6322 401.7691 402.0595 402.6388 402.7018 403.9034 403.9600
   404.6500 404.9013 404.9789 405.0295 405.0493 406.0622 406.0984 406.4683
   406.5498 407.2106 407.7805 407.9518 408.1522 408.2636 408.6984 409.7225
   409.9232 410.0677 410.0798 410.3354 410.5993 410.6497 410.8102 411.4031
   411.6995 411.8453 412.1279 412.3176 412.3914 412.7754 413.0105 413.3504
   413.8668 414.5175 414.5568 414.8398 415.1570 415.1629 415.4342 415.8695
   418.5881 419.0001 419.6061 420.7005 421.1621 421.6515 422.5501 422.8671
   422.9363 423.2133 423.4695 423.7788 423.9996 424.3332 424.4992 424.6048
   425.1595 425.6296 425.7439 425.8454 425.9422 426.1510 426.4524 426.4967
   426.5266 426.6613 426.8613 427.8760 428.1065 428.1690 428.1712 428.2939
   428.5463 428.7455 429.2873 429.4709 429.7435 430.0105 431.9930 432.3003
   433.5689 433.5935 436.5845 436.7229 437.7973 438.2731 439.9059 440.0162
   441.3677 441.5891 442.2730 443.0494 443.4559 443.8408 443.9797 444.1088
   444.6532 444.7945 444.8944 445.0561 445.1370 445.1877 445.1897 445.4345
   445.4600 445.6549 445.9015 446.6224 446.8639 447.1773 447.2145 447.3399
   447.8121 447.9652 448.0584 448.0692 448.0803 448.2966 448.4204 448.4787
   448.6763 448.9077 448.9406 449.0266 450.6825 450.7832 450.8084 450.8533
   454.1473 454.1580 454.1761 454.3443 454.6173 454.6757 454.9394 454.9916
   455.6420 456.2680 456.4314 456.5602 456.5819 457.1700 457.3842 457.4932
   457.9121 458.0509 458.1028 458.2492 458.3245 458.5129 458.7418 458.8074
   459.6630 459.7175 459.7764 460.3650 460.4226 460.6683 461.0846 461.5786
   461.8319 462.1189 462.2004 462.3117 462.3188 462.6570 463.6342 464.0907
   464.1155 464.1765 464.1935 464.2596 464.4404 465.1236 465.3781 465.8792
   465.8937 466.0073 466.1622 466.1778 466.2674 466.2823 466.6124 467.2209
   468.2601 469.5682 469.6539 469.6748 469.8148 469.9679 470.2518 470.2659
   470.6916 470.7884 471.2550 471.7521 471.8533 473.3212 473.5248 473.8167
   474.2171 474.4505 474.8564 474.9496 475.1167 475.3565 475.8989 475.9064
   476.9942 477.1088 478.1744 478.2519 479.3940 479.8631 479.8743 481.2118
   482.1709 482.6775 483.7697 484.1446 485.2188 485.3756 485.5384 485.5400
   486.0034 486.0805 486.6940 486.7030 486.8437 486.8729 487.2735 487.3144
   487.8007 487.8052 487.8084 487.8214 488.3606 489.3197 489.3532 489.3619
   489.6001 489.6463 490.9105 491.0338 491.1652 491.4537 491.4811 491.4971
   491.5479 491.7478 491.9785 492.0880 492.1962 492.2140 492.2590 492.3222
[...]
   611.1166 611.3500 611.6310 611.7054 611.7578 612.0238 612.1908 612.6265
   613.2519 613.2907 613.4709 613.5394 613.5397 614.6949 615.6818 616.0472
   616.0942 616.3039 616.4991 616.9179 617.2026 617.2946 617.5763 618.3430
   618.3643 621.2442 621.2614 621.5526 621.9208 622.0763 622.1694 622.4709
   622.4825 622.4996 622.5637 622.6610 622.7060 623.1778 623.3308 624.3633
   624.4125 624.5111 624.5137 625.9080 626.0061 626.0637 626.3221 626.4248
   626.6857 626.8017 626.9042 629.9946 630.2541 630.6077 630.7045 630.8019
   630.8725 630.9800 631.2147 631.2498 631.4828 631.7851 631.9980 632.1140
   632.1239 633.1785 633.2591 633.3256 633.4919 633.8839 634.0349 634.0641
   634.2537 634.3830 634.7532 635.1026 635.1159 635.8820 635.8943 636.0235
   636.9594 637.1730 637.4329 637.4996 637.5329 637.7472 637.7693 637.8426
   637.9030 639.2669 639.4574 639.5360 639.5575 640.1040 640.2661 640.5330
   640.5809 640.9784 641.1478 641.2585 641.3910 641.4490 641.5453 641.7856
   641.8578 641.9374 642.0578 643.1227 643.2030 643.2666 643.2702 643.4827
   643.7043 643.7182 644.8502 645.5537 645.6101 645.7148 645.7841 645.8085
   645.8108 645.9842 645.9955 646.0087 646.1419 647.0254 647.3071 647.4732
   647.4757 648.0605 648.0895 648.3224 648.4819 649.2422 649.3243 649.3539
   649.4770 649.6165 649.6173 650.7334 650.7636 650.9085 651.0614 651.1604
   651.9446 653.2715 653.2977 653.3224 653.5750 654.7181 654.9303 655.1090
   655.1775 656.7092 657.1127 657.6761 657.6884 658.3389 658.3565 658.7014
   659.0751 659.4343 659.6098 659.6830 660.0034 660.5409 660.5918 661.3527
   661.5685 661.7508 661.7999 661.8435 662.0402 662.0810 662.2820 662.3699
   662.4201 662.5450 662.7777 664.3394 664.8361 664.8644 664.9123 665.0421
   665.3184 665.4868 666.0663 666.1462 666.2108 666.3770 666.4511 666.5783
   666.6475 668.1493 668.5571 668.6931 668.9572 668.9881 669.0119 669.2194
   669.2198 669.3136 669.3509 669.4172 669.4500 669.6589 669.6986 670.1952
   670.4095 670.4276 670.4834 670.9289 670.9827 671.3400 671.7749 671.8902
   672.0068 673.2273 673.4466 674.0777 674.1017 676.9301 677.3678 678.0436

          k = 0.2500 0.4330-0.1630 (  3438 PWs)   bands (ev):

   -11.4170 -11.4170  -4.3624  -4.3624  -2.6622  -2.6622   2.1099   2.1099
     8.9219   8.9219  14.5715  14.5715  16.8011  16.8011  18.1637  18.1637
    19.4791  19.4791  22.9369  22.9369  23.8818  23.8818  27.4749  27.4749
    30.1469  30.1469  31.2248  31.2248  33.1964  33.1964  39.5386  39.5386
    39.9830  39.9830  40.6683  40.6683  45.4452  45.4452  46.5279  46.5279
    48.1693  48.1693  49.9522  49.9522  51.2483  51.2483  54.4991  54.4991
    55.6119  55.6119  59.3894  59.3894  60.2130  60.2130  61.2262  61.2262
    62.4356  62.4356  63.5686  63.5686  64.6272  64.6272  65.4708  65.4708
    68.2766  68.2766  69.2251  69.2251  70.2252  70.2252  73.7404  73.7404
    75.7566  75.7566  76.6978  76.6978  77.3354  77.3354  79.0559  79.0559
    79.9370  79.9370  82.5444  82.5444  83.0961  83.0961  84.8515  84.8515
    86.1063  86.1063  86.7701  86.7701  87.3968  87.3968  87.9417  87.9417
    88.6703  88.6703  90.2660  90.2660  93.7177  93.7177  94.5035  94.5035
    96.0430  96.0430  97.1784  97.1784  98.3608  98.3608 101.4916 101.4916
   102.3840 102.3840 103.5483 103.5483 103.6997 103.6997 105.7209 105.7209
   108.7121 108.7121 109.2114 109.2114 109.9494 109.9494 110.0560 110.0560
   111.5169 111.5169 112.8420 112.8420 116.1228 116.1228 119.2309 119.2309
   119.4934 119.4934 120.3050 120.3050 122.0269 122.0269 124.2886 124.2886
   126.3944 126.3944 126.9535 126.9535 128.3691 128.3691 129.4293 129.4293
   130.4597 130.4597 131.7256 131.7256 131.9023 131.9023 134.5926 134.5926
   135.0821 135.0821 135.7774 135.7774 136.0196 136.0196 137.5870 137.5870
   137.8626 137.8626 138.4801 138.4801 142.4969 142.4969 143.0989 143.0989
   144.0279 144.0279 144.6383 144.6383 146.1365 146.1365 147.3452 147.3452
   148.8157 148.8157 149.6934 149.6934 150.3321 150.3321 151.5769 151.5769
   152.8970 152.8970 153.1767 153.1767 154.4154 154.4154 155.1942 155.1942
   156.5548 156.5548 157.4967 157.4967 158.0781 158.0781 158.9614 158.9614
   159.8157 159.8157 160.5593 160.5593 160.9318 160.9318 162.0088 162.0088
   165.2986 165.2986 165.6291 165.6291 167.1833 167.1833 168.5123 168.5123
   168.8246 168.8246 169.3039 169.3039 171.0697 171.0697 172.0145 172.0145
   173.3869 173.3869 174.8764 174.8764 175.1851 175.1851 177.5853 177.5853
   178.0745 178.0745 180.1780 180.1780 180.5039 180.5039 180.7695 180.7695
   181.9201 181.9202 182.5602 182.5602 182.9996 182.9996 183.5657 183.5657
   183.7271 183.7271 184.6569 184.6569 185.8305 185.8305 186.5586 186.5586
   188.6382 188.6382 188.7167 188.7167 189.3912 189.3912 190.3647 190.3647
   190.8332 190.8332 191.4725 191.4725 192.6318 192.6318 193.9302 193.9302
   194.6063 194.6063 194.7125 194.7125 196.7086 196.7086 199.3348 199.3348
   199.4336 199.4336 200.0870 200.0870 201.1992 201.1992 202.4122 202.4122
   203.5936 203.5936 204.3388 204.3388 204.6996 204.6996 205.4883 205.4883
   206.0490 206.0490 206.8485 206.8485 206.9250 206.9250 207.4946 207.4946
   209.8329 209.8329 210.6269 210.6269 212.6207 212.6207 213.7919 213.7919
   214.9340 214.9340 215.1501 215.1501 216.8870 216.8870 218.3204 218.3204
   219.9391 219.9391 221.2414 221.2414 221.9978 221.9978 222.3649 222.3649
   222.7063 222.7063 223.6268 223.6268 224.4751 224.4751 225.0343 225.0343
   225.2760 225.2760 225.9905 225.9905 226.2987 226.2987 227.7382 227.7382
   228.3545 228.3545 229.7381 229.7381 230.2574 230.2574 230.6858 230.6858
   230.9151 230.9151 231.4173 231.4173 231.6460 231.6460 232.6769 232.6769
   234.3025 234.3025 234.9446 234.9446 237.2352 237.2353 237.6995 237.6995
   239.2226 239.2227 241.4457 241.4457 243.8627 243.8627 245.0317 245.0317
   246.0267 246.0267 247.6354 247.6354 249.0152 249.0152 249.2622 249.2622
   249.8204 249.8204 250.5613 250.5613 251.1083 251.1083 251.3639 251.3639
   252.8554 252.8554 253.8896 253.8896 254.0730 254.0730 254.7804 254.7804
   255.2344 255.2344 256.8689 256.8689 258.4606 258.4606 259.3802 259.3802
   259.6571 259.6571 260.2040 260.2040 261.5564 261.5564 262.0559 262.0559
   262.9185 262.9185 263.1004 263.1004 264.8210 264.8210 266.0965 266.0965
   267.4670 267.4670 268.0449 268.0449 268.3441 268.3441 268.9207 268.9207
   270.8509 270.8509 271.8352 271.8352 274.0983 274.0983 274.9661 274.9661
   275.1858 275.1858 275.9727 275.9727 276.5811 276.5811 277.4966 277.4966
   278.1766 278.1766 278.8530 278.8530 279.2359 279.2359 279.9465 279.9465
   280.0804 280.0804 280.7290 280.7290 281.4784 281.4784 282.4422 282.4422
   283.0379 283.0379 284.4697 284.4697 286.7329 286.7329 286.9745 286.9745
   287.6450 287.6450 287.7527 287.7527 288.4319 288.4319 289.5140 289.5140
   290.9854 290.9854 293.0518 293.0518 293.9990 293.9990 294.0597 294.0597
   294.9379 294.9379 295.2910 295.2910 295.9861 295.9861 296.4365 296.4365
   297.2951 297.2951 297.6543 297.6543 299.0225 299.0225 299.2169 299.2169
   300.3214 300.3214 300.8049 300.8049 301.9244 301.9244 301.9560 301.9560
   302.2717 302.2717 302.8391 302.8391 303.1468 303.1468 303.8883 303.8883
   304.3884 304.3884 305.6732 305.6732 306.4430 306.4430 307.4239 307.4239
   308.1111 308.1111 308.3818 308.3818 309.8850 309.8850 310.3719 310.3719
   311.1423 311.1423 311.6833 311.6833 311.7928 311.7928 313.9601 313.9601
   314.3705 314.3705 315.3015 315.3015 316.2359 316.2359 316.5007 316.5007
   316.8351 316.8351 317.3400 317.3400 318.0832 318.0832 318.7689 318.7689
   320.2159 320.2159 320.4094 320.4094 321.3208 321.3208 321.9358 321.9358
   322.2021 322.2021 322.9277 322.9277 323.6716 323.6716 324.5120 324.5120
   325.2125 325.2125 326.5483 326.5483 326.5896 326.5896 328.5276 328.5276
   328.9674 328.9674 329.4124 329.4124 331.2359 331.2359 332.0058 332.0058
   333.4547 333.4547 334.6929 334.6929 335.2115 335.2115 335.2810 335.2810
   336.0415 336.0415 336.4124 336.4124 336.9762 336.9762 338.0087 338.0087
   338.7593 338.7593 339.1604 339.1604 340.8277 340.8277 341.3883 341.3883
   341.7006 341.7006 341.9194 341.9194 342.5020 342.5020 343.6808 343.6808
   344.5157 344.5157 344.9777 344.9777 346.5302 346.5302 346.5926 346.5926
   347.1446 347.1446 347.2880 347.2880 347.5710 347.5710 347.9327 347.9327
   348.8525 348.8525 349.5359 349.5359 349.9918 349.9918 350.4874 350.4874
   350.8428 350.8428 351.0754 351.0754 351.7319 351.7319 352.6472 352.6472
   353.7206 353.7206 354.5648 354.5648 354.9489 354.9489 355.7975 355.7975
   355.8192 355.8192 356.7423 356.7424 357.4898 357.4898 358.3665 358.3665
   358.7436 358.7436 359.0390 359.0390 359.5066 359.5066 360.1411 360.1411
   361.6255 361.6255 362.1284 362.1284 364.2407 364.2407 364.3226 364.3226
   364.5550 364.5550 365.1245 365.1245 365.5558 365.5558 365.7652 365.7652
   366.3236 366.3236 367.9408 367.9409 368.2097 368.2097 368.6922 368.6922
   369.6307 369.6307 371.9272 371.9272 372.3108 372.3108 373.2655 373.2655
   373.5908 373.5908 374.0604 374.0604 374.3613 374.3613 376.0620 376.0620
   376.2105 376.2105 376.7168 376.7168 377.6363 377.6363 379.1460 379.1460
   380.6893 380.6893 382.7289 382.7289 383.3773 383.3773 383.7232 383.7232
   384.9107 384.9107 386.0866 386.0866 386.9117 386.9117 387.5695 387.5695
   388.3186 388.3186 389.1303 389.1303 390.2014 390.2014 390.9635 390.9635
   391.3056 391.3056 391.6127 391.6127 392.1063 392.1063 392.2724 392.2725
   392.8018 392.8018 393.6185 393.6185 395.5662 395.5662 395.8321 395.8321
   396.1182 396.1182 396.4289 396.4289 396.6133 396.6133 397.1751 397.1751
   397.4249 397.4249 397.9309 397.9309 398.3893 398.3893 398.8465 398.8465
   400.4556 400.4556 400.6275 400.6275 401.4722 401.4722 401.9412 401.9412
   402.3912 402.3912 402.7991 402.7991 403.9790 403.9790 404.5720 404.5720
   405.0252 405.0252 405.5356 405.5356 406.0268 406.0268 406.3896 406.3896
   406.7389 406.7389 407.9601 407.9601 408.2572 408.2572 409.2001 409.2001
   409.5470 409.5470 411.4149 411.4149 411.8323 411.8323 412.5219 412.5219
   413.4783 413.4783 414.6757 414.6757 416.7248 416.7248 417.2196 417.2196
   419.1121 419.1121 419.6392 419.6392 420.0456 420.0456 420.7944 420.7944
   421.3705 421.3705 421.7241 421.7241 423.4596 423.4597 423.6219 423.6219
   424.1011 424.1011 424.6244 424.6244 425.0419 425.0419 426.0785 426.0785
   426.2686 426.2686 427.0103 427.0103 427.6095 427.6095 427.7059 427.7059
   428.1785 428.1785 428.4101 428.4101 428.6156 428.6156 429.3021 429.3021
   429.8927 429.8927 430.2955 430.2955 431.5857 431.5857 432.4091 432.4091
   433.9967 433.9967 436.4287 436.4287 436.6340 436.6340 436.9442 436.9442
   437.5602 437.5602 438.2116 438.2116 439.7813 439.7813 440.6037 440.6037
   440.7871 440.7871 441.3599 441.3599 441.7173 441.7173 442.5010 442.5010
   443.7103 443.7103 444.1706 444.1706 444.5811 444.5811 445.3882 445.3882
   445.9158 445.9158 446.2986 446.2986 447.0369 447.0369 447.2692 447.2692
   449.0231 449.0231 450.0111 450.0111 450.6886 450.6886 451.6740 451.6740
   451.7274 451.7274 452.1449 452.1449 452.6506 452.6506 453.2473 453.2473
   453.5626 453.5626 453.7440 453.7440 453.9137 453.9137 455.3745 455.3745
   457.8669 457.8669 458.0766 458.0766 458.5825 458.5825 459.0234 459.0234
   459.3872 459.3872 459.5241 459.5241 460.2032 460.2032 461.4430 461.4430
   462.8222 462.8222 463.3497 463.3497 463.5053 463.5053 463.7339 463.7339
   463.8818 463.8818 464.0871 464.0871 464.6796 464.6796 464.7861 464.7861
   465.1356 465.1356 467.1070 467.1070 467.2156 467.2156 467.6729 467.6729
   467.7175 467.7175 468.4166 468.4166 470.2665 470.2665 470.6684 470.6684
   471.4941 471.4941 472.4234 472.4234 473.3319 473.3319 473.4126 473.4126
   473.7356 473.7356 474.0558 474.0558 474.5835 474.5835 475.1440 475.1440
   475.6038 475.6038 476.6124 476.6124 476.8577 476.8577 477.0956 477.0956
   478.1610 478.1610 478.9259 478.9259 479.2802 479.2802 481.4269 481.4269
   482.1918 482.1918 483.0281 483.0281 484.4112 484.4112 485.8042 485.8042
   486.0704 486.0704 487.5254 487.5254 488.5076 488.5076 488.7048 488.7048
   489.9429 489.9429 490.6496 490.6496 490.9443 490.9443 491.4018 491.4018
   491.5586 491.5586 492.2171 492.2171 492.4164 492.4164 492.6629 492.6629
   492.7589 492.7589 493.2350 493.2350 494.1769 494.1769 494.3927 494.3927
   494.9014 494.9014 495.1166 495.1166 495.6689 495.6689 496.1680 496.1680
   498.0985 498.0985 498.5353 498.5353 499.4752 499.4752 499.6358 499.6358
   500.1981 500.1981 500.5357 500.5357 501.6450 501.6450 501.7978 501.7978
   502.7021 502.7021 503.7350 503.7350 503.9799 503.9799 505.0863 505.0863
   506.6144 506.6144 507.2432 507.2432 507.4425 507.4425 507.7254 507.7254
   509.0488 509.0488 510.4345 510.4345 510.7970 510.7970 511.7018 511.7018
   512.1525 512.1525 512.5693 512.5693 512.9213 512.9213 512.9495 512.9495
   513.4621 513.4621 513.9144 513.9144 514.5789 514.5789 514.7453 514.7453
   514.7673 514.7673 514.9729 514.9729 515.5868 515.5868 516.2221 516.2221
   516.7684 516.7684 516.8384 516.8384 516.8655 516.8655 517.0083 517.0083
   517.4852 517.4852 518.0686 518.0686 518.3785 518.3785 518.6468 518.6468
   519.2141 519.2141 520.0659 520.0660 520.2900 520.2900 523.2745 523.2745
   523.8333 523.8333 524.1598 524.1598 524.3622 524.3622 524.6084 524.6084
   524.8382 524.8382 524.9913 524.9913 525.3122 525.3122 525.4141 525.4141
   527.2338 527.2338 528.1816 528.1816 528.7528 528.7528 529.3165 529.3165
   530.0826 530.0826 530.2882 530.2882 530.7207 530.7207 532.0895 532.0895
   532.8967 532.8967 533.4128 533.4128 533.8078 533.8078 533.8436 533.8436
   534.0316 534.0316 534.9905 534.9905 535.7117 535.7117 535.9736 535.9736
   536.4151 536.4151 537.7312 537.7312 538.3733 538.3733 538.5256 538.5256
   538.7944 538.7944 538.9176 538.9176 539.3687 539.3688 539.5913 539.5913
   539.6332 539.6332 540.0366 540.0366 540.0849 540.0849 540.3059 540.3059
   541.7079 541.7079 542.3426 542.3426 542.6297 542.6297 542.6843 542.6843
   543.1357 543.1357 543.4066 543.4066 543.9065 543.9065 544.7994 544.7994
   546.8657 546.8657 547.5962 547.5962 548.1374 548.1375 548.1809 548.1809
   548.5710 548.5710 548.8260 548.8260 549.0255 549.0255 552.0646 552.0646
   553.6496 553.6496 553.8565 553.8565 556.2454 556.2454 556.3774 556.3775
   557.6133 557.6133 557.7226 557.7226 558.5176 558.5176 558.5643 558.5643
   558.8219 558.8219 558.9686 558.9686 559.3467 559.3467 559.4775 559.4775
   559.8290 559.8290 560.1007 560.1007 560.4088 560.4088 560.7531 560.7531
   562.2260 562.2260 562.3266 562.3266 562.6047 562.6047 562.6362 562.6362
   563.2074 563.2074 563.4467 563.4467 563.5689 563.5689 564.9566 564.9566
   564.9760 564.9760 565.3784 565.3784 565.4171 565.4171 565.8342 565.8342
   567.7267 567.7267 568.0629 568.0629 568.9226 568.9226 569.2894 569.2894
   569.6449 569.6449 569.7159 569.7159 569.8680 569.8680 571.0213 571.0213
   571.2509 571.2509 571.8113 571.8113 572.9668 572.9668 573.0453 573.0453
   573.8498 573.8498 575.7597 575.7597 576.4900 576.4900 576.8175 576.8175
   577.8888 577.8888 578.3018 578.3019 578.5442 578.5442 578.6927 578.6927
   580.0844 580.0844 580.1983 580.1983 580.2993 580.2993 580.3767 580.3767
   581.5842 581.5842 582.3307 582.3307 582.6592 582.6592 583.0968 583.0968
   583.2707 583.2707 583.8595 583.8595 584.0450 584.0450 584.7081 584.7081
   584.8329 584.8329 585.1378 585.1378 586.4865 586.4865 587.1235 587.1235
   587.2317 587.2317 587.5624 587.5624 588.0407 588.0407 588.5592 588.5592
   588.7823 588.7823 588.9366 588.9366 589.2774 589.2774 589.5003 589.5003
   590.7151 590.7151 590.8666 590.8666 591.3978 591.3978 591.7274 591.7274
   592.2711 592.2711 593.4510 593.4510 594.0173 594.0173 595.8866 595.8866
   596.4328 596.4328 599.2679 599.2679 599.4300 599.4300 600.7620 600.7620
   601.7347 601.7347 602.1349 602.1349 602.2327 602.2327 602.4559 602.4559
   603.3325 603.3325 603.6809 603.6809 605.2461 605.2461 605.5877 605.5877
   606.2522 606.2522 606.5324 606.5324 607.7480 607.7480 608.0427 608.0427
   608.1259 608.1259 608.3231 608.3231 609.3449 609.3449 609.6895 609.6895
   610.7052 610.7052 611.3530 611.3530 611.5368 611.5368 611.6759 611.6759
   611.8471 611.8471 612.0857 612.0857 612.2229 612.2229 612.5010 612.5010
   612.9846 612.9846 613.4166 613.4166 613.6557 613.6557 614.7472 614.7472
   615.5298 615.5298 615.6552 615.6552 617.4615 617.4615 617.9157 617.9157
   618.5839 618.5839 619.1487 619.1487 619.4727 619.4727 619.9724 619.9724
   620.0614 620.0614 620.1336 620.1336 620.3010 620.3010 620.6131 620.6131
   620.6258 620.6258 621.9433 621.9433 622.2581 622.2581 622.3980 622.3980
   622.7082 622.7082 623.2484 623.2484 624.5591 624.5591 625.1754 625.1754
   625.5811 625.5811 626.7447 626.7447 628.8930 628.8930 629.8605 629.8605
   630.0043 630.0043 631.9736 631.9736 632.0296 632.0296 633.1692 633.1692
   633.5394 633.5394 633.8370 633.8370 634.3659 634.3659 634.4050 634.4050
   634.7843 634.7843 634.9009 634.9009 634.9314 634.9314 635.6005 635.6005
   635.6560 635.6560 637.9180 637.9180 638.0469 638.0469 638.3677 638.3677
   639.2137 639.2137 639.3552 639.3552 639.6130 639.6130 639.9716 639.9716
   640.0691 640.0691 646.9222 646.9222 647.1593 647.1593 648.1015 648.1015
   648.7857 648.7857 648.9764 648.9764 649.2263 649.2263 649.3850 649.3850
   650.0640 650.0640 650.5491 650.5491 651.4944 651.4944 651.6394 651.6394
   651.7099 651.7099 652.7227 652.7227 653.5062 653.5062 653.8351 653.8351
   653.9328 653.9328 654.2072 654.2072 655.1360 655.1360 655.3433 655.3433
   656.9822 656.9822 657.7065 657.7065 658.0646 658.0646 658.5523 658.5523
   658.8965 658.8965 658.9747 658.9747 659.1446 659.1446 659.3805 659.3805
   659.9551 659.9551 660.1364 660.1364 660.6349 660.6349 660.8415 660.8415
   662.0919 662.0919 662.0979 662.0979 662.4081 662.4081 662.7305 662.7305
   663.7310 663.7310 663.9209 663.9209 664.2061 664.2061 664.6270 664.6270
   664.8304 664.8304 664.8963 664.8963 666.0599 666.0599 666.3364 666.3364
   666.5828 666.5828 666.6681 666.6681 667.0249 667.0249 667.1521 667.1521
   668.1092 668.1092 668.2051 668.2051 668.4773 668.4773 672.2844 672.2844
   672.3702 672.3702 672.9177 672.9177 673.5299 673.5299 673.7385 673.7385
   674.0372 674.0372 674.2167 674.2167 676.6225 676.6225 676.8615 676.8615

     the Fermi energy is     7.1899 ev
     (compare with:     3.3722 eV, computed in scf)

     Writing all to output data dir out/mp-984.save/
 
     init_run     :      0.04s CPU      0.05s WALL (       1 calls)
     electrons    :   1900.87s CPU   2047.50s WALL (       1 calls)

     Called by init_run:
     wfcinit      :      0.00s CPU      0.00s WALL (       1 calls)
     potinit      :      0.01s CPU      0.01s WALL (       1 calls)
     hinit0       :      0.01s CPU      0.02s WALL (       1 calls)

     Called by electrons:
     c_bands      :   1900.86s CPU   2047.49s WALL (       1 calls)
     v_of_rho     :      0.01s CPU      0.01s WALL (       1 calls)

     Called by c_bands:
     init_us_2    :      0.00s CPU      0.00s WALL (       8 calls)
     init_us_2:cp :      0.00s CPU      0.00s WALL (       8 calls)
     paro_k       :   1845.61s CPU   1988.33s WALL (       8 calls)

     Called by paro_*:
     h_psi        :     20.26s CPU     20.99s WALL (    1060 calls)
     g_psi        :      0.38s CPU      0.43s WALL (  108966 calls)

     Called by h_psi:
     h_psi:calbec :      0.44s CPU      0.46s WALL (    1060 calls)
     vloc_psi     :     19.36s CPU     20.06s WALL (    1060 calls)
     add_vuspsi   :      0.33s CPU      0.34s WALL (    1060 calls)

     General routines
     calbec       :      0.44s CPU      0.46s WALL (    1060 calls)
     fft          :      0.01s CPU      0.01s WALL (      10 calls)
     fftw         :     17.74s CPU     18.38s WALL (  179522 calls)
 
     Parallel routines
 
     PWSCF        :  31m41.86s CPU  34m 9.02s WALL

 
   This run was terminated on:  14:38:10  18Dec2023            

=------------------------------------------------------------------------------=
   JOB DONE.
=------------------------------------------------------------------------------=
