
     Program PWSCF v.7.1 starts on 18Dec2023 at 14: 2:21 

     This program is part of the open-source Quantum ESPRESSO suite
     for quantum simulation of materials; please cite
         "P. Giannozzi et al., J. Phys.:Condens. Matter 21 395502 (2009);
         "P. Giannozzi et al., J. Phys.:Condens. Matter 29 465901 (2017);
         "P. Giannozzi et al., J. Chem. Phys. 152 154105 (2020);
          URL http://www.quantum-espresso.org", 
     in publications or presentations arising from this work. More details at
     http://www.quantum-espresso.org/quote

     Parallel version (MPI), running on     8 processors

     MPI processes distributed on     1 nodes
     123285 MiB available memory on the printing compute node when the environment starts
 
     Reading input from pw_mp-984_scf_k3000_E80.in
Warning: card &CELL ignored
Warning: card / ignored

     Current dimensions of program PWSCF are:
     Max number of different atomic species (ntypx) = 10
     Max number of k-points (npk) =  40000
     Max angular momentum in pseudopotentials (lmaxx) =  4
 
     R & G space division:  proc/nbgrp/npool/nimage =       8
     Subspace diagonalization in iterative solution of the eigenvalue problem:
     a serial algorithm will be used

 
     Parallelization info
     --------------------
     sticks:   dense  smooth     PW     G-vecs:    dense   smooth      PW
     Min          62      62     18                 3442     3442     562
     Max          63      63     19                 3457     3457     571
     Sum         499     499    151                27593    27593    4551
 
     Using Slab Decomposition
 


     bravais-lattice index     =            4
     lattice parameter (alat)  =       4.7478  a.u.
     unit-cell volume          =     284.3248 (a.u.)^3
     number of atoms/cell      =            4
     number of atomic types    =            2
     number of electrons       =        16.00
     number of Kohn-Sham states=           16
     kinetic-energy cutoff     =      80.0000  Ry
     charge density cutoff     =     320.0000  Ry
     scf convergence threshold =      1.0E-10
     mixing beta               =       0.7000
     number of iterations used =            8  plain     mixing
     Exchange-correlation= PBE
                           (   1   4   3   4   0   0   0)

     celldm(1)=   4.747801  celldm(2)=   0.000000  celldm(3)=   3.067656
     celldm(4)=   0.000000  celldm(5)=   0.000000  celldm(6)=   0.000000

     crystal axes: (cart. coord. in units of alat)
               a(1) = (   1.000000   0.000000   0.000000 )  
               a(2) = (  -0.500000   0.866025   0.000000 )  
               a(3) = (   0.000000   0.000000   3.067656 )  

     reciprocal axes: (cart. coord. in units 2 pi/alat)
               b(1) = (  1.000000  0.577350  0.000000 )  
               b(2) = (  0.000000  1.154701  0.000000 )  
               b(3) = (  0.000000  0.000000  0.325982 )  


     PseudoPot. # 1 for B  read from file:
     /usr/scratch4/magr4985/MG/HTDF/pseudo/SG15/B.upf
     MD5 check sum: eb3cbeacc2d324d57d903df00f564d27
     Pseudo is Norm-conserving, Zval =  3.0
     Generated using ONCVPSP code by D. R. Hamann
     Using radial grid of  602 points,  4 beta functions with: 
                l(1) =   0
                l(2) =   0
                l(3) =   1
                l(4) =   1

     PseudoPot. # 2 for N  read from file:
     /usr/scratch4/magr4985/MG/HTDF/pseudo/SG15/N.upf
     MD5 check sum: c233fa8df51455e992258b7c3dee8a9f
     Pseudo is Norm-conserving, Zval =  5.0
     Generated using ONCVPSP code by D. R. Hamann
     Using radial grid of  602 points,  4 beta functions with: 
                l(1) =   0
                l(2) =   0
                l(3) =   1
                l(4) =   1

     atomic species   valence    mass     pseudopotential
        B              3.00    10.81100     B ( 1.00)
        N              5.00    14.00670     N ( 1.00)

     12 Sym. Ops., with inversion, found



   Cartesian axes

     site n.     atom                  positions (alat units)
         1           B   tau(   1) = (   0.5000000   0.2886752   0.7669140  )
         2           B   tau(   2) = (   0.0000000   0.5773502   2.3007420  )
         3           N   tau(   3) = (   0.5000000   0.2886752   2.3007420  )
         4           N   tau(   4) = (   0.0000000   0.5773502   0.7669140  )

     number of k points=    88  Gaussian smearing, width (Ry)=  0.0005
                       cart. coord. in units 2pi/alat
        k(    1) = (   0.0000000   0.0000000   0.0000000), wk =   0.0025510
        k(    2) = (   0.0000000   0.0000000   0.0814955), wk =   0.0051020
        k(    3) = (   0.0000000   0.0000000  -0.1629909), wk =   0.0025510
        k(    4) = (   0.0000000   0.0824786   0.0000000), wk =   0.0153061
        k(    5) = (   0.0000000   0.0824786   0.0814955), wk =   0.0153061
        k(    6) = (   0.0000000   0.0824786  -0.1629909), wk =   0.0153061
        k(    7) = (   0.0000000   0.1649572   0.0000000), wk =   0.0153061
        k(    8) = (   0.0000000   0.1649572   0.0814955), wk =   0.0153061
        k(    9) = (   0.0000000   0.1649572  -0.1629909), wk =   0.0153061
        k(   10) = (   0.0000000   0.2474358   0.0000000), wk =   0.0153061
        k(   11) = (   0.0000000   0.2474358   0.0814955), wk =   0.0153061
        k(   12) = (   0.0000000   0.2474358  -0.1629909), wk =   0.0153061
        k(   13) = (   0.0000000   0.3299144   0.0000000), wk =   0.0153061
        k(   14) = (   0.0000000   0.3299144   0.0814955), wk =   0.0153061
        k(   15) = (   0.0000000   0.3299144  -0.1629909), wk =   0.0153061
        k(   16) = (   0.0000000   0.4123930   0.0000000), wk =   0.0153061
        k(   17) = (   0.0000000   0.4123930   0.0814955), wk =   0.0153061
        k(   18) = (   0.0000000   0.4123930  -0.1629909), wk =   0.0153061
        k(   19) = (   0.0000000   0.4948717   0.0000000), wk =   0.0153061
        k(   20) = (   0.0000000   0.4948717   0.0814955), wk =   0.0153061
        k(   21) = (   0.0000000   0.4948717  -0.1629909), wk =   0.0153061
        k(   22) = (   0.0000000  -0.5773503   0.0000000), wk =   0.0076531
        k(   23) = (   0.0000000  -0.5773503   0.0814955), wk =   0.0153061
        k(   24) = (   0.0000000  -0.5773503  -0.1629909), wk =   0.0076531
        k(   25) = (   0.0714286   0.1237179   0.0000000), wk =   0.0153061
        k(   26) = (   0.0714286   0.1237179   0.0814955), wk =   0.0306122
        k(   27) = (   0.0714286   0.1237179  -0.1629909), wk =   0.0153061
        k(   28) = (   0.0714286   0.2061965   0.0000000), wk =   0.0306122
        k(   29) = (   0.0714286   0.2061965   0.0814955), wk =   0.0306122
        k(   30) = (   0.0714286   0.2061965  -0.1629909), wk =   0.0306122
        k(   31) = (   0.0714286   0.2886751   0.0000000), wk =   0.0306122
        k(   32) = (   0.0714286   0.2886751   0.0814955), wk =   0.0306122
        k(   33) = (   0.0714286   0.2886751  -0.1629909), wk =   0.0306122
        k(   34) = (   0.0714286   0.3711537   0.0000000), wk =   0.0306122
        k(   35) = (   0.0714286   0.3711537   0.0814955), wk =   0.0306122
        k(   36) = (   0.0714286   0.3711537  -0.1629909), wk =   0.0306122
        k(   37) = (   0.0714286   0.4536324   0.0000000), wk =   0.0306122
        k(   38) = (   0.0714286   0.4536324   0.0814955), wk =   0.0306122
        k(   39) = (   0.0714286   0.4536324  -0.1629909), wk =   0.0306122
        k(   40) = (   0.0714286   0.5361110   0.0000000), wk =   0.0306122
        k(   41) = (   0.0714286   0.5361110   0.0814955), wk =   0.0306122
        k(   42) = (   0.0714286   0.5361110  -0.1629909), wk =   0.0306122
        k(   43) = (   0.1428571   0.2474358   0.0000000), wk =   0.0153061
        k(   44) = (   0.1428571   0.2474358   0.0814955), wk =   0.0306122
        k(   45) = (   0.1428571   0.2474358  -0.1629909), wk =   0.0153061
        k(   46) = (   0.1428571   0.3299144   0.0000000), wk =   0.0306122
        k(   47) = (   0.1428571   0.3299144   0.0814955), wk =   0.0306122
        k(   48) = (   0.1428571   0.3299144  -0.1629909), wk =   0.0306122
        k(   49) = (   0.1428571   0.4123930   0.0000000), wk =   0.0306122
        k(   50) = (   0.1428571   0.4123930   0.0814955), wk =   0.0306122
        k(   51) = (   0.1428571   0.4123930  -0.1629909), wk =   0.0306122
        k(   52) = (   0.1428571   0.4948717   0.0000000), wk =   0.0306122
        k(   53) = (   0.1428571   0.4948717   0.0814955), wk =   0.0306122
        k(   54) = (   0.1428571   0.4948717  -0.1629909), wk =   0.0306122
        k(   55) = (   0.1428571   0.5773503   0.0000000), wk =   0.0153061
        k(   56) = (   0.1428571   0.5773503   0.0814955), wk =   0.0306122
        k(   57) = (   0.1428571   0.5773503  -0.1629909), wk =   0.0153061
        k(   58) = (   0.2142857   0.3711537   0.0000000), wk =   0.0153061
        k(   59) = (   0.2142857   0.3711537   0.0814955), wk =   0.0306122
        k(   60) = (   0.2142857   0.3711537  -0.1629909), wk =   0.0153061
        k(   61) = (   0.2142857   0.4536324   0.0000000), wk =   0.0306122
        k(   62) = (   0.2142857   0.4536324   0.0814955), wk =   0.0306122
        k(   63) = (   0.2142857   0.4536324  -0.1629909), wk =   0.0306122
        k(   64) = (   0.2142857   0.5361110   0.0000000), wk =   0.0306122
        k(   65) = (   0.2142857   0.5361110   0.0814955), wk =   0.0306122
        k(   66) = (   0.2142857   0.5361110  -0.1629909), wk =   0.0306122
        k(   67) = (   0.2857143   0.4948717   0.0000000), wk =   0.0153061
        k(   68) = (   0.2857143   0.4948717   0.0814955), wk =   0.0306122
        k(   69) = (   0.2857143   0.4948717  -0.1629909), wk =   0.0153061
        k(   70) = (   0.2857143   0.5773503   0.0000000), wk =   0.0153061
        k(   71) = (   0.2857143   0.5773503   0.0814955), wk =   0.0306122
        k(   72) = (   0.2857143   0.5773503  -0.1629909), wk =   0.0153061
        k(   73) = (   0.0000000   0.0824786  -0.0814955), wk =   0.0153061
        k(   74) = (   0.0000000   0.1649572  -0.0814955), wk =   0.0153061
        k(   75) = (   0.0000000   0.2474358  -0.0814955), wk =   0.0153061
        k(   76) = (   0.0000000   0.3299144  -0.0814955), wk =   0.0153061
        k(   77) = (   0.0000000   0.4123930  -0.0814955), wk =   0.0153061
        k(   78) = (   0.0000000   0.4948717  -0.0814955), wk =   0.0153061
        k(   79) = (  -0.0714286   0.2061965  -0.0814955), wk =   0.0306122
        k(   80) = (  -0.0714286   0.2886751  -0.0814955), wk =   0.0306122
        k(   81) = (  -0.0714286   0.3711537  -0.0814955), wk =   0.0306122
        k(   82) = (  -0.0714286   0.4536324  -0.0814955), wk =   0.0306122
        k(   83) = (  -0.0714286   0.5361110  -0.0814955), wk =   0.0306122
        k(   84) = (  -0.1428571   0.3299144  -0.0814955), wk =   0.0306122
        k(   85) = (  -0.1428571   0.4123930  -0.0814955), wk =   0.0306122
        k(   86) = (  -0.1428571   0.4948717  -0.0814955), wk =   0.0306122
        k(   87) = (  -0.2142857   0.4536324  -0.0814955), wk =   0.0306122
        k(   88) = (  -0.2142857   0.5361110  -0.0814955), wk =   0.0306122

     Dense  grid:    27593 G-vectors     FFT dimensions: (  27,  27,  90)

     Estimated max dynamical RAM per process >       3.75 MB

     Estimated total dynamical RAM >      30.01 MB

     Initial potential from superposition of free atoms

     starting charge      15.9606, renormalised to      16.0000
     Starting wfcs are random

     total cpu time spent up to now is        0.6 secs

     Self-consistent Calculation

     iteration #  1     ecut=    80.00 Ry     beta= 0.70
     Davidson diagonalization with overlap
     ethr =  1.00E-02,  avg # of iterations = 10.3

     total cpu time spent up to now is        4.1 secs

     total energy              =     -51.32343453 Ry
     estimated scf accuracy    <       0.67372029 Ry

     iteration #  2     ecut=    80.00 Ry     beta= 0.70
     Davidson diagonalization with overlap
     ethr =  4.21E-03,  avg # of iterations =  2.0

     total cpu time spent up to now is        5.4 secs

     total energy              =     -51.47167157 Ry
     estimated scf accuracy    <       0.23934261 Ry

     iteration #  3     ecut=    80.00 Ry     beta= 0.70
     Davidson diagonalization with overlap
     ethr =  1.50E-03,  avg # of iterations =  1.4

     total cpu time spent up to now is        6.4 secs

     total energy              =     -51.52234537 Ry
     estimated scf accuracy    <       0.00384791 Ry

     iteration #  4     ecut=    80.00 Ry     beta= 0.70
     Davidson diagonalization with overlap
     ethr =  2.40E-05,  avg # of iterations =  6.4

     total cpu time spent up to now is        8.2 secs

     total energy              =     -51.52383998 Ry
     estimated scf accuracy    <       0.00031662 Ry

     iteration #  5     ecut=    80.00 Ry     beta= 0.70
     Davidson diagonalization with overlap
     ethr =  1.98E-06,  avg # of iterations =  4.6

     total cpu time spent up to now is        9.6 secs

     total energy              =     -51.52391198 Ry
     estimated scf accuracy    <       0.00000825 Ry

     iteration #  6     ecut=    80.00 Ry     beta= 0.70
     Davidson diagonalization with overlap
     ethr =  5.15E-08,  avg # of iterations =  1.9

     total cpu time spent up to now is       10.8 secs

     total energy              =     -51.52391328 Ry
     estimated scf accuracy    <       0.00000063 Ry

     iteration #  7     ecut=    80.00 Ry     beta= 0.70
     Davidson diagonalization with overlap
     ethr =  3.94E-09,  avg # of iterations =  2.0

     total cpu time spent up to now is       11.9 secs

     total energy              =     -51.52391340 Ry
     estimated scf accuracy    <       0.00000008 Ry

     iteration #  8     ecut=    80.00 Ry     beta= 0.70
     Davidson diagonalization with overlap
     ethr =  4.71E-10,  avg # of iterations =  2.2

     total cpu time spent up to now is       13.2 secs

     total energy              =     -51.52391343 Ry
     estimated scf accuracy    <       0.00000001 Ry

     iteration #  9     ecut=    80.00 Ry     beta= 0.70
     Davidson diagonalization with overlap
     ethr =  7.79E-11,  avg # of iterations =  1.3

     total cpu time spent up to now is       14.3 secs

     total energy              =     -51.52391343 Ry
     estimated scf accuracy    <          1.1E-10 Ry

     iteration # 10     ecut=    80.00 Ry     beta= 0.70
     Davidson diagonalization with overlap
     ethr =  6.61E-13,  avg # of iterations =  3.7

     total cpu time spent up to now is       15.7 secs

     End of self-consistent calculation

          k = 0.0000 0.0000 0.0000 (  3413 PWs)   bands (ev):

   -14.3900 -14.3040  -2.4315  -1.4654   1.8396   1.8396   1.8469   1.8469
     7.8588  11.7847  14.1997  14.7241  14.7241  14.7573  14.7573  15.8011

          k = 0.0000 0.0000 0.0815 (  3461 PWs)   bands (ev):

   -14.3777 -14.3169  -2.3065  -1.6270   1.8406   1.8406   1.8458   1.8458
     8.2998  10.9108  14.7102  14.7289  14.7289  14.7523  14.7524  15.6835

          k = 0.0000 0.0000-0.1630 (  3426 PWs)   bands (ev):

   -14.3475 -14.3475  -1.9846  -1.9846   1.8432   1.8432   1.8432   1.8432
     9.4551   9.4551  14.7406  14.7406  14.7406  14.7406  15.3271  15.3271

          k = 0.0000 0.0825 0.0000 (  3433 PWs)   bands (ev):

   -14.2923 -14.2074  -2.2971  -1.3387   1.4294   1.4323   1.6471   1.6552
     8.0374  11.8255  14.2609  14.6802  14.8945  15.1579  15.1909  15.4881

          k = 0.0000 0.0825 0.0815 (  3442 PWs)   bands (ev):

   -14.2801 -14.2201  -2.1731  -1.4989   1.4302   1.4324   1.6483   1.6540
     8.4717  11.0155  14.5139  14.6767  15.0105  15.1627  15.1860  15.4436

          k = 0.0000 0.0825-0.1630 (  3446 PWs)   bands (ev):

   -14.2503 -14.2503  -1.8537  -1.8537   1.4318   1.4318   1.6511   1.6511
     9.6063   9.6064  14.6482  14.6482  15.1743  15.1743  15.2838  15.2838

          k = 0.0000 0.1650 0.0000 (  3429 PWs)   bands (ev):

   -14.0029 -13.9215  -1.8979  -0.9634   0.3462   0.3512   1.1542   1.1640
     8.5309  11.8840  14.0928  14.5629  14.5937  15.6079  16.3625  16.3955

          k = 0.0000 0.1650 0.0815 (  3439 PWs)   bands (ev):

   -13.9912 -13.9336  -1.7771  -1.1201   0.3487   0.3519   1.1556   1.1625
     8.9445  11.2573  14.1931  14.4625  14.7233  15.2833  16.3672  16.3906

          k = 0.0000 0.1650-0.1630 (  3434 PWs)   bands (ev):

   -13.9626 -13.9626  -1.4660  -1.4660   0.3517   0.3517   1.1591   1.1591
    10.0094  10.0095  14.3415  14.3415  14.9384  14.9384  16.3789  16.3789

          k = 0.0000 0.2474 0.0000 (  3436 PWs)   bands (ev):

   -13.5351 -13.4596  -1.2476  -1.1042  -1.0972  -0.3564   0.5336   0.5451
     9.2820  11.7232  13.2421  13.8093  14.4068  16.3152  16.6701  18.1220

          k = 0.0000 0.2474 0.0815 (  3425 PWs)   bands (ev):

   -13.5242 -13.4708  -1.1659  -1.1048  -1.0653  -0.4985   0.5353   0.5434
     9.6473  11.3967  13.3222  13.7582  14.4215  15.1651  17.9429  18.1271

          k = 0.0000 0.2474-0.1630 (  3432 PWs)   bands (ev):

   -13.4977 -13.4977  -1.1175  -1.1175  -0.8140  -0.8140   0.5393   0.5393
    10.5340  10.5341  13.5482  13.5482  14.5503  14.5503  18.1395  18.1395

          k = 0.0000 0.3299 0.0000 (  3428 PWs)   bands (ev):

   -12.9190 -12.8521  -2.6594  -2.6473  -0.3772  -0.0646  -0.0518   0.4448
    10.2528  10.9913  11.6391  13.5454  14.2789  16.1383  17.7696  20.1934

          k = 0.0000 0.3299 0.0815 (  3427 PWs)   bands (ev):

   -12.9093 -12.8620  -2.6583  -2.6497  -0.2672  -0.0627  -0.0537   0.3121
    10.4246  10.9311  11.8906  13.3888  14.2940  15.1683  18.7570  20.2285

          k = 0.0000 0.3299-0.1630 (  3438 PWs)   bands (ev):

   -12.8858 -12.8858  -2.6547  -2.6547  -0.0582  -0.0582   0.0113   0.0113
    10.7251  10.7251  12.6741  12.6741  14.4350  14.4350  19.8649  19.8649

          k = 0.0000 0.4124 0.0000 (  3436 PWs)   bands (ev):

   -12.2204 -12.1661  -4.1054  -4.0875  -0.5438  -0.5301   0.6426   1.3560
     9.6701  10.1126  11.3636  13.3440  14.2784  16.5576  18.3743  21.1345

          k = 0.0000 0.4124 0.0815 (  3440 PWs)   bands (ev):

   -12.2126 -12.1742  -4.1032  -4.0905  -0.5418  -0.5321   0.7396   1.2430
     9.6780   9.9639  11.8445  13.2415  14.3399  15.6806  19.1286  20.8323

          k = 0.0000 0.4124-0.1630 (  3438 PWs)   bands (ev):

   -12.1935 -12.1935  -4.0972  -4.0972  -0.5370  -0.5370   0.9833   0.9833
     9.7691   9.7691  12.7351  12.7351  14.6865  14.6865  20.1277  20.1278

          k = 0.0000 0.4949 0.0000 (  3446 PWs)   bands (ev):

   -11.5887 -11.5530  -5.2071  -5.1871  -0.8493  -0.8352   1.6297   2.1761
     8.3259   8.9122  12.3353  13.2199  14.6543  17.2667  17.4779  20.0246

          k = 0.0000 0.4949 0.0815 (  3442 PWs)   bands (ev):

   -11.5835 -11.5583  -5.2045  -5.1903  -0.8473  -0.8373   1.7067   2.0930
     8.3810   8.7919  12.5636  13.1699  14.8375  16.4282  18.1892  19.6598

          k = 0.0000 0.4949-0.1630 (  3448 PWs)   bands (ev):

   -11.5709 -11.5709  -5.1977  -5.1977  -0.8423  -0.8423   1.8968   1.8968
     8.5555   8.5555  12.9580  12.9580  15.4578  15.4578  18.9708  18.9708

          k = 0.0000-0.5774 0.0000 (  3466 PWs)   bands (ev):

   -11.3076 -11.2890  -5.6427  -5.6240  -0.9539  -0.9396   2.1140   2.5235
     7.7330   8.3987  12.6912  13.1781  15.4615  16.2560  17.7270  19.4678

          k = 0.0000-0.5774 0.0815 (  3432 PWs)   bands (ev):

   -11.3049 -11.2917  -5.6402  -5.6270  -0.9518  -0.9417   2.1742   2.4643
     7.8011   8.2694  12.8055  13.1444  15.6993  16.2848  17.7588  18.9439

          k = 0.0000-0.5774-0.1630 (  3452 PWs)   bands (ev):

   -11.2983 -11.2983  -5.6339  -5.6339  -0.9468  -0.9468   2.3196   2.3196
     8.0054   8.0054  13.0152  13.0152  16.1390  16.1390  18.1048  18.1048

          k = 0.0714 0.1237 0.0000 (  3439 PWs)   bands (ev):

   -14.0987 -14.0161  -2.0303  -1.0876   0.7208   0.7244   1.2657   1.2744
     8.3741  11.8769  14.4201  14.6668  14.8879  15.0019  15.8402  16.1353

          k = 0.0714 0.1237 0.0815 (  3437 PWs)   bands (ev):

   -14.0868 -14.0284  -1.9083  -1.2454   0.7228   0.7248   1.2670   1.2731
     8.7951  11.1917  14.5278  14.6616  14.9052  14.9860  15.8496  16.0073

          k = 0.0714 0.1237-0.1630 (  3430 PWs)   bands (ev):

   -14.0578 -14.0578  -1.5943  -1.5943   0.7249   0.7249   1.2701   1.2701
     9.8856   9.8856  14.6297  14.6297  14.9463  14.9463  15.8919  15.8919

          k = 0.0714 0.2062 0.0000 (  3438 PWs)   bands (ev):

   -13.7196 -13.6417  -1.5050  -0.5959  -0.4743  -0.4680   0.6366   0.6472
     9.0019  11.8371  13.7823  14.3367  14.7443  15.6707  16.5242  16.9407

          k = 0.0714 0.2062 0.0815 (  3430 PWs)   bands (ev):

   -13.7084 -13.6533  -1.3885  -0.7556  -0.4674  -0.4622   0.6382   0.6458
     9.3905  11.4006  13.8470  14.2657  14.7461  15.1049  16.8014  16.9318

          k = 0.0714 0.2062-0.1630 (  3444 PWs)   bands (ev):

   -13.6810 -13.6810  -1.0893  -1.0893  -0.4626  -0.4626   0.6421   0.6421
    10.3645  10.3645  14.0378  14.0379  14.7924  14.7924  16.9004  16.9004

          k = 0.0714 0.2887 0.0000 (  3425 PWs)   bands (ev):

   -13.1756 -13.1048  -1.9243  -1.9157  -0.7425  -0.0264  -0.0140   0.1109
     9.8787  11.3983  12.3277  14.0867  14.6925  16.1123  16.8399  18.4476

          k = 0.0714 0.2887 0.0815 (  3435 PWs)   bands (ev):

   -13.1654 -13.1154  -1.9245  -1.9182  -0.6283  -0.0379  -0.0212  -0.0082
    10.1737  11.2547  12.4901  13.8536  14.6890  15.1397  17.7291  18.4062

          k = 0.0714 0.2887-0.1630 (  3444 PWs)   bands (ev):

   -13.1405 -13.1405  -1.9226  -1.9226  -0.3403  -0.3403  -0.0191  -0.0191
    10.7964  10.7964  13.0587  13.0587  14.7272  14.7272  18.2407  18.2407

          k = 0.0714 0.3712 0.0000 (  3436 PWs)   bands (ev):

   -12.5112 -12.4508  -3.4004  -3.3858  -0.5956  -0.5819   0.2108   0.9766
    10.3562  10.7664  10.9612  13.8617  14.6247  16.2526  17.9455  20.0899

          k = 0.0714 0.3712 0.0815 (  3431 PWs)   bands (ev):

   -12.5025 -12.4598  -3.3987  -3.3883  -0.5937  -0.5840   0.3142   0.8542
    10.3180  10.4883  11.6724  13.6777  14.6353  15.4149  18.6808  19.9547

          k = 0.0714 0.3712-0.1630 (  3432 PWs)   bands (ev):

   -12.4812 -12.4812  -3.3940  -3.3940  -0.5890  -0.5890   0.5748   0.5748
    10.3413  10.3413  12.8153  12.8153  14.7553  14.7553  19.5016  19.5016

          k = 0.0714 0.4536 0.0000 (  3439 PWs)   bands (ev):

   -11.8259 -11.7808  -4.6780  -4.6586  -1.0032  -0.9887   1.2431   1.8716
     8.9586   9.4215  12.1254  13.7005  14.7027  16.7646  18.0651  20.3080

          k = 0.0714 0.4536 0.0815 (  3431 PWs)   bands (ev):

   -11.8194 -11.7875  -4.6755  -4.6618  -1.0012  -0.9909   1.3301   1.7740
     8.9914   9.3130  12.4925  13.6146  14.7784  16.0491  18.6502  20.0359

          k = 0.0714 0.4536-0.1630 (  3436 PWs)   bands (ev):

   -11.8035 -11.8035  -4.6689  -4.6689  -0.9961  -0.9961   1.5468   1.5468
     9.1179   9.1179  13.2090  13.2090  15.1526  15.1526  19.4549  19.4549

          k = 0.0714 0.5361 0.0000 (  3449 PWs)   bands (ev):

   -11.3337 -11.3095  -5.4736  -5.4539  -1.2145  -1.1996   2.0565   2.4997
     7.9227   8.5224  12.9512  13.6173  15.2424  16.8428  17.2622  19.6135

          k = 0.0714 0.5361 0.0815 (  3444 PWs)   bands (ev):

   -11.3302 -11.3131  -5.4710  -5.4570  -1.2124  -1.2018   2.1210   2.4347
     7.9825   8.4046  13.1147  13.5754  15.4320  16.4932  17.6868  19.1919

          k = 0.0714 0.5361-0.1630 (  3440 PWs)   bands (ev):

   -11.3216 -11.3216  -5.4643  -5.4643  -1.2072  -1.2072   2.2775   2.2775
     8.1654   8.1654  13.4067  13.4067  15.9301  15.9301  18.4016  18.4016

          k = 0.1429 0.2474 0.0000 (  3437 PWs)   bands (ev):

   -13.2629 -13.1909  -1.5376  -1.5313  -0.8661  -0.1660  -0.1531  -0.0027
     9.7660  11.5339  12.6016  15.1528  15.1573  15.6947  16.1257  17.3263

          k = 0.1429 0.2474 0.0815 (  3438 PWs)   bands (ev):

   -13.2525 -13.2016  -1.5383  -1.5350  -0.7498  -0.1746  -0.1545  -0.1315
    10.0866  11.3555  12.7517  14.3847  15.1764  15.2923  16.8302  17.2951

          k = 0.1429 0.2474-0.1630 (  3442 PWs)   bands (ev):

   -13.2272 -13.2272  -1.5386  -1.5386  -0.4591  -0.4591  -0.1574  -0.1574
    10.7970  10.7970  13.2971  13.2971  15.2250  15.2250  17.1757  17.1757

          k = 0.1429 0.3299 0.0000 (  3436 PWs)   bands (ev):

   -12.6640 -12.6007  -2.7767  -2.7679  -0.9368  -0.9222  -0.0135   0.7774
    10.7808  10.7849  11.2084  15.0801  15.6036  16.0573  16.6879  18.2725

          k = 0.1429 0.3299 0.0815 (  3431 PWs)   bands (ev):

   -12.6549 -12.6101  -2.7760  -2.7698  -0.9350  -0.9247   0.0933   0.6508
    10.6588  10.7498  11.7823  14.4387  15.5483  15.5849  17.4133  18.2013

          k = 0.1429 0.3299-0.1630 (  3420 PWs)   bands (ev):

   -12.6326 -12.6326  -2.7734  -2.7734  -0.9302  -0.9302   0.3622   0.3622
    10.6669  10.6669  12.9951  12.9951  15.5258  15.5258  17.9540  17.9540

          k = 0.1429 0.4124 0.0000 (  3443 PWs)   bands (ev):

   -11.9904 -11.9395  -4.0268  -4.0111  -1.5136  -1.4981   0.9811   1.6590
     9.6000   9.8588  12.0074  14.9052  15.6316  16.2264  17.7718  19.7080

          k = 0.1429 0.4124 0.0815 (  3430 PWs)   bands (ev):

   -11.9830 -11.9471  -4.0248  -4.0137  -1.5115  -1.5005   1.0741   1.5527
     9.5961   9.7701  12.4841  14.6203  15.6097  15.8163  18.1841  19.4843

          k = 0.1429 0.4124-0.1630 (  3418 PWs)   bands (ev):

   -11.9651 -11.9651  -4.0195  -4.0195  -1.5062  -1.5062   1.3068   1.3068
     9.6438   9.6438  13.5839  13.5839  15.5955  15.5955  18.8756  18.8756

          k = 0.1429 0.4949 0.0000 (  3433 PWs)   bands (ev):

   -11.3887 -11.3559  -5.0169  -4.9964  -1.8632  -1.8470   1.9389   2.4433
     8.3864   8.8016  13.2852  14.7816  15.6425  16.3661  17.6593  19.6704

          k = 0.1429 0.4949 0.0815 (  3440 PWs)   bands (ev):

   -11.3839 -11.3607  -5.0141  -4.9996  -1.8609  -1.8495   2.0110   2.3678
     8.4218   8.7146  13.5976  14.6861  15.6634  16.1281  17.9798  19.4969

          k = 0.1429 0.4949-0.1630 (  3436 PWs)   bands (ev):

   -11.3724 -11.3724  -5.0071  -5.0071  -1.8553  -1.8553   2.1876   2.1876
     8.5433   8.5433  14.2580  14.2580  15.7857  15.7857  18.6775  18.6775

          k = 0.1429 0.5774 0.0000 (  3432 PWs)   bands (ev):

   -11.1246 -11.1078  -5.4125  -5.3911  -1.9801  -1.9636   2.4089   2.7683
     7.8508   8.3422  13.9844  14.7379  15.7771  16.3990  16.9631  19.4747

          k = 0.1429 0.5774 0.0815 (  3443 PWs)   bands (ev):

   -11.1221 -11.1102  -5.4096  -5.3945  -1.9778  -1.9662   2.4629   2.7176
     7.8979   8.2449  14.1595  14.6898  15.8760  16.2059  17.4154  19.3088

          k = 0.1429 0.5774-0.1630 (  3442 PWs)   bands (ev):

   -11.1162 -11.1162  -5.4023  -5.4023  -1.9721  -1.9721   2.5919   2.5919
     8.0467   8.0467  14.4916  14.4916  16.0288  16.0288  18.3439  18.3439

          k = 0.2143 0.3712 0.0000 (  3437 PWs)   bands (ev):

   -12.0487 -11.9961  -3.6412  -3.6325  -1.8690  -1.8533   0.8892   1.5832
     9.9179  10.0040  11.9512  15.9811  16.3449  16.5294  16.7174  18.3889

          k = 0.2143 0.3712 0.0815 (  3416 PWs)   bands (ev):

   -12.0411 -12.0038  -3.6402  -3.6341  -1.8669  -1.8558   0.9842   1.4740
     9.8930   9.9250  12.4598  15.0371  16.3778  16.5825  17.2276  18.2659

          k = 0.2143 0.3712-0.1630 (  3428 PWs)   bands (ev):

   -12.0226 -12.0226  -3.6374  -3.6374  -1.8616  -1.8616   1.2220   1.2220
     9.8666   9.8666  13.6509  13.6509  16.4696  16.4696  17.8663  17.8663

          k = 0.2143 0.4536 0.0000 (  3428 PWs)   bands (ev):

   -11.4303 -11.3924  -4.4805  -4.4635  -2.5397  -2.5239   1.8531   2.3971
     8.8367   9.0013  13.3114  15.6782  16.2591  16.8279  17.7864  19.4763

          k = 0.2143 0.4536 0.0815 (  3437 PWs)   bands (ev):

   -11.4248 -11.3980  -4.4782  -4.4662  -2.5376  -2.5264   1.9301   2.3147
     8.8355   8.9541  13.6862  15.3865  16.3483  16.7307  17.8960  19.0106

          k = 0.2143 0.4536-0.1630 (  3428 PWs)   bands (ev):

   -11.4114 -11.4114  -4.4724  -4.4724  -2.5322  -2.5322   2.1196   2.1196
     8.8716   8.8716  14.5699  14.5699  16.5296  16.5296  18.3115  18.3115

          k = 0.2143 0.5361 0.0000 (  3439 PWs)   bands (ev):

   -11.0014 -10.9825  -5.0533  -5.0288  -2.8657  -2.8491   2.6051   2.9418
     8.0368   8.3228  14.6772  15.3889  16.1292  16.3946  18.0507  18.9575

          k = 0.2143 0.5361 0.0815 (  3437 PWs)   bands (ev):

   -10.9986 -10.9852  -5.0499  -5.0325  -2.8634  -2.8517   2.6564   2.8949
     8.0566   8.2595  14.9266  15.4668  16.0834  16.2829  18.1626  19.0365

          k = 0.2143 0.5361-0.1630 (  3446 PWs)   bands (ev):

   -10.9919 -10.9919  -5.0414  -5.0414  -2.8577  -2.8577   2.7777   2.7777
     8.1366   8.1366  15.4028  15.4028  16.0585  16.0585  18.6123  18.6123

          k = 0.2857 0.4949 0.0000 (  3423 PWs)   bands (ev):

   -10.9629 -10.9416  -4.7331  -4.7072  -3.3741  -3.3630   2.6606   3.0018
     8.1948   8.3161  14.7533  14.9555  16.8029  17.2093  18.6293  18.9708

          k = 0.2857 0.4949 0.0815 (  3442 PWs)   bands (ev):

   -10.9598 -10.9447  -4.7294  -4.7111  -3.3727  -3.3648   2.7124   2.9541
     8.1908   8.2786  14.9995  15.0904  16.7610  16.8611  18.7519  18.9565

          k = 0.2857 0.4949-0.1630 (  3440 PWs)   bands (ev):

   -10.9523 -10.9523  -4.7204  -4.7204  -3.3690  -3.3690   2.8353   2.8353
     8.2143   8.2143  15.2930  15.2930  16.5756  16.5756  18.8851  18.8852

          k = 0.2857 0.5774 0.0000 (  3439 PWs)   bands (ev):

   -10.7701 -10.7629  -4.8025  -4.7666  -3.7141  -3.7047   3.0637   3.2049
     7.9225   8.0297  14.6517  15.8711  16.4046  17.1360  18.2752  19.5398

          k = 0.2857 0.5774 0.0815 (  3441 PWs)   bands (ev):

   -10.7691 -10.7640  -4.7973  -4.7719  -3.7130  -3.7064   3.0892   3.1893
     7.9163   7.9927  14.8561  16.1094  16.2131  16.7421  18.8364  19.5253

          k = 0.2857 0.5774-0.1630 (  3436 PWs)   bands (ev):

   -10.7665 -10.7665  -4.7847  -4.7847  -3.7099  -3.7099   3.1443   3.1443
     7.9330   7.9330  15.4390  15.4390  16.5529  16.5529  19.4539  19.4540

          k = 0.0000 0.0825-0.0815 (  3442 PWs)   bands (ev):

   -14.2801 -14.2201  -2.1731  -1.4989   1.4302   1.4324   1.6483   1.6540
     8.4717  11.0155  14.5139  14.6767  15.0105  15.1627  15.1860  15.4436

          k = 0.0000 0.1650-0.0815 (  3439 PWs)   bands (ev):

   -13.9912 -13.9336  -1.7771  -1.1201   0.3487   0.3519   1.1556   1.1625
     8.9445  11.2573  14.1931  14.4625  14.7233  15.2833  16.3672  16.3906

          k = 0.0000 0.2474-0.0815 (  3425 PWs)   bands (ev):

   -13.5242 -13.4708  -1.1659  -1.1048  -1.0653  -0.4985   0.5353   0.5434
     9.6473  11.3967  13.3222  13.7582  14.4215  15.1651  17.9429  18.1272

          k = 0.0000 0.3299-0.0815 (  3427 PWs)   bands (ev):

   -12.9093 -12.8620  -2.6583  -2.6497  -0.2672  -0.0627  -0.0537   0.3121
    10.4246  10.9311  11.8906  13.3888  14.2940  15.1683  18.7570  20.2129

          k = 0.0000 0.4124-0.0815 (  3440 PWs)   bands (ev):

   -12.2126 -12.1742  -4.1032  -4.0905  -0.5418  -0.5321   0.7396   1.2430
     9.6780   9.9639  11.8445  13.2415  14.3399  15.6806  19.1286  20.8323

          k = 0.0000 0.4949-0.0815 (  3442 PWs)   bands (ev):

   -11.5835 -11.5583  -5.2045  -5.1903  -0.8473  -0.8373   1.7067   2.0930
     8.3810   8.7919  12.5636  13.1699  14.8375  16.4281  18.1892  19.6598

          k =-0.0714 0.2062-0.0815 (  3430 PWs)   bands (ev):

   -13.7084 -13.6533  -1.3885  -0.7556  -0.4674  -0.4622   0.6382   0.6458
     9.3905  11.4006  13.8470  14.2657  14.7461  15.1049  16.8014  16.9318

          k =-0.0714 0.2887-0.0815 (  3435 PWs)   bands (ev):

   -13.1654 -13.1154  -1.9245  -1.9182  -0.6283  -0.0379  -0.0212  -0.0082
    10.1737  11.2547  12.4901  13.8536  14.6890  15.1397  17.7291  18.4062

          k =-0.0714 0.3712-0.0815 (  3431 PWs)   bands (ev):

   -12.5025 -12.4598  -3.3987  -3.3883  -0.5937  -0.5840   0.3142   0.8542
    10.3180  10.4883  11.6724  13.6777  14.6353  15.4149  18.6808  19.9547

          k =-0.0714 0.4536-0.0815 (  3431 PWs)   bands (ev):

   -11.8194 -11.7875  -4.6755  -4.6618  -1.0012  -0.9909   1.3301   1.7740
     8.9914   9.3130  12.4925  13.6146  14.7784  16.0491  18.6502  20.0358

          k =-0.0714 0.5361-0.0815 (  3444 PWs)   bands (ev):

   -11.3302 -11.3131  -5.4710  -5.4570  -1.2124  -1.2018   2.1210   2.4347
     7.9825   8.4046  13.1147  13.5754  15.4320  16.4932  17.6868  19.1919

          k =-0.1429 0.3299-0.0815 (  3431 PWs)   bands (ev):

   -12.6549 -12.6101  -2.7760  -2.7698  -0.9350  -0.9247   0.0933   0.6508
    10.6588  10.7498  11.7823  14.4387  15.5483  15.5849  17.4133  18.2013

          k =-0.1429 0.4124-0.0815 (  3430 PWs)   bands (ev):

   -11.9830 -11.9471  -4.0248  -4.0137  -1.5115  -1.5005   1.0741   1.5527
     9.5961   9.7701  12.4841  14.6203  15.6097  15.8163  18.1841  19.4843

          k =-0.1429 0.4949-0.0815 (  3440 PWs)   bands (ev):

   -11.3839 -11.3607  -5.0141  -4.9996  -1.8609  -1.8495   2.0110   2.3678
     8.4218   8.7146  13.5976  14.6861  15.6634  16.1281  17.9798  19.4969

          k =-0.2143 0.4536-0.0815 (  3437 PWs)   bands (ev):

   -11.4248 -11.3980  -4.4782  -4.4662  -2.5376  -2.5264   1.9301   2.3147
     8.8355   8.9541  13.6862  15.3865  16.3483  16.7307  17.8960  19.0106

          k =-0.2143 0.5361-0.0815 (  3437 PWs)   bands (ev):

   -10.9986 -10.9852  -5.0499  -5.0325  -2.8634  -2.8517   2.6564   2.8949
     8.0566   8.2595  14.9266  15.4668  16.0834  16.2829  18.1626  19.0365

     the Fermi energy is     3.3722 ev

!    total energy              =     -51.52391343 Ry
     estimated scf accuracy    <          1.4E-11 Ry
     smearing contrib. (-TS)   =      -0.00000000 Ry
     internal energy E=F+TS    =     -51.52391343 Ry

     The total energy is F=E-TS. E is the sum of the following terms:
     one-electron contribution =     -28.51019818 Ry
     hartree contribution      =      21.55173207 Ry
     xc contribution           =     -14.73285320 Ry
     ewald contribution        =     -29.83259411 Ry

     convergence has been achieved in  10 iterations

     Writing all to output data dir out/mp-984.save/
 
     init_run     :      0.48s CPU      0.53s WALL (       1 calls)
     electrons    :     14.22s CPU     15.16s WALL (       1 calls)

     Called by init_run:
     wfcinit      :      0.41s CPU      0.44s WALL (       1 calls)
     potinit      :      0.03s CPU      0.03s WALL (       1 calls)
     hinit0       :      0.02s CPU      0.03s WALL (       1 calls)

     Called by electrons:
     c_bands      :     12.33s CPU     13.10s WALL (      10 calls)
     sum_band     :      1.83s CPU      1.99s WALL (      10 calls)
     v_of_rho     :      0.05s CPU      0.05s WALL (      11 calls)
     mix_rho      :      0.01s CPU      0.02s WALL (      10 calls)

     Called by c_bands:
     init_us_2    :      0.18s CPU      0.19s WALL (    1848 calls)
     init_us_2:cp :      0.17s CPU      0.19s WALL (    1848 calls)
     cegterg      :     11.79s CPU     12.17s WALL (     880 calls)

     Called by *egterg:
     cdiaghg      :      1.14s CPU      1.17s WALL (    4029 calls)
     h_psi        :      9.91s CPU     10.24s WALL (    4117 calls)
     g_psi        :      0.08s CPU      0.08s WALL (    3149 calls)

     Called by h_psi:
     h_psi:calbec :      0.29s CPU      0.30s WALL (    4117 calls)
     vloc_psi     :      9.34s CPU      9.66s WALL (    4117 calls)
     add_vuspsi   :      0.22s CPU      0.23s WALL (    4117 calls)

     General routines
     calbec       :      0.27s CPU      0.29s WALL (    4117 calls)
     fft          :      0.02s CPU      0.03s WALL (     109 calls)
     ffts         :      0.00s CPU      0.00s WALL (      10 calls)
     fftw         :     10.04s CPU     10.40s WALL (  101138 calls)
     davcio       :      0.12s CPU      0.48s WALL (    2922 calls)
 
     Parallel routines
 
     PWSCF        :     14.84s CPU     16.48s WALL

 
   This run was terminated on:  14: 2:37  18Dec2023            

=------------------------------------------------------------------------------=
   JOB DONE.
=------------------------------------------------------------------------------=
