
     Program PWSCF v.7.1 starts on 16Nov2023 at  2:30:12 

     This program is part of the open-source Quantum ESPRESSO suite
     for quantum simulation of materials; please cite
         "P. Giannozzi et al., J. Phys.:Condens. Matter 21 395502 (2009);
         "P. Giannozzi et al., J. Phys.:Condens. Matter 29 465901 (2017);
         "P. Giannozzi et al., J. Chem. Phys. 152 154105 (2020);
          URL http://www.quantum-espresso.org", 
     in publications or presentations arising from this work. More details at
     http://www.quantum-espresso.org/quote

     Parallel version (MPI), running on    24 processors

     MPI processes distributed on     1 nodes
     123392 MiB available memory on the printing compute node when the environment starts
 
     Reading input from pw_mp-661_scf_k3000_E73.in
Warning: card &CELL ignored
Warning: card / ignored

     Current dimensions of program PWSCF are:
     Max number of different atomic species (ntypx) = 10
     Max number of k-points (npk) =  40000
     Max angular momentum in pseudopotentials (lmaxx) =  4
 
     R & G space division:  proc/nbgrp/npool/nimage =      24
     Subspace diagonalization in iterative solution of the eigenvalue problem:
     a serial algorithm will be used

 
     Parallelization info
     --------------------
     sticks:   dense  smooth     PW     G-vecs:    dense   smooth      PW
     Min          29      29      8                 1005     1005     158
     Max          30      30      9                 1013     1013     167
     Sum         703     703    211                24189    24189    3861
 
     Using Slab Decomposition
 


     bravais-lattice index     =            4
     lattice parameter (alat)  =       5.9122  a.u.
     unit-cell volume          =     286.9883 (a.u.)^3
     number of atoms/cell      =            4
     number of atomic types    =            2
     number of electrons       =        32.00
     number of Kohn-Sham states=           32
     kinetic-energy cutoff     =      73.0000  Ry
     charge density cutoff     =     292.0000  Ry
     scf convergence threshold =      1.0E-10
     mixing beta               =       0.7000
     number of iterations used =            8  plain     mixing
     Exchange-correlation= PBE
                           (   1   4   3   4   0   0   0)

     celldm(1)=   5.912174  celldm(2)=   0.000000  celldm(3)=   1.603584
     celldm(4)=   0.000000  celldm(5)=   0.000000  celldm(6)=   0.000000

     crystal axes: (cart. coord. in units of alat)
               a(1) = (   1.000000   0.000000   0.000000 )  
               a(2) = (  -0.500000   0.866025   0.000000 )  
               a(3) = (   0.000000   0.000000   1.603584 )  

     reciprocal axes: (cart. coord. in units 2 pi/alat)
               b(1) = (  1.000000  0.577350  0.000000 )  
               b(2) = (  0.000000  1.154701  0.000000 )  
               b(3) = (  0.000000  0.000000  0.623603 )  


     PseudoPot. # 1 for Al read from file:
     /usr/scratch4/magr4985/MG/HTDF/pseudo/SG15/Al.upf
     MD5 check sum: 2d9e7bc02555220d62fad08c3c4858e7
     Pseudo is Norm-conserving, Zval = 11.0
     Generated using ONCVPSP code by D. R. Hamann
     Using radial grid of  602 points,  4 beta functions with: 
                l(1) =   0
                l(2) =   0
                l(3) =   1
                l(4) =   1

     PseudoPot. # 2 for N  read from file:
     /usr/scratch4/magr4985/MG/HTDF/pseudo/SG15/N.upf
     MD5 check sum: c233fa8df51455e992258b7c3dee8a9f
     Pseudo is Norm-conserving, Zval =  5.0
     Generated using ONCVPSP code by D. R. Hamann
     Using radial grid of  602 points,  4 beta functions with: 
                l(1) =   0
                l(2) =   0
                l(3) =   1
                l(4) =   1

     atomic species   valence    mass     pseudopotential
        Al            11.00    26.98150     Al( 1.00)
        N              5.00    14.00670     N ( 1.00)

      6 Sym. Ops. (no inversion) found



   Cartesian axes

     site n.     atom                  positions (alat units)
         1           Al  tau(   1) = (   0.0000000   0.5773502   0.8006489  )
         2           Al  tau(   2) = (   0.5000000   0.2886752   1.6024411  )
         3           N   tau(   3) = (   0.0000000   0.5773502   1.4122977  )
         4           N   tau(   4) = (   0.5000000   0.2886752   0.6105055  )

     number of k points=    72  Gaussian smearing, width (Ry)=  0.0005
                       cart. coord. in units 2pi/alat
        k(    1) = (   0.0000000   0.0000000   0.0000000), wk =   0.0033333
        k(    2) = (   0.0000000   0.0000000   0.1039338), wk =   0.0066667
        k(    3) = (   0.0000000   0.0000000   0.2078677), wk =   0.0066667
        k(    4) = (   0.0000000   0.0000000  -0.3118015), wk =   0.0033333
        k(    5) = (   0.0000000   0.1154701   0.0000000), wk =   0.0200000
        k(    6) = (   0.0000000   0.1154701   0.1039338), wk =   0.0200000
        k(    7) = (   0.0000000   0.1154701   0.2078677), wk =   0.0200000
        k(    8) = (   0.0000000   0.1154701  -0.3118015), wk =   0.0200000
        k(    9) = (   0.0000000   0.2309401   0.0000000), wk =   0.0200000
        k(   10) = (   0.0000000   0.2309401   0.1039338), wk =   0.0200000
        k(   11) = (   0.0000000   0.2309401   0.2078677), wk =   0.0200000
        k(   12) = (   0.0000000   0.2309401  -0.3118015), wk =   0.0200000
        k(   13) = (   0.0000000   0.3464102   0.0000000), wk =   0.0200000
        k(   14) = (   0.0000000   0.3464102   0.1039338), wk =   0.0200000
        k(   15) = (   0.0000000   0.3464102   0.2078677), wk =   0.0200000
        k(   16) = (   0.0000000   0.3464102  -0.3118015), wk =   0.0200000
        k(   17) = (   0.0000000   0.4618802   0.0000000), wk =   0.0200000
        k(   18) = (   0.0000000   0.4618802   0.1039338), wk =   0.0200000
        k(   19) = (   0.0000000   0.4618802   0.2078677), wk =   0.0200000
        k(   20) = (   0.0000000   0.4618802  -0.3118015), wk =   0.0200000
        k(   21) = (   0.0000000  -0.5773503   0.0000000), wk =   0.0100000
        k(   22) = (   0.0000000  -0.5773503   0.1039338), wk =   0.0200000
        k(   23) = (   0.0000000  -0.5773503   0.2078677), wk =   0.0200000
        k(   24) = (   0.0000000  -0.5773503  -0.3118015), wk =   0.0100000
        k(   25) = (   0.1000000   0.1732051   0.0000000), wk =   0.0200000
        k(   26) = (   0.1000000   0.1732051   0.1039338), wk =   0.0400000
        k(   27) = (   0.1000000   0.1732051   0.2078677), wk =   0.0400000
        k(   28) = (   0.1000000   0.1732051  -0.3118015), wk =   0.0200000
        k(   29) = (   0.1000000   0.2886751   0.0000000), wk =   0.0400000
        k(   30) = (   0.1000000   0.2886751   0.1039338), wk =   0.0400000
        k(   31) = (   0.1000000   0.2886751   0.2078677), wk =   0.0400000
        k(   32) = (   0.1000000   0.2886751  -0.3118015), wk =   0.0400000
        k(   33) = (   0.1000000   0.4041452   0.0000000), wk =   0.0400000
        k(   34) = (   0.1000000   0.4041452   0.1039338), wk =   0.0400000
        k(   35) = (   0.1000000   0.4041452   0.2078677), wk =   0.0400000
        k(   36) = (   0.1000000   0.4041452  -0.3118015), wk =   0.0400000
        k(   37) = (   0.1000000   0.5196152   0.0000000), wk =   0.0400000
        k(   38) = (   0.1000000   0.5196152   0.1039338), wk =   0.0400000
        k(   39) = (   0.1000000   0.5196152   0.2078677), wk =   0.0400000
        k(   40) = (   0.1000000   0.5196152  -0.3118015), wk =   0.0400000
        k(   41) = (   0.2000000   0.3464102   0.0000000), wk =   0.0200000
        k(   42) = (   0.2000000   0.3464102   0.1039338), wk =   0.0400000
        k(   43) = (   0.2000000   0.3464102   0.2078677), wk =   0.0400000
        k(   44) = (   0.2000000   0.3464102  -0.3118015), wk =   0.0200000
        k(   45) = (   0.2000000   0.4618802   0.0000000), wk =   0.0400000
        k(   46) = (   0.2000000   0.4618802   0.1039338), wk =   0.0400000
        k(   47) = (   0.2000000   0.4618802   0.2078677), wk =   0.0400000
        k(   48) = (   0.2000000   0.4618802  -0.3118015), wk =   0.0400000
        k(   49) = (   0.2000000   0.5773503   0.0000000), wk =   0.0200000
        k(   50) = (   0.2000000   0.5773503   0.1039338), wk =   0.0400000
        k(   51) = (   0.2000000   0.5773503   0.2078677), wk =   0.0400000
        k(   52) = (   0.2000000   0.5773503  -0.3118015), wk =   0.0200000
        k(   53) = (   0.3000000   0.5196152   0.0000000), wk =   0.0200000
        k(   54) = (   0.3000000   0.5196152   0.1039338), wk =   0.0400000
        k(   55) = (   0.3000000   0.5196152   0.2078677), wk =   0.0400000
        k(   56) = (   0.3000000   0.5196152  -0.3118015), wk =   0.0200000
        k(   57) = (   0.0000000  -0.1154701   0.1039338), wk =   0.0200000
        k(   58) = (   0.0000000  -0.1154701   0.2078677), wk =   0.0200000
        k(   59) = (   0.0000000  -0.2309401   0.1039338), wk =   0.0200000
        k(   60) = (   0.0000000  -0.2309401   0.2078677), wk =   0.0200000
        k(   61) = (   0.0000000  -0.3464102   0.1039338), wk =   0.0200000
        k(   62) = (   0.0000000  -0.3464102   0.2078677), wk =   0.0200000
        k(   63) = (   0.0000000  -0.4618802   0.1039338), wk =   0.0200000
        k(   64) = (   0.0000000  -0.4618802   0.2078677), wk =   0.0200000
        k(   65) = (  -0.1000000  -0.2886751   0.1039338), wk =   0.0400000
        k(   66) = (  -0.1000000  -0.2886751   0.2078677), wk =   0.0400000
        k(   67) = (  -0.1000000  -0.4041452   0.1039338), wk =   0.0400000
        k(   68) = (  -0.1000000  -0.4041452   0.2078677), wk =   0.0400000
        k(   69) = (  -0.1000000  -0.5196152   0.1039338), wk =   0.0400000
        k(   70) = (  -0.1000000  -0.5196152   0.2078677), wk =   0.0400000
        k(   71) = (  -0.2000000  -0.4618802   0.1039338), wk =   0.0400000
        k(   72) = (  -0.2000000  -0.4618802   0.2078677), wk =   0.0400000

     Dense  grid:    24189 G-vectors     FFT dimensions: (  36,  36,  54)

     Estimated max dynamical RAM per process >       2.07 MB

     Estimated total dynamical RAM >      49.73 MB

     Initial potential from superposition of free atoms

     starting charge      31.8318, renormalised to      32.0000
     Starting wfcs are random

     total cpu time spent up to now is        0.5 secs

     Self-consistent Calculation

     iteration #  1     ecut=    73.00 Ry     beta= 0.70
     Davidson diagonalization with overlap
     ethr =  1.00E-02,  avg # of iterations =  8.9

     total cpu time spent up to now is        3.8 secs

     total energy              =    -316.56294009 Ry
     estimated scf accuracy    <       1.15747906 Ry

     iteration #  2     ecut=    73.00 Ry     beta= 0.70
     Davidson diagonalization with overlap
     ethr =  3.62E-03,  avg # of iterations =  2.0

     total cpu time spent up to now is        4.9 secs

     total energy              =    -316.88743392 Ry
     estimated scf accuracy    <       0.82972119 Ry

     iteration #  3     ecut=    73.00 Ry     beta= 0.70
     Davidson diagonalization with overlap
     ethr =  2.59E-03,  avg # of iterations =  2.0

     total cpu time spent up to now is        6.0 secs

     total energy              =    -317.04178508 Ry
     estimated scf accuracy    <       0.00396105 Ry

     iteration #  4     ecut=    73.00 Ry     beta= 0.70
     Davidson diagonalization with overlap
     ethr =  1.24E-05,  avg # of iterations =  5.1

     total cpu time spent up to now is        7.7 secs

     total energy              =    -317.04272315 Ry
     estimated scf accuracy    <       0.00049817 Ry

     iteration #  5     ecut=    73.00 Ry     beta= 0.70
     Davidson diagonalization with overlap
     ethr =  1.56E-06,  avg # of iterations =  2.7

     total cpu time spent up to now is        8.8 secs

     total energy              =    -317.04277467 Ry
     estimated scf accuracy    <       0.00000885 Ry

     iteration #  6     ecut=    73.00 Ry     beta= 0.70
     Davidson diagonalization with overlap
     ethr =  2.77E-08,  avg # of iterations =  2.0

     total cpu time spent up to now is        9.9 secs

     total energy              =    -317.04277760 Ry
     estimated scf accuracy    <       0.00000294 Ry

     iteration #  7     ecut=    73.00 Ry     beta= 0.70
     Davidson diagonalization with overlap
     ethr =  9.19E-09,  avg # of iterations =  1.0

     total cpu time spent up to now is       10.8 secs

     total energy              =    -317.04277769 Ry
     estimated scf accuracy    <       0.00000037 Ry

     iteration #  8     ecut=    73.00 Ry     beta= 0.70
     Davidson diagonalization with overlap
     ethr =  1.16E-09,  avg # of iterations =  1.9

     total cpu time spent up to now is       11.9 secs

     total energy              =    -317.04277773 Ry
     estimated scf accuracy    <       0.00000002 Ry

     iteration #  9     ecut=    73.00 Ry     beta= 0.70
     Davidson diagonalization with overlap
     ethr =  5.96E-11,  avg # of iterations =  2.0

     total cpu time spent up to now is       13.0 secs

     total energy              =    -317.04277773 Ry
     estimated scf accuracy    <          5.6E-10 Ry

     iteration # 10     ecut=    73.00 Ry     beta= 0.70
     Davidson diagonalization with overlap
     ethr =  1.74E-12,  avg # of iterations =  1.9

     total cpu time spent up to now is       14.1 secs

     total energy              =    -317.04277773 Ry
     estimated scf accuracy    <          3.0E-10 Ry

     iteration # 11     ecut=    73.00 Ry     beta= 0.70
     Davidson diagonalization with overlap
     ethr =  9.36E-13,  avg # of iterations =  2.0

     total cpu time spent up to now is       15.1 secs

     End of self-consistent calculation

          k = 0.0000 0.0000 0.0000 (  2989 PWs)   bands (ev):

   -91.4186 -91.4179 -52.9488 -52.9389 -52.9251 -52.9251 -52.9234 -52.9234
    -5.7755  -3.6790   3.3612   8.4323   8.4323   9.0789   9.0789   9.2752
    13.3395  15.8184  19.7221  20.3526  20.3526  22.2058  22.2931  22.2931
    23.7665  23.7665  23.9841  26.5669  26.5669  28.5343  31.3717  31.9463

          k = 0.0000 0.0000 0.1039 (  2984 PWs)   bands (ev):

   -91.4186 -91.4179 -52.9481 -52.9396 -52.9250 -52.9250 -52.9235 -52.9235
    -5.6711  -3.8802   3.7239   8.4734   8.4734   8.6741   9.0333   9.0333
    13.8360  15.8806  19.5521  20.3231  20.3231  21.4254  21.9178  21.9178
    24.2245  24.2245  24.7049  27.2294  27.2294  28.5245  31.1021  31.1021

          k = 0.0000 0.0000 0.2079 (  2990 PWs)   bands (ev):

   -91.4185 -91.4180 -52.9463 -52.9414 -52.9246 -52.9246 -52.9238 -52.9238
    -5.3689  -4.3603   4.6785   7.3953   8.5872   8.5872   8.9103   8.9103
    14.7891  15.9295  19.2834  20.2700  20.3744  20.3744  21.2304  21.2304
    25.4247  25.4247  25.8662  28.0966  28.4122  28.4122  29.7002  29.7002

          k = 0.0000 0.0000-0.3118 (  2990 PWs)   bands (ev):

   -91.4182 -91.4182 -52.9439 -52.9439 -52.9242 -52.9242 -52.9242 -52.9242
    -4.9058  -4.9058   5.9766   5.9766   8.7464   8.7464   8.7464   8.7464
    15.5992  15.5992  19.4564  19.4564  20.6701  20.6701  20.6701  20.6701
    27.0754  27.0754  27.0787  27.0787  27.0787  27.0787  31.1479  31.1479

          k = 0.0000 0.1155 0.0000 (  2978 PWs)   bands (ev):

   -91.4186 -91.4178 -52.9485 -52.9391 -52.9257 -52.9253 -52.9240 -52.9235
    -5.6502  -3.6084   3.5106   7.8581   8.2711   8.5103   9.0558   9.2191
    13.9146  16.3252  19.2289  19.5652  20.7096  21.8510  22.2505  22.3635
    22.7772  23.3541  25.4687  27.1229  27.6233  29.7721  31.2904  31.7940

          k = 0.0000 0.1155 0.1039 (  2999 PWs)   bands (ev):

   -91.4185 -91.4179 -52.9479 -52.9397 -52.9256 -52.9252 -52.9241 -52.9236
    -5.5476  -3.8016   3.8515   7.9027   8.2055   8.3194   8.9981   8.9985
    14.2880  16.3773  18.9829  19.5805  20.6565  21.3352  21.8312  22.0726
    23.5556  23.8354  25.9711  27.3970  28.1811  29.6050  30.7284  30.9163

          k = 0.0000 0.1155 0.2079 (  3005 PWs)   bands (ev):

   -91.4184 -91.4180 -52.9462 -52.9415 -52.9252 -52.9248 -52.9244 -52.9239
    -5.2508  -4.2659   4.7452   7.1846   8.1280   8.4541   8.6833   8.8456
    15.0943  16.3617  18.6543  19.4123  20.6829  20.6975  21.3796  21.4790
    24.7519  25.0816  26.9656  27.6460  28.5941  29.1474  30.0339  30.0815

          k = 0.0000 0.1155-0.3118 (  3014 PWs)   bands (ev):

   -91.4182 -91.4182 -52.9438 -52.9438 -52.9248 -52.9248 -52.9244 -52.9244
    -4.7973  -4.7973   5.9403   5.9403   8.3862   8.3862   8.6453   8.6453
    15.9029  15.9029  18.8618  18.8618  20.8757  20.8757  20.9607  20.9607
    26.1709  26.1709  26.7948  26.7948  28.4190  28.4190  30.9148  30.9148

          k = 0.0000 0.2309 0.0000 (  3008 PWs)   bands (ev):

   -91.4185 -91.4177 -52.9477 -52.9395 -52.9273 -52.9258 -52.9258 -52.9238
    -5.2909  -3.4244   3.9471   6.5645   7.4090   7.9194   8.9495   9.0166
    14.9500  16.9985  17.9113  18.9108  21.2114  21.3354  21.4085  21.9920
    23.3295  23.9518  26.2626  29.3830  29.7176  29.9583  31.5807  31.9572

          k = 0.0000 0.2309 0.1039 (  3015 PWs)   bands (ev):

   -91.4184 -91.4178 -52.9472 -52.9401 -52.9272 -52.9258 -52.9257 -52.9240
    -5.1939  -3.5930   4.1998   6.6536   7.2037   7.9798   8.8700   8.8842
    15.0509  17.0330  17.8224  18.9382  20.8088  21.3127  21.5563  22.1641
    23.4593  24.0820  26.5814  29.1334  29.8858  30.0045  30.7958  31.9560

          k = 0.0000 0.2309 0.2079 (  3020 PWs)   bands (ev):

   -91.4183 -91.4180 -52.9458 -52.9417 -52.9268 -52.9260 -52.9253 -52.9243
    -4.9148  -4.0071   4.8418   6.3954   7.2429   8.1502   8.4490   8.6620
    15.4047  16.7010  17.9989  18.9060  20.5049  21.3592  21.3811  22.0356
    24.1234  24.9335  26.5000  28.4713  29.1707  30.2668  31.4874  31.6380

          k = 0.0000 0.2309-0.3118 (  3014 PWs)   bands (ev):

   -91.4181 -91.4181 -52.9438 -52.9438 -52.9264 -52.9264 -52.9248 -52.9248
    -4.4929  -4.4929   5.6429   5.6429   7.8145   7.8145   8.3967   8.3967
    16.0131  16.0131  18.5149  18.5149  20.8179  20.8179  21.6465  21.6465
    25.3340  25.3340  26.5167  26.5167  30.2236  30.2236  31.3555  31.3555

          k = 0.0000 0.3464 0.0000 (  3028 PWs)   bands (ev):

   -91.4183 -91.4177 -52.9466 -52.9402 -52.9293 -52.9279 -52.9265 -52.9243
    -4.7545  -3.2162   4.6267   5.2256   6.3051   7.5600   8.6057   8.7858
    15.4915  16.3147  17.0810  19.4335  20.7734  20.8046  21.1652  23.1294
    24.1279  25.3736  26.5516  28.8164  31.7166  32.0245  32.1400  33.2643

          k = 0.0000 0.3464 0.1039 (  3028 PWs)   bands (ev):

   -91.4182 -91.4177 -52.9463 -52.9407 -52.9292 -52.9279 -52.9263 -52.9244
    -4.6688  -3.3425   4.5099   5.5550   6.1904   7.6295   8.6229   8.6874
    15.1954  16.2285  17.5421  19.4085  20.3119  21.0151  21.5007  23.0820
    23.8948  25.4272  26.6636  28.9994  30.6480  31.9115  32.5428  33.0133

          k = 0.0000 0.3464 0.2079 (  3028 PWs)   bands (ev):

   -91.4181 -91.4178 -52.9452 -52.9421 -52.9287 -52.9280 -52.9259 -52.9248
    -4.4249  -3.6657   4.5594   5.3488   6.7671   7.8268   8.3892   8.4334
    15.0121  15.9513  18.1169  19.2569  20.2774  21.2666  21.5566  22.7974
    24.0156  25.8822  26.1584  28.7397  29.8193  31.6925  33.1260  33.4984

          k = 0.0000 0.3464-0.3118 (  3004 PWs)   bands (ev):

   -91.4179 -91.4179 -52.9437 -52.9437 -52.9283 -52.9283 -52.9254 -52.9254
    -4.0646  -4.0646   4.8741   4.8741   7.6927   7.6927   8.1162   8.1162
    15.3728  15.3728  18.7644  18.7644  20.6922  20.6922  22.2247  22.2247
    24.9755  24.9755  27.0257  27.0257  30.9970  30.9970  33.5059  33.5059

          k = 0.0000 0.4619 0.0000 (  3042 PWs)   bands (ev):

   -91.4181 -91.4177 -52.9455 -52.9411 -52.9310 -52.9296 -52.9270 -52.9246
    -4.1695  -3.1249   4.2484   5.3966   5.5287   7.3059   7.9802   8.6460
    15.2368  15.3979  17.2416  19.4339  20.3103  21.1266  21.6253  24.1854
    24.3190  27.1989  27.2384  28.2366  32.3382  32.5808  33.3911  33.6635

          k = 0.0000 0.4619 0.1039 (  3027 PWs)   bands (ev):

   -91.4180 -91.4177 -52.9453 -52.9415 -52.9307 -52.9296 -52.9268 -52.9248
    -4.1030  -3.1965   4.0534   5.0714   6.0362   7.3806   8.1810   8.5361
    14.7952  15.4092  17.8807  19.0752  20.6001  20.9014  21.5494  23.9876
    24.1716  27.2828  27.2865  28.9096  31.4122  31.7548  33.5260  33.7452

          k = 0.0000 0.4619 0.2079 (  3021 PWs)   bands (ev):

   -91.4180 -91.4177 -52.9447 -52.9426 -52.9303 -52.9296 -52.9264 -52.9252
    -3.9179  -3.3926   3.9140   4.5169   6.9573   7.5930   8.2543   8.2994
    14.4385  15.3014  18.2262  19.0829  20.4541  21.2453  21.3793  23.3686
    24.4091  26.5271  27.6480  29.7759  30.3766  31.6414  33.7286  33.9679

          k = 0.0000 0.4619-0.3118 (  3030 PWs)   bands (ev):

   -91.4179 -91.4179 -52.9438 -52.9438 -52.9298 -52.9298 -52.9258 -52.9258
    -3.6582  -3.6582   4.0783   4.0783   7.8385   7.8385   7.9067   7.9067
    14.7701  14.7701  18.6188  18.6188  20.8083  20.8083  22.4086  22.4086
    25.2759  25.2759  28.4592  28.4592  31.5244  31.5244  34.3655  34.3659

          k = 0.0000-0.5774 0.0000 (  3050 PWs)   bands (ev):

   -91.4180 -91.4177 -52.9448 -52.9416 -52.9316 -52.9303 -52.9272 -52.9248
    -3.8478  -3.1677   3.8964   5.1516   5.9742   7.2154   7.5267   8.5922
    15.0646  15.0715  17.3229  19.4408  20.1404  21.2152  22.0049  24.2084
    24.5637  27.8654  28.0461  28.4792  31.9825  32.4446  33.1560  33.2079

          k = 0.0000-0.5774 0.1039 (  3032 PWs)   bands (ev):

   -91.4179 -91.4177 -52.9448 -52.9419 -52.9314 -52.9302 -52.9270 -52.9249
    -3.7976  -3.2053   3.7532   4.7927   6.3573   7.2917   7.8585   8.4785
    14.5876  15.1293  18.0467  18.9175  20.4488  21.3290  21.3437  24.3001
    24.3344  27.7886  28.5926  28.9549  31.4678  31.6342  33.2289  33.3807

          k = 0.0000-0.5774 0.2079 (  3022 PWs)   bands (ev):

   -91.4179 -91.4177 -52.9444 -52.9428 -52.9308 -52.9302 -52.9266 -52.9254
    -3.6620  -3.3163   3.6154   4.1856   7.1634   7.5088   8.1878   8.2054
    14.2036  15.0651  18.2541  18.9479  20.4155  21.2867  21.3170  23.5333
    24.7258  26.8660  28.9454  30.5670  30.7601  31.4491  33.0661  33.4019

          k = 0.0000-0.5774-0.3118 (  3020 PWs)   bands (ev):

   -91.4178 -91.4178 -52.9438 -52.9438 -52.9304 -52.9304 -52.9260 -52.9260
    -3.4831  -3.4831   3.7495   3.7495   7.8303   7.8303   7.9255   7.9255
    14.5442  14.5442  18.4734  18.4734  20.8698  20.8698  22.4230  22.4230
    25.5738  25.5738  29.5845  29.5845  31.7637  31.7637  33.3671  33.3671

          k = 0.1000 0.1732 0.0000 (  3006 PWs)   bands (ev):

   -91.4185 -91.4178 -52.9480 -52.9394 -52.9267 -52.9259 -52.9250 -52.9238
    -5.4077  -3.4807   3.8038   7.1274   7.3756   8.2507   8.8760   9.0902
    14.7141  17.0756  18.3896  18.6515  21.1191  21.3309  21.5531  22.4532
    23.0587  23.4190  26.9348  27.5304  29.5099  30.4562  31.4052  31.4160

          k = 0.1000 0.1732 0.1039 (  3010 PWs)   bands (ev):

   -91.4185 -91.4178 -52.9474 -52.9400 -52.9266 -52.9258 -52.9250 -52.9239
    -5.3088  -3.6577   4.0918   7.2342   7.2410   8.1435   8.8025   8.9624
    14.9177  17.1044  18.1455  18.7380  20.8940  21.2358  21.6196  22.5034
    22.9146  23.9648  27.5114  27.5232  29.7715  30.0256  30.4223  31.4590

          k = 0.1000 0.1732 0.2079 (  3015 PWs)   bands (ev):

   -91.4184 -91.4180 -52.9459 -52.9416 -52.9263 -52.9256 -52.9251 -52.9243
    -5.0235  -4.0890   4.8342   6.6755   7.5386   8.1051   8.6072   8.6153
    15.4495  16.8456  18.0351  18.8033  20.5701  21.1418  21.4691  21.8882
    24.1471  24.8721  27.1664  27.9451  28.9511  29.8390  31.0175  31.1326

          k = 0.1000 0.1732-0.3118 (  3012 PWs)   bands (ev):

   -91.4182 -91.4182 -52.9438 -52.9438 -52.9259 -52.9259 -52.9247 -52.9247
    -4.5905  -4.5905   5.7805   5.7805   7.9616   7.9616   8.4204   8.4204
    16.1555  16.1555  18.4484  18.4484  20.8084  20.8084  21.4818  21.4818
    25.6611  25.6611  26.3587  26.3587  30.0361  30.0361  30.9654  30.9654

          k = 0.1000 0.2887 0.0000 (  3022 PWs)   bands (ev):

   -91.4183 -91.4177 -52.9470 -52.9399 -52.9284 -52.9274 -52.9261 -52.9243
    -4.9576  -3.2819   4.3648   5.9037   6.4739   7.7112   8.6261   8.7900
    15.6360  17.0373  17.3359  18.6781  20.3936  20.8572  21.6345  22.8480
    23.8111  24.5031  27.3594  29.3433  29.6345  31.1483  32.1508  33.1879

          k = 0.1000 0.2887 0.1039 (  3016 PWs)   bands (ev):

   -91.4183 -91.4178 -52.9466 -52.9405 -52.9282 -52.9273 -52.9260 -52.9245
    -4.8671  -3.4254   4.4754   6.0171   6.4668   7.6460   8.5069   8.8066
    15.5276  16.8833  17.5750  18.7420  20.3186  21.0931  21.5223  22.8872
    23.5090  24.8243  27.2939  29.3111  29.8117  30.5069  32.0907  33.1403

          k = 0.1000 0.2887 0.2079 (  3025 PWs)   bands (ev):

   -91.4182 -91.4179 -52.9454 -52.9419 -52.9279 -52.9273 -52.9257 -52.9248
    -4.6082  -3.7862   4.7869   5.7582   6.9475   7.6796   8.2352   8.5758
    15.5274  16.4440  18.0883  18.8284  20.2836  21.0792  21.6038  22.4969
    23.9349  25.3325  26.8043  27.9179  30.2016  31.2408  32.2575  33.0971

          k = 0.1000 0.2887-0.3118 (  3016 PWs)   bands (ev):

   -91.4180 -91.4180 -52.9437 -52.9437 -52.9275 -52.9275 -52.9253 -52.9253
    -4.2217  -4.2217   5.2486   5.2486   7.6254   7.6254   8.1253   8.1253
    15.8872  15.8872  18.6241  18.6241  20.5287  20.5287  22.0619  22.0619
    25.0300  25.0301  26.7075  26.7075  31.1463  31.1463  32.5866  32.5866

          k = 0.1000 0.4041 0.0000 (  3021 PWs)   bands (ev):

   -91.4181 -91.4177 -52.9459 -52.9408 -52.9301 -52.9290 -52.9269 -52.9248
    -4.3858  -3.1291   4.7466   5.1309   5.7533   7.1706   8.2716   8.4031
    15.6890  15.9695  17.3006  19.3002  20.0667  21.1151  21.3138  23.7321
    24.6702  25.6150  27.6870  28.8084  31.4779  31.7446  33.2544  33.8058

          k = 0.1000 0.4041 0.1039 (  3030 PWs)   bands (ev):

   -91.4181 -91.4177 -52.9456 -52.9412 -52.9299 -52.9289 -52.9268 -52.9250
    -4.3108  -3.2232   4.4362   5.2657   6.0097   7.1795   8.2147   8.4896
    15.2916  16.0731  17.6255  19.2615  20.0720  20.9383  21.5005  23.5387
    24.5229  25.6820  27.6260  29.2332  30.4770  32.0287  32.8782  34.0341

          k = 0.1000 0.4041 0.2079 (  3028 PWs)   bands (ev):

   -91.4180 -91.4178 -52.9449 -52.9424 -52.9295 -52.9289 -52.9264 -52.9254
    -4.0997  -3.4727   4.2985   4.8793   6.7947   7.4100   7.9031   8.5273
    15.0257  15.8561  18.1042  19.3494  19.9883  20.8090  21.7232  23.0996
    24.5920  25.5588  27.4596  28.6850  30.7095  32.0563  33.2530  34.3271

          k = 0.1000 0.4041-0.3118 (  3032 PWs)   bands (ev):

   -91.4179 -91.4179 -52.9437 -52.9437 -52.9291 -52.9291 -52.9259 -52.9259
    -3.7958  -3.7958   4.4774   4.4774   7.3807   7.3807   8.0942   8.0942
    15.3154  15.3154  18.7774  18.7774  20.4034  20.4034  22.4055  22.4055
    25.0473  25.0473  27.7768  27.7768  31.5993  31.5993  34.2057  34.2058

          k = 0.1000 0.5196 0.0000 (  3029 PWs)   bands (ev):

   -91.4180 -91.4177 -52.9448 -52.9416 -52.9312 -52.9300 -52.9275 -52.9251
    -3.8820  -3.1386   4.0811   5.2882   5.9068   6.8682   7.6442   8.2670
    15.0760  15.6623  17.5507  19.3560  19.9988  21.1753  21.9294  24.1391
    24.6491  27.1488  28.2348  28.4481  31.5510  32.2389  33.4510  33.6309

          k = 0.1000 0.5196 0.1039 (  3026 PWs)   bands (ev):

   -91.4179 -91.4177 -52.9448 -52.9419 -52.9310 -52.9299 -52.9273 -52.9253
    -3.8290  -3.1822   3.9386   4.9260   6.2506   7.0130   7.8809   8.2026
    14.8030  15.6992  17.9979  18.9522  20.0441  21.1629  21.7839  23.9983
    24.6569  27.0072  28.1374  29.2660  30.8538  31.8679  33.2599  33.9864

          k = 0.1000 0.5196 0.2079 (  3028 PWs)   bands (ev):

   -91.4179 -91.4177 -52.9444 -52.9428 -52.9305 -52.9299 -52.9269 -52.9257
    -3.6850  -3.3080   3.8005   4.3462   6.7500   7.5287   7.6962   8.4060
    14.5808  15.5377  18.2609  19.1227  19.6489  20.9952  21.9685  23.5056
    24.8691  26.3718  28.2197  29.7327  30.9824  31.7116  33.3254  33.9866

          k = 0.1000 0.5196-0.3118 (  3020 PWs)   bands (ev):

   -91.4178 -91.4178 -52.9437 -52.9437 -52.9301 -52.9301 -52.9263 -52.9263
    -3.4921  -3.4921   3.9282   3.9282   7.2068   7.2068   8.2042   8.2042
    14.9447  14.9447  18.6170  18.6170  20.3654  20.3654  22.6672  22.6672
    25.5154  25.5154  28.8042  28.8042  31.7920  31.7920  33.7664  33.7665

          k = 0.2000 0.3464 0.0000 (  3014 PWs)   bands (ev):

   -91.4181 -91.4176 -52.9460 -52.9407 -52.9293 -52.9290 -52.9268 -52.9252
    -4.4652  -3.1339   5.0102   5.3472   5.5263   7.1597   8.0594   8.3919
    15.9482  16.5032  17.7030  18.6914  19.9476  20.7188  21.4821  23.7031
    24.5229  25.1336  28.6173  29.6651  29.9222  30.8179  33.5590  33.8264

          k = 0.2000 0.3464 0.1039 (  3021 PWs)   bands (ev):

   -91.4181 -91.4177 -52.9457 -52.9411 -52.9292 -52.9289 -52.9267 -52.9253
    -4.3874  -3.2365   4.7141   5.2818   6.1261   6.9851   7.9230   8.5640
    15.9802  16.2270  17.8218  18.7828  20.1742  20.6287  21.3756  23.8788
    23.9259  25.4836  28.0838  29.3711  30.5256  30.6727  33.1348  34.2406

          k = 0.2000 0.3464 0.2079 (  3032 PWs)   bands (ev):

   -91.4180 -91.4178 -52.9449 -52.9423 -52.9289 -52.9287 -52.9265 -52.9257
    -4.1676  -3.5055   4.5834   5.0458   6.8922   7.0067   7.6596   8.5944
    15.8461  15.9481  18.1889  18.8888  20.3892  20.4649  21.4328  23.0138
    24.3821  25.5662  27.7721  27.8507  31.3720  32.1319  32.7154  34.4644

          k = 0.2000 0.3464-0.3118 (  3044 PWs)   bands (ev):

   -91.4179 -91.4179 -52.9437 -52.9437 -52.9286 -52.9286 -52.9262 -52.9262
    -3.8488  -3.8488   4.7389   4.7389   7.0807   7.0807   8.1134   8.1134
    15.8062  15.8062  18.6657  18.6657  20.3498  20.3498  22.1501  22.1501
    24.9642  24.9642  27.6282  27.6282  31.8402  31.8402  34.0591  34.0591

          k = 0.2000 0.4619 0.0000 (  3023 PWs)   bands (ev):

   -91.4179 -91.4177 -52.9448 -52.9416 -52.9304 -52.9297 -52.9278 -52.9259
    -3.9317  -3.0973   4.5662   5.3394   5.8106   6.4485   7.6371   7.8302
    15.0255  16.8114  17.9870  19.0848  19.9236  21.1615  21.4450  23.7657
    25.1018  25.8002  28.7997  29.5728  30.4335  31.5137  33.3180  33.6113

          k = 0.2000 0.4619 0.1039 (  3025 PWs)   bands (ev):

   -91.4179 -91.4177 -52.9447 -52.9419 -52.9302 -52.9296 -52.9277 -52.9261
    -3.8749  -3.1498   4.4405   4.9650   6.1596   6.5813   7.4551   8.1572
    15.1645  16.6684  17.8267  18.9790  20.1623  20.7742  21.6429  23.9460
    24.8693  25.7549  28.3642  29.1461  30.6503  32.0990  32.9490  34.3146

          k = 0.2000 0.4619 0.2079 (  3031 PWs)   bands (ev):

   -91.4179 -91.4177 -52.9444 -52.9428 -52.9298 -52.9294 -52.9274 -52.9265
    -3.7190  -3.2976   4.2581   4.5913   6.1804   6.9278   7.5825   8.5007
    15.3938  16.2112  17.9439  18.7167  20.2480  20.6050  21.8798  23.4992
    24.9001  25.5545  27.9027  28.6534  31.5757  32.1763  33.5824  34.3660

          k = 0.2000 0.4619-0.3118 (  3050 PWs)   bands (ev):

   -91.4179 -91.4179 -52.9437 -52.9437 -52.9294 -52.9294 -52.9269 -52.9269
    -3.5065  -3.5065   4.3072   4.3072   6.4898   6.4898   8.2992   8.2992
    15.7079  15.7079  18.3432  18.3432  20.4306  20.4306  22.4822  22.4822
    25.2401  25.2401  28.2329  28.2329  31.9327  31.9327  34.2500  34.2500

          k = 0.2000 0.5774 0.0000 (  3034 PWs)   bands (ev):

   -91.4179 -91.4177 -52.9442 -52.9421 -52.9308 -52.9297 -52.9284 -52.9262
    -3.6249  -3.1716   4.2564   5.4217   6.0398   6.3349   7.3670   7.5135
    14.6716  16.7781  18.2266  19.1622  20.0117  21.0221  22.1480  23.6107
    24.7686  27.2102  27.7357  29.7075  30.0796  31.7544  34.2316  34.2329

          k = 0.2000 0.5774 0.1039 (  3026 PWs)   bands (ev):

   -91.4179 -91.4177 -52.9442 -52.9424 -52.9306 -52.9296 -52.9282 -52.9263
    -3.5870  -3.1921   4.1729   5.0630   5.7928   6.9650   7.2372   7.8375
    14.8419  16.7425  18.0342  18.7570  20.1697  20.9324  22.1415  23.8418
    24.9282  26.9477  27.0834  29.4699  30.3724  32.1496  34.1652  34.1891

          k = 0.2000 0.5774 0.2079 (  3031 PWs)   bands (ev):

   -91.4178 -91.4177 -52.9441 -52.9431 -52.9302 -52.9295 -52.9278 -52.9267
    -3.4874  -3.2567   4.0530   4.4993   5.8802   6.7744   7.8099   8.3687
    15.1680  16.3820  18.0048  18.2344  20.2293  20.7302  22.3311  23.6848
    25.2756  25.8446  27.2461  28.8513  31.4908  32.1289  34.2014  34.4286

          k = 0.2000 0.5774-0.3118 (  3030 PWs)   bands (ev):

   -91.4178 -91.4178 -52.9437 -52.9437 -52.9297 -52.9297 -52.9273 -52.9273
    -3.3633  -3.3633   4.1324   4.1324   6.2610   6.2610   8.3901   8.3901
    15.6664  15.6664  18.1483  18.1483  20.3922  20.3922  22.8658  22.8658
    25.5226  25.5226  28.0017  28.0017  32.0097  32.0097  34.5607  34.5607

          k = 0.3000 0.5196 0.0000 (  3030 PWs)   bands (ev):

   -91.4178 -91.4177 -52.9438 -52.9425 -52.9302 -52.9296 -52.9289 -52.9269
    -3.5147  -3.1953   4.5314   5.3546   5.7829   6.5232   7.0080   7.2848
    14.4542  17.4620  18.6137  18.9830  20.2922  20.8535  22.0896  23.4948
    24.3514  26.9173  28.4971  28.6244  31.1011  31.5207  33.5141  34.4402

          k = 0.3000 0.5196 0.1039 (  3022 PWs)   bands (ev):

   -91.4178 -91.4177 -52.9438 -52.9427 -52.9300 -52.9295 -52.9287 -52.9271
    -3.4844  -3.2062   4.5815   4.9649   5.4751   6.7543   7.1129   7.7182
    14.8104  17.3584  18.0995  18.5743  20.6090  20.7469  22.1251  23.9523
    24.5412  26.3928  27.5670  28.3347  31.4029  32.2666  33.8510  34.8338

          k = 0.3000 0.5196 0.2079 (  3031 PWs)   bands (ev):

   -91.4178 -91.4178 -52.9439 -52.9432 -52.9295 -52.9292 -52.9284 -52.9276
    -3.4071  -3.2445   4.5368   4.5451   5.3198   6.2494   7.9423   8.3214
    15.6194  16.8358  17.6388  17.7817  20.7531  20.8746  22.2763  24.1158
    24.7005  25.4587  27.2061  28.0399  31.9093  32.4737  34.6928  34.7979

          k = 0.3000 0.5196-0.3118 (  3034 PWs)   bands (ev):

   -91.4178 -91.4178 -52.9437 -52.9437 -52.9292 -52.9292 -52.9281 -52.9281
    -3.3159  -3.3159   4.4110   4.4110   5.6906   5.6906   8.4505   8.4505
    16.3030  16.3030  17.4422  17.4422  20.8640  20.8640  22.8864  22.8864
    25.1894  25.1894  27.6324  27.6324  32.2622  32.2622  34.8902  34.8902

          k = 0.0000-0.1155 0.1039 (  2999 PWs)   bands (ev):

   -91.4185 -91.4179 -52.9479 -52.9397 -52.9256 -52.9252 -52.9241 -52.9236
    -5.5476  -3.8016   3.8515   7.9027   8.2055   8.3194   8.9981   8.9985
    14.2880  16.3773  18.9829  19.5805  20.6565  21.3352  21.8312  22.0726
    23.5556  23.8354  25.9711  27.3970  28.1811  29.6050  30.7284  30.9162

          k = 0.0000-0.1155 0.2079 (  3005 PWs)   bands (ev):

   -91.4184 -91.4180 -52.9462 -52.9415 -52.9252 -52.9248 -52.9244 -52.9239
    -5.2508  -4.2659   4.7452   7.1846   8.1280   8.4541   8.6833   8.8456
    15.0943  16.3617  18.6543  19.4123  20.6829  20.6975  21.3796  21.4790
    24.7519  25.0816  26.9656  27.6460  28.5941  29.1474  30.0339  30.0815

          k = 0.0000-0.2309 0.1039 (  3015 PWs)   bands (ev):

   -91.4184 -91.4178 -52.9472 -52.9401 -52.9272 -52.9258 -52.9257 -52.9240
    -5.1939  -3.5930   4.1998   6.6536   7.2037   7.9798   8.8700   8.8842
    15.0509  17.0330  17.8224  18.9382  20.8088  21.3127  21.5563  22.1641
    23.4593  24.0820  26.5814  29.1334  29.8858  30.0045  30.7958  31.9561

          k = 0.0000-0.2309 0.2079 (  3020 PWs)   bands (ev):

   -91.4183 -91.4180 -52.9458 -52.9417 -52.9268 -52.9260 -52.9253 -52.9243
    -4.9148  -4.0071   4.8418   6.3954   7.2429   8.1502   8.4490   8.6620
    15.4047  16.7010  17.9989  18.9060  20.5049  21.3592  21.3811  22.0356
    24.1234  24.9335  26.5000  28.4713  29.1707  30.2668  31.4874  31.6380

          k = 0.0000-0.3464 0.1039 (  3028 PWs)   bands (ev):

   -91.4182 -91.4177 -52.9463 -52.9407 -52.9292 -52.9279 -52.9263 -52.9244
    -4.6688  -3.3425   4.5099   5.5550   6.1904   7.6295   8.6229   8.6874
    15.1954  16.2285  17.5421  19.4085  20.3119  21.0151  21.5007  23.0820
    23.8948  25.4272  26.6636  28.9994  30.6480  31.9115  32.5428  33.0133

          k = 0.0000-0.3464 0.2079 (  3028 PWs)   bands (ev):

   -91.4181 -91.4178 -52.9452 -52.9421 -52.9287 -52.9280 -52.9259 -52.9248
    -4.4249  -3.6657   4.5594   5.3488   6.7671   7.8268   8.3892   8.4334
    15.0121  15.9513  18.1169  19.2569  20.2774  21.2666  21.5566  22.7974
    24.0156  25.8822  26.1584  28.7397  29.8193  31.6925  33.1260  33.4985

          k = 0.0000-0.4619 0.1039 (  3027 PWs)   bands (ev):

   -91.4180 -91.4177 -52.9453 -52.9415 -52.9307 -52.9296 -52.9268 -52.9248
    -4.1030  -3.1965   4.0534   5.0714   6.0362   7.3806   8.1810   8.5361
    14.7952  15.4092  17.8807  19.0752  20.6001  20.9014  21.5494  23.9876
    24.1716  27.2828  27.2865  28.9096  31.4122  31.7548  33.5260  33.7452

          k = 0.0000-0.4619 0.2079 (  3021 PWs)   bands (ev):

   -91.4180 -91.4177 -52.9447 -52.9426 -52.9303 -52.9296 -52.9264 -52.9252
    -3.9179  -3.3926   3.9140   4.5169   6.9573   7.5930   8.2543   8.2994
    14.4385  15.3014  18.2262  19.0829  20.4541  21.2453  21.3793  23.3686
    24.4091  26.5271  27.6480  29.7759  30.3766  31.6414  33.7286  33.9679

          k =-0.1000-0.2887 0.1039 (  3016 PWs)   bands (ev):

   -91.4183 -91.4178 -52.9466 -52.9405 -52.9282 -52.9273 -52.9260 -52.9245
    -4.8671  -3.4254   4.4754   6.0171   6.4668   7.6460   8.5069   8.8066
    15.5276  16.8833  17.5750  18.7420  20.3186  21.0931  21.5223  22.8872
    23.5090  24.8243  27.2939  29.3111  29.8117  30.5069  32.0907  33.1403

          k =-0.1000-0.2887 0.2079 (  3025 PWs)   bands (ev):

   -91.4182 -91.4179 -52.9454 -52.9419 -52.9279 -52.9273 -52.9257 -52.9248
    -4.6082  -3.7862   4.7869   5.7582   6.9475   7.6796   8.2352   8.5758
    15.5274  16.4440  18.0883  18.8284  20.2836  21.0792  21.6038  22.4969
    23.9349  25.3325  26.8043  27.9179  30.2016  31.2408  32.2575  33.0974

          k =-0.1000-0.4041 0.1039 (  3030 PWs)   bands (ev):

   -91.4181 -91.4177 -52.9456 -52.9412 -52.9299 -52.9289 -52.9268 -52.9250
    -4.3108  -3.2232   4.4362   5.2657   6.0097   7.1795   8.2147   8.4896
    15.2916  16.0731  17.6255  19.2615  20.0720  20.9383  21.5005  23.5387
    24.5229  25.6820  27.6260  29.2332  30.4770  32.0287  32.8782  34.0341

          k =-0.1000-0.4041 0.2079 (  3028 PWs)   bands (ev):

   -91.4180 -91.4178 -52.9449 -52.9424 -52.9295 -52.9289 -52.9264 -52.9254
    -4.0997  -3.4727   4.2985   4.8793   6.7947   7.4100   7.9031   8.5273
    15.0257  15.8561  18.1042  19.3494  19.9883  20.8090  21.7232  23.0996
    24.5920  25.5588  27.4596  28.6850  30.7095  32.0563  33.2530  34.3273

          k =-0.1000-0.5196 0.1039 (  3026 PWs)   bands (ev):

   -91.4179 -91.4177 -52.9448 -52.9419 -52.9310 -52.9299 -52.9273 -52.9253
    -3.8290  -3.1822   3.9386   4.9260   6.2506   7.0130   7.8809   8.2026
    14.8030  15.6992  17.9979  18.9522  20.0441  21.1629  21.7839  23.9983
    24.6569  27.0072  28.1374  29.2660  30.8538  31.8679  33.2599  33.9864

          k =-0.1000-0.5196 0.2079 (  3028 PWs)   bands (ev):

   -91.4179 -91.4177 -52.9444 -52.9428 -52.9305 -52.9299 -52.9269 -52.9257
    -3.6850  -3.3080   3.8005   4.3462   6.7500   7.5287   7.6962   8.4060
    14.5808  15.5377  18.2609  19.1227  19.6489  20.9952  21.9685  23.5056
    24.8691  26.3718  28.2197  29.7327  30.9824  31.7116  33.3254  33.9867

          k =-0.2000-0.4619 0.1039 (  3025 PWs)   bands (ev):

   -91.4179 -91.4177 -52.9447 -52.9419 -52.9302 -52.9296 -52.9277 -52.9261
    -3.8749  -3.1498   4.4405   4.9650   6.1596   6.5813   7.4551   8.1572
    15.1645  16.6684  17.8267  18.9790  20.1623  20.7742  21.6429  23.9460
    24.8694  25.7549  28.3642  29.1461  30.6503  32.0990  32.9490  34.3146

          k =-0.2000-0.4619 0.2079 (  3031 PWs)   bands (ev):

   -91.4179 -91.4177 -52.9444 -52.9428 -52.9298 -52.9294 -52.9274 -52.9265
    -3.7190  -3.2976   4.2581   4.5913   6.1804   6.9278   7.5825   8.5007
    15.3938  16.2112  17.9439  18.7167  20.2480  20.6050  21.8798  23.4992
    24.9001  25.5545  27.9027  28.6534  31.5757  32.1763  33.5824  34.3659

     the Fermi energy is    11.2464 ev

!    total energy              =    -317.04277773 Ry
     estimated scf accuracy    <          1.1E-13 Ry
     smearing contrib. (-TS)   =      -0.00000000 Ry
     internal energy E=F+TS    =    -317.04277773 Ry

     The total energy is F=E-TS. E is the sum of the following terms:
     one-electron contribution =    -171.86252581 Ry
     hartree contribution      =      78.81095766 Ry
     xc contribution           =     -41.91131548 Ry
     ewald contribution        =    -182.07989409 Ry

     convergence has been achieved in  11 iterations

     Writing all to output data dir out/mp-661.save/
 
     init_run     :      0.35s CPU      0.45s WALL (       1 calls)
     electrons    :     13.37s CPU     14.63s WALL (       1 calls)

     Called by init_run:
     wfcinit      :      0.32s CPU      0.38s WALL (       1 calls)
     potinit      :      0.01s CPU      0.01s WALL (       1 calls)
     hinit0       :      0.02s CPU      0.06s WALL (       1 calls)

     Called by electrons:
     c_bands      :     11.74s CPU     12.77s WALL (      11 calls)
     sum_band     :      1.59s CPU      1.78s WALL (      11 calls)
     v_of_rho     :      0.02s CPU      0.02s WALL (      12 calls)
     mix_rho      :      0.01s CPU      0.01s WALL (      11 calls)

     Called by c_bands:
     init_us_2    :      0.06s CPU      0.06s WALL (    1656 calls)
     init_us_2:cp :      0.05s CPU      0.06s WALL (    1656 calls)
     cegterg      :     11.35s CPU     11.93s WALL (     792 calls)

     Called by *egterg:
     cdiaghg      :      3.31s CPU      3.38s WALL (    3058 calls)
     h_psi        :      7.32s CPU      7.83s WALL (    3130 calls)
     g_psi        :      0.04s CPU      0.04s WALL (    2266 calls)

     Called by h_psi:
     h_psi:calbec :      0.19s CPU      0.20s WALL (    3130 calls)
     vloc_psi     :      7.00s CPU      7.48s WALL (    3130 calls)
     add_vuspsi   :      0.10s CPU      0.11s WALL (    3130 calls)

     General routines
     calbec       :      0.18s CPU      0.19s WALL (    3130 calls)
     fft          :      0.02s CPU      0.06s WALL (     119 calls)
     ffts         :      0.00s CPU      0.00s WALL (      11 calls)
     fftw         :      7.78s CPU      8.33s WALL (  161240 calls)
     davcio       :      0.12s CPU      0.55s WALL (    2646 calls)
 
     Parallel routines
 
     PWSCF        :     13.97s CPU     15.52s WALL

 
   This run was terminated on:   2:30:27  16Nov2023            

=------------------------------------------------------------------------------=
   JOB DONE.
=------------------------------------------------------------------------------=
