
     Program PWSCF v.7.1 starts on 14Nov2023 at 23: 3:15 

     This program is part of the open-source Quantum ESPRESSO suite
     for quantum simulation of materials; please cite
         "P. Giannozzi et al., J. Phys.:Condens. Matter 21 395502 (2009);
         "P. Giannozzi et al., J. Phys.:Condens. Matter 29 465901 (2017);
         "P. Giannozzi et al., J. Chem. Phys. 152 154105 (2020);
          URL http://www.quantum-espresso.org", 
     in publications or presentations arising from this work. More details at
     http://www.quantum-espresso.org/quote

     Parallel version (MPI), running on    24 processors

     MPI processes distributed on     1 nodes
     122552 MiB available memory on the printing compute node when the environment starts
 
     Reading input from pw_mp-1550_nscf_k260_E65.in
Warning: card &IONS ignored
Warning: card / ignored
Warning: card &CELL ignored
Warning: card / ignored

     Current dimensions of program PWSCF are:
     Max number of different atomic species (ntypx) = 10
     Max number of k-points (npk) =  40000
     Max angular momentum in pseudopotentials (lmaxx) =  4

     Atomic positions and unit cell read from directory:
     out/mp-1550.save/
     Atomic positions from file used, from input discarded
 
 
     K-points division:     npool     =       2
     R & G space division:  proc/nbgrp/npool/nimage =      12
     Subspace diagonalization in iterative solution of the eigenvalue problem:
     one sub-group per band group will be used
     scalapack distributed-memory algorithm (size of sub-group:  3*  3 procs)

 
     Parallelization info
     --------------------
     sticks:   dense  smooth     PW     G-vecs:    dense   smooth      PW
     Min          79      79     23                 1632     1632     260
     Max          80      80     24                 1635     1635     263
     Sum         955     955    283                19603    19603    3143
 
     Using Slab Decomposition
 


     bravais-lattice index     =            2
     lattice parameter (alat)  =      10.3424  a.u.
     unit-cell volume          =     276.5700 (a.u.)^3
     number of atoms/cell      =            2
     number of atomic types    =            2
     number of electrons       =        16.00
     number of Kohn-Sham states=         1008
     kinetic-energy cutoff     =      65.0000  Ry
     charge density cutoff     =     260.0000  Ry
     Exchange-correlation= PBE
                           (   1   4   3   4   0   0   0)

     celldm(1)=  10.342409  celldm(2)=   0.000000  celldm(3)=   0.000000
     celldm(4)=   0.000000  celldm(5)=   0.000000  celldm(6)=   0.000000

     crystal axes: (cart. coord. in units of alat)
               a(1) = (  -0.500000   0.000000   0.500000 )  
               a(2) = (   0.000000   0.500000   0.500000 )  
               a(3) = (  -0.500000   0.500000   0.000000 )  

     reciprocal axes: (cart. coord. in units 2 pi/alat)
               b(1) = ( -1.000000 -1.000000  1.000000 )  
               b(2) = (  1.000000  1.000000  1.000000 )  
               b(3) = ( -1.000000  1.000000 -1.000000 )  


     PseudoPot. # 1 for Al read from file:
     /usr/scratch4/magr4985/MG/HTDF/pseudo/SG15/Al.upf
     MD5 check sum: 2d9e7bc02555220d62fad08c3c4858e7
     Pseudo is Norm-conserving, Zval = 11.0
     Generated using ONCVPSP code by D. R. Hamann
     Using radial grid of  602 points,  4 beta functions with: 
                l(1) =   0
                l(2) =   0
                l(3) =   1
                l(4) =   1

     PseudoPot. # 2 for P  read from file:
     /usr/scratch4/magr4985/MG/HTDF/pseudo/SG15/P.upf
     MD5 check sum: 0688a67b2b263c6b42d3d97c42745426
     Pseudo is Norm-conserving, Zval =  5.0
     Generated using ONCVPSP code by D. R. Hamann
     Using radial grid of  602 points,  4 beta functions with: 
                l(1) =   0
                l(2) =   0
                l(3) =   1
                l(4) =   1

     atomic species   valence    mass     pseudopotential
        Al            11.00    26.98150     Al( 1.00)
        P              5.00    30.97380     P ( 1.00)

     24 Sym. Ops. (no inversion) found



   Cartesian axes

     site n.     atom                  positions (alat units)
         1           Al  tau(   1) = (   0.0000000   0.0000000   0.0000000  )
         2           P   tau(   2) = (  -0.7500000   0.7500000   0.7500000  )

     number of k points=    16  Gaussian smearing, width (Ry)=  0.0005
                       cart. coord. in units 2pi/alat
        k(    1) = (   0.0000000   0.0000000   0.0000000), wk =   0.0092593
        k(    2) = (  -0.1666667   0.1666667  -0.1666667), wk =   0.0740741
        k(    3) = (  -0.3333333   0.3333333  -0.3333333), wk =   0.0740741
        k(    4) = (   0.5000000  -0.5000000   0.5000000), wk =   0.0370370
        k(    5) = (   0.0000000   0.3333333   0.0000000), wk =   0.0555556
        k(    6) = (  -0.1666667   0.5000000  -0.1666667), wk =   0.2222222
        k(    7) = (   0.6666667  -0.3333333   0.6666667), wk =   0.2222222
        k(    8) = (   0.5000000  -0.1666667   0.5000000), wk =   0.2222222
        k(    9) = (   0.3333333   0.0000000   0.3333333), wk =   0.1111111
        k(   10) = (   0.0000000   0.6666667   0.0000000), wk =   0.0555556
        k(   11) = (   0.8333333  -0.1666667   0.8333333), wk =   0.2222222
        k(   12) = (   0.6666667  -0.0000000   0.6666667), wk =   0.1111111
        k(   13) = (   0.0000000  -1.0000000   0.0000000), wk =   0.0277778
        k(   14) = (   0.6666667  -0.3333333   1.0000000), wk =   0.2222222
        k(   15) = (   0.5000000  -0.1666667   0.8333333), wk =   0.2222222
        k(   16) = (  -0.3333333  -1.0000000   0.0000000), wk =   0.1111111

     Dense  grid:    19603 G-vectors     FFT dimensions: (  40,  40,  40)

     Estimated max dynamical RAM per process >      63.19 MB

     Estimated total dynamical RAM >       1.48 GB

     The potential is recalculated from file :
     out/mp-1550.save/charge-density

     Starting wfcs are random

     Band Structure Calculation
     Davidson diagonalization with overlap

     ethr =  5.00E-06,  avg # of iterations =  7.0

     total cpu time spent up to now is      357.5 secs

     End of band structure calculation

          k = 0.0000 0.0000 0.0000 (  2445 PWs)   bands (ev):

   -96.2795 -57.7718 -57.7718 -57.7718  -5.2917   6.1831   6.1831   6.1831
     9.4032  10.7296  10.7296  10.7296  15.0398  15.0398  16.4296  18.4360
    18.4360  18.4360  22.3736  30.0108  30.0108  30.0108  31.2995  31.2995
    32.4611  32.4611  32.4611  36.2548  36.2548  36.2548  41.8882  41.8882
    41.8882  44.7792  44.8081  44.8081  48.0769  48.0769  48.6912  48.6912
    48.6912  50.7175  50.7175  50.7175  51.2671  51.7982  51.7982  51.7982
    52.5446  52.5446  52.5446  53.0762  53.0762  53.0762  56.8347  57.9131
    57.9131  57.9131  58.8942  58.8942  58.8942  61.4540  66.7651  71.6596
    71.6596  75.0492  75.0492  75.0492  77.0598  77.0598  77.0598  77.5382
    77.5382  79.0351  79.5252  79.5252  79.5252  83.7310  83.7310  83.7310
    88.9017  88.9017  89.5761  89.5761  89.5761  89.6986  89.6986  89.6986
    92.1637  92.3971  92.3971  92.9459  92.9459  92.9459  94.4083  94.4083
    94.4083  96.3046  96.3046  96.3046  97.2318  97.4307  97.4307  97.4307
    98.2348  98.2348  98.2348  98.8170  99.7933  99.7933  99.7933  99.8627
    99.8627 100.4684 100.4684 100.4684 101.0822 106.1314 106.1314 106.1314
   107.1309 107.1309 108.3899 111.9514 111.9514 111.9514 114.5269 114.5269
   114.5269 115.4068 115.4068 115.4068 116.0156 116.0156 116.0156 116.7348
   116.7348 117.9796 120.2623 120.2623 120.2623 123.4805 123.4805 125.5667
   125.5667 125.5667 125.8653 127.4323 127.4323 128.4564 128.4564 128.4564
   129.4207 130.5904 130.5904 130.5904 131.1150 131.8987 131.8987 131.8987
   132.0100 132.0100 132.0100 132.1239 132.1239 132.1239 133.1193 133.1193
   133.1193 137.1113 137.1113 137.1113 141.8814 144.4478 144.4478 144.4478
   146.7489 146.7489 146.9559 148.0435 148.0435 148.0435 149.9968 149.9968
   149.9968 155.6453 155.6453 157.3695 157.3695 157.3695 160.0537 160.0537
   160.0537 161.0291 163.8457 163.8457 164.8229 164.8229 164.8229 165.9989
   165.9989 165.9989 167.2388 167.2388 167.2388 168.2036 169.3636 169.3636
   169.5592 169.5592 169.5592 170.0091 170.0091 170.0091 170.3638 170.3638
   170.3638 171.0260 171.0260 171.0260 171.3070 171.3070 171.6379 171.6379
   171.6379 172.3820 172.6242 172.6242 172.6242 172.9986 172.9986 172.9986
   173.2013 173.3428 173.5775 173.5775 173.5775 174.8465 175.0905 175.0905
   175.7964 175.7964 175.7964 177.6398 177.6398 178.0608 178.0608 178.0608
   178.4829 178.4829 178.4829 178.7829 178.7829 178.7829 179.0733 179.0733
   179.0733 179.0897 179.0897 185.3942 185.3942 185.3942 186.1697 186.1697
   186.8361 191.8106 191.8106 191.8106 193.6853 193.6853 193.6853 195.1092
   195.1092 195.1092 195.5127 195.5127 195.5127 196.2150 197.1702 197.1702
   197.1702 198.4141 198.4141 198.4704 198.4704 198.4704 198.5640 199.8214
   200.2969 200.2969 200.2969 202.3559 202.3559 203.8705 203.8705 203.8705
   207.1938 207.1938 207.1938 207.9583 207.9583 207.9583 207.9628 207.9628
   207.9628 209.0276 209.0276 210.3528 211.0040 211.0040 211.0040 214.1269
   214.1269 214.1269 214.8219 214.8219 215.7102 215.7102 215.7102 216.0053
   216.7112 216.7112 216.7112 216.7949 216.7949 216.7949 217.5467 217.5467
   217.5467 217.8023 217.8023 225.2570 225.2570 225.2570 229.0506 230.0569
   230.0569 230.0569 232.4927 233.0979 233.0979 233.0979 234.8103 234.8103
   235.9862 236.0646 236.0646 236.0646 237.2315 237.2315 237.2315 238.2389
   238.2389 238.2389 239.7020 239.7020 241.4619 242.7222 242.7222 242.7222
   243.7623 243.7623 243.7623 244.3191 244.3191 244.3191 244.3720 244.3720
   246.4835 247.1063 247.1063 247.1063 247.3219 247.3219 248.2791 251.2880
   251.2880 251.2880 251.4216 251.4216 251.4216 251.4603 251.4603 251.4603
   251.5362 251.5362 251.5362 256.0089 256.0089 256.0089 256.0411 256.0411
   256.0411 256.0541 256.0541 256.1721 256.1721 256.1721 256.3431 256.8548
   256.8548 256.8548 256.9333 257.7180 257.7180 257.7180 258.6706 258.6706
   258.6706 258.6769 258.6769 260.5599 260.5599 260.5599 261.6471 262.3432
   262.3432 262.3432 264.2902 265.7923 265.7923 267.5023 267.5023 267.5023
   267.9982 267.9982 267.9982 269.9545 269.9545 269.9545 270.0164 270.0164
   270.0164 271.8347 271.8347 274.5520 274.5520 275.2825 275.2825 275.2825
   275.6706 275.6706 275.6706 275.7510 275.7510 275.7510 275.9537 275.9537
   275.9537 276.8554 276.8554 277.0066 277.0066 277.0066 277.2784 277.9724
   277.9724 277.9724 278.3487 278.3487 278.3487 278.6250 279.4655 279.4655
   279.4655 280.0234 280.9751 283.3978 283.3978 285.2199 285.2199 285.2199
   286.8387 286.8387 286.8387 287.0922 287.0922 287.0922 287.1884 287.1884
   287.8373 287.8373 287.8373 288.5528 289.2700 289.2700 289.2700 289.5466
   289.6538 289.6538 289.6538 291.5153 291.5153 291.5628 291.5628 291.5628
   291.6192 291.6192 291.6192 291.9468 291.9468 291.9468 292.1419 292.1419
   292.1419 292.2645 292.2645 292.4643 292.5246 292.5246 292.5246 292.8424
   292.8424 292.8424 293.2556 293.3518 293.3518 293.3518 293.3717 293.3717
   293.3717 293.3748 293.3748 293.5523 293.5523 293.5523 293.7638 293.7638
   293.7695 293.7695 293.7695 311.9110 311.9110 311.9110 312.1588 312.1588
   312.6162 313.4822 313.4822 313.4822 317.2341 317.2341 317.2341 317.7345
   319.3416 319.3416 319.3830 321.8298 321.8298 321.8298 324.3761 324.3761
   324.3761 324.8920 324.8920 324.8920 325.2244 325.2244 325.2244 325.6220
   325.6220 327.6083 328.3343 328.3343 328.3343 328.9463 328.9463 328.9463
   330.4359 330.4359 330.6744 331.1513 331.1513 331.1513 332.5624 335.6261
   335.6261 335.6261 335.7194 335.7194 335.7194 335.7267 335.7267 335.7267
   335.8723 335.8723 335.8723 337.6481 337.6481 337.8511 337.8511 337.8511
   338.0145 338.0145 338.0145 338.1802 338.1802 338.1802 338.2036 338.2036
   338.2870 338.2870 338.2870 338.7481 338.7481 338.7524 338.7524 338.7524
   338.8198 342.6077 342.6077 342.6077 343.9855 343.9855 343.9855 344.2952
   344.2952 344.6484 344.8579 344.8579 344.8579 350.5022 350.5022 350.6168
   350.6168 350.6168 352.9657 354.2241 354.2241 354.2241 354.3500 354.3500
   354.3500 354.9235 354.9235 354.9235 355.1228 355.1228 355.1228 355.3020
   355.3020 355.3020 355.6684 355.6684 355.6684 356.3800 356.4063 356.4063
   356.4063 356.4699 356.4699 356.6994 356.6994 356.6994 356.8191 356.8191
   357.7011 365.1623 365.7615 365.7615 365.7615 366.4205 366.4205 366.4205
   366.8568 367.9439 367.9439 367.9439 368.0851 368.0851 368.0851 368.3306
   368.3306 368.3306 368.3699 368.3699 368.6565 370.1038 370.1038 370.1185
   370.1185 370.1185 370.3103 370.3103 370.3103 370.5038 370.5038 370.5038
   370.6739 371.3541 371.3541 371.3584 371.3584 371.3584 371.7094 371.7094
   371.7094 371.9690 371.9690 371.9690 372.2342 376.3549 376.3549 376.3549
   376.4453 376.4453 376.4453 376.4486 376.4486 376.4486 376.4616 376.4616
   376.6635 378.3945 378.3945 378.3945 378.3952 378.4373 378.4373 378.4373
   378.5006 378.5006 378.5006 378.5010 378.5010 390.8492 390.8492 390.9115
   390.9115 390.9115 391.0742 392.2266 392.2266 392.2266 393.2374 393.2374
   393.2374 394.0603 394.0603 394.0603 394.7172 394.7172 394.7172 394.8775
   394.8775 394.8775 395.1942 395.6007 395.6007 395.6973 395.6973 395.8867
   395.8867 395.8867 396.1058 397.7364 397.7364 397.7364 398.7974 398.8250
   398.8250 398.8250 401.3107 401.3107 401.3107 402.2545 402.2545 402.2545
   402.8754 402.8754 402.8754 403.0745 403.8670 403.8670 405.6245 405.6245
   405.6245 405.8589 405.8589 406.7835 406.7835 406.7835 407.1361 407.2274
   407.2274 408.6790 408.6790 408.6790 409.4344 409.4344 409.4344 409.9047
   409.9047 409.9047 410.2050 410.2050 410.2218 410.2218 410.2218 410.5834
   410.5834 410.8204 410.8204 410.8204 411.6064 411.6064 411.6064 412.0385
   412.1480 412.1480 412.1480 412.4490 412.4490 412.4490 412.4991 412.6104
   412.6104 412.6104 412.7460 412.7925 412.7925 412.7925 413.1232 413.1232
   413.1232 413.4363 413.4363 413.4363 413.5741 415.1178 415.1178 415.1178
   415.1293 415.1293 415.5194 415.5194 415.5194 415.6921 415.6921 415.6921
   415.8257 415.8257 415.8257 416.2564 416.2564 418.1182 418.1182 418.3188
   418.3188 418.3188 418.7726 418.7858 418.7858 418.7858 418.9376 418.9376
   418.9376 419.0223 419.0223 419.0223 419.2926 419.2926 419.2926 419.3678
   419.3678 419.5915 419.5915 419.5915 419.7284 427.7226 427.7226 427.7226
   428.0207 428.3041 428.3041 428.3041 428.7129 437.4582 437.4582 437.4981
   437.4981 437.4981 437.6366 437.6366 437.6366 437.7221 437.7221 437.7221
   437.8309 437.8309 437.8309 437.8542 437.8542 443.4487 443.4487 444.0814
   444.2377 444.2377 444.2377 445.6526 445.6526 445.6526 445.9720 445.9720
   446.4948 446.4948 446.4948 446.6643 446.6643 446.6643 446.8320 446.8320
   446.8320 446.8998 446.8998 446.8998 447.3454 452.2220 452.2220 452.2220
   452.2483 452.2483 452.2483 452.2624 452.2624 452.3196 452.3196 452.3196
   452.4147 452.4147 452.4147 452.5119 452.5119 452.5119 452.5300 453.1998
   453.1998 453.2401 453.2401 453.2401 453.3134 466.4737 466.4737 466.4737
   466.7111 467.5319 467.5319 467.5319 468.0517 470.1583 470.1583 470.3532
   470.3532 470.3532 471.1726 471.1726 471.1726 471.4539 471.4539 471.4539
   471.6758 471.6758 471.6758 472.1017 472.1017 474.2376 474.2376 474.2376
   475.3428 475.3428 475.3428 476.0354 476.0640 476.0640 476.0640 476.1451
   476.1451 480.7461 482.3858 482.3858 482.3858 483.2929 483.2929 483.2929
   483.7968 483.7968 483.7968 483.8788 483.8788 484.4466 484.4466 484.4466
   484.8841 485.1051 485.1051 485.1051 485.9468 487.2103 487.2103 487.9644
   487.9644 487.9644 489.0627 489.0628 489.0845 489.0846 489.0846 489.2767

          k =-0.1667 0.1667-0.1667 (  2475 PWs)   bands (ev):

   -96.2799 -57.7719 -57.7718 -57.7718  -4.9911   4.3122   5.9406   5.9406
     9.7642  11.1630  11.1630  11.7981  14.3993  14.3993  17.0171  18.3119
    20.3014  20.3014  24.3542  26.9884  26.9884  27.4338  30.9067  30.9067
    33.2003  33.2003  34.5229  36.5794  38.3623  38.9687  38.9687  41.2927
    41.2927  42.3401  42.3401  45.0262  45.0262  45.4535  47.7044  47.9909
    48.6628  48.6628  49.9257  50.6200  50.6200  51.2130  51.9938  51.9938
    52.6148  55.0762  55.3739  55.3739  56.4513  56.4513  57.7988  57.9594
    59.6333  59.6333  61.9634  61.9634  62.0787  66.2728  68.1524  68.1524
    68.9759  71.0819  72.0031  72.0031  74.0520  75.4439  75.4439  77.5035
    77.5035  79.4841  80.8808  80.8808  83.1687  83.6046  83.6046  83.8313
    85.1061  85.1061  86.2326  87.4232  87.4232  88.2938  89.4629  89.4629
    89.9967  90.2104  90.9927  90.9927  92.7079  92.7079  93.0808  95.0176
    95.2196  95.2196  96.1195  96.2908  96.2908  96.4718  98.3544  98.3544
    98.5770 100.0268 100.0268 100.8080 101.4354 101.4354 101.7561 101.9659
   101.9659 103.6665 104.3522 104.3522 105.7737 105.7737 106.1404 108.0174
   108.0174 108.1651 108.8197 109.6417 109.6417 110.1432 111.6678 111.6678
   113.2608 116.0561 116.5043 116.5043 116.9156 117.1655 117.1655 117.8359
   118.5940 118.5940 120.2804 120.2804 120.8824 121.9779 122.4761 122.4761
   123.3292 124.1798 124.6774 124.6774 125.3009 125.3009 125.5923 126.4377
   127.6654 127.6654 129.1074 129.1074 131.0965 133.1844 133.1844 133.7842
   134.4236 134.4236 135.7529 136.1019 136.1019 136.8353 138.3153 138.3153
   140.5268 140.8792 140.8792 141.8835 142.2126 142.2126 143.3461 145.6024
   145.6024 145.8723 147.0202 147.0202 147.5862 148.1590 150.8124 150.8124
   151.2242 153.5988 153.5988 155.4318 155.4318 156.1129 156.8660 156.8660
   157.0140 157.3883 158.1762 158.7371 158.7371 160.4924 160.4924 161.5991
   161.9965 162.9111 162.9111 163.8229 163.8229 163.9902 164.7396 164.7396
   165.5264 165.7739 165.7739 167.0004 167.0004 167.1315 167.5636 167.5636
   167.8171 168.4551 169.5600 169.5600 170.9642 171.9625 171.9625 172.3131
   172.3131 172.3289 172.3759 173.3374 173.3374 173.4426 174.8361 174.8361
   176.2587 176.2587 176.2767 176.7069 177.1938 177.3217 177.3217 177.8934
   177.8934 179.5901 180.2567 180.2567 181.3305 181.4811 181.4811 182.1515
   182.6171 182.6171 183.1926 183.1926 183.3453 183.8324 184.2146 184.9192
   184.9192 185.5493 186.0497 186.0497 186.9043 186.9043 187.2939 187.4363
   187.4363 188.2202 188.6370 188.6370 189.4079 190.4911 190.4911 190.8586
   191.0129 191.6765 191.6765 194.2833 194.5209 194.5209 195.7675 195.7675
   197.3190 197.3190 197.3696 199.1388 200.1522 200.1522 200.7117 200.7117
   201.6175 202.6894 202.8826 202.8826 203.4434 204.2656 204.2656 205.8906
   205.8906 206.1066 206.9367 207.1774 207.1774 207.4063 207.4063 207.8525
   209.1406 209.7669 209.7669 211.0923 211.2518 211.2518 211.3536 212.9721
   212.9721 214.0777 215.8103 215.8103 216.0148 216.7397 217.5948 218.2397
   218.2397 219.2070 219.7851 219.7851 221.2651 221.2651 221.3659 223.4368
   223.4368 224.2752 225.1208 225.1208 226.5297 226.6696 227.1239 227.1239
   227.6327 227.6327 229.7933 229.7933 230.2576 230.8432 230.8432 231.6048
   234.2249 234.2262 234.2262 234.8183 234.8183 235.5198 236.0394 236.0394
   236.7347 237.5806 237.5806 238.3768 239.2381 239.2381 239.3223 240.2051
   240.2051 240.7217 240.8017 241.9030 241.9390 241.9390 242.3695 242.3695
   242.6600 242.6600 243.5581 244.2388 244.7953 245.1639 245.1639 247.0078
   248.8244 248.8244 249.8907 250.5921 250.5921 252.8257 252.8257 253.0577
   253.5197 253.5197 253.8889 254.2142 254.2142 254.9817 254.9817 255.0393
   255.2260 255.8609 255.8609 256.4094 256.4094 256.8462 257.8629 258.7428
   258.7428 259.2838 259.6991 259.6991 259.8936 260.6809 260.7475 260.7475
   260.7528 261.2967 261.2967 261.6751 263.6227 263.6227 263.7761 263.8809
   264.4682 264.4682 264.9702 264.9702 265.3824 265.3824 265.7276 266.5380
   267.0000 267.0000 267.3105 268.3937 268.3937 269.0277 269.6028 269.6028
   270.1388 271.4647 271.4647 271.7488 271.7488 272.2912 272.9225 272.9225
   273.1011 273.6535 273.6535 274.3190 274.3190 274.3262 274.4282 274.5090
   274.7047 274.7047 275.0556 275.0557 275.4132 275.7787 276.1088 276.1088
   276.8294 277.0315 277.0315 277.5903 277.7836 277.7836 279.6343 279.6343
   279.9287 280.5686 280.5686 281.0557 281.7087 282.6799 282.6799 282.9715
   283.1349 283.1349 283.3853 284.7766 284.7766 284.7906 285.0630 285.0630
   286.1245 287.8505 287.8505 287.8692 288.0967 288.0967 288.4169 288.4169
   288.5459 289.0615 289.0615 289.1323 289.7587 290.7435 290.7435 291.9898
   291.9898 292.3449 294.3308 295.6515 295.6515 296.2889 296.2889 296.4048
   297.0943 297.6006 297.6006 297.9871 298.2802 298.2802 298.3916 298.7503
   299.0856 299.0856 299.2158 299.2158 299.5373 300.0336 302.4129 302.4129
   302.6626 302.6626 303.0639 304.9390 304.9390 306.2603 306.5511 306.5511
   306.6444 306.7703 306.7703 307.1442 307.1442 307.5421 308.0149 309.4975
   310.2817 310.2817 311.0757 311.0757 311.5620 313.8073 314.1172 315.0210
   315.0210 315.2569 315.2569 316.3689 316.3689 317.6657 317.6657 318.9005
   320.0630 320.0630 320.4391 320.6908 320.6908 320.9866 323.7092 323.7092
   323.9922 325.1777 325.4040 325.4040 325.8738 325.9045 325.9045 326.9366
   327.0444 327.0444 327.7685 327.8979 327.8979 328.2280 328.2280 328.4204
   329.4756 329.4756 330.4422 333.1053 333.1053 333.9074 333.9074 334.2209
   334.7577 334.7577 335.0012 335.4254 336.1571 336.3283 336.4415 336.4415
   336.8913 336.8913 339.5767 340.0903 340.0903 340.1975 340.5352 340.5352
   340.5905 341.0348 341.0348 341.4513 342.8595 344.3989 344.3989 345.1178
   345.4827 345.4827 345.7249 346.0449 346.0449 346.3031 346.7314 346.7314
   347.4167 347.4167 347.5267 348.5678 348.7366 348.7366 349.1205 349.1205
   349.2449 349.3147 349.5465 349.5465 349.6359 349.6359 349.9794 350.9539
   351.7572 351.7572 352.2784 352.9239 352.9239 353.2560 353.7602 353.7602
   354.3836 354.5227 354.5227 354.7359 355.1571 355.1571 355.7351 355.7351
   355.9140 356.2042 358.3355 358.3355 358.4226 359.3885 359.3885 359.7375
   361.4087 361.4087 362.1355 362.2612 362.2612 363.4803 363.4803 363.6719
   366.6439 366.6439 366.7309 367.0470 367.0470 367.2164 367.3044 367.3044
   367.7922 368.9803 369.2999 369.2999 369.5827 369.8102 369.9846 369.9846
   370.5737 370.5737 370.8073 372.0313 372.0313 372.4555 372.9223 372.9223
   373.8901 373.8901 373.9771 374.6144 374.6144 374.6784 375.0022 375.0058
   375.0058 375.1979 375.1979 375.4619 375.6097 375.6097 375.6683 375.8962
   375.8962 376.0301 376.1120 376.7221 376.7221 376.8451 377.3918 377.3918
   381.3300 381.3300 381.3433 381.7697 381.7960 381.7960 382.7262 383.6612
   383.6612 384.3475 384.3475 385.9663 386.0627 386.0627 387.1599 387.1599
   387.6579 387.6587 387.9927 388.5236 388.9472 388.9472 389.5484 389.5484
   389.5764 389.5764 389.7430 390.6032 390.6067 391.2099 391.3948 391.3948
   392.0362 392.0362 392.1204 392.9474 392.9474 393.3121 393.3121 393.5618
   394.5866 394.5866 394.9239 394.9239 394.9325 395.8968 395.9702 396.0088
   396.0088 397.1719 397.1719 397.6879 397.6879 397.7104 398.0370 399.1992
   399.1992 399.2001 399.9857 400.0874 400.0874 400.5192 400.5192 400.5925
   400.9206 400.9206 401.1874 401.2091 401.2091 401.3741 401.5545 401.5545
   402.0495 402.1153 402.3333 402.7719 402.7719 403.1941 403.1941 403.4648
   407.0544 407.0544 407.5223 407.5308 407.5308 407.8193 409.1227 409.1227
   409.1337 409.5723 409.7363 409.7363 410.6721 410.6721 410.8786 411.4247
   411.4247 411.6502 411.6502 412.6301 413.1803 413.1803 413.3633 413.6326
   413.9395 413.9395 415.5238 415.5238 415.5646 416.0774 416.0774 416.2481
   417.4447 417.4447 417.7859 418.4517 418.7674 418.7674 420.0650 420.2247
   420.2247 420.8228 421.3757 421.3757 421.5273 421.5273 421.7817 422.2334
   422.4915 422.4915 422.9854 424.1349 424.1349 424.3859 424.3859 424.4720
   424.6291 425.6912 425.6912 425.9701 426.5521 426.5521 427.2012 427.3792
   427.3792 428.3500 428.3500 428.3767 428.4350 428.4350 428.5185 428.9556
   428.9556 429.2316 429.5666 430.2320 430.2320 430.2457 430.4713 430.4713
   431.4123 431.4123 431.4357 431.7580 431.7580 431.9843 432.8885 432.8885
   433.0054 434.3659 434.3659 434.4615 435.5389 435.5389 436.0507 436.3283
   436.3283 436.5662 437.5245 438.3524 438.3971 438.3971 439.4715 439.4715
   439.5894 439.6392 439.6585 439.6585 439.8798 439.8798 441.2014 442.9881
   442.9881 443.6022 444.4739 444.4991 444.4991 444.9978 444.9978 445.0152
   445.1795 445.1795 449.6864 450.0445 450.0445 450.4607 452.1973 452.1973
   453.8507 453.8937 453.8937 454.8584 455.1971 455.1971 455.5977 457.5502
   458.3324 458.3452 458.3452 458.9812 458.9812 459.5931 460.2174 460.3112
   460.3112 461.5575 461.5575 461.6152 461.6645 461.6645 461.8699 463.5153
   463.5153 464.6717 464.6717 466.1490 466.3508 466.3508 467.5627 467.5627
   467.9361 468.5306 468.5748 468.5748 469.2750 469.3705 469.3705 469.6154
   469.6154 469.8113 469.9113 470.0228 470.0228 471.7382 471.7382 472.0925
   472.0925 472.4391 472.4440 474.2206 474.2206 474.4030 474.6413 474.6413
   474.8538 475.5585 476.1190 476.1466 476.1466 476.3947 476.3947 476.8670
   476.8670 477.1541 477.2722 477.6478 477.6478 478.1821 478.1821 478.3882
   481.4568 481.4568 481.4976 482.1449 482.1449 482.3803 482.7854 482.8211
   482.8867 482.8867 483.3009 483.3009 483.8276 483.8276 484.1766 486.7921

          k =-0.3333 0.3333-0.3333 (  2448 PWs)   bands (ev):

   -96.2796 -57.7721 -57.7719 -57.7719  -4.2096   1.8607   5.5689   5.5689
     9.2040  11.2280  11.2280  14.0715  15.3171  15.3171  16.4763  21.4135
    21.8741  21.8741  23.8278  24.6536  24.6536  28.8296  31.0628  31.0628
    32.6730  33.4690  33.4690  36.1806  36.1806  36.5436  37.4225  39.7683
    39.7683  41.2699  41.2699  42.1027  44.7073  45.0942  46.9024  46.9024
    48.0931  48.0931  49.7959  50.7924  50.7924  50.9738  52.9099  54.8098
    54.8098  57.4526  57.4526  58.6282  60.2201  60.2201  60.7323  63.2878
    63.2878  63.9517  65.2213  65.2213  65.4014  66.3249  67.2335  67.2335
    68.4080  68.4080  68.8687  70.9503  70.9503  72.1470  73.8552  73.8552
    75.1001  78.2888  78.5016  79.2629  79.2629  80.6232  80.6232  80.9451
    83.8792  83.8792  83.9066  84.1390  87.1644  87.1644  87.9455  87.9455
    90.5403  90.5403  90.8309  91.0925  91.4825  91.4825  92.5230  93.7731
    93.7731  94.4624  96.1759  96.1759  96.5148  97.3824  99.3988 100.2610
   100.2610 101.4816 101.4816 101.5254 102.0315 102.0315 103.5467 103.6648
   103.6648 104.0478 106.0452 106.3116 106.4269 106.4269 108.1502 108.1502
   109.6602 109.9713 109.9713 110.7658 112.5304 112.5304 113.4587 114.2823
   114.2823 115.7998 115.9520 115.9520 116.3773 116.3773 117.2288 117.3954
   119.0828 119.0828 119.3231 120.7531 120.7531 120.9721 121.7233 121.7233
   121.8721 122.7952 122.7952 123.0968 125.3356 125.3356 127.3777 127.3777
   128.2981 129.7977 131.3432 131.3432 131.9944 133.2895 133.2895 135.5308
   137.7694 137.7694 138.0208 140.3159 140.8409 140.8409 141.1460 141.1460
   141.5990 142.5735 142.5735 143.3857 143.3857 144.1847 144.8310 144.8310
   144.8920 146.3092 147.3721 147.6738 147.6738 148.5402 148.5402 148.8663
   148.8663 149.6973 150.2471 150.6011 150.6011 151.1639 151.6536 152.7031
   152.7031 154.3304 154.3304 155.1809 156.2052 156.2052 156.8024 157.7591
   157.7592 158.8324 159.2494 159.2494 159.6584 161.4874 162.3666 162.3666
   163.0874 164.8642 164.8642 165.7084 166.2476 166.2476 167.2672 167.9604
   169.2174 169.2174 169.4083 169.4083 169.7068 171.2710 171.2710 171.5686
   171.6356 171.6356 172.0862 172.0862 172.1207 172.6793 173.8125 173.8892
   173.8892 175.3196 175.3196 177.2520 177.2520 177.6236 178.1724 178.1724
   178.4875 178.5480 180.3933 180.3933 180.9359 181.8320 182.3803 182.3803
   183.7141 183.7141 184.1114 184.5427 184.5427 185.3752 185.7960 185.7960
   185.9241 186.4322 186.4322 187.1805 187.1805 187.2988 190.1337 190.1337
   191.4509 192.4509 192.5695 192.5695 193.2105 194.2427 194.2427 194.9893
   195.3971 195.3971 195.8149 195.9661 197.6795 197.9517 197.9517 198.9415
   198.9415 199.5611 199.5611 199.9407 201.7030 201.7030 202.0280 202.8424
   202.8424 203.0962 204.1298 204.1298 204.3639 204.4348 205.4562 205.4562
   205.8770 206.6401 206.6401 206.8764 208.3009 209.2046 209.2046 210.6428
   210.6428 211.4882 212.8934 212.8951 212.8951 213.0941 213.0941 216.8279
   216.8279 217.8823 217.8973 217.8973 219.3306 220.1887 220.1887 220.2371
   220.3827 220.3827 221.0553 221.7230 221.7230 222.6182 222.6182 223.3230
   223.7923 224.0391 224.9427 225.0387 225.2726 225.2726 225.7006 225.7006
   226.7111 226.7111 226.9080 227.3231 227.3231 228.0407 229.1633 229.1633
   229.8361 230.0336 230.0336 231.5123 231.6245 231.6245 231.9741 234.0341
   234.0341 235.0620 235.0620 235.6463 235.6860 237.0786 237.0786 237.6426
   237.6426 238.0078 238.0452 238.0452 238.7251 238.9720 238.9720 239.5001
   239.5067 240.9513 241.9473 241.9473 243.7600 244.0862 244.0862 244.6198
   245.2238 245.2238 247.6391 247.8750 247.8750 248.8468 249.6308 249.6308
   249.7623 249.9414 249.9414 252.3515 252.7514 252.7514 252.8835 252.8835
   254.4983 254.4983 254.5225 255.0673 255.0673 255.2185 256.4681 256.4681
   256.7488 257.5159 257.6281 257.6281 259.2072 259.2315 259.2315 260.4874
   260.4874 261.0698 261.1549 261.1632 261.1632 262.2149 262.2149 262.6473
   262.8007 263.1185 263.1185 263.8320 263.8320 264.5692 266.2482 267.0095
   267.0095 267.6853 267.8716 267.8716 267.8795 268.3889 268.3889 268.5597
   270.2868 270.2868 271.3397 271.7448 271.7448 273.3708 273.3708 273.5828
   274.0055 274.3680 274.3680 274.9497 275.1581 275.2622 275.2622 275.5452
   276.8485 276.8485 277.1401 277.6228 277.6228 277.6431 277.9020 278.1123
   278.1123 279.4548 279.4548 279.8788 280.2821 280.2821 280.6330 280.6330
   280.7123 281.6447 282.2363 282.2363 284.3567 284.6064 284.6064 285.0623
   285.0623 285.2240 285.6862 285.9760 285.9760 286.0271 287.0571 287.0993
   287.0993 288.1368 288.1368 289.3533 290.7334 290.7334 291.0937 292.6831
   293.2435 293.2435 293.8035 293.8035 294.5045 294.5045 294.7610 295.8716
   295.8716 295.9540 297.3401 297.3401 297.9790 298.6554 298.9801 298.9801
   299.1497 299.1497 302.0957 302.6801 302.6903 302.6903 303.3150 303.4569
   303.6932 303.6932 303.8973 303.8973 303.9183 304.1827 304.1827 304.3872
   304.4244 305.3666 305.3666 306.2401 306.2401 306.6004 306.9662 307.1058
   307.1058 308.2870 308.2870 308.6336 310.2066 310.2066 311.6598 312.2360
   312.2360 312.7784 312.7784 313.0122 314.1854 314.8995 314.8995 315.2673
   315.2673 315.4845 316.5130 317.2471 317.2471 317.6171 317.6171 318.8068
   318.9619 318.9619 319.3980 319.3980 319.4617 319.5114 319.6869 320.5375
   321.1580 321.1580 322.3042 322.4971 322.4971 322.6447 323.2507 323.2507
   323.8633 324.7764 324.7764 325.3004 325.4024 325.4024 327.4400 327.4400
   328.2237 328.2330 328.3870 328.3870 329.7423 329.7423 330.3497 330.7374
   330.7662 330.7662 331.0549 331.2469 331.2722 331.2722 333.0128 333.7560
   333.7560 334.1157 334.1157 334.8111 335.8426 335.8426 336.0197 336.0197
   336.2217 337.2034 337.7730 337.7730 340.4139 340.4139 341.1073 341.8340
   341.8340 342.6090 343.1240 343.1240 343.6902 344.6479 344.8745 344.8745
   346.0437 346.0962 346.0962 346.5071 346.7028 346.7028 348.1702 348.1702
   348.1713 348.8363 351.3857 351.3857 351.5750 352.4785 352.4785 352.5474
   353.2065 353.2065 354.4576 354.4576 355.6004 355.7932 356.3237 356.3237
   356.4287 356.6104 356.6104 356.9948 356.9948 357.1576 357.1576 357.2046
   357.4199 359.0489 359.0543 359.0543 360.6647 360.6647 360.7928 361.9417
   362.0798 362.0798 363.3010 364.5204 365.2588 365.2588 365.5056 365.5481
   365.5481 366.1648 366.1648 366.4062 366.5957 366.5957 367.6526 367.6526
   367.8804 368.8465 368.9843 368.9843 369.5431 369.6609 369.6609 369.9013
   370.9397 371.1334 371.1334 372.0411 372.0411 372.3848 372.3848 372.5029
   372.5540 372.5540 372.9920 373.0402 373.2272 373.2272 374.3723 374.3723
   375.4195 375.5593 376.3556 376.3556 376.4631 376.8511 376.8511 376.9628
   377.5250 377.5630 377.5630 377.6566 378.2176 378.2176 378.2227 378.3012
   379.0867 379.0867 379.5348 379.5348 380.4511 381.5812 381.5812 382.1797
   382.2716 382.2716 382.5142 383.0716 383.0716 383.3820 383.3849 383.3849
   384.1092 384.8039 384.8039 384.8257 385.2618 385.4802 385.4802 386.0325
   386.0325 386.0476 386.0476 386.9308 386.9308 386.9329 387.1250 387.1250
   387.2520 387.4353 387.5236 387.5236 388.0511 388.1561 388.1561 388.7876
   388.9213 388.9213 390.3994 390.3994 390.7347 391.6272 391.7674 391.7674
   395.8679 395.8679 396.1154 396.4053 396.4053 396.8612 396.8612 396.9347
   397.4732 399.0376 399.0376 399.3153 401.5750 401.8085 401.8085 402.1838
   402.1838 402.2781 403.7214 403.8256 403.8256 406.9954 406.9954 407.5173
   408.6256 408.6256 408.7377 408.9428 408.9428 409.1830 409.3243 409.3243
   409.4804 410.1347 410.2194 410.3618 410.3618 410.6361 410.6361 410.7876
   410.7876 410.8321 411.1068 411.1068 411.2062 412.0129 412.2666 412.2666
   412.5048 412.5048 412.7995 413.6501 413.9149 413.9149 414.2518 414.2518
   414.4128 415.6124 415.6124 415.7760 416.3451 417.0160 417.2856 417.2856
   417.8469 418.1048 418.3515 418.3515 420.1830 420.1830 422.3400 422.3601
   422.3601 423.0141 423.0141 423.8042 424.0128 424.7368 424.7368 424.9963
   424.9963 425.4132 425.5015 425.5015 425.6871 425.9394 426.8475 426.8475
   426.9749 427.8414 427.8782 427.8782 428.8071 428.8071 428.8686 430.0027
   430.0027 431.0860 431.0860 431.3352 431.4504 431.4504 431.7965 432.8367
   433.8571 433.8571 434.0363 435.0135 435.0135 435.9712 435.9766 435.9766
   436.4131 436.6358 436.6358 437.1072 437.1072 437.2450 437.5746 437.5751
   437.5751 437.6747 438.1277 438.1277 438.4006 438.4763 438.4763 439.2887
   439.5167 439.5167 441.4760 441.4760 442.1677 442.5616 442.5839 442.5839
   444.4705 444.4705 444.6014 444.7956 444.7956 444.9656 445.4516 445.4812
   445.4812 446.1689 446.2486 446.2486 446.2653 446.9157 446.9157 449.5640
   451.1112 451.1112 451.1441 451.1441 451.2614 451.6120 451.7361 451.9295
   451.9295 452.9709 452.9709 453.0002 454.0308 454.0308 454.3955 454.4446
   454.4446 457.6825 457.9273 457.9273 458.0189 458.4899 458.4899 459.5647
   459.5647 460.7739 460.7739 460.8790 461.2034 461.3931 462.3344 462.3344
   462.9501 462.9501 463.0284 463.2981 464.1401 464.1401 464.1928 464.1949
   464.1949 464.5707 464.5707 464.6243 464.7513 465.1468 465.1468 468.2037
   468.2037 468.9834 469.0606 469.0606 469.2670 469.6630 470.3535 470.5924
   470.5924 470.8416 470.8416 470.9684 471.2899 471.3358 471.3358 471.5949
   471.5949 472.0965 472.3749 472.3749 473.1431 473.3357 473.4782 473.4782
   474.0392 474.0392 474.1629 475.7916 475.7916 476.6960 476.6960 476.7097
   476.7187 477.0196 477.0196 477.0806 477.6319 477.6319 478.4369 479.2266
   479.2266 479.5026 481.2808 481.2808 481.6465 482.3407 482.3407 482.3480

          k = 0.5000-0.5000 0.5000 (  2452 PWs)   bands (ev):

   -96.2797 -57.7722 -57.7719 -57.7719  -3.6305   0.6796   5.4189   5.4189
     8.9675  11.0062  11.0062  14.4387  17.7008  17.7008  17.9500  18.7908
    18.7908  20.2873  26.5968  27.8933  28.0488  28.0488  29.4411  29.4411
    32.5863  32.8073  32.8073  34.6749  34.6749  35.2339  38.0415  39.0437
    39.0437  39.9124  40.4553  40.4553  43.2704  44.0340  47.5233  47.5233
    49.6330  49.6398  49.6398  50.8491  52.6291  52.6291  55.4229  55.4229
    55.6666  59.0107  59.0107  59.0643  60.5290  60.5290  60.5563  62.4919
    62.4919  65.2132  65.2132  65.6500  66.1686  66.1686  68.3956  69.0868
    69.4705  69.4705  70.6515  71.2121  72.2951  72.2951  73.4821  74.1061
    74.1061  74.2881  76.7996  77.8577  77.8577  78.3173  78.3821  78.3821
    80.2292  80.2292  83.4801  83.5501  83.5501  87.5383  88.3043  88.3043
    89.7581  91.2296  91.2296  91.3176  92.0974  92.0974  92.5317  95.5429
    95.5429  95.9432  96.7053  96.7053  97.6930  98.1771  98.8123  98.9961
    98.9961 100.1744 100.1744 100.3043 100.3109 101.7289 102.6586 102.6586
   105.2416 105.2416 107.3307 108.3755 108.3755 108.7459 109.7861 109.7861
   109.9711 110.9142 111.0794 111.0794 111.3931 111.3931 111.4182 112.1120
   113.2095 113.2095 113.7824 113.7824 114.3310 118.7093 118.7093 119.1248
   119.9662 119.9662 121.2795 121.5927 122.3190 122.3190 122.5587 122.5587
   126.2745 126.2745 126.4586 128.0290 128.0290 128.8763 128.8763 129.4819
   129.9833 131.3556 131.3793 133.1188 133.1188 133.7369 133.7369 134.3000
   134.3000 134.4867 134.8025 134.8025 136.0722 136.0722 137.0154 137.8258
   138.8031 139.5981 139.5981 142.3784 143.7503 143.7503 144.6959 145.2827
   146.6445 146.6445 147.2300 147.2300 147.8593 148.4739 148.4739 148.6933
   149.4835 151.3919 152.2192 152.2192 153.4924 153.4924 153.7301 153.7301
   154.2189 155.1371 156.2652 156.2652 157.8210 157.8441 158.2467 158.2467
   158.2916 158.2916 159.1126 159.1126 160.2864 160.2864 160.4936 160.8214
   160.9886 160.9886 163.4823 164.1547 164.1547 164.4317 164.4317 164.8407
   164.9399 165.7542 167.5997 167.5997 167.9720 167.9720 168.2189 169.4575
   169.4575 170.7168 170.7168 171.1877 171.6965 171.6965 172.0861 174.6345
   175.6111 175.6111 175.7428 177.2584 178.4837 178.4837 179.1913 179.5992
   179.9143 179.9143 180.4402 180.5359 180.5359 181.6220 181.6513 181.6513
   182.6497 182.6497 183.7062 183.7062 183.9362 184.0766 185.0630 185.8956
   185.8956 187.9322 188.7203 188.7203 189.1555 190.8830 191.7506 191.7506
   192.0481 192.0481 192.3709 192.5685 192.5685 192.8164 192.8164 192.9136
   193.1825 195.7233 195.7233 198.0558 198.5852 198.5852 201.2767 201.2767
   202.7313 203.6719 203.6719 203.7956 205.1767 205.1767 205.9700 205.9700
   206.7536 207.4116 207.8482 207.8483 207.9231 208.3498 208.3498 209.1294
   209.5289 209.5976 209.6196 210.3337 210.3337 211.0262 211.3941 211.3941
   213.3480 213.3480 213.3912 213.3912 215.0866 215.0866 215.1272 215.1272
   215.1993 215.3876 216.0792 216.0792 216.5954 216.8505 216.8505 217.1364
   219.5706 219.5706 219.6096 219.6096 219.7896 220.2887 220.6228 220.6228
   220.6547 220.7254 220.7254 221.7077 221.7167 222.8307 224.0702 224.0702
   225.9222 226.4720 226.4720 227.2674 229.6953 229.6953 230.2145 230.2145
   230.7472 231.2185 231.2185 231.4021 231.4021 231.4553 233.9872 233.9872
   234.0453 234.6362 234.6362 235.1712 235.1712 235.5189 236.1726 236.2140
   236.2140 236.2432 237.0268 237.9256 237.9256 238.5507 238.5507 239.2613
   241.0611 241.0611 241.2394 241.2394 241.3513 241.5292 241.7143 241.7143
   242.4532 244.8457 244.9915 244.9915 246.3287 246.3287 246.6260 246.8452
   247.2181 247.2181 248.3197 248.3197 248.8762 248.8762 249.2606 249.6509
   252.9289 253.3817 253.3817 253.7120 254.0270 254.1978 254.1978 254.6346
   256.2982 256.7196 256.7196 257.7019 257.7019 258.3897 259.0929 259.4762
   259.4762 259.6543 259.6543 259.9937 262.4982 262.4982 262.6901 262.6901
   263.6628 265.2480 265.2480 265.6956 266.4914 266.4914 267.0658 267.5760
   267.5760 268.2504 268.8009 268.8816 268.8816 269.0072 269.7265 269.7265
   270.1298 270.1298 270.1851 270.4963 272.6723 272.6723 272.7371 272.7371
   274.8283 275.0794 275.0794 276.3936 276.3936 276.7048 277.0603 277.0995
   277.0995 277.7526 277.7526 278.1334 278.3145 278.3145 278.9897 278.9897
   279.2299 279.2681 280.3186 281.8692 281.8692 282.2109 283.0056 283.0241
   283.0241 283.2562 283.2562 283.8030 283.8030 283.8597 284.3030 285.9493
   285.9493 286.4571 286.4571 286.7410 288.1728 288.1728 288.9448 288.9448
   289.9504 290.0832 291.4641 292.7087 292.7087 293.0812 293.0812 293.3538
   293.6950 294.0578 294.8256 294.8256 294.9759 294.9759 295.4155 295.8264
   297.5855 297.5855 297.7120 297.7120 298.5371 298.6652 299.2645 299.2645
   299.4296 299.4296 299.7198 300.0396 301.7115 301.7115 302.7617 302.7617
   302.9263 303.5435 305.5389 305.7519 305.7519 305.9638 305.9638 306.1211
   309.1983 309.1983 309.2658 309.2658 309.4179 309.6222 310.6282 310.7427
   310.7427 311.0962 311.0962 311.1520 311.3903 311.3903 311.4742 311.4742
   311.5349 311.6435 312.0331 312.6556 313.0435 313.0435 313.2016 313.2016
   313.6183 313.9457 313.9457 313.9915 313.9915 314.3298 315.6995 315.6995
   316.1433 316.1433 316.8823 317.4699 317.6966 317.6966 318.2309 318.2309
   318.4157 318.4157 320.0884 320.0884 320.1903 320.1903 320.4958 320.5730
   323.9389 324.2341 324.2341 324.3303 324.5871 324.5871 324.6734 325.1171
   328.7759 328.7759 329.0454 329.0454 329.0514 329.4631 331.1821 331.1821
   331.2832 331.2832 335.3393 335.3393 336.5215 336.7158 336.7158 337.4552
   337.7130 337.9259 337.9259 338.2688 338.2688 338.3385 338.3385 338.5294
   338.5946 338.5946 339.1403 339.1757 340.1566 340.1566 340.1918 340.1918
   341.1433 341.8549 341.8702 342.4622 343.0900 343.0900 344.0089 344.0089
   344.0622 345.3401 345.5899 345.5899 345.7169 345.8237 345.8237 346.4014
   346.4014 347.5103 347.5103 348.2376 351.2009 351.2009 351.3251 351.3251
   351.5265 351.8131 352.5138 352.5138 352.8098 352.8142 352.8142 352.9831
   353.2150 354.7151 356.2381 356.3975 356.3975 356.7809 356.7809 357.1273
   358.4746 358.5374 358.5374 359.6892 359.6892 360.3734 361.0004 361.0004
   361.5044 361.5044 361.5346 361.5346 361.9038 361.9038 362.5475 363.4585
   363.7055 363.9842 365.3156 365.3156 365.5986 365.5986 366.3382 366.3596
   366.3596 366.5425 366.5665 366.5665 368.8363 368.9699 368.9699 369.1371
   369.1371 369.4139 369.4139 369.4298 369.7258 369.7258 369.8950 370.5230
   371.1648 371.2322 371.2404 371.2404 371.3096 371.3096 373.0583 373.0583
   373.1898 373.1898 373.3025 373.4835 375.2329 375.2828 375.2828 375.4696
   375.4696 375.8331 378.8091 379.0497 379.0497 379.5461 379.5461 379.9110
   380.5981 380.8998 380.8998 381.2534 381.2534 381.3818 382.4300 383.2370
   383.3406 383.3406 383.7398 383.7398 384.0216 384.1214 384.1939 384.1939
   384.3152 384.3152 385.0135 385.1560 385.1560 385.2031 385.2065 385.2065
   388.9083 388.9083 389.1870 389.3511 389.3511 389.7764 391.0060 391.0060
   391.0489 391.0489 391.1167 391.2491 391.2561 391.4050 391.7384 391.7384
   391.7705 392.1063 392.1063 392.3810 394.5579 394.5579 394.6757 394.6757
   395.1618 396.5985 396.6055 396.6055 396.7246 396.7246 397.4196 397.4707
   397.8243 397.8243 397.9311 397.9311 398.4708 398.4708 398.4899 398.4899
   398.5209 398.5504 400.8808 401.4069 401.7923 401.7923 401.9180 401.9180
   401.9322 402.5036 408.0514 408.0514 408.2819 408.2819 409.2488 409.7140
   409.7646 409.7646 409.8660 409.8660 409.8948 410.0624 411.6963 411.6963
   411.7085 411.7086 414.4155 414.4155 414.9141 415.1319 415.1319 415.4458
   416.1964 416.5147 416.5147 416.6577 416.6577 417.6168 417.6168 417.8851
   417.9704 417.9704 418.4557 418.5654 418.6051 418.6453 418.6453 418.8154
   418.8154 419.1083 419.1174 419.1174 419.3222 419.3222 419.3857 419.5449
   421.5594 421.5798 421.5798 421.7069 421.7069 421.8079 425.1431 425.1431
   425.4364 425.4622 425.4622 425.7785 429.7331 429.7331 429.7542 429.7542
   429.8105 429.8518 431.0348 431.0348 431.1217 431.1757 431.1757 431.4006
   431.7705 432.1031 432.1031 432.2429 432.2429 432.3569 433.0361 433.8551
   434.0545 434.0545 434.1428 434.1428 434.8133 434.8133 434.9520 434.9968
   434.9968 435.1958 435.3016 435.3836 435.4026 435.4026 435.5172 435.5172
   439.6120 439.6120 439.6397 439.6397 440.2642 440.2748 442.3313 443.2902
   444.7185 444.7185 444.8681 445.5014 445.5014 445.7024 446.7805 446.7805
   447.2485 447.2485 448.0948 448.3980 448.4974 448.7178 448.8612 448.8612
   448.9193 448.9193 449.8759 449.8759 449.9439 449.9439 450.6365 451.1822
   451.2230 451.2230 451.5849 451.5849 451.7495 451.9990 453.4741 453.4741
   453.5603 453.5603 454.1632 454.5602 455.5403 455.5403 455.6761 455.9562
   455.9562 456.3644 457.8694 457.8836 458.5767 458.5767 458.5841 458.5841
   458.8808 459.1856 459.1856 459.2341 459.2341 459.4427 460.2175 460.2175
   460.2351 460.2351 460.6312 460.6529 461.6343 461.6596 461.6596 461.7146
   461.7146 461.7411 461.7411 461.7459 461.8136 461.8136 461.8634 461.9150
   466.9553 466.9553 467.0422 467.1923 467.1923 467.3508 468.8202 469.1433
   469.1433 469.3468 469.3468 469.5923 469.5923 469.9581 469.9581 470.0442
   470.2246 470.3159 470.3246 470.3617 470.9256 470.9256 470.9447 470.9447
   474.0488 474.7060 475.0396 475.0396 475.1402 475.2844 475.2844 475.9095
   477.0910 477.0910 477.1192 477.1327 477.1327 477.2838 479.3589 479.3589
   479.3805 479.3805 479.4498 479.5497 479.5497 479.5897 479.5897 479.7249

          k = 0.0000 0.3333 0.0000 (  2473 PWs)   bands (ev):

   -96.2798 -57.7719 -57.7719 -57.7719  -4.8897   4.4813   5.4402   5.4402
     9.7672  10.8152  12.0257  12.0257  13.3063  15.5602  18.2213  19.2678
    19.2678  19.7633  25.4280  26.4625  26.4625  27.8689  28.7040  30.5930
    33.6579  33.9365  33.9365  38.5870  38.5870  39.1370  39.5313  39.8136
    39.8136  40.4601  43.3931  44.5927  46.1006  46.1006  46.8441  47.4429
    48.3314  48.3314  48.6225  50.8124  50.8124  51.7593  52.7769  53.6872
    54.2318  54.2318  54.9361  55.3005  55.7407  55.7407  57.2977  58.3894
    60.0837  60.0837  62.7538  63.6750  65.2963  65.2963  65.9823  69.1744
    70.9078  71.1437  71.1437  73.8270  74.0592  75.8432  76.2712  76.2712
    77.4392  77.8654  77.8654  78.6567  80.6089  84.3165  84.3165  84.3820
    84.6177  85.1427  85.8602  85.8602  87.1669  87.3894  87.3894  87.7267
    90.0314  91.7671  91.7671  91.8586  92.9610  92.9610  92.9969  94.6225
    96.3638  96.3638  96.5817  96.9385  97.6036  97.8571  97.8571  98.7169
    99.0550  99.1803  99.6217 100.3947 100.3947 101.1362 102.1666 102.1666
   102.7208 104.5970 104.6668 105.4314 105.4314 105.6944 106.1706 106.4726
   108.3340 108.3340 108.8426 108.8426 110.0079 111.0192 111.0192 111.2805
   112.8911 113.6704 114.9685 115.6454 115.6454 117.1902 117.5256 118.7354
   119.1039 119.8910 119.8910 121.1467 121.1467 122.8172 122.8172 122.8271
   123.4309 124.1590 125.2447 126.4544 126.4544 126.5009 127.0708 127.8268
   127.8268 128.9946 130.6075 130.6075 132.1376 132.4079 133.6159 133.6159
   133.7154 134.5003 134.8765 134.8765 135.7534 135.8590 137.4552 137.4552
   138.5307 139.6838 139.8097 139.8097 142.1903 144.3710 144.5522 146.8153
   147.1584 147.1584 147.2302 147.8203 148.8248 148.8248 149.5255 150.2861
   152.7096 152.7096 153.9808 153.9808 154.5732 155.6933 155.9994 156.3551
   156.4099 156.4099 158.0382 158.0382 158.1230 159.3026 159.8951 159.9975
   159.9975 160.1052 161.4045 162.9509 163.2457 163.2457 164.9716 165.2936
   165.4633 165.4633 165.6319 166.3633 166.3633 166.7780 167.3858 168.0194
   168.0194 168.0287 168.3969 168.6364 170.8077 170.8077 171.3262 171.9552
   172.5911 172.6060 172.7462 172.7462 173.1818 173.1819 174.6561 175.4453
   175.4453 175.9766 175.9766 176.1111 176.7863 176.8292 178.2516 179.0403
   179.4563 179.4563 180.0025 180.5392 180.5392 180.5973 181.5964 181.7057
   182.9303 183.2396 183.2396 184.1466 184.1466 184.2070 185.6836 186.6259
   186.6259 187.2845 187.6495 187.6495 187.8644 188.2478 188.5885 189.2906
   189.2906 189.7509 190.5979 192.0849 192.3731 192.3731 192.9430 192.9430
   193.4297 194.1278 194.4311 194.4311 194.4482 194.6786 195.2824 195.6493
   195.9094 195.9657 195.9657 197.2536 197.4110 197.6736 197.6736 199.0030
   199.3447 199.3447 199.8425 202.5572 202.5572 202.5697 202.9908 204.0588
   204.3579 204.3579 204.8701 207.1378 207.3090 208.3258 208.4863 208.4863
   209.6679 209.6679 210.3773 210.9320 213.3693 214.0818 214.0818 214.2635
   216.0703 216.0703 216.4238 217.0842 217.0842 217.8862 218.7376 219.0492
   219.5768 219.6923 219.6923 220.9404 220.9973 220.9973 221.5583 221.8635
   222.6594 224.6402 224.6402 224.9656 225.0452 225.4348 225.4348 225.6731
   226.1645 226.5428 226.5428 227.6473 228.7332 229.4155 229.4155 231.8447
   233.1867 233.1867 234.3208 234.7013 235.3102 235.3102 236.2254 236.2254
   237.1214 238.0781 238.2042 238.3386 238.3386 239.3294 239.9006 239.9287
   241.3053 241.3053 242.1727 242.4585 243.1982 244.1710 244.1710 244.9288
   244.9288 245.2721 245.5944 245.7974 246.2734 246.2734 247.0490 247.7494
   247.7494 247.9511 249.4640 251.0870 251.0870 251.1327 251.2549 252.4018
   252.5978 252.5978 253.1650 253.2347 254.3476 254.8072 254.8072 254.8634
   255.3416 255.3416 255.5725 255.8119 255.8486 255.8486 256.4579 256.6021
   256.7453 256.7453 256.9543 257.8441 258.8142 259.1888 259.1888 259.5425
   259.6063 259.8152 259.8152 260.1994 260.1994 261.0659 261.2097 261.3671
   263.1881 263.1881 264.1587 265.3613 265.4774 265.4774 265.6529 265.9368
   268.4495 268.6726 268.6726 268.7386 269.3705 269.4529 269.6742 269.6742
   269.6869 269.8474 269.8699 269.8699 270.3117 271.0493 271.5054 271.5054
   271.9323 271.9323 271.9750 272.8705 273.4910 274.8320 274.8320 275.1511
   275.7503 275.7503 276.3931 277.3820 277.6478 277.6478 277.8181 277.8664
   278.3413 278.3413 278.5399 279.1521 279.1521 279.2207 279.5875 280.1505
   280.1505 280.3926 280.7291 281.8243 281.9864 281.9864 282.1893 282.6617
   283.6725 283.6725 285.6504 286.4248 286.4445 286.6495 286.6495 287.3775
   287.6406 287.7162 287.7162 287.7354 287.9853 287.9853 288.0841 288.3201
   288.8946 289.2795 289.2795 289.7197 291.1292 291.3190 291.3190 292.5904
   293.1371 293.1381 293.1381 293.3927 293.9871 296.1114 296.9719 296.9719
   297.7545 297.7775 297.8792 297.8792 298.0026 298.7968 298.7968 300.5988
   300.7830 300.9318 300.9318 301.2609 301.9446 301.9446 301.9670 302.1315
   303.9086 304.8172 305.9292 305.9292 306.3025 307.0327 307.0327 307.2695
   308.7971 309.7712 309.7712 309.8391 309.8458 309.9044 309.9044 310.0055
   310.9952 311.2453 311.4267 311.4267 312.0751 312.0751 312.4994 313.1902
   313.5675 314.4887 314.4887 315.5249 315.9253 315.9253 316.0615 316.1901
   316.2536 316.2536 316.3595 316.9559 321.3050 321.8382 321.8382 322.7201
   322.9362 323.4789 323.4789 324.1351 324.6786 324.6786 324.7550 324.7811
   326.2471 326.3314 326.3314 327.3867 328.7409 329.5661 329.5661 329.7318
   330.0922 330.0922 330.2228 330.6365 332.2844 333.2534 333.2534 334.4744
   335.5416 335.8430 335.8430 335.8900 336.4866 336.4866 336.9253 337.3159
   337.6014 337.6014 337.7330 338.1458 338.8251 339.2916 339.2916 340.0137
   341.3022 343.2117 343.3840 343.3840 343.5616 343.7613 344.0800 344.0800
   344.1872 344.6799 346.2991 346.3585 346.3585 346.8574 346.9933 346.9933
   347.3946 347.7542 347.7542 348.2457 348.4826 349.1884 349.4209 349.4209
   349.6733 349.8101 350.2631 350.2631 350.7075 351.4607 351.6645 351.6645
   351.7170 351.8415 351.9699 351.9699 352.3689 352.9418 353.1503 353.1503
   353.2265 355.3404 355.4774 355.4774 355.6038 356.3474 357.4207 357.5879
   357.6330 357.6330 357.8318 357.8318 358.0013 358.4325 358.7728 358.9712
   358.9712 359.4422 359.6023 359.6023 359.6456 359.6705 362.7155 362.7155
   362.8433 362.9384 362.9384 363.0179 365.1472 365.7996 365.9390 366.2566
   366.2566 366.8435 368.2127 368.2529 368.2529 368.3128 368.4179 368.4179
   368.9524 369.6285 369.6285 369.6848 369.8713 369.8795 372.0194 372.0194
   372.0904 372.3339 374.4541 374.5485 374.5485 374.8382 375.2964 375.2964
   375.6473 375.6473 375.7143 376.2032 377.0543 377.1944 377.6442 378.6971
   380.4263 380.4263 380.5338 380.8279 380.8279 381.0490 381.4689 381.5800
   381.9338 381.9338 382.8821 382.8821 383.9281 384.2425 384.3980 384.9147
   384.9147 385.6137 385.6137 385.9115 386.1459 386.1459 386.2875 386.4659
   386.7544 386.9961 386.9961 387.0953 387.1735 388.2442 389.4508 389.4508
   389.6518 390.1229 390.1229 390.6458 390.6593 391.3279 391.5811 391.5811
   392.0588 392.4251 392.7357 392.7357 392.9304 393.1293 393.6082 393.6082
   394.0538 394.3499 394.4823 394.4823 394.6298 394.7810 395.0483 395.0483
   395.5315 397.0897 397.1406 397.1406 397.4417 397.6314 397.6314 397.8630
   397.9147 398.0293 398.0682 398.0682 398.2499 399.3466 399.5006 399.5006
   399.6506 400.7906 400.8678 400.8678 401.5323 402.2965 403.2173 403.2173
   403.8214 404.0191 404.0331 404.1566 404.1566 405.2683 405.2683 405.6754
   405.8251 407.6177 407.9763 407.9763 408.5699 408.7367 408.8260 408.8260
   408.9853 409.3862 410.1076 410.1076 410.5057 410.7554 410.7554 410.8297
   410.9747 411.6441 411.6441 411.7636 411.9586 412.0852 413.1968 413.1968
   414.2526 414.4827 414.7527 414.9491 414.9491 415.0875 416.5495 416.5970
   416.8159 416.8159 416.9931 417.4885 417.4885 418.1413 418.1998 418.3299
   418.3299 418.4384 419.4902 419.4902 419.9832 422.3006 422.3173 422.3173
   422.4372 422.7397 422.8550 422.8550 422.8630 423.1720 423.1720 423.5539
   423.6158 423.6234 423.6234 423.7234 423.9874 424.0828 424.8961 424.8961
   425.0919 425.3014 425.6300 425.7273 425.7273 426.0235 427.6526 427.6526
   428.9790 430.4869 431.4044 431.5936 431.5936 432.2368 432.2368 432.3171
   432.7811 434.2252 435.3266 435.6131 435.6131 435.9627 436.8676 436.8770
   437.3647 437.4346 437.4346 438.5051 438.5051 438.8667 439.1474 439.1474
   439.1757 441.1592 441.4596 443.2912 443.3055 443.3055 443.5507 443.5507
   444.5244 444.8968 445.2416 445.3393 445.3393 445.6267 445.9441 445.9441
   446.3830 447.4293 447.5824 447.5824 447.6053 447.6192 447.7443 447.7443
   447.8408 451.0853 451.1119 451.1119 451.5690 451.6987 451.6987 451.7769
   451.9731 452.3631 452.3631 452.5783 452.5796 454.6899 455.0175 455.0175
   455.1543 455.3396 455.6803 455.6803 456.1917 456.9115 457.7598 457.7598
   458.1525 458.3313 458.3313 458.4613 458.4758 458.7969 459.4284 460.5531
   460.5531 460.7948 460.7995 460.8705 460.8705 461.7336 461.7336 461.7884
   461.8251 462.8414 462.8779 462.9671 462.9671 463.2731 463.7904 464.5822
   464.5822 465.1521 471.6830 471.9579 471.9579 472.3240 472.4117 472.9981
   472.9981 473.1186 473.2600 474.6518 475.6649 475.8809 475.9008 475.9008
   476.0234 476.4548 476.4909 476.4909 476.5464 477.0685 477.0685 477.6307
   477.9512 477.9512 478.2177 480.1166 480.2859 480.2859 480.3742 480.3742
   480.4223 480.5278 480.8945 481.4772 481.5575 481.5575 481.9956 481.9956
   482.0098 482.8629 482.9162 482.9162 483.8324 484.0105 484.4015 484.4471

          k =-0.1667 0.5000-0.1667 (  2451 PWs)   bands (ev):

   -96.2796 -57.7720 -57.7719 -57.7719  -4.2557   2.5856   4.8522   5.0132
     9.5788  11.1213  11.9549  12.5874  15.3336  16.3548  18.0611  20.7536
    20.9609  22.5305  23.1240  23.9936  26.8204  27.7514  28.6059  30.1533
    32.6529  33.7209  34.2038  36.4393  36.8343  37.1880  38.7836  38.9518
    39.9400  40.9729  42.7356  43.4306  44.5415  44.6028  45.4717  47.1241
    47.8820  49.1827  50.6816  51.0011  51.3988  51.7260  52.5873  53.1756
    54.8230  55.0418  56.8892  57.6133  57.7033  59.1446  60.9256  61.8238
    63.0150  64.4488  64.5316  65.7861  66.1084  67.2045  68.5742  68.6167
    69.4672  69.6958  70.7972  71.1176  72.1087  72.6984  73.6329  74.2757
    75.4727  76.9139  77.0597  79.2790  79.3021  80.6339  80.8546  82.4946
    82.7819  83.0917  84.4064  85.2150  85.3503  85.6696  86.4507  88.0124
    88.8561  89.6209  90.9841  91.4195  92.2943  92.8984  93.6654  94.7944
    95.1477  95.4013  95.6454  96.7334  97.3064  97.8691  98.2880  99.0175
    99.3198 100.0069 100.9500 101.5866 101.6035 102.2631 102.7110 103.6212
   103.6794 104.9976 105.1296 105.8959 107.0669 107.1248 107.9929 108.1821
   108.5465 108.7217 109.6769 110.3955 111.2354 111.6326 112.7621 114.5014
   114.5656 114.7502 115.6473 115.9955 116.6896 116.7301 117.2143 117.3539
   118.2256 119.0314 119.4501 119.8063 121.3964 121.6408 122.0890 123.1206
   123.5602 124.1919 126.2015 127.0084 127.2869 128.0722 128.3850 129.2952
   130.8082 130.9519 131.3366 131.7155 132.6959 132.7314 134.1039 135.0068
   135.1544 135.6982 136.1014 137.0587 137.1076 138.1016 138.6970 140.0124
   140.8228 141.3131 141.9292 142.9507 143.3996 143.8789 144.0398 144.5205
   144.8959 145.9367 146.6315 146.7627 147.0441 147.2066 148.7865 149.1312
   149.7802 150.0724 150.7393 151.1487 152.1733 152.2752 153.1223 153.8168
   154.1404 154.4168 154.8657 155.4656 156.2243 157.2164 157.2954 158.0220
   158.3563 158.8539 159.5112 159.5823 160.3306 161.4448 162.2146 162.2168
   163.4104 163.6777 164.4604 165.0562 165.2574 165.3939 165.6552 166.0139
   166.5618 167.6149 167.9480 168.7299 169.4664 169.7260 170.3047 171.1919
   171.3320 171.6917 172.3466 172.5622 172.9704 173.6595 173.8303 174.0744
   175.3199 175.5895 177.1780 178.2546 178.2800 178.4688 178.8188 179.3566
   179.8443 180.8584 181.4518 181.4527 181.9728 182.0662 182.8510 182.9319
   183.7293 183.7971 184.6395 185.3999 185.7993 186.3019 186.8784 187.2699
   187.6967 188.4095 188.4476 188.9689 189.1426 189.6356 189.7742 190.2350
   190.7273 191.4989 192.5003 192.6800 193.0017 193.4376 193.4407 194.5309
   195.1334 195.4034 195.5420 196.0882 197.0554 197.0711 197.4856 197.7003
   197.9613 198.4488 198.4506 199.1858 199.2502 200.1526 200.8023 201.8368
   202.0392 203.3271 203.3930 203.7634 204.1498 204.4030 204.9377 204.9850
   205.9323 206.1337 206.9781 206.9827 207.7206 208.1565 209.3254 209.9095
   210.4800 210.4931 210.8335 211.4025 212.8593 212.9066 213.3668 214.2983
   215.2937 215.3996 216.6550 216.7020 216.9059 217.4174 217.7080 218.5620
   218.8128 219.6632 219.9100 220.1315 221.7445 221.9901 222.3148 222.7428
   222.8869 222.8872 224.0443 224.2586 224.7723 225.4394 226.2250 226.4058
   227.1665 227.3994 228.2080 228.3220 228.6869 230.0039 230.5758 230.9441
   231.2932 231.9432 232.5544 233.4398 233.6149 233.8170 234.7652 235.3408
   235.9818 236.3747 236.7086 236.7759 237.3907 237.5192 237.8596 237.9465
   238.4763 239.4827 239.8754 240.8736 241.2521 241.7981 242.6823 242.8670
   243.1753 243.7549 243.9304 244.3241 244.4150 244.9756 245.4205 245.7824
   245.8231 246.0576 246.3189 246.7885 247.1198 247.8857 248.4096 248.8488
   249.8320 250.4181 250.7416 250.8820 250.9468 251.7632 252.0098 252.2176
   252.4558 252.8642 253.2359 253.7776 254.2216 254.5484 254.9441 255.6957
   256.5981 256.8124 257.1439 257.2389 257.4983 257.8782 258.7321 259.8259
   260.1945 260.2106 260.6728 261.1343 261.1606 261.6207 261.7460 261.9027
   262.1298 262.3977 262.4692 262.7241 263.3326 263.8097 265.3405 265.6869
   265.8034 266.2972 266.4693 266.5268 267.0399 267.8034 268.2916 268.8401
   269.2397 269.3285 269.9040 270.2655 270.3233 270.6688 270.7780 271.1626
   271.2065 271.6519 273.2557 273.9243 273.9427 274.3553 274.4011 274.6905
   276.0562 276.9352 277.1208 277.3783 277.6114 277.7932 278.1521 278.9996
   279.1844 279.3516 280.2858 280.6229 280.6901 281.0235 281.9826 282.1101
   283.5625 283.5924 284.2279 284.4646 284.5112 285.2426 285.4455 286.3214
   287.0169 287.1751 287.8686 288.0100 288.4143 288.4317 288.6235 289.1169
   289.2539 289.3232 289.4644 289.8167 290.8656 292.0798 292.5076 292.6311
   293.5495 293.5875 293.7182 293.7841 294.0093 294.1267 294.6566 295.1859
   295.6397 295.8064 296.3379 296.5555 297.2733 297.9489 298.0871 298.6950
   298.9672 299.0407 299.3316 300.1651 300.5209 300.9675 301.0713 301.9425
   302.0228 302.3300 302.3336 302.6855 303.2004 303.3687 303.6514 303.8509
   304.4741 304.6591 305.4271 305.5893 306.2234 306.5833 307.9017 308.5412
   308.5893 308.9784 309.1622 309.8744 310.0654 310.1179 311.9803 312.1323
   312.7623 312.9789 313.0015 313.0692 313.7011 315.1514 315.2671 315.5755
   315.9904 316.0259 316.4548 316.5071 316.6394 317.4734 317.9639 317.9992
   318.8454 319.0712 320.0733 320.4114 320.7106 321.0384 321.5321 321.9418
   322.0649 322.0971 322.1344 323.1199 323.5743 324.2013 324.4318 324.5416
   324.9019 325.0089 325.5902 326.4689 327.2802 327.6237 327.6264 327.7695
   327.9246 328.3182 328.4692 328.7498 329.1224 330.2728 330.7856 331.4249
   331.6259 331.6748 332.4162 332.5859 332.7814 333.6836 333.7555 334.0081
   334.4484 334.4847 334.9359 335.2060 335.3280 335.7268 335.8021 335.9454
   336.3269 336.7187 336.8651 337.1780 337.2547 338.0585 340.4423 340.4774
   342.0601 342.5570 342.6225 343.4259 344.2388 345.1405 345.4439 345.7966
   346.0453 346.5242 346.6822 347.3054 347.4636 347.6856 348.2520 348.9782
   349.6884 350.2814 350.5519 351.0689 351.1148 351.2580 351.5159 351.6684
   351.7889 352.1367 352.9666 353.5062 353.6878 354.0587 354.8184 355.0571
   356.0127 356.0489 356.2278 356.2647 356.4924 357.3200 357.4261 358.0573
   358.5358 358.6421 358.8207 359.0138 359.0960 360.0063 360.5092 360.8082
   360.9787 361.0636 361.2380 361.4482 361.9129 362.0162 362.2339 363.3836
   363.4612 364.1033 364.2596 364.7347 365.1563 365.2882 365.6909 365.7099
   366.0845 366.2229 366.4671 366.6492 366.6963 366.7461 367.1026 368.4723
   369.1843 369.7610 369.9263 369.9487 370.4748 370.6383 370.6590 371.3044
   371.4509 371.7359 372.8130 373.1662 373.3821 373.8881 374.2682 374.4221
   374.9600 375.2609 375.2825 375.4571 375.7893 376.0242 376.0611 376.1209
   376.6384 376.8932 377.6887 377.7422 378.2228 378.3628 378.5830 378.6634
   378.9121 379.8824 381.5459 382.1002 382.1927 382.4153 382.5452 382.7277
   384.3104 384.8345 385.0089 385.3379 385.3900 385.7784 386.0179 386.2158
   386.3452 386.6078 386.9085 387.1764 387.1987 387.3458 387.4001 387.6807
   387.7305 388.2032 388.3457 389.3167 389.5406 390.2457 390.4672 390.8452
   391.1080 391.4645 391.7393 391.8593 391.9875 392.1232 392.1880 392.6348
   392.9219 393.1311 393.4637 394.7603 395.1116 395.4132 395.5482 396.2811
   396.7504 396.8386 397.1696 397.3316 397.6987 397.9298 398.1013 398.2211
   398.3887 398.8830 399.0494 399.2304 399.4806 399.7920 400.2254 400.5636
   400.6070 401.1500 401.6666 402.2790 402.4340 402.6948 402.7873 403.0113
   403.0693 403.1226 403.9449 403.9920 404.9671 405.0982 405.2388 405.2883
   405.5066 407.5961 408.0496 408.2322 408.6396 410.1320 410.2301 410.6832
   410.8824 411.0180 411.1406 411.2502 411.2935 411.4840 411.6726 412.2312
   412.5892 412.6201 413.5473 413.6271 414.6668 414.7746 414.8024 415.4900
   415.6498 415.7357 416.1294 416.3769 416.3849 416.8784 417.0223 417.5449
   417.6771 418.0314 418.4514 418.6314 418.8604 419.1140 420.2914 420.5264
   420.7636 421.2173 421.4620 421.9072 422.0098 422.3375 422.3566 422.9051
   424.1935 424.4761 425.7832 425.8973 425.9877 426.0294 426.4392 426.9951
   427.0515 427.8664 427.8861 429.0808 429.1026 429.2507 429.3297 429.4910
   430.3851 430.6646 430.7244 431.3032 431.3790 431.7267 431.7558 432.8370
   432.9383 433.2598 433.2824 434.8067 434.9073 435.0139 435.2569 435.4404
   436.0483 436.3373 436.3576 436.5661 436.9111 437.1037 437.4726 438.2265
   438.9773 439.2148 439.9388 440.1170 441.0791 441.1227 442.5096 442.6797
   443.3099 443.5835 443.6167 444.4993 444.7930 445.3939 445.7785 446.2442
   446.5424 446.8803 446.9738 447.1911 447.4728 447.6017 447.6833 448.5433
   448.8504 449.2574 449.4579 449.4668 449.8028 449.9961 450.1220 450.1904
   450.2228 450.5843 450.5966 450.9044 451.2018 451.8269 451.8318 452.1857
   452.2496 452.6923 452.8044 452.8724 453.4859 453.8611 453.9814 454.1296
   454.3440 454.8493 455.0749 455.1680 455.5961 455.9255 456.3669 456.7464
   456.9091 456.9318 457.0873 457.2848 457.8586 459.0543 459.2208 459.6315
   460.1505 460.2818 460.3125 460.9536 461.0908 461.6212 461.9203 462.0345
   462.2411 463.0802 463.1264 463.9686 463.9872 465.0592 465.1123 465.1792
   465.4761 465.5912 466.1578 466.1652 466.5032 467.4792 467.7296 468.2223
   468.4385 468.6902 468.7300 470.2976 471.0457 471.0460 471.2385 471.2971
   471.4324 471.6970 471.8214 472.1689 472.2037 472.7473 473.5044 473.5117
   473.8601 474.4150 475.0986 475.5408 475.5973 475.7567 476.0963 476.6859
   477.2070 477.6492 477.8597 478.0082 478.7224 478.8577 479.8924 479.9707
   480.0828 480.1035 480.1435 480.6515 481.4006 481.5161 481.5796 481.7489

          k = 0.6667-0.3333 0.6667 (  2450 PWs)   bands (ev):

   -96.2797 -57.7721 -57.7719 -57.7719  -3.5116   1.0293   4.1901   4.9868
     9.4988  11.2516  12.1163  13.5706  16.4078  17.6871  18.8807  19.2056
    19.5783  23.3118  25.3800  25.8671  27.0207  27.9366  28.4160  30.2741
    30.7578  33.1844  33.2059  34.7033  34.9695  36.3929  36.8876  37.3909
    39.2006  40.7546  41.4582  41.7173  44.0061  44.0952  46.1084  47.1047
    49.2180  50.1435  51.0104  52.8186  53.2459  53.4320  54.3994  54.6576
    54.7834  57.0631  57.1018  58.9038  60.1416  60.3048  62.0921  62.6061
    63.8013  64.5518  65.3668  66.1587  66.3281  67.1185  68.3390  68.5229
    69.1452  70.0809  70.4162  70.8533  71.3367  73.3570  73.8415  74.8294
    75.1024  75.8302  76.4479  77.1972  78.4413  78.4502  79.0171  79.9970
    81.2484  81.9491  83.2464  84.2554  85.2606  85.2715  85.7653  85.9554
    87.9382  87.9765  90.3071  90.6316  91.5815  91.8997  92.9594  93.4857
    93.6755  95.0334  95.8390  97.1712  97.7823  97.8712  98.3698  98.7525
    99.7858 100.0117 101.2276 101.4215 102.1732 102.3560 102.9581 104.3958
   104.6650 105.2997 105.4005 105.9668 106.4014 107.2049 107.7131 108.5239
   109.7747 110.8495 110.8728 111.4499 111.4996 112.4308 112.8781 113.8247
   114.5046 115.7160 116.5188 116.5536 118.1277 118.9562 119.7229 120.2779
   120.8678 120.8867 121.5485 121.6507 122.3519 122.4943 124.2697 124.7063
   126.3504 126.4236 126.5558 126.8443 127.5322 128.3333 129.2267 129.4353
   129.7710 130.5085 131.1530 131.6182 132.5513 133.6880 134.2691 134.6720
   135.0737 135.2011 135.5306 135.9383 136.8352 137.1318 137.9207 138.4836
   139.2184 139.9611 140.3940 140.8615 141.8824 142.1965 143.0083 143.7784
   144.1750 144.9667 145.3752 145.8653 146.7094 147.0252 147.2702 149.5153
   150.0649 150.2868 150.5412 151.3363 152.0346 152.5869 153.2531 153.7075
   154.1743 154.5145 154.7085 155.3183 155.8468 155.8597 156.4107 157.6302
   158.7108 158.7608 159.1085 159.8370 160.0167 160.6454 161.1352 161.5513
   162.5295 163.0722 163.8232 164.1317 164.9232 165.5037 165.5842 165.9787
   166.5253 166.7609 166.9266 167.7510 167.8409 168.4048 168.4982 169.0581
   170.2108 171.0265 171.1102 171.6808 171.7129 172.2819 172.5203 173.5712
   174.2874 174.7422 175.4897 175.8031 177.1028 177.1091 177.4346 177.8106
   178.2194 179.2066 179.4017 180.2736 180.4286 181.3121 182.4967 182.5323
   183.4479 184.2953 185.1114 185.4232 185.8985 186.6328 187.4110 187.7111
   188.7144 189.1356 189.7640 190.4795 191.1936 191.8792 192.2944 192.4689
   192.6454 193.0066 193.0070 194.0785 194.2958 195.0608 195.0626 196.0105
   196.0520 196.2697 196.9213 197.1416 198.3192 198.6679 199.6402 199.7616
   200.1423 200.6547 200.8698 201.5485 201.6872 202.1977 202.3816 203.4172
   205.3603 206.4354 206.5926 207.2552 207.7371 207.8671 207.9850 208.8781
   208.9548 209.3503 209.7643 209.9617 210.4708 211.3721 211.7288 211.9696
   212.3131 212.6646 212.6944 212.9939 213.1910 213.4046 213.9847 214.2408
   214.2625 215.3655 215.5977 215.8331 216.5549 218.3510 218.4303 218.8243
   218.8572 219.6079 220.4310 220.6031 220.8235 221.4081 221.4435 222.4995
   222.6960 223.2071 223.8432 223.8552 224.4354 224.4542 224.6441 224.8563
   226.0590 226.6935 227.1005 227.6319 228.1287 228.1890 229.1352 230.1046
   230.1917 230.9249 231.5281 231.6883 231.7365 232.1359 232.1580 232.5529
   232.9150 233.0218 233.5467 233.9001 234.3743 235.0552 235.1592 235.7792
   236.0801 236.2891 236.6332 238.3454 238.7760 238.8478 239.2338 239.7659
   240.0028 240.4874 240.9341 241.5396 241.7613 242.3169 242.7356 243.8964
   244.2234 244.5782 245.0525 245.2922 245.4949 245.6527 247.2792 247.4339
   247.7220 248.9198 249.1705 249.4775 250.8249 251.2644 251.3024 252.3147
   252.6230 252.6753 253.3302 253.4978 253.5971 253.9768 254.7312 254.8666
   255.7317 255.8486 256.3445 256.4030 257.0249 257.4003 257.5821 257.8828
   258.4154 258.5231 258.9104 259.1420 260.0647 260.5174 262.4856 262.9323
   263.1572 263.4560 263.4836 263.9981 264.1176 264.6364 264.9653 265.5636
   265.5766 266.5984 266.7549 267.3631 268.0015 268.1752 268.8073 268.9666
   269.6543 270.1011 271.0204 271.7251 271.8853 271.8987 272.4250 272.7958
   273.2817 273.5924 273.6376 274.1068 275.0775 275.6125 275.6647 276.6254
   277.0354 277.3993 278.1160 278.6050 279.0375 279.1207 279.5954 280.6081
   281.1407 281.8580 281.9072 282.5668 282.7142 283.1204 283.1376 283.6994
   284.3537 285.5809 285.6891 286.0578 286.6986 287.0537 287.1425 287.7687
   288.4396 288.4602 288.8059 289.0792 289.3222 289.3456 289.7586 289.9283
   290.8506 290.8773 291.2795 291.4471 292.0654 292.4709 292.6691 292.9333
   293.0286 293.9662 294.0050 294.7491 294.8553 294.9302 295.8902 295.9508
   296.8523 297.0905 297.3079 297.5693 297.9526 297.9821 298.3292 298.3681
   298.9463 299.5574 299.9020 300.3233 300.5271 300.6979 300.9596 301.7299
   302.0784 303.6660 303.7853 304.2523 304.3686 304.6570 304.6886 305.3530
   305.7668 305.9513 306.0251 306.1122 307.4978 307.9653 308.1506 309.0048
   309.5089 309.8166 310.0408 310.3423 310.9633 311.7952 312.0869 312.1437
   312.2106 312.3717 312.8307 313.7609 314.1899 314.2803 315.0219 315.5896
   315.8556 315.9887 316.2943 316.3427 316.5009 316.9951 317.1363 317.6849
   318.3607 318.3979 319.1757 319.7598 320.2515 320.3452 321.7823 321.7992
   322.0858 322.2215 322.8115 323.2604 323.7291 323.9339 324.2778 325.4245
   325.4348 326.0414 326.1672 326.3466 326.5491 327.4002 327.5177 327.8354
   328.0558 328.9121 329.3134 329.8398 330.4403 330.5374 330.8570 331.8751
   331.9464 332.1942 332.4236 332.7404 333.0946 333.3855 333.8173 333.8889
   334.3237 334.9473 335.1593 335.5731 335.6397 336.3376 336.9458 337.3989
   337.4464 338.0712 338.4968 338.4974 339.5313 340.1402 340.4736 341.1855
   341.3223 341.7860 342.4224 342.8402 343.0739 343.7854 344.2874 344.4286
   344.6029 345.2940 345.3960 345.8383 345.8550 346.0699 346.6307 346.9339
   347.1796 347.5059 347.9655 347.9737 348.4122 349.3726 349.9083 349.9926
   350.0720 350.4045 350.4808 350.7013 351.4347 351.5760 352.1502 352.4063
   352.9967 353.6452 353.6807 353.8877 354.9688 355.3940 355.4462 355.7673
   356.0038 356.6408 356.7409 357.6971 357.8775 358.1630 358.2226 358.7094
   358.8006 359.5452 359.8885 359.9068 360.2496 360.7355 361.1751 361.5988
   361.8357 362.6267 362.6585 363.8644 363.9413 364.3796 364.5104 365.0998
   365.2053 365.4130 365.4824 365.5601 366.0391 366.4903 367.7446 368.2311
   368.2433 368.3581 368.8821 369.2452 369.3468 369.5170 369.5856 370.3237
   370.3671 370.6542 370.9681 371.2660 372.2819 372.3493 372.7276 372.9117
   372.9955 373.3036 374.4366 374.4569 375.1600 375.3216 375.4551 375.7039
   375.7552 376.6009 377.1070 377.4238 377.4612 378.2629 378.3499 378.6064
   379.3455 380.6606 381.9993 382.1539 382.2555 382.3196 382.4687 382.9617
   383.1192 383.4220 383.7515 384.1499 384.5523 385.4464 385.4582 385.5516
   385.7645 385.9568 386.1163 386.2821 387.2656 387.3752 387.4532 387.6092
   388.7444 389.4004 389.6898 389.8585 390.0152 390.2158 390.3308 390.7059
   390.7883 391.6583 391.8113 393.1166 393.2957 393.4802 393.5717 393.9590
   394.0589 394.1907 395.0364 395.3776 395.9118 397.1372 397.1388 397.3559
   397.9904 398.1938 398.2214 398.3016 398.4135 399.2476 399.2799 399.4480
   400.2051 400.3736 400.7086 401.2605 401.2852 401.7105 402.1135 402.8331
   402.9103 403.1588 403.4404 403.5042 403.7687 404.0479 404.2078 404.2151
   404.7015 405.9749 406.7794 406.7830 407.5453 407.5486 407.8187 407.8672
   408.3194 408.4111 408.5161 408.8694 409.0535 409.2811 409.4340 409.4954
   409.7437 410.1894 410.8772 411.4554 411.6280 411.8107 411.8619 412.2487
   412.3379 412.8441 412.9046 413.0053 413.2364 413.4243 413.8223 415.0139
   415.5512 415.7366 415.9317 417.0971 418.0404 418.4550 419.2493 419.2558
   419.3551 420.0348 420.7789 421.2470 421.2683 421.9144 422.7485 423.1432
   423.7762 423.8206 424.0971 424.2000 425.1074 425.1793 425.9317 426.3111
   426.3353 426.4466 427.6075 428.2785 429.2533 429.5881 429.7253 429.7471
   429.8785 430.7733 431.1548 431.5441 432.0336 432.1392 432.1435 432.3266
   432.7343 433.0904 433.3692 433.6903 433.7122 433.8364 434.1245 434.1326
   434.1924 434.4610 434.5164 434.6278 434.9152 435.3228 436.0480 436.3959
   436.6147 436.9727 437.4052 437.4093 437.8414 438.4932 438.5738 438.7730
   438.8099 439.1665 439.1787 439.4685 439.5144 439.7214 439.9059 440.0444
   441.4641 442.1811 442.5795 443.6827 443.7345 444.5844 444.8537 445.1281
   445.3460 445.8918 446.6143 446.6457 446.8471 447.2328 447.4132 447.4896
   447.5087 447.6755 447.8078 448.5223 448.7353 449.1361 449.6009 450.0498
   451.0673 451.1337 451.3572 451.3672 451.9665 452.4256 452.6580 452.8248
   453.3856 453.4117 453.6359 453.6444 454.1995 454.2214 454.4316 454.5746
   455.1103 455.3555 455.6458 455.9105 456.3063 456.7094 456.7173 457.4568
   457.6569 457.8142 458.0875 458.4068 458.7985 460.2225 460.2427 460.4823
   460.5471 461.0916 461.1872 461.2182 461.3970 461.5375 461.7475 461.9325
   462.7150 462.7509 462.9396 462.9493 463.3100 463.4727 465.0707 465.4980
   465.8033 465.9178 466.3038 466.3497 466.4218 466.8116 467.0064 467.5931
   467.6739 467.7369 467.9524 468.3204 468.8236 468.9552 469.0821 469.1988
   469.5995 470.1172 471.2019 472.1851 472.3612 472.4905 472.5637 472.7128
   472.7712 472.8571 473.2116 473.6703 474.4256 475.1473 475.4266 475.4566
   475.6338 475.7685 475.8335 475.9976 476.9245 477.0837 477.1414 477.2063
   477.5363 477.5562 478.0350 479.3338 479.4642 479.5613 479.5726 479.9469

          k = 0.5000-0.1667 0.5000 (  2445 PWs)   bands (ev):

   -96.2796 -57.7721 -57.7719 -57.7719  -3.7205   1.4215   3.9670   5.3607
     9.9108  11.2955  11.8277  13.8739  14.7049  17.0416  18.5671  19.4764
    22.5637  22.6279  23.1763  25.3408  26.8763  28.9779  28.9991  30.3804
    31.8578  31.9004  33.6795  34.5334  35.2520  36.0965  36.8344  39.0265
    40.3438  40.4495  41.6937  42.0997  44.0114  44.4525  46.0168  47.3104
    47.3867  49.0376  49.6278  51.5214  53.7315  54.0111  54.7187  55.1813
    55.6709  56.7618  57.7544  59.7185  60.0803  60.3655  61.3092  62.1365
    62.1937  64.6648  64.7270  65.0050  65.7367  66.4355  67.4051  68.2189
    69.8506  70.9564  71.1622  71.2523  71.9737  72.9879  73.8768  73.9689
    75.0679  75.6284  76.5231  77.0986  78.0667  79.2299  79.4694  82.7976
    83.2651  83.4018  83.5390  83.6436  84.3784  85.3130  85.4878  86.2614
    87.2281  88.8309  89.4732  90.6425  90.8917  92.9803  93.2552  93.6133
    94.8672  95.5718  95.6729  97.0397  97.1616  97.5933  98.6261  98.9724
    99.9462 100.4564 100.5631 100.9474 101.6343 102.0328 103.3535 103.7662
   104.7182 105.0854 105.7793 106.7896 107.0681 108.2507 108.3721 109.1626
   109.4305 110.6410 110.6939 111.6903 111.9122 112.3542 113.1982 113.9429
   114.3362 114.5134 115.1018 115.8914 117.1299 117.5070 118.2892 118.9576
   119.8301 120.8276 120.8730 121.2390 121.4555 123.0214 123.8651 124.8840
   125.0394 126.3730 126.5074 127.0097 127.8833 128.1113 128.3246 128.5203
   129.6539 129.9267 130.5335 130.5426 132.3680 133.3565 133.5027 133.9482
   134.1745 135.8459 136.8678 136.8735 137.6137 138.9405 139.0538 139.6510
   140.0685 141.1093 141.3006 142.1253 143.0028 143.1312 143.5101 143.9153
   144.7157 145.2688 145.4805 147.0253 147.1413 147.4070 147.8278 148.6378
   148.8751 150.5598 150.6808 151.2143 151.2572 151.8192 152.1728 152.9775
   153.5238 153.7018 154.4894 154.7197 156.4435 156.6274 157.6477 157.7715
   158.7830 159.3331 159.6978 160.1469 160.3504 161.6930 162.3198 162.3478
   163.0401 163.2294 163.5105 163.8187 164.0532 164.4725 165.0500 165.3578
   165.5404 165.8159 166.1866 167.2839 167.5884 169.0422 169.6749 170.7535
   170.7893 171.3259 171.9134 172.0023 172.8000 172.9783 173.6392 173.9361
   175.3145 175.6090 175.9120 177.0480 177.8402 177.8829 178.4612 178.6432
   179.0671 179.3327 179.8775 179.9812 180.7464 180.7491 181.1273 183.0502
   183.2289 184.3003 184.6184 185.0242 185.2973 185.5255 185.8784 186.7863
   186.8307 187.4658 188.1389 189.1021 189.1364 189.8840 191.0412 191.7329
   191.8010 192.7207 193.7017 194.0300 194.3593 195.0003 195.4341 196.0839
   196.1602 196.7436 197.8882 198.2700 198.7976 199.3857 199.4523 199.6063
   199.7795 200.1490 200.4534 201.3347 202.4818 203.3505 203.5747 204.1553
   204.6252 204.7158 205.2297 205.7345 206.1613 206.5576 206.9458 207.0712
   207.7230 207.7959 208.8954 208.9758 209.9184 210.4619 211.0896 211.4600
   211.5076 212.1212 212.3994 212.5440 214.1250 214.3273 215.0239 215.2833
   215.3173 215.8944 216.1012 216.6963 217.1541 217.1985 217.6976 218.0609
   219.2057 219.8063 220.3836 221.1390 221.5841 222.5510 222.7682 223.0995
   223.2431 223.3641 223.7180 224.0313 224.1687 224.2233 224.5159 225.3146
   225.8152 225.8689 227.2288 227.4306 227.8512 228.3575 228.6217 229.3042
   229.6384 229.9554 230.0151 230.5094 231.0280 231.3483 231.8556 231.9363
   232.6863 233.9670 235.7809 235.8688 236.4655 237.1991 237.7995 237.9592
   238.1479 238.2942 238.4172 238.7368 239.3991 240.0168 240.0400 240.7486
   240.8042 241.2692 241.6797 242.0317 242.2545 242.5863 243.1957 243.6365
   243.6610 244.4893 244.6515 245.4259 246.0889 246.5450 246.9494 247.2980
   247.3913 248.0030 248.6060 248.8569 248.9120 249.0581 250.9155 250.9958
   252.5523 252.6609 253.2657 253.6393 254.1093 254.1883 254.3688 255.6088
   256.0548 256.3310 256.3488 256.9954 257.0138 257.2440 257.6428 257.6529
   258.5925 258.9704 259.5443 260.0361 260.2016 261.1756 261.6326 262.3731
   262.8909 263.3132 263.6976 264.9166 264.9456 265.6783 265.8012 266.4906
   266.8913 266.9781 267.8906 268.1382 268.2271 269.0650 269.4435 269.7324
   270.0604 270.7380 271.6199 272.0050 272.5654 272.6042 272.8492 273.1063
   273.6439 273.7883 274.3850 274.5493 275.0627 275.3797 276.0966 276.4951
   276.6775 276.9056 277.1438 277.2951 278.1306 278.2089 279.0657 280.1279
   280.6119 281.1709 281.3722 281.6626 281.8160 282.9221 283.3146 283.4088
   284.3502 284.6872 285.0402 285.0463 285.8726 285.9847 286.5970 286.7202
   287.2790 287.7113 287.7138 288.4161 288.4919 289.1428 289.2683 289.7585
   290.5540 290.6145 290.7524 290.7925 291.4484 291.5923 291.8669 292.5900
   292.7049 293.0791 293.1888 293.5349 293.8437 295.5378 295.8861 296.1470
   296.1859 296.1933 296.8277 296.9087 297.1409 297.3725 297.8729 298.0178
   298.1609 299.1342 299.5339 299.6868 299.6886 300.2314 302.5713 302.8531
   302.8789 303.0058 303.1043 303.6216 304.2972 305.4547 306.1565 306.4663
   306.5408 306.9558 307.2790 307.9199 308.2190 308.3504 308.7880 308.8929
   309.0836 309.2137 310.3312 310.3875 310.7203 311.0650 311.1123 311.3558
   312.0544 312.9858 313.2988 313.5344 313.7791 313.8493 314.2234 314.7965
   314.9017 315.5003 315.7930 316.5630 316.7465 316.7862 317.4387 317.5012
   317.8506 318.2812 318.3268 319.2814 319.3681 319.9589 320.9863 321.5338
   322.0458 322.1484 322.4455 323.5274 323.9740 324.3369 324.3459 325.7363
   326.4437 326.9265 326.9671 327.5586 327.5930 327.7735 327.7885 328.0483
   328.3309 328.3899 328.4564 328.8872 328.9285 330.2602 330.4434 331.1045
   331.3176 331.7733 331.8296 331.9817 332.1086 332.7362 333.3372 333.5077
   334.5687 335.4123 335.8565 336.0392 336.2020 336.6370 336.7424 337.0860
   337.3187 338.6121 338.7576 338.9788 339.1210 339.2865 340.4197 341.2820
   341.7986 341.9029 342.5924 343.0450 343.4586 343.8107 343.8162 344.0052
   344.4850 345.3520 345.6428 345.9612 346.3348 346.5000 346.6043 347.3558
   347.6339 347.6770 348.3213 348.3235 348.7573 349.3575 349.4257 349.6539
   349.7006 349.9376 350.4668 350.7423 351.1912 351.7938 351.8326 353.1659
   354.2378 354.6758 355.2974 355.4633 355.5080 356.0280 356.1922 356.3549
   356.6734 358.0318 358.4808 358.8062 359.1291 359.2178 359.9980 360.2242
   360.5705 360.6099 361.0673 361.3745 361.5571 361.9118 362.5261 362.9876
   363.1064 363.2499 363.3144 363.6061 363.7444 364.4477 364.5876 364.6848
   365.0751 365.0850 365.1309 365.8202 366.4510 366.8013 367.2915 367.7209
   367.7465 368.6291 369.1384 369.8865 369.9761 370.0217 370.6460 370.8341
   371.0571 371.2129 372.0912 372.1675 372.7102 372.7103 374.0288 374.3974
   374.8698 374.9987 375.3644 375.4579 375.8942 376.2208 376.2762 376.5546
   376.6614 376.9982 377.5483 377.9167 378.4847 378.7765 378.8963 379.2134
   379.3088 380.2708 380.4194 380.6329 380.8741 381.1434 382.0120 382.8503
   383.0080 383.3024 383.6092 384.2533 384.3907 384.9030 385.0366 385.5327
   386.1508 386.1836 386.4598 386.5190 387.0478 387.5917 387.7133 387.9951
   388.3708 388.6124 388.7373 388.7557 388.7795 388.9803 389.0861 389.8338
   390.2194 390.5134 391.0461 391.3069 391.5235 391.6024 391.9192 392.4941
[...]
    92.6113  93.0790  93.9701  94.6664  95.9942  97.1019  98.1780  98.7921
    99.3748  99.7547 100.5551 101.1928 101.5412 102.0583 102.6054 102.9649
   103.5842 104.9745 105.1724 106.0465 107.5606 108.3231 108.7821 109.8061
   111.5024 111.6936 112.4011 113.6846 114.4504 114.6842 115.2578 115.7583
   116.5856 117.5288 118.0330 118.4744 119.6589 119.8505 120.7370 120.9800
   121.5710 121.7077 122.1628 122.6309 122.9001 123.9690 124.7142 124.9995
   125.4220 126.1196 126.5377 127.5074 128.0475 128.4988 128.7920 129.1625
   130.0704 130.4664 130.7423 131.6111 131.9130 132.4686 133.0046 133.7058
   134.3185 135.2774 135.4063 136.4502 137.3710 137.5676 138.5742 138.8371
   139.1177 139.5755 140.5585 140.7478 141.0391 141.5699 142.5561 143.4123
   143.9311 144.3592 145.0313 145.7252 145.7877 146.4957 146.8315 147.9188
   148.2168 148.6773 149.2149 150.1764 150.4884 150.9050 151.3258 151.8736
   152.3721 153.1667 153.3722 154.4801 154.6159 155.8784 156.3759 156.6592
   157.0796 158.1488 158.5584 158.9068 159.3239 160.5200 160.6977 161.0576
   161.4536 162.8387 162.9829 163.3095 164.3150 165.4752 165.7998 165.9820
   166.3155 167.2975 167.6815 168.5959 168.9078 169.1081 169.3888 170.0311
   170.5614 171.0765 171.3722 171.9264 172.8061 173.3937 173.7640 174.0462
   175.1900 175.7075 176.8946 177.4223 177.7901 177.8937 178.0854 178.3776
   179.4328 179.9144 180.0981 180.3785 180.6882 180.8540 181.8895 182.4605
   182.9572 184.0056 184.6765 186.3513 186.5168 186.7243 186.9266 187.4663
   188.1134 188.4929 189.9307 190.6373 190.8803 191.2445 191.9889 192.7199
   193.0507 193.3041 193.5788 193.9101 194.4284 195.8612 196.4286 196.9420
   197.3351 197.9759 198.4859 198.9658 199.2833 199.4613 199.9967 200.5651
   201.6359 201.7329 201.7971 202.1322 202.2380 203.0492 204.0040 204.5018
   204.7887 205.3378 205.7754 205.8978 206.3757 206.9867 207.7966 208.1159
   208.2409 208.5210 208.6072 209.7220 210.3814 210.5332 210.7463 211.8839
   211.9764 211.9906 212.1304 213.4920 213.9632 214.4492 214.8073 215.4724
   216.0383 216.3472 217.0556 217.3404 217.8179 218.0915 218.7014 218.9644
   219.3319 219.6438 220.8948 221.0571 221.4532 222.1344 222.5194 222.6583
   223.2363 223.3226 223.5594 224.4839 225.4804 226.0639 226.3877 226.4705
   226.7473 226.9514 227.0596 227.3582 228.0960 228.3212 228.6921 228.8978
   228.9819 229.4128 229.6978 230.0574 230.6793 231.2042 231.6713 231.9235
   232.3720 232.5268 232.6476 232.8214 233.2379 233.3652 234.7466 235.2942
   235.6685 236.1193 236.3378 236.9118 237.3636 237.7252 238.3696 238.5878
   238.6391 239.0509 239.8777 240.4374 241.2784 241.3385 242.6360 243.3306
   244.1205 244.2956 245.8276 245.8827 246.0649 246.3667 246.5851 246.7909
   247.6591 248.2186 248.6164 249.2821 249.4491 250.0372 250.4779 250.8324
   251.3498 251.8574 252.1160 252.3449 253.0986 253.4849 254.4455 255.1543
   255.3738 255.7350 256.0088 256.2525 256.9773 256.9965 257.3779 257.6380
   258.1182 258.3682 259.5986 259.6772 261.0320 261.3863 261.7353 262.0697
   262.5194 262.6998 262.9103 263.0136 263.3749 264.0767 264.6719 265.4328
   265.9890 266.1951 267.6556 268.2672 268.5444 268.7392 269.3243 269.5738
   270.2388 270.7375 271.1543 272.4037 272.4441 273.1822 273.5568 273.8978
   273.9747 274.9992 275.0215 275.1233 275.9713 276.3220 276.4217 276.7494
   276.9860 277.2123 277.2903 277.7009 278.7725 279.2218 279.6740 280.4326
   281.3539 281.5079 281.6872 281.8103 282.2962 282.4658 282.6023 282.8796
   283.3800 283.5486 283.9290 284.0161 284.7760 284.8641 285.0906 285.4700
   285.8502 286.0085 287.4482 288.0459 288.7636 289.0752 289.6597 290.2293
   290.8396 291.4573 291.5820 291.6825 292.2122 292.3941 293.3130 293.3966
   293.8843 294.2581 294.3024 294.8670 295.1017 295.6082 296.5827 297.1938
   297.4054 297.8026 298.2583 298.3310 299.1829 299.3817 300.1222 300.4117
   300.6506 300.9608 301.0334 302.1815 302.4375 302.4609 302.6692 303.0803
   303.4238 303.9357 304.3947 305.6940 305.9161 305.9629 306.2033 306.3513
   306.5528 306.8692 308.0190 308.2804 308.6457 308.7499 308.8724 308.9189
   309.3811 309.9103 310.5419 311.0842 311.6416 312.0938 312.1178 312.5733
   312.5886 313.0408 313.8263 314.5903 314.9791 315.2925 315.4429 316.2046
   316.4657 316.5273 316.9060 316.9986 317.3848 317.4917 318.1507 318.1925
   318.3082 318.5786 320.0921 320.1809 322.7598 323.3222 323.5482 323.7547
   323.9691 324.3604 324.8742 325.5334 325.8067 325.9761 326.2562 326.3953
   326.7188 326.8598 327.1319 327.3263 327.4282 327.9286 329.0291 329.5045
   330.0022 330.1052 330.6323 330.8572 330.9893 331.3101 331.4471 331.5462
   331.7310 331.8811 332.0122 332.3030 332.5248 333.0701 333.3521 334.0282
   334.1356 334.8623 335.1407 335.1939 336.7845 337.1570 337.4551 337.5903
   337.7869 338.1186 338.3310 338.6347 338.8430 339.2364 339.4322 339.9561
   340.4109 340.6967 340.9495 341.1687 342.2572 342.3188 342.5208 342.6885
   342.7489 343.4677 343.6965 344.2108 344.4546 344.6064 344.6472 344.8127
   344.8619 345.3659 345.4495 345.5193 345.8208 346.1127 346.5308 346.7655
   349.2934 349.5867 350.0224 350.3933 351.4287 351.7204 352.0118 352.2150
   352.3228 352.3566 352.4983 352.6978 352.8042 352.8381 353.2679 353.3422
   353.8744 353.8928 354.4527 354.5413 355.9116 356.2473 357.4602 357.6769
   358.2978 358.4228 358.7126 358.7775 358.8443 358.9140 359.3336 359.3841
   360.7777 360.8496 361.0350 361.1657 362.4436 362.6327 362.7510 362.8973
   363.4208 363.5307 364.4218 364.7068 365.1460 365.4615 365.5944 366.0684
   366.5250 366.5905 366.8305 366.8832 367.5297 367.5649 368.2566 368.3535
   369.8018 370.2236 370.2682 370.5647 370.9101 370.9470 371.3032 371.3652
   372.1240 372.6187 373.3935 373.5364 375.6557 375.6837 376.3541 376.3888
   376.6444 376.7676 377.7620 378.4822 378.6316 378.8911 379.0055 379.1939
   379.2800 379.4315 379.9766 380.3621 380.5225 380.9070 382.1087 382.2055
   382.2497 382.3630 384.1665 384.5879 384.8774 384.9842 385.0921 385.1942
   385.8579 385.9470 386.7871 386.9325 387.2998 387.5951 387.7546 388.7353
   388.8835 390.3640 390.6881 391.6664 392.4264 392.6287 392.9050 393.1372
   393.2779 393.3288 393.4997 393.7368 393.9521 394.8058 395.3165 395.8354
   395.8941 396.4362 396.8483 396.9759 397.2209 397.2468 397.3474 397.4037
   398.1688 399.0102 399.0848 399.3577 399.4977 399.7792 400.6631 400.8626
   401.4609 401.5252 403.2654 403.3631 404.8455 405.0807 405.2506 405.3966
   405.4490 405.5857 405.9605 406.3018 406.3261 406.5265 407.2729 407.5142
   407.8885 408.0498 408.4127 408.5751 408.6485 409.5943 409.8155 409.8549
   409.9726 410.1519 410.7380 410.8427 411.0692 411.2131 411.7647 411.9925
   412.0910 412.1288 412.2103 412.2514 412.7680 412.8886 414.2893 414.4447
   415.1476 415.1745 415.4155 415.6433 415.9879 416.4333 416.6801 416.9279
   417.5014 417.5505 417.6092 417.7262 418.5295 418.6279 419.2774 419.4270
   419.4509 419.5763 419.8471 421.1885 421.3314 421.6273 421.7838 422.1571
   423.0084 423.0824 424.1671 424.3813 424.4865 425.4239 425.4890 425.9184
   426.2141 426.2912 427.0153 427.1479 427.2341 427.5120 428.6483 428.6787
   429.3470 429.5291 429.7687 430.3173 430.8270 430.9464 431.0176 431.3250
   431.8975 431.9239 431.9817 432.3969 432.4297 432.5825 432.7118 433.1555
   433.2346 433.3028 433.3492 433.9830 434.1334 434.4993 434.9681 436.7493
   436.8988 437.0406 437.1753 437.4376 437.4681 437.5803 437.6866 437.8630
   437.9935 439.1573 439.3590 439.5910 439.6521 439.8739 440.2942 440.7353
   441.3873 441.5427 442.5970 443.1607 443.3808 443.5337 444.6726 444.9591
   445.1916 445.7219 446.4730 446.5572 446.7886 446.8600 446.9737 447.0904
   447.5026 447.5300 448.0699 448.1916 448.4272 448.5322 448.7455 448.8624
   448.9962 449.3047 449.9223 450.0769 450.5442 450.7947 450.8341 450.8599
   450.9764 451.4485 451.6700 451.6962 451.7538 452.6158 452.6499 452.9590
   452.9710 453.3124 453.3568 453.6308 454.7270 454.7667 457.9592 458.1674
   458.3090 458.3308 458.7998 458.9271 459.1722 459.8152 460.2894 460.7208
   461.0187 461.4990 461.7433 461.7862 462.1129 462.2881 462.4136 462.7295
   462.8090 463.5747 463.6346 464.4345 464.6912 464.9089 465.1398 465.2502
   465.2982 465.4537 465.5742 466.2113 466.2825 466.8372 467.8466 468.1158
   468.2283 468.4549 469.9891 470.0803 470.3064 470.4642 470.6168 470.7840
   471.1016 471.2270 471.4980 471.5456 472.6258 472.6777 472.7371 473.0080
   473.5568 473.9678 474.0967 474.3020 474.3848 474.4748 474.9158 475.0154
   475.0643 475.0897 475.2133 475.2637 475.6477 475.7916 476.8947 477.5149
   478.1584 478.1913 478.2369 478.2438 478.4584 478.5493 479.7438 479.9376

          k =-0.3333-1.0000 0.0000 (  2450 PWs)   bands (ev):

   -96.2797 -57.7721 -57.7720 -57.7720  -2.9388   1.1545   3.2939   3.5322
     9.5087  10.4951  13.8112  14.1639  17.3926  18.0945  19.4314  20.1740
    23.1685  23.4749  24.2606  24.6559  25.8346  26.5221  28.2009  28.4970
    30.7392  30.9173  31.8120  32.2802  35.9285  36.9331  37.4630  38.8510
    38.8863  39.4032  43.2331  43.8119  43.8547  44.6171  46.6345  47.2937
    48.9335  49.5102  50.1333  50.7864  53.2642  54.7185  55.3162  55.3710
    56.4057  57.3712  57.4113  58.2024  60.7185  61.4614  61.4856  62.5228
    63.4165  64.5861  65.0036  65.6853  65.9184  67.2622  68.7874  68.9011
    69.9153  70.4246  71.8112  71.9757  72.0357  72.5462  73.2857  74.5693
    75.7274  76.4656  77.0124  77.1328  78.8299  79.8516  81.1992  81.5970
    82.0471  82.5269  83.4919  84.6898  84.9897  85.2539  85.6401  86.0014
    86.2996  87.3976  88.2509  88.5680  89.3910  90.4335  91.0269  91.2619
    92.2694  92.4084  92.5923  92.7875  93.8486  94.8529  95.9216  97.1409
    97.8411  98.2540  99.2043 100.2784 101.1543 102.3438 102.7360 104.4432
   105.7879 105.8372 107.2594 107.4746 108.6800 108.6982 109.9792 110.8188
   111.4809 112.2736 112.7692 114.0789 114.9066 115.3069 116.1083 116.7576
   116.7776 117.8211 118.2384 118.5795 119.4609 120.3359 120.4638 121.4800
   121.7648 122.2458 122.3376 122.5496 123.3940 123.5522 123.8284 125.5702
   126.1324 126.8247 127.3093 127.9680 128.3982 129.2701 129.6889 129.7060
   130.5137 130.6838 131.1687 132.4689 132.6865 132.9296 133.0225 134.2975
   134.5599 135.3655 136.2063 136.2704 136.8359 137.3411 137.8402 139.2149
   139.4972 139.9940 140.0465 140.9491 141.1486 141.9147 142.1352 142.7104
   143.3190 143.3450 143.4906 144.8709 145.1950 146.3765 146.6166 146.9248
   147.4575 148.2228 148.8139 149.5012 149.6058 150.4406 150.5020 151.2561
   151.9034 152.0680 152.7383 152.7793 153.2907 153.4604 154.0179 155.6689
   157.0834 157.4219 157.5004 158.0690 158.6479 158.9072 159.2000 161.1352
   162.2700 162.7355 162.8115 163.8391 164.0306 164.6458 164.8974 165.0067
   165.1285 165.2463 165.6454 166.6322 168.1575 168.5747 170.7416 172.1484
   172.4024 173.2875 173.4197 174.4022 174.5930 174.9253 175.0982 176.2944
   177.3336 177.4423 178.3483 178.6977 178.8728 179.4287 180.0795 180.2538
   180.4522 180.5326 180.8686 181.3034 182.0232 182.6069 183.1734 183.3802
   183.6809 183.9285 184.6006 185.7353 186.7639 186.9982 187.4823 188.2784
   188.7047 188.7351 189.0320 189.9327 190.1945 190.5224 191.1940 191.8638
   191.9301 193.0318 193.2220 193.4785 193.5971 193.9200 194.3493 194.5587
   195.7188 196.4022 197.4201 198.3084 199.0761 199.5744 199.6829 200.4155
   201.0310 201.1575 201.6037 201.9066 202.9951 203.5057 204.5496 204.6431
   204.7969 205.8054 205.9186 206.3826 206.4539 206.7172 207.2357 207.4330
   208.8345 209.5503 210.2714 210.7874 211.0758 211.5973 211.7249 212.3912
   212.4372 212.7593 212.8816 213.0911 214.5873 215.1789 215.2638 215.7272
   215.8510 216.4970 217.6065 217.9378 218.4978 218.9623 219.6468 219.8384
   220.2159 220.3015 220.7155 220.7476 221.2556 221.5703 221.8292 221.8350
   222.1839 222.3312 222.3888 222.5060 222.5874 222.8459 223.4924 223.6959
   223.8094 224.0879 225.3676 225.4457 227.4515 228.4683 228.6292 229.2057
   229.2624 229.7637 230.2109 230.3017 230.6087 230.7772 232.3661 232.3831
   233.2705 233.4270 235.3314 235.8883 236.0441 236.3029 236.8440 236.9514
   237.4671 237.6482 237.7937 237.9553 238.5755 238.9195 238.9747 239.7125
   239.7841 240.2755 240.6529 240.8164 241.3614 241.4919 242.1795 242.3553
   242.5383 242.9217 244.5187 245.1297 245.2152 245.7494 245.8426 246.0557
   247.0492 247.1550 247.8124 248.3787 248.5621 248.7295 249.4454 249.5147
   250.4180 250.7348 251.0756 251.3556 251.9301 252.0903 253.8492 253.9112
   255.2996 255.3266 257.7296 258.0813 258.4559 258.6772 259.0214 259.4803
   259.6447 260.3931 260.8057 260.8675 261.2452 261.3128 262.8303 263.0303
   263.0655 263.1169 263.5879 263.6325 263.7460 264.1587 264.1734 264.6900
   265.3353 265.7752 266.7452 267.1965 267.4780 267.6793 267.7863 268.3630
   268.9130 268.9582 269.5746 269.9088 271.1912 271.7527 272.4057 272.4238
   273.2995 273.6890 273.8822 273.9338 274.2258 274.3158 274.5840 274.6185
   275.4878 276.0194 278.0005 278.0252 278.9037 278.9547 279.6834 279.9605
   280.3523 280.6974 280.8086 281.5236 281.5635 282.0682 282.9213 283.1263
   283.3107 283.7471 284.5836 285.1715 285.2162 285.4183 286.0816 286.2181
   286.6347 287.3973 288.4466 288.5658 288.5837 288.8275 289.4786 289.4864
   289.5821 289.5855 290.3454 290.5531 290.9160 291.0672 291.4092 292.2217
   293.8671 293.9874 295.3037 295.4068 295.6859 295.9298 296.4187 296.5466
   296.6702 296.8332 297.2061 297.2457 298.2040 298.2962 300.6303 301.0282
   303.4357 303.5590 304.1005 304.5749 305.4850 305.5711 305.8586 306.2168
   306.6153 306.8233 306.9754 307.0007 307.1720 307.3552 307.7093 307.7757
   308.0300 308.0560 308.9519 309.2580 310.1760 310.1985 310.7877 311.6274
   312.2225 312.2687 312.3968 312.7284 313.3786 313.3976 313.5397 314.3377
   314.4733 314.5620 315.8284 316.1349 316.5060 317.0063 317.2118 317.4169
   317.6897 318.1456 319.0729 319.1324 319.5525 319.7131 320.1517 320.2503
   320.6964 320.9237 321.6889 321.8110 322.1500 322.4580 323.0698 323.2617
   323.4540 323.6749 324.0786 324.1665 324.3118 324.4540 324.8895 324.9747
   325.2962 325.6102 326.7585 326.7631 327.7257 327.9698 327.9721 328.2351
   328.5265 328.9593 329.2584 329.4957 329.6192 329.8499 330.1301 330.4220
   330.7768 330.8199 331.2524 331.2799 331.3122 331.3784 331.4293 331.5625
   332.8292 333.1244 333.4996 333.6000 334.2066 334.3328 334.4556 334.6163
   334.8248 334.9122 337.5309 337.6731 337.7825 337.8324 337.9462 338.0072
   338.3223 338.5925 339.4408 339.7243 340.0551 340.2373 340.9724 341.0651
   342.1247 342.6638 343.5336 343.5533 343.8255 344.8853 344.9038 345.1251
   345.1311 345.4507 346.1391 346.5335 348.4269 348.6944 348.9123 348.9275
   349.2530 349.6430 350.6825 350.8937 351.1403 351.1575 351.2790 351.5388
   351.9727 352.0715 352.1027 352.3926 353.6400 353.8037 353.8153 354.0152
   354.2770 354.4186 354.5325 354.6571 354.9999 355.1504 356.1224 356.2546
   357.6848 357.8552 359.5101 359.5856 360.3063 360.4901 360.6358 360.6726
   361.8147 361.8196 362.2417 362.4084 362.4993 362.6417 362.7389 362.7758
   362.9963 363.1904 363.3761 364.0214 364.3763 365.7047 365.9574 366.0387
   366.6822 366.9866 367.0036 367.1419 367.1470 367.3754 367.4163 367.6150
   367.8853 368.2348 368.8313 368.8551 369.4987 369.6395 370.5139 371.1925
   371.1990 372.3279 372.9570 373.0538 373.6088 373.7416 373.9555 374.3025
   375.5805 375.6191 375.7205 375.7660 376.1534 376.6393 376.7307 376.7660
   380.6842 380.7126 380.9569 381.1080 381.4347 381.5633 382.1457 382.2988
   382.3623 382.6750 382.7558 383.1957 384.9220 385.0612 385.7441 385.7453
   386.0425 386.4607 386.5308 387.0572 387.1247 387.1354 388.1023 388.1903
   388.5270 388.5310 389.7468 389.8878 390.5542 390.6362 391.1349 391.4731
   391.7882 392.1595 394.1382 394.2153 394.5610 394.5620 395.0731 395.5437
   397.0571 397.3153 397.4933 397.5944 399.0635 399.1447 399.9657 400.0555
   400.2035 400.3639 400.5495 400.6856 401.1916 401.2265 402.5212 403.2169
   403.5858 403.7855 403.9771 404.1271 405.0321 405.3958 405.4258 405.6172
   405.7239 405.8150 406.6884 406.7098 406.9497 407.0614 407.8322 408.5210
   408.6395 408.7220 408.9188 409.1931 409.5353 409.5818 409.6871 409.9173
   410.0794 410.3635 410.5747 410.6226 412.8756 413.1720 414.5188 414.6368
   414.9228 415.2218 415.3429 415.6387 415.6797 416.1203 416.2596 416.3360
   416.8551 417.0638 417.2695 417.2767 417.7746 417.8170 419.0656 419.0815
   420.0540 420.1091 420.2300 420.2898 420.3111 420.4758 420.8566 420.9095
   421.1945 421.2218 421.4731 421.4811 421.6512 421.6664 422.6390 422.6533
   424.1821 424.3291 424.4572 424.4839 425.7989 426.1793 426.1928 426.3507
   426.5940 427.2383 427.5772 427.9190 428.1007 428.1823 428.1863 428.2402
   428.2612 428.3557 429.1999 429.2225 429.2475 429.3033 429.8841 429.9194
   431.1248 431.2405 431.2693 431.3858 431.7628 431.7821 432.4390 432.4692
   432.7043 432.7186 432.7860 432.7905 432.9445 432.9925 433.4075 434.1043
   434.2325 434.2955 434.3507 434.8784 436.1633 436.2459 436.7281 436.7613
   436.7724 437.6041 438.0558 438.3132 439.7211 439.7978 441.2864 441.3307
   441.3465 441.4737 442.6572 442.7254 442.8254 442.8585 443.0759 443.2659
   443.5801 443.6032 443.8837 444.0848 444.1042 444.2938 445.5124 445.5475
   447.6873 447.9700 448.1505 448.3065 448.5602 448.8659 449.3393 449.6580
   449.7569 449.7680 450.1582 450.2471 450.2694 450.7348 451.8695 452.2320
   452.3767 452.4067 452.5008 452.5407 454.1053 454.2724 454.5544 454.7400
   454.8537 455.0414 455.1923 455.5957 455.9387 456.2249 456.3310 456.3770
   456.6174 456.8091 456.8199 456.9158 457.5924 457.6048 458.4151 458.5179
   459.6002 459.7938 459.8043 459.9324 460.0218 460.1164 460.3718 460.3819
   461.8914 462.2012 462.9038 462.9683 463.1926 463.2928 463.5100 463.5516
   463.7914 464.1986 464.2920 464.4884 464.9583 465.3481 465.5253 465.6428
   465.7363 466.4664 466.5014 466.6447 468.4573 468.5246 468.5613 468.5793
   471.4617 471.4671 471.9702 471.9710 472.2263 472.9854 473.8497 473.8978
   474.3053 474.4005 474.4840 474.5782 475.1524 475.3033 476.0596 476.0672
   476.2320 476.5335 477.2091 477.4219 477.4510 477.9399 478.1551 478.4359
   478.6284 478.7008 479.3633 479.4586 480.1215 480.4456 480.6126 480.6894

     the Fermi energy is     6.6095 ev
     (compare with:     6.6095 eV, computed in scf)

     Writing all to output data dir out/mp-1550.save/
 
     init_run     :      0.01s CPU      0.06s WALL (       1 calls)
     electrons    :    335.32s CPU    356.91s WALL (       1 calls)

     Called by init_run:
     wfcinit      :      0.00s CPU      0.00s WALL (       1 calls)
     potinit      :      0.00s CPU      0.01s WALL (       1 calls)
     hinit0       :      0.00s CPU      0.04s WALL (       1 calls)

     Called by electrons:
     c_bands      :    335.31s CPU    356.89s WALL (       1 calls)
     v_of_rho     :      0.00s CPU      0.00s WALL (       1 calls)

     Called by c_bands:
     init_us_2    :      0.00s CPU      0.00s WALL (       8 calls)
     init_us_2:cp :      0.00s CPU      0.00s WALL (       8 calls)
     cegterg      :    321.52s CPU    342.06s WALL (       8 calls)

     Called by *egterg:
     cdiaghg      :    303.59s CPU    323.32s WALL (      64 calls)
     h_psi        :      5.82s CPU      6.17s WALL (      72 calls)
     g_psi        :      0.04s CPU      0.04s WALL (      56 calls)

     Called by h_psi:
     h_psi:calbec :      0.09s CPU      0.09s WALL (      72 calls)
     vloc_psi     :      5.57s CPU      5.91s WALL (      72 calls)
     add_vuspsi   :      0.06s CPU      0.07s WALL (      72 calls)

     General routines
     calbec       :      0.09s CPU      0.09s WALL (      72 calls)
     fft          :      0.00s CPU      0.03s WALL (      10 calls)
     fftw         :      4.97s CPU      5.27s WALL (   91916 calls)
 
     Parallel routines
 
     PWSCF        :   5m36.30s CPU   5m58.22s WALL

 
   This run was terminated on:  23: 9:14  14Nov2023            

=------------------------------------------------------------------------------=
   JOB DONE.
=------------------------------------------------------------------------------=
