
     Program PWSCF v.7.1 starts on 14Nov2023 at 22:24:25 

     This program is part of the open-source Quantum ESPRESSO suite
     for quantum simulation of materials; please cite
         "P. Giannozzi et al., J. Phys.:Condens. Matter 21 395502 (2009);
         "P. Giannozzi et al., J. Phys.:Condens. Matter 29 465901 (2017);
         "P. Giannozzi et al., J. Chem. Phys. 152 154105 (2020);
          URL http://www.quantum-espresso.org", 
     in publications or presentations arising from this work. More details at
     http://www.quantum-espresso.org/quote

     Parallel version (MPI), running on     8 processors

     MPI processes distributed on     1 nodes
     122801 MiB available memory on the printing compute node when the environment starts
 
     Reading input from pw_mp-1550_nscf_k10_E65.in
Warning: card &IONS ignored
Warning: card / ignored
Warning: card &CELL ignored
Warning: card / ignored

     Current dimensions of program PWSCF are:
     Max number of different atomic species (ntypx) = 10
     Max number of k-points (npk) =  40000
     Max angular momentum in pseudopotentials (lmaxx) =  4

     Atomic positions and unit cell read from directory:
     out/mp-1550.save/
     Atomic positions from file used, from input discarded
 
 
     R & G space division:  proc/nbgrp/npool/nimage =       8
     Subspace diagonalization in iterative solution of the eigenvalue problem:
     one sub-group per band group will be used
     scalapack distributed-memory algorithm (size of sub-group:  2*  2 procs)

 
     Parallelization info
     --------------------
     sticks:   dense  smooth     PW     G-vecs:    dense   smooth      PW
     Min         119     119     35                 2448     2448     383
     Max         120     120     36                 2452     2452     384
     Sum         955     955    283                19603    19603    3071
 
     Using Slab Decomposition
 


     bravais-lattice index     =            2
     lattice parameter (alat)  =      10.3424  a.u.
     unit-cell volume          =     276.5700 (a.u.)^3
     number of atoms/cell      =            2
     number of atomic types    =            2
     number of electrons       =        16.00
     number of Kohn-Sham states=         1200
     kinetic-energy cutoff     =      65.0000  Ry
     charge density cutoff     =     260.0000  Ry
     Exchange-correlation= PBE
                           (   1   4   3   4   0   0   0)

     celldm(1)=  10.342409  celldm(2)=   0.000000  celldm(3)=   0.000000
     celldm(4)=   0.000000  celldm(5)=   0.000000  celldm(6)=   0.000000

     crystal axes: (cart. coord. in units of alat)
               a(1) = (  -0.500000   0.000000   0.500000 )  
               a(2) = (   0.000000   0.500000   0.500000 )  
               a(3) = (  -0.500000   0.500000   0.000000 )  

     reciprocal axes: (cart. coord. in units 2 pi/alat)
               b(1) = ( -1.000000 -1.000000  1.000000 )  
               b(2) = (  1.000000  1.000000  1.000000 )  
               b(3) = ( -1.000000  1.000000 -1.000000 )  


     PseudoPot. # 1 for Al read from file:
     /usr/scratch4/magr4985/MG/HTDF/pseudo/SG15/Al.upf
     MD5 check sum: 2d9e7bc02555220d62fad08c3c4858e7
     Pseudo is Norm-conserving, Zval = 11.0
     Generated using ONCVPSP code by D. R. Hamann
     Using radial grid of  602 points,  4 beta functions with: 
                l(1) =   0
                l(2) =   0
                l(3) =   1
                l(4) =   1

     PseudoPot. # 2 for P  read from file:
     /usr/scratch4/magr4985/MG/HTDF/pseudo/SG15/P.upf
     MD5 check sum: 0688a67b2b263c6b42d3d97c42745426
     Pseudo is Norm-conserving, Zval =  5.0
     Generated using ONCVPSP code by D. R. Hamann
     Using radial grid of  602 points,  4 beta functions with: 
                l(1) =   0
                l(2) =   0
                l(3) =   1
                l(4) =   1

     atomic species   valence    mass     pseudopotential
        Al            11.00    26.98150     Al( 1.00)
        P              5.00    30.97380     P ( 1.00)

     24 Sym. Ops. (no inversion) found



   Cartesian axes

     site n.     atom                  positions (alat units)
         1           Al  tau(   1) = (   0.0000000   0.0000000   0.0000000  )
         2           P   tau(   2) = (  -0.7500000   0.7500000   0.7500000  )

     number of k points=     3  Gaussian smearing, width (Ry)=  0.0005
                       cart. coord. in units 2pi/alat
        k(    1) = (   0.0000000   0.0000000   0.0000000), wk =   0.2500000
        k(    2) = (   0.5000000  -0.5000000   0.5000000), wk =   1.0000000
        k(    3) = (   0.0000000  -1.0000000   0.0000000), wk =   0.7500000

     Dense  grid:    19603 G-vectors     FFT dimensions: (  40,  40,  40)

     Estimated max dynamical RAM per process >      68.35 MB

     Estimated total dynamical RAM >     546.77 MB

     The potential is recalculated from file :
     out/mp-1550.save/charge-density

     Starting wfcs are random

     Band Structure Calculation
     ParO style diagonalization

     ethr =  5.00E-06,  avg # of iterations =  6.2

     total cpu time spent up to now is      231.8 secs

     End of band structure calculation

          k = 0.0000 0.0000 0.0000 (  2445 PWs)   bands (ev):

   -96.2795 -57.7718 -57.7718 -57.7718  -5.2917   6.1831   6.1831   6.1831
     9.4032  10.7296  10.7296  10.7296  15.0398  15.0398  16.4296  18.4360
    18.4360  18.4360  22.3736  30.0108  30.0108  30.0108  31.2995  31.2995
    32.4611  32.4611  32.4611  36.2548  36.2548  36.2548  41.8882  41.8882
    41.8882  44.7792  44.8081  44.8081  48.0769  48.0769  48.6912  48.6912
    48.6912  50.7175  50.7175  50.7175  51.2671  51.7982  51.7982  51.7982
    52.5446  52.5446  52.5446  53.0762  53.0762  53.0762  56.8347  57.9131
    57.9131  57.9131  58.8942  58.8942  58.8942  61.4540  66.7651  71.6596
    71.6596  75.0492  75.0492  75.0492  77.0598  77.0598  77.0598  77.5382
    77.5382  79.0351  79.5252  79.5252  79.5252  83.7310  83.7310  83.7310
    88.9017  88.9017  89.5761  89.5761  89.5761  89.6986  89.6986  89.6986
    92.1637  92.3971  92.3971  92.9459  92.9459  92.9459  94.4083  94.4083
    94.4083  96.3046  96.3046  96.3046  97.2318  97.4307  97.4307  97.4307
    98.2348  98.2348  98.2348  98.8170  99.7933  99.7933  99.7933  99.8627
    99.8627 100.4684 100.4684 100.4684 101.0822 106.1314 106.1314 106.1314
   107.1309 107.1309 108.3899 111.9514 111.9514 111.9514 114.5269 114.5269
   114.5269 115.4068 115.4068 115.4068 116.0156 116.0156 116.0156 116.7348
   116.7348 117.9796 120.2623 120.2623 120.2623 123.4805 123.4805 125.5667
   125.5667 125.5667 125.8653 127.4323 127.4323 128.4564 128.4564 128.4564
   129.4207 130.5904 130.5904 130.5904 131.1150 131.8987 131.8987 131.8987
   132.0100 132.0100 132.0100 132.1239 132.1239 132.1239 133.1193 133.1193
   133.1193 137.1113 137.1113 137.1113 141.8814 144.4478 144.4478 144.4478
   146.7489 146.7489 146.9559 148.0435 148.0435 148.0435 149.9968 149.9968
   149.9968 155.6453 155.6453 157.3695 157.3695 157.3695 160.0537 160.0537
   160.0537 161.0291 163.8457 163.8457 164.8229 164.8229 164.8229 165.9989
   165.9989 165.9989 167.2388 167.2388 167.2388 168.2036 169.3636 169.3636
   169.5592 169.5592 169.5592 170.0091 170.0091 170.0091 170.3638 170.3638
   170.3638 171.0260 171.0260 171.0260 171.3070 171.3070 171.6379 171.6379
   171.6379 172.3820 172.6242 172.6242 172.6242 172.9986 172.9986 172.9986
   173.2013 173.3428 173.5775 173.5775 173.5775 174.8465 175.0905 175.0905
   175.7964 175.7964 175.7964 177.6398 177.6398 178.0608 178.0608 178.0608
   178.4829 178.4829 178.4829 178.7829 178.7829 178.7829 179.0733 179.0733
   179.0733 179.0897 179.0897 185.3942 185.3942 185.3942 186.1697 186.1697
   186.8361 191.8106 191.8106 191.8106 193.6853 193.6853 193.6853 195.1092
   195.1092 195.1092 195.5127 195.5127 195.5127 196.2150 197.1702 197.1702
   197.1702 198.4141 198.4141 198.4704 198.4704 198.4704 198.5640 199.8214
   200.2969 200.2969 200.2969 202.3559 202.3559 203.8705 203.8705 203.8705
   207.1938 207.1938 207.1938 207.9583 207.9583 207.9583 207.9628 207.9628
   207.9628 209.0276 209.0276 210.3528 211.0040 211.0040 211.0040 214.1269
   214.1269 214.1269 214.8219 214.8219 215.7102 215.7102 215.7102 216.0053
   216.7112 216.7112 216.7112 216.7949 216.7949 216.7949 217.5467 217.5467
   217.5467 217.8023 217.8023 225.2570 225.2570 225.2570 229.0506 230.0569
   230.0569 230.0569 232.4927 233.0979 233.0979 233.0979 234.8103 234.8103
   235.9862 236.0646 236.0646 236.0646 237.2315 237.2315 237.2315 238.2389
   238.2389 238.2389 239.7020 239.7020 241.4619 242.7222 242.7222 242.7222
   243.7623 243.7623 243.7623 244.3191 244.3191 244.3191 244.3720 244.3720
   246.4835 247.1063 247.1063 247.1063 247.3219 247.3219 248.2791 251.2880
   251.2880 251.2880 251.4216 251.4216 251.4216 251.4603 251.4603 251.4603
   251.5362 251.5362 251.5362 256.0089 256.0089 256.0089 256.0411 256.0411
   256.0411 256.0541 256.0541 256.1721 256.1721 256.1721 256.3431 256.8548
   256.8548 256.8548 256.9333 257.7180 257.7180 257.7180 258.6706 258.6706
   258.6706 258.6769 258.6769 260.5599 260.5599 260.5599 261.6471 262.3432
   262.3432 262.3432 264.2902 265.7923 265.7923 267.5023 267.5023 267.5023
   267.9982 267.9982 267.9982 269.9545 269.9545 269.9545 270.0164 270.0164
   270.0164 271.8347 271.8347 274.5520 274.5520 275.2825 275.2825 275.2825
   275.6706 275.6706 275.6706 275.7510 275.7510 275.7510 275.9537 275.9537
   275.9537 276.8554 276.8554 277.0066 277.0066 277.0066 277.2784 277.9724
   277.9724 277.9724 278.3487 278.3487 278.3487 278.6250 279.4655 279.4655
   279.4655 280.0234 280.9751 283.3978 283.3978 285.2199 285.2199 285.2199
   286.8387 286.8387 286.8387 287.0922 287.0922 287.0922 287.1884 287.1884
   287.8373 287.8373 287.8373 288.5528 289.2700 289.2700 289.2700 289.5466
   289.6538 289.6538 289.6538 291.5153 291.5153 291.5628 291.5628 291.5628
   291.6192 291.6192 291.6192 291.9468 291.9468 291.9468 292.1419 292.1419
   292.1419 292.2645 292.2645 292.4643 292.5246 292.5246 292.5246 292.8424
   292.8424 292.8424 293.2556 293.3518 293.3518 293.3518 293.3717 293.3717
   293.3717 293.3748 293.3748 293.5523 293.5523 293.5523 293.7638 293.7638
   293.7695 293.7695 293.7695 311.9110 311.9110 311.9110 312.1588 312.1588
   312.6162 313.4822 313.4822 313.4822 317.2341 317.2341 317.2341 317.7345
   319.3416 319.3416 319.3830 321.8298 321.8298 321.8298 324.3761 324.3761
   324.3761 324.8920 324.8920 324.8920 325.2244 325.2244 325.2244 325.6220
   325.6220 327.6083 328.3343 328.3343 328.3343 328.9463 328.9463 328.9463
   330.4359 330.4359 330.6744 331.1513 331.1513 331.1513 332.5624 335.6261
   335.6261 335.6261 335.7194 335.7194 335.7194 335.7267 335.7267 335.7267
   335.8723 335.8723 335.8723 337.6481 337.6481 337.8511 337.8511 337.8511
   338.0145 338.0145 338.0145 338.1802 338.1802 338.1802 338.2036 338.2036
   338.2870 338.2870 338.2870 338.7481 338.7481 338.7524 338.7524 338.7524
   338.8198 342.6077 342.6077 342.6077 343.9855 343.9855 343.9855 344.2952
   344.2952 344.6484 344.8579 344.8579 344.8579 350.5022 350.5022 350.6168
   350.6168 350.6168 352.9657 354.2241 354.2241 354.2241 354.3500 354.3500
   354.3500 354.9235 354.9235 354.9235 355.1228 355.1228 355.1228 355.3020
   355.3020 355.3020 355.6684 355.6684 355.6684 356.3800 356.4063 356.4063
   356.4063 356.4699 356.4699 356.6994 356.6994 356.6994 356.8191 356.8191
   357.7011 365.1623 365.7615 365.7615 365.7615 366.4205 366.4205 366.4205
   366.8568 367.9439 367.9439 367.9439 368.0851 368.0851 368.0851 368.3306
   368.3306 368.3306 368.3699 368.3699 368.6565 370.1038 370.1038 370.1185
   370.1185 370.1185 370.3103 370.3103 370.3103 370.5038 370.5038 370.5038
   370.6739 371.3541 371.3541 371.3584 371.3584 371.3584 371.7094 371.7094
   371.7094 371.9690 371.9690 371.9690 372.2342 376.3549 376.3549 376.3549
   376.4453 376.4453 376.4453 376.4486 376.4486 376.4486 376.4616 376.4616
   376.6635 378.3945 378.3945 378.3945 378.3952 378.4373 378.4373 378.4373
   378.5006 378.5006 378.5006 378.5010 378.5010 390.8492 390.8492 390.9115
   390.9115 390.9115 391.0742 392.2266 392.2266 392.2266 393.2374 393.2374
   393.2374 394.0603 394.0603 394.0603 394.7172 394.7172 394.7172 394.8775
   394.8775 394.8775 395.1942 395.6007 395.6007 395.6973 395.6973 395.8867
   395.8867 395.8867 396.1058 397.7364 397.7364 397.7364 398.7974 398.8250
   398.8250 398.8250 401.3107 401.3107 401.3107 402.2545 402.2545 402.2545
   402.8754 402.8754 402.8754 403.0745 403.8670 403.8670 405.6245 405.6245
   405.6245 405.8589 405.8589 406.7835 406.7835 406.7835 407.1361 407.2274
   407.2274 408.6790 408.6790 408.6791 409.4344 409.4344 409.4344 409.9047
   409.9047 409.9047 410.2050 410.2050 410.2218 410.2218 410.2218 410.5834
   410.5834 410.8204 410.8204 410.8204 411.6064 411.6064 411.6064 412.0385
   412.1480 412.1480 412.1480 412.4490 412.4490 412.4490 412.4991 412.6104
   412.6104 412.6104 412.7460 412.7925 412.7925 412.7925 413.1232 413.1232
   413.1232 413.4363 413.4363 413.4363 413.5741 415.1178 415.1178 415.1178
   415.1293 415.1293 415.5194 415.5194 415.5194 415.6921 415.6921 415.6921
   415.8257 415.8257 415.8257 416.2564 416.2564 418.1182 418.1182 418.3188
   418.3188 418.3188 418.7726 418.7858 418.7858 418.7858 418.9376 418.9376
   418.9376 419.0223 419.0223 419.0223 419.2926 419.2926 419.2926 419.3678
   419.3678 419.5915 419.5915 419.5915 419.7284 427.7226 427.7226 427.7226
   428.0207 428.3041 428.3041 428.3041 428.7129 437.4582 437.4582 437.4981
   437.4981 437.4981 437.6366 437.6366 437.6366 437.7221 437.7221 437.7221
   437.8309 437.8309 437.8309 437.8542 437.8542 443.4487 443.4487 444.0814
   444.2377 444.2377 444.2377 445.6526 445.6526 445.6526 445.9720 445.9720
   446.4948 446.4948 446.4948 446.6643 446.6643 446.6643 446.8320 446.8320
   446.8320 446.8998 446.8998 446.8998 447.3454 452.2220 452.2220 452.2220
   452.2483 452.2483 452.2483 452.2624 452.2624 452.3196 452.3196 452.3196
   452.4147 452.4147 452.4147 452.5119 452.5119 452.5119 452.5300 453.1998
   453.1998 453.2401 453.2401 453.2401 453.3134 466.4737 466.4737 466.4737
   466.7111 467.5319 467.5319 467.5319 468.0517 470.1583 470.1583 470.3532
   470.3532 470.3532 471.1726 471.1726 471.1726 471.4539 471.4539 471.4539
   471.6758 471.6758 471.6758 472.1017 472.1017 474.2376 474.2376 474.2376
   475.3428 475.3428 475.3428 476.0354 476.0640 476.0640 476.0640 476.1451
   476.1451 480.7461 482.3858 482.3858 482.3858 483.2929 483.2929 483.2929
   483.7968 483.7968 483.7968 483.8788 483.8788 484.4466 484.4466 484.4466
   484.8841 485.1051 485.1051 485.1051 485.9468 487.2103 487.2103 487.9644
   487.9644 487.9644 489.0627 489.0627 489.0845 489.0845 489.0845 489.2766
   489.2766 489.2766 489.4323 489.4323 489.4323 489.6071 490.8903 490.8903
   490.8903 491.1299 491.1955 491.1955 491.1955 493.3058 493.3058 493.3973
   493.3973 493.3973 493.4629 493.4629 493.4926 493.4926 493.4926 493.5013
   493.5013 493.5013 493.5786 493.5786 493.5786 494.6763 494.7195 494.7195
   494.7402 494.7402 494.7402 496.6608 496.6826 496.6826 496.6826 496.6919
   496.6919 496.6919 496.7930 496.7930 496.7930 496.8388 496.8388 499.1997
   499.1997 499.1997 499.2316 499.2316 499.2316 499.2512 499.2512 499.2512
   499.2547 499.2547 499.2835 504.9531 504.9531 505.5448 505.5448 505.5448
   505.9553 507.5216 507.5216 507.5216 507.7096 507.7096 507.7096 508.5844
   508.5844 508.6001 508.6001 508.6001 509.5449 511.1414 511.6206 511.6206
   511.6206 511.9232 511.9232 511.9232 512.0506 512.0506 512.0506 512.2461
   512.2461 513.5787 513.5787 513.5787 514.1863 514.1863 514.1863 514.3584
   514.3584 514.3584 515.0711 515.1504 515.1504 516.3202 516.3202 516.3202
   516.8310 516.8310 516.8310 516.8541 516.8541 516.8541 517.1481 517.1481
   517.1481 517.4454 517.4454 517.4584 517.4584 517.4584 517.6018 517.6018
   517.6018 517.7004 517.7004 517.7004 517.7814 519.4993 519.4993 519.5272
   519.5272 519.5272 519.5783 524.3528 524.3528 524.3528 524.7035 524.8063
   524.8063 525.0651 525.0651 525.0651 525.6015 526.4901 526.4901 526.4901
   527.0321 527.0321 527.0321 528.4727 528.4727 528.4727 528.7563 528.7563
   528.7563 529.1817 529.1817 529.6797 529.9493 529.9493 529.9493 530.0131
   530.0131 530.4402 530.4402 530.4402 530.4655 530.4655 530.4655 531.1722
   531.2412 531.2412 531.2412 531.7119 531.7119 531.7119 531.7274 531.7274
   531.9433 531.9433 531.9433 531.9776 531.9776 531.9776 532.1333 532.1333
   532.1333 532.2852 532.2955 532.8547 532.8547 532.8547 532.8751 532.8751

          k = 0.5000-0.5000 0.5000 (  2452 PWs)   bands (ev):

   -96.2797 -57.7722 -57.7719 -57.7719  -3.6305   0.6796   5.4189   5.4189
     8.9675  11.0062  11.0062  14.4387  17.7008  17.7008  17.9500  18.7908
    18.7908  20.2873  26.5968  27.8933  28.0488  28.0488  29.4411  29.4411
    32.5863  32.8073  32.8073  34.6749  34.6749  35.2339  38.0415  39.0437
    39.0437  39.9124  40.4553  40.4553  43.2704  44.0340  47.5233  47.5233
    49.6330  49.6398  49.6398  50.8491  52.6291  52.6291  55.4229  55.4229
    55.6666  59.0107  59.0107  59.0643  60.5290  60.5290  60.5563  62.4919
    62.4919  65.2132  65.2132  65.6500  66.1686  66.1686  68.3956  69.0868
    69.4705  69.4705  70.6515  71.2121  72.2951  72.2951  73.4821  74.1061
    74.1061  74.2881  76.7996  77.8577  77.8577  78.3173  78.3821  78.3821
    80.2292  80.2292  83.4801  83.5501  83.5501  87.5383  88.3043  88.3043
    89.7581  91.2296  91.2296  91.3176  92.0974  92.0974  92.5317  95.5429
    95.5429  95.9432  96.7053  96.7053  97.6930  98.1771  98.8123  98.9961
    98.9961 100.1744 100.1744 100.3043 100.3109 101.7289 102.6586 102.6586
   105.2416 105.2416 107.3307 108.3755 108.3755 108.7459 109.7861 109.7861
   109.9711 110.9142 111.0794 111.0794 111.3931 111.3931 111.4182 112.1120
   113.2095 113.2095 113.7824 113.7824 114.3310 118.7093 118.7093 119.1248
   119.9662 119.9662 121.2795 121.5927 122.3190 122.3190 122.5587 122.5587
   126.2745 126.2745 126.4586 128.0290 128.0290 128.8763 128.8763 129.4819
   129.9833 131.3556 131.3793 133.1188 133.1188 133.7369 133.7369 134.3000
   134.3000 134.4867 134.8025 134.8025 136.0722 136.0722 137.0154 137.8258
   138.8031 139.5981 139.5981 142.3784 143.7503 143.7503 144.6959 145.2827
   146.6445 146.6445 147.2300 147.2300 147.8593 148.4739 148.4739 148.6933
   149.4835 151.3919 152.2192 152.2192 153.4924 153.4924 153.7301 153.7301
   154.2189 155.1371 156.2652 156.2652 157.8210 157.8441 158.2467 158.2467
   158.2916 158.2916 159.1126 159.1126 160.2864 160.2864 160.4936 160.8214
   160.9886 160.9886 163.4823 164.1547 164.1547 164.4317 164.4317 164.8407
   164.9399 165.7542 167.5997 167.5997 167.9720 167.9720 168.2189 169.4575
   169.4575 170.7168 170.7168 171.1877 171.6965 171.6965 172.0861 174.6345
   175.6111 175.6111 175.7428 177.2584 178.4837 178.4837 179.1913 179.5992
   179.9143 179.9143 180.4402 180.5359 180.5359 181.6220 181.6513 181.6513
   182.6497 182.6497 183.7062 183.7062 183.9362 184.0766 185.0630 185.8956
   185.8956 187.9322 188.7203 188.7203 189.1555 190.8830 191.7506 191.7506
   192.0481 192.0481 192.3709 192.5685 192.5685 192.8164 192.8164 192.9136
   193.1825 195.7233 195.7233 198.0558 198.5852 198.5852 201.2767 201.2767
   202.7313 203.6719 203.6719 203.7956 205.1767 205.1767 205.9700 205.9700
   206.7536 207.4116 207.8482 207.8483 207.9231 208.3498 208.3498 209.1294
   209.5289 209.5976 209.6196 210.3337 210.3337 211.0262 211.3941 211.3941
   213.3480 213.3480 213.3912 213.3912 215.0866 215.0866 215.1272 215.1272
   215.1993 215.3876 216.0792 216.0792 216.5954 216.8505 216.8505 217.1364
   219.5706 219.5706 219.6096 219.6096 219.7896 220.2887 220.6228 220.6228
   220.6547 220.7254 220.7254 221.7077 221.7167 222.8307 224.0702 224.0702
   225.9222 226.4720 226.4720 227.2674 229.6953 229.6953 230.2145 230.2145
   230.7472 231.2185 231.2185 231.4021 231.4021 231.4553 233.9872 233.9872
   234.0453 234.6362 234.6362 235.1712 235.1712 235.5189 236.1726 236.2140
   236.2140 236.2432 237.0268 237.9256 237.9256 238.5507 238.5507 239.2613
   241.0611 241.0611 241.2394 241.2394 241.3513 241.5292 241.7143 241.7143
   242.4532 244.8457 244.9915 244.9915 246.3287 246.3287 246.6260 246.8452
   247.2181 247.2181 248.3197 248.3197 248.8762 248.8762 249.2606 249.6509
   252.9289 253.3817 253.3817 253.7120 254.0270 254.1978 254.1978 254.6346
   256.2982 256.7196 256.7196 257.7019 257.7019 258.3897 259.0929 259.4762
   259.4762 259.6543 259.6543 259.9937 262.4982 262.4982 262.6901 262.6901
   263.6628 265.2480 265.2480 265.6956 266.4914 266.4914 267.0658 267.5760
   267.5760 268.2504 268.8009 268.8816 268.8816 269.0072 269.7265 269.7265
   270.1298 270.1298 270.1851 270.4963 272.6723 272.6723 272.7371 272.7371
   274.8283 275.0794 275.0794 276.3936 276.3936 276.7048 277.0603 277.0995
   277.0995 277.7526 277.7526 278.1334 278.3145 278.3145 278.9897 278.9897
   279.2299 279.2681 280.3186 281.8692 281.8692 282.2109 283.0056 283.0241
   283.0241 283.2562 283.2562 283.8030 283.8030 283.8597 284.3030 285.9493
   285.9493 286.4571 286.4571 286.7410 288.1728 288.1728 288.9448 288.9448
   289.9504 290.0832 291.4641 292.7087 292.7087 293.0812 293.0812 293.3538
   293.6950 294.0578 294.8256 294.8256 294.9759 294.9759 295.4155 295.8264
   297.5855 297.5855 297.7120 297.7120 298.5371 298.6652 299.2645 299.2645
   299.4296 299.4296 299.7198 300.0396 301.7115 301.7115 302.7617 302.7617
   302.9263 303.5435 305.5389 305.7519 305.7519 305.9638 305.9638 306.1211
   309.1983 309.1983 309.2658 309.2658 309.4179 309.6222 310.6282 310.7427
   310.7427 311.0962 311.0962 311.1520 311.3903 311.3903 311.4742 311.4742
   311.5349 311.6435 312.0331 312.6556 313.0435 313.0435 313.2016 313.2016
   313.6183 313.9457 313.9457 313.9915 313.9915 314.3298 315.6995 315.6995
   316.1433 316.1433 316.8823 317.4699 317.6966 317.6966 318.2309 318.2309
   318.4157 318.4157 320.0884 320.0884 320.1903 320.1903 320.4958 320.5730
   323.9389 324.2341 324.2341 324.3303 324.5871 324.5871 324.6734 325.1171
   328.7759 328.7759 329.0454 329.0454 329.0514 329.4631 331.1821 331.1821
   331.2832 331.2832 335.3393 335.3393 336.5215 336.7158 336.7158 337.4552
   337.7130 337.9259 337.9259 338.2688 338.2688 338.3385 338.3385 338.5294
   338.5946 338.5946 339.1403 339.1757 340.1566 340.1566 340.1918 340.1918
   341.1433 341.8549 341.8702 342.4622 343.0900 343.0900 344.0089 344.0089
   344.0622 345.3401 345.5899 345.5899 345.7169 345.8237 345.8237 346.4014
   346.4014 347.5103 347.5103 348.2376 351.2009 351.2009 351.3251 351.3251
   351.5265 351.8131 352.5138 352.5138 352.8098 352.8142 352.8142 352.9831
   353.2150 354.7151 356.2381 356.3975 356.3975 356.7809 356.7809 357.1273
   358.4746 358.5374 358.5374 359.6892 359.6892 360.3734 361.0004 361.0004
   361.5044 361.5044 361.5346 361.5346 361.9038 361.9038 362.5475 363.4585
   363.7055 363.9842 365.3156 365.3156 365.5986 365.5986 366.3382 366.3596
   366.3596 366.5425 366.5665 366.5665 368.8363 368.9699 368.9699 369.1371
   369.1371 369.4139 369.4139 369.4298 369.7258 369.7258 369.8950 370.5230
   371.1648 371.2322 371.2404 371.2404 371.3096 371.3096 373.0583 373.0583
   373.1898 373.1898 373.3025 373.4835 375.2329 375.2828 375.2828 375.4696
   375.4696 375.8331 378.8091 379.0497 379.0497 379.5461 379.5461 379.9110
   380.5981 380.8998 380.8998 381.2534 381.2534 381.3818 382.4300 383.2370
   383.3406 383.3406 383.7398 383.7398 384.0216 384.1214 384.1939 384.1939
   384.3152 384.3152 385.0135 385.1560 385.1560 385.2031 385.2065 385.2065
   388.9083 388.9083 389.1870 389.3511 389.3511 389.7764 391.0060 391.0060
   391.0489 391.0489 391.1167 391.2491 391.2561 391.4050 391.7384 391.7384
   391.7705 392.1063 392.1063 392.3810 394.5579 394.5579 394.6757 394.6757
   395.1618 396.5985 396.6055 396.6055 396.7246 396.7246 397.4196 397.4707
   397.8243 397.8243 397.9311 397.9311 398.4708 398.4708 398.4899 398.4899
   398.5209 398.5504 400.8808 401.4069 401.7923 401.7923 401.9180 401.9180
   401.9322 402.5036 408.0514 408.0514 408.2819 408.2819 409.2488 409.7140
   409.7646 409.7646 409.8660 409.8660 409.8948 410.0624 411.6963 411.6963
   411.7085 411.7086 414.4155 414.4155 414.9141 415.1319 415.1319 415.4458
   416.1964 416.5147 416.5147 416.6577 416.6577 417.6168 417.6168 417.8851
   417.9704 417.9704 418.4557 418.5654 418.6051 418.6453 418.6453 418.8154
   418.8154 419.1083 419.1174 419.1174 419.3222 419.3222 419.3857 419.5449
   421.5594 421.5798 421.5798 421.7069 421.7069 421.8079 425.1431 425.1431
   425.4364 425.4622 425.4622 425.7785 429.7331 429.7331 429.7542 429.7542
   429.8105 429.8518 431.0348 431.0348 431.1217 431.1757 431.1757 431.4006
   431.7705 432.1031 432.1031 432.2429 432.2429 432.3569 433.0361 433.8551
   434.0545 434.0545 434.1428 434.1428 434.8133 434.8133 434.9520 434.9968
   434.9968 435.1958 435.3016 435.3836 435.4026 435.4026 435.5172 435.5172
   439.6120 439.6120 439.6397 439.6397 440.2642 440.2748 442.3313 443.2902
   444.7185 444.7185 444.8681 445.5014 445.5014 445.7024 446.7805 446.7805
   447.2485 447.2485 448.0948 448.3980 448.4974 448.7178 448.8612 448.8612
   448.9193 448.9193 449.8759 449.8759 449.9439 449.9439 450.6365 451.1822
   451.2230 451.2230 451.5849 451.5849 451.7495 451.9990 453.4741 453.4741
   453.5603 453.5603 454.1632 454.5602 455.5403 455.5403 455.6761 455.9562
   455.9562 456.3644 457.8694 457.8836 458.5767 458.5767 458.5841 458.5841
   458.8808 459.1856 459.1856 459.2341 459.2341 459.4427 460.2175 460.2175
   460.2351 460.2351 460.6312 460.6529 461.6343 461.6596 461.6596 461.7146
   461.7146 461.7411 461.7411 461.7459 461.8136 461.8136 461.8634 461.9150
   466.9553 466.9553 467.0422 467.1923 467.1923 467.3508 468.8202 469.1433
   469.1433 469.3468 469.3468 469.5923 469.5923 469.9581 469.9581 470.0442
   470.2246 470.3159 470.3246 470.3617 470.9256 470.9256 470.9447 470.9447
   474.0488 474.7060 475.0396 475.0396 475.1402 475.2844 475.2844 475.9095
   477.0910 477.0910 477.1192 477.1327 477.1327 477.2838 479.3589 479.3589
   479.3805 479.3805 479.4498 479.5497 479.5497 479.5897 479.5897 479.7249
   480.6442 480.9165 480.9165 481.3400 481.3400 481.4859 481.7410 482.1790
   482.1790 482.7913 482.7913 483.1307 484.6417 484.9369 484.9369 485.4905
   485.4905 485.7474 486.6497 487.0262 487.0262 487.0341 487.0341 487.2952
   487.4433 487.4433 487.7140 487.7140 487.7326 488.1392 488.4020 488.4555
   488.5700 488.5700 488.6391 488.6391 489.2889 489.2976 491.3570 491.3570
   491.4028 491.4028 494.5106 494.5106 494.5114 494.5114 495.4630 495.4634
   496.2923 496.2923 496.3322 496.3342 496.3805 496.3805 499.0980 499.0980
   499.1251 499.2097 499.2097 499.2479 503.3526 503.3526 503.5943 504.2595
   504.3617 504.3617 506.8619 506.8619 507.0676 507.4748 507.4748 507.8364
   507.8780 508.0513 508.0513 508.2688 508.2688 508.3689 508.7369 508.8277
   508.8656 508.8656 508.9467 508.9467 509.1032 509.1032 509.2680 509.5991
   509.5991 509.7154 510.7613 510.9350 510.9350 510.9971 511.2390 511.2390
   511.2780 511.4996 513.4621 513.4621 513.5613 513.8509 513.8509 513.9328
   513.9328 514.0635 514.1480 514.4215 514.4215 514.7479 514.7479 514.7493
   515.1218 515.2292 515.2292 515.3580 515.4290 515.4290 515.6906 515.6906
   515.8811 516.2090 516.6001 516.6443 516.6443 516.6961 516.8643 516.8643
   521.3348 521.3348 521.3808 521.3808 521.7689 521.7844 521.9236 521.9236
   521.9351 521.9351 522.5068 522.5256 522.5256 522.5778 522.5778 522.6403
   522.8946 523.0235 523.0235 523.1936 523.1936 523.2532 526.2142 526.2142
   526.2793 526.6782 526.6782 526.8907 531.8411 531.8411 531.8582 531.8753
   531.8753 531.8768 535.7241 535.7241 535.8233 536.0021 536.0021 536.0342
   536.0342 536.0369 536.0875 536.2029 536.2807 536.2807 538.6218 538.7574
   538.7574 539.1928 539.1928 539.2585 539.2585 539.2869 539.2869 539.3741
   539.4617 539.5325 545.3929 545.4412 545.4412 546.1239 546.3762 546.3762

          k = 0.0000-1.0000 0.0000 (  2450 PWs)   bands (ev):

   -96.2797 -57.7722 -57.7720 -57.7720  -2.9748   0.8920   4.0872   4.0872
     7.7783   8.6644  17.1905  17.1905  18.1412  18.2532  18.2532  18.9916
    20.6579  21.2814  24.8102  26.7519  26.7898  26.7898  27.5165  27.5165
    28.4200  29.5974  31.6397  33.7073  36.1511  36.1511  40.6524  41.0977
    41.2333  41.2333  41.3575  44.0471  44.1116  46.0925  46.0925  46.2416
    47.8183  47.8183  48.5807  48.5835  51.3027  51.3027  55.7981  55.7981
    56.5695  57.3973  59.0405  60.0161  62.0843  63.0476  63.0476  63.6744
    64.0083  64.4044  65.1838  65.1838  66.6596  66.6596  67.6168  67.7554
    68.4485  68.4485  69.2219  70.5036  74.5128  75.2548  75.2548  76.1138
    76.7381  77.2665  77.7265  78.8908  78.8908  79.5514  81.5209  81.5209
    82.1578  82.1847  82.1847  82.7954  83.8153  84.2724  84.5783  84.5783
    85.1052  86.5448  87.6687  87.6687  88.1424  88.1424  88.3471  89.4097
    94.9715  94.9715  95.0594  96.6848  96.9057  97.5054  98.2817  98.2817
    98.9595 100.0942 100.0942 100.7953 100.9751 100.9751 101.5970 103.2152
   104.2185 104.8360 105.6045 106.5665 106.5665 107.8201 107.8201 108.9782
   110.2984 111.3480 111.3480 111.8515 113.0168 113.2552 113.2552 117.1271
   119.4730 119.9171 120.1743 120.1743 120.5412 121.5442 121.7135 122.0734
   122.6722 122.6722 123.6862 124.7503 125.3601 125.3601 125.3742 125.5177
   125.9607 126.9023 126.9023 127.4375 127.4375 128.3551 128.4199 128.8127
   128.8127 129.1165 131.3127 132.8952 133.6743 133.6743 134.4944 135.8365
   136.3026 137.1238 137.1238 138.1950 138.2089 138.8758 138.8758 139.1247
   139.1247 139.7234 139.9931 141.5506 141.5506 142.0450 142.0450 143.4022
   143.5049 143.5154 144.7544 145.0204 145.4019 145.4276 146.3663 146.3663
   146.5017 146.8344 146.8344 147.3842 147.3842 147.4265 147.7470 149.6061
   149.6648 149.6648 150.2427 152.3205 153.4073 154.5530 154.5530 154.9745
   154.9745 155.0488 156.2482 156.3641 156.3641 158.9942 160.6943 161.5053
   161.5053 163.6126 163.6588 164.1523 164.9706 164.9706 165.1980 165.6962
   165.6962 166.3804 167.8942 168.3041 168.3041 168.3283 170.0276 170.0276
   171.1303 172.3835 172.3994 173.9912 175.4458 176.2692 177.9894 177.9894
   178.6517 178.6517 179.0385 179.5032 180.0573 180.6735 180.6735 180.9455
   180.9580 182.4063 182.4063 182.8442 183.0743 183.3525 184.2197 184.2197
   185.0516 185.3580 186.1290 186.1290 186.2155 186.2155 187.5040 187.8975
   187.8975 189.9511 190.3640 190.3640 190.7268 190.9625 191.6629 191.6630
   191.7428 194.2850 194.3349 194.6618 194.6618 196.3241 197.6970 198.2005
   198.4537 198.4537 198.8209 198.8209 199.3022 199.5435 199.5757 199.7270
   199.7801 199.7801 200.0025 200.1837 200.5886 200.5886 200.6181 201.3914
   201.9367 201.9367 202.3763 202.3763 202.6822 202.6978 206.6121 206.6532
   206.8120 206.8120 206.8405 206.8405 206.9083 206.9700 209.3728 211.6913
   212.0059 212.0059 212.3864 212.3864 213.4996 213.5235 215.6517 217.0946
   217.0946 218.6876 219.0822 219.0822 219.1166 219.2278 219.2646 219.9206
   220.3561 220.4613 220.4613 221.3737 221.4025 221.4025 222.1097 222.2272
   222.4851 222.4851 222.7118 222.7867 222.9127 222.9127 226.0806 226.0806
   227.6463 227.7990 227.8015 227.9812 227.9812 228.2095 228.2095 228.3563
   228.6008 228.6531 229.4323 229.4323 230.8727 230.9583 231.9927 232.4554
   234.0374 234.1086 234.1086 235.0132 235.0132 235.9650 235.9650 236.0961
   237.8026 237.8721 238.2974 238.4762 240.8418 241.7580 241.7580 242.0553
   242.2662 242.4398 242.4398 242.6012 242.7055 242.7055 243.1722 243.2124
   243.9867 244.0415 244.3817 244.3817 247.7824 247.8901 247.8901 247.9262
   247.9712 248.1188 248.1188 248.2275 248.2568 248.9724 249.3499 249.3499
   249.8289 250.1040 256.5795 256.5795 257.4640 257.4640 257.5373 257.6806
   257.7677 257.7677 257.8307 257.8872 258.3036 258.3036 258.4890 259.5492
   260.3562 260.3562 261.0300 261.2754 261.4517 261.5030 261.5030 262.0387
   262.5632 262.5793 262.5793 262.7093 262.7093 262.8247 263.1537 263.4315
   263.4613 263.4613 263.5770 263.9173 264.3669 264.4018 264.4018 264.5800
   264.9310 265.5982 265.5982 265.8634 266.4524 266.6269 266.6269 266.7207
   267.7432 267.8458 267.8458 267.8967 270.9010 272.5907 273.9261 273.9261
   274.5349 274.5349 275.3718 276.3064 278.3644 278.4384 279.6745 279.6745
   279.9387 279.9387 282.0805 282.1161 283.6836 283.6836 284.0093 284.0828
   284.3329 284.3782 284.3782 284.8633 286.9056 286.9056 287.5713 287.5713
   287.6801 287.7905 287.8316 287.8412 288.7200 288.7200 289.4450 290.7192
   291.3425 291.3425 292.2292 292.2974 293.1114 293.3738 294.5333 294.5333
   295.9009 295.9009 295.9862 297.6043 297.7452 297.9360 299.3007 299.3007
   300.0412 300.0412 301.0384 301.0550 302.0605 302.0605 302.1408 302.8968
   305.0471 305.0471 305.2180 305.2376 305.5877 305.5930 305.7534 305.7534
   306.1525 306.6174 306.6343 306.6343 306.8905 306.8905 306.9882 307.0953
   307.6401 307.6401 307.6808 307.7222 311.8883 312.7237 313.2436 313.2436
   313.5170 313.6223 313.6223 314.2087 314.5246 314.9404 315.1137 315.6904
   315.6904 316.1046 316.4160 316.4160 318.0639 318.1908 318.1908 318.2643
   318.3065 318.3547 318.5182 318.7942 318.7942 318.8070 319.3428 319.7402
   320.8778 320.8778 321.0323 321.0323 321.4848 321.4890 321.4890 321.6989
   321.7885 321.8235 322.1067 322.2366 322.2366 322.4465 324.1276 324.2001
   325.0632 325.2517 325.7073 325.7073 325.9131 325.9131 326.4529 326.4854
   326.4854 326.5640 326.5640 326.5822 327.7202 327.7765 327.8166 327.8763
   327.8763 327.9035 327.9150 327.9150 331.5541 331.9800 332.4206 332.4206
   332.4688 332.4688 334.2381 334.2996 336.0374 336.1135 336.1135 336.5763
   336.5763 336.6040 337.4396 337.6755 338.2839 338.8787 338.8787 339.3734
   339.4511 339.8456 339.8815 340.3589 340.3589 340.4773 340.4773 340.4857
   340.4857 340.8747 341.3988 341.4063 342.6326 342.8910 342.9303 342.9303
   342.9390 343.0842 343.0842 343.6228 346.3168 346.3168 346.4301 346.6156
   348.1148 348.1470 348.2173 348.2173 348.2264 348.2264 348.3338 348.3500
   350.8075 350.8075 351.5384 352.5391 357.3051 357.3051 357.5991 357.6249
   357.7052 358.1971 358.2439 358.2439 358.7167 359.1661 359.6602 359.7559
   359.7559 360.5890 360.7685 360.7963 361.0185 361.1473 361.1473 361.8596
   361.8596 361.8622 361.9237 361.9237 362.6080 362.8599 362.9280 362.9280
   363.2455 363.2455 363.3330 363.4684 365.8535 365.8571 365.8571 365.9043
   367.2431 367.2431 367.2460 367.2476 367.2605 367.2605 368.0588 368.0624
   368.4062 368.4062 368.4474 368.6633 371.4954 372.1170 372.1170 372.2384
   372.7645 372.7645 373.5283 374.2681 376.2112 376.5365 376.5365 376.6017
   376.8228 377.2280 377.2280 377.4686 378.6138 378.6138 379.3935 379.4453
   380.0179 380.1619 380.4312 380.4312 381.8026 381.9525 381.9525 381.9985
   382.6746 382.6974 382.6974 382.7317 382.9567 382.9567 382.9583 383.0261
   383.1326 383.1351 383.1408 383.1408 385.1956 385.2069 385.2069 385.2314
   387.3176 387.3274 387.3274 387.3402 392.0640 393.4289 393.8053 393.9607
   393.9607 394.1552 394.1552 394.6495 396.2179 396.4372 396.4372 397.2002
   397.5771 397.5915 398.1094 398.1094 398.2389 398.7493 399.0388 399.1365
   399.1365 399.5984 400.1910 400.2898 400.2898 400.7681 401.0498 401.3130
   401.3130 401.4875 402.4495 402.5091 402.5091 402.6455 403.4439 403.7169
   403.7169 403.7343 403.8899 403.8899 404.0205 404.2902 404.2902 404.9137
   404.9419 404.9419 404.9718 405.0498 405.1553 405.3910 407.7669 408.3177
   409.0099 409.0099 409.5765 409.5765 409.8664 410.3832 411.3073 412.2239
   414.7080 414.7080 415.4401 415.5359 415.8579 415.8579 415.8862 418.0618
   420.7616 420.7616 420.7717 420.7717 420.7993 421.1638 421.1638 421.2674
   421.3944 421.7050 421.7388 421.7388 422.1061 422.1652 422.1652 422.4042
   422.5827 422.9853 422.9853 423.1437 424.0507 424.1243 424.7736 424.7877
   424.7877 424.8644 425.8173 425.8753 425.8907 425.8907 427.0575 427.0776
   427.1609 427.1609 427.2060 427.2060 427.2070 427.2529 432.7765 432.7939
   433.2341 433.2341 433.4148 433.6552 433.7540 433.7540 434.2310 434.3340
   435.2452 435.3744 435.3744 435.3815 435.3956 435.4529 435.4529 435.5794
   435.7660 436.2266 436.2266 436.3403 436.3403 436.4315 437.1998 437.3449
   438.0015 438.0424 438.2100 438.2100 438.2434 438.2434 438.6457 438.6457
   438.6847 438.6907 438.8877 438.8877 441.5217 441.7018 441.7157 441.7157
   441.7361 441.8601 441.8855 441.9513 441.9682 441.9682 443.3079 443.5209
   443.5209 443.6018 444.1577 444.1766 444.1766 444.4786 445.5378 445.5799
   445.5907 445.5907 445.6481 445.6534 445.6534 445.7211 446.3304 446.3534
   446.5917 446.5917 446.6061 446.6061 446.6885 446.8963 447.7352 447.7596
   447.8253 447.8253 447.8720 447.8720 447.8849 447.9470 448.6490 448.6570
   448.6570 448.7028 448.8630 448.8776 448.8776 448.9127 455.3843 455.3843
   455.4866 455.5304 455.5322 455.9025 455.9025 456.1321 458.3494 458.3677
   458.5227 458.5227 458.5608 458.5608 458.6662 458.7557 460.7652 460.9446
   460.9446 461.6400 462.0386 462.1642 462.2585 462.2585 463.4426 463.8786
   463.8786 464.0890 465.3661 465.3661 465.3897 465.3996 465.4053 465.4928
   465.4928 465.9859 466.9453 466.9618 466.9618 467.0159 467.3682 467.4186
   467.4186 467.4495 467.7693 467.7901 467.7901 467.8128 474.3873 474.7738
   474.9232 475.0483 475.0483 475.9279 475.9279 476.0637 476.2364 476.2900
   476.2900 476.8604 477.4570 478.1161 478.1161 478.3130 479.1524 479.3221
   479.3221 479.4973 480.4657 480.4680 481.2025 481.2025 481.2262 481.2262
   481.9270 481.9346 483.7292 483.8670 484.3284 484.3284 484.4121 484.4822
   484.4822 484.8281 484.9912 484.9912 485.3863 485.6056 485.7747 485.7971
   485.8170 485.8196 485.8196 486.2084 486.2084 486.3744 486.4989 486.5072
   486.8057 486.8057 486.8341 486.8341 487.0800 487.0801 489.9497 491.8392
   494.1829 494.1829 494.2901 494.2901 495.5807 496.4194 496.5907 497.1375
   497.5527 497.5527 498.0111 498.0388 498.1838 498.1838 498.3450 498.3586
   498.8165 498.8898 498.8898 499.6430 499.6622 499.6622 499.8882 499.8882
   500.3381 500.6049 500.6390 500.6390 500.8272 501.1234 501.1956 501.2362
   501.6912 501.7128 502.0081 502.0785 502.0785 502.1736 502.3816 502.3816
   502.4190 502.4197 502.4240 502.4240 503.5310 503.5364 503.9626 503.9626
   503.9804 503.9804 504.0276 504.0671 504.3987 504.4035 505.7753 505.8321
   505.8321 506.0110 508.0696 508.0696 508.0731 508.0731 508.3691 508.4574
   508.4884 508.4884 512.8601 512.8601 512.9494 513.0021 513.2694 514.0760
   514.0796 514.0796 514.5447 514.6926 514.8285 514.9344 514.9344 514.9803
   514.9803 515.3811 518.2927 518.6328 518.6328 518.8032 519.0654 519.0654
   519.0920 519.2740 520.3439 520.4504 520.4504 520.5330 521.3324 521.4437
   521.4437 521.5512 524.5623 524.6942 524.6942 525.1422 525.7749 525.8075
   525.8328 525.9181 525.9181 526.1602 526.1602 526.3749 526.6320 526.6320
   526.6571 526.7241 526.8051 526.8125 527.0066 527.0066 527.2260 527.2260
   527.2638 527.3381 533.3586 533.4825 533.4825 533.6753 534.6799 534.9293
   535.0249 535.0249 536.9730 538.0964 538.1106 538.1106 539.0063 539.0063
   539.0102 539.0712 539.3995 539.4302 539.4302 539.9589 540.1279 540.2992
   540.3286 540.4554 540.4554 540.5251 540.6229 540.6229 540.7532 540.7730
   540.8276 540.8746 540.8746 541.0710 541.2692 541.4853 541.8243 541.8243

     the Fermi energy is     6.6032 ev
     (compare with:     7.1194 eV, computed in scf)

     Writing all to output data dir out/mp-1550.save/
 
     init_run     :      0.04s CPU      0.05s WALL (       1 calls)
     electrons    :    215.26s CPU    231.53s WALL (       1 calls)

     Called by init_run:
     wfcinit      :      0.00s CPU      0.00s WALL (       1 calls)
     potinit      :      0.01s CPU      0.01s WALL (       1 calls)
     hinit0       :      0.01s CPU      0.01s WALL (       1 calls)

     Called by electrons:
     c_bands      :    215.26s CPU    231.53s WALL (       1 calls)
     v_of_rho     :      0.01s CPU      0.01s WALL (       1 calls)

     Called by c_bands:
     init_us_2    :      0.00s CPU      0.00s WALL (       3 calls)
     init_us_2:cp :      0.00s CPU      0.00s WALL (       3 calls)
     paro_k       :    208.35s CPU    224.13s WALL (       3 calls)

     Called by paro_*:
     h_psi        :      3.99s CPU      4.23s WALL (     329 calls)
     g_psi        :      0.08s CPU      0.10s WALL (   31318 calls)

     Called by h_psi:
     h_psi:calbec :      0.06s CPU      0.07s WALL (     329 calls)
     vloc_psi     :      3.87s CPU      4.09s WALL (     329 calls)
     add_vuspsi   :      0.04s CPU      0.04s WALL (     329 calls)

     General routines
     calbec       :      0.06s CPU      0.06s WALL (     329 calls)
     fft          :      0.00s CPU      0.01s WALL (      10 calls)
     fftw         :      3.42s CPU      3.62s WALL (   51400 calls)
 
     Parallel routines
 
     PWSCF        :   3m35.69s CPU   3m52.12s WALL

 
   This run was terminated on:  22:28:17  14Nov2023            

=------------------------------------------------------------------------------=
   JOB DONE.
=------------------------------------------------------------------------------=
