
     Program PWSCF v.7.1 starts on 17Apr2024 at 10:55: 5 

     This program is part of the open-source Quantum ESPRESSO suite
     for quantum simulation of materials; please cite
         "P. Giannozzi et al., J. Phys.:Condens. Matter 21 395502 (2009);
         "P. Giannozzi et al., J. Phys.:Condens. Matter 29 465901 (2017);
         "P. Giannozzi et al., J. Chem. Phys. 152 154105 (2020);
          URL http://www.quantum-espresso.org", 
     in publications or presentations arising from this work. More details at
     http://www.quantum-espresso.org/quote

     Parallel version (MPI), running on    32 processors

     MPI processes distributed on     1 nodes
     122319 MiB available memory on the printing compute node when the environment starts
 
     Reading input from pw_SnS2_nscf_k165_E41.in
Warning: card &IONS ignored
Warning: card / ignored
Warning: card &CELL ignored
Warning: card / ignored

     Current dimensions of program PWSCF are:
     Max number of different atomic species (ntypx) = 10
     Max number of k-points (npk) =  40000
     Max angular momentum in pseudopotentials (lmaxx) =  4

     Atomic positions and unit cell read from directory:
     out/SnS2.save/
     Atomic positions from file used, from input discarded
 
 
     R & G space division:  proc/nbgrp/npool/nimage =      32
     Subspace diagonalization in iterative solution of the eigenvalue problem:
     one sub-group per band group will be used
     scalapack distributed-memory algorithm (size of sub-group:  5*  5 procs)

 
     Parallelization info
     --------------------
     sticks:   dense  smooth     PW     G-vecs:    dense   smooth      PW
     Min          17      17      5                 2001     2001     313
     Max          18      18      6                 2022     2022     335
     Sum         547     547    163                64179    64179   10435
 
     Using Slab Decomposition
 


     bravais-lattice index     =            4
     lattice parameter (alat)  =       6.9420  a.u.
     unit-cell volume          =    1811.2082 (a.u.)^3
     number of atoms/cell      =            3
     number of atomic types    =            2
     number of electrons       =        26.00
     number of Kohn-Sham states=         1200
     kinetic-energy cutoff     =      41.0000  Ry
     charge density cutoff     =     164.0000  Ry
     Exchange-correlation= PBE
                           (   1   4   3   4   0   0   0)

     celldm(1)=   6.941954  celldm(2)=   0.000000  celldm(3)=   6.251619
     celldm(4)=   0.000000  celldm(5)=   0.000000  celldm(6)=   0.000000

     crystal axes: (cart. coord. in units of alat)
               a(1) = (   1.000000   0.000000   0.000000 )  
               a(2) = (  -0.500000   0.866025   0.000000 )  
               a(3) = (   0.000000   0.000000   6.251619 )  

     reciprocal axes: (cart. coord. in units 2 pi/alat)
               b(1) = (  1.000000  0.577350  0.000000 )  
               b(2) = (  0.000000  1.154701  0.000000 )  
               b(3) = (  0.000000  0.000000  0.159959 )  


     PseudoPot. # 1 for S  read from file:
     /usr/scratch4/magr4985/FGWC/FGWC/pseudo/SG15/S.upf
     MD5 check sum: f9d020296ee6110346977bfd66d424f6
     Pseudo is Norm-conserving, Zval =  6.0
     Generated using ONCVPSP code by D. R. Hamann
     Using radial grid of  602 points,  4 beta functions with: 
                l(1) =   0
                l(2) =   0
                l(3) =   1
                l(4) =   1

     PseudoPot. # 2 for Sn read from file:
     /usr/scratch4/magr4985/FGWC/FGWC/pseudo/SG15/Sn.upf
     MD5 check sum: 6680f7ee4d83b53e0fcd4167fcb72813
     Pseudo is Norm-conserving, Zval = 14.0
     Generated using ONCVPSP code by D. R. Hamann
     Using radial grid of  602 points,  6 beta functions with: 
                l(1) =   0
                l(2) =   0
                l(3) =   1
                l(4) =   1
                l(5) =   2
                l(6) =   2

     atomic species   valence    mass     pseudopotential
        S              6.00    32.06500     S ( 1.00)
        Sn            14.00   118.71000     Sn( 1.00)

     12 Sym. Ops., with inversion, found



   Cartesian axes

     site n.     atom                  positions (alat units)
         1           Sn  tau(   1) = (   0.0000000   0.0000000   3.1258098  )
         2           S   tau(   2) = (   0.5000000   0.2886752   2.7172909  )
         3           S   tau(   3) = (   0.0000000   0.5773502   3.5343286  )

     number of k points=    10  Gaussian smearing, width (Ry)=  0.0005
                       cart. coord. in units 2pi/alat
        k(    1) = (   0.0000000   0.0000000   0.0000000), wk =   0.0312500
        k(    2) = (   0.0000000   0.1443376   0.0000000), wk =   0.1875000
        k(    3) = (   0.0000000   0.2886751   0.0000000), wk =   0.1875000
        k(    4) = (   0.0000000   0.4330127   0.0000000), wk =   0.1875000
        k(    5) = (   0.0000000  -0.5773503   0.0000000), wk =   0.0937500
        k(    6) = (   0.1250000   0.2165064   0.0000000), wk =   0.1875000
        k(    7) = (   0.1250000   0.3608439   0.0000000), wk =   0.3750000
        k(    8) = (   0.1250000   0.5051815   0.0000000), wk =   0.3750000
        k(    9) = (   0.2500000   0.4330127   0.0000000), wk =   0.1875000
        k(   10) = (   0.2500000   0.5773503   0.0000000), wk =   0.1875000

     Dense  grid:    64179 G-vectors     FFT dimensions: (  30,  30, 180)

     Estimated max dynamical RAM per process >      95.37 MB

     Estimated total dynamical RAM >       2.98 GB

     The potential is recalculated from file :
     out/SnS2.save/charge-density

     Starting wfcs are random

     Band Structure Calculation
     Davidson diagonalization with overlap

     ethr =  5.00E-06,  avg # of iterations = 14.2

     total cpu time spent up to now is      238.5 secs

     End of band structure calculation

          k = 0.0000 0.0000 0.0000 (  7991 PWs)   bands (ev):

   -24.0960 -24.0960 -24.0466 -24.0271 -24.0271 -16.5684 -14.8954  -8.2025
    -4.1160  -3.6635  -3.6635  -3.3155  -3.3155  -0.8869   0.6572   2.2498
     2.2498   3.1560   3.1778   3.8098   4.4693   5.2490   6.1982   6.2793
     6.2793   6.3551   7.4548   8.5673   8.9330   8.9330   9.1527   9.2391
     9.8002   9.8002  11.0803  11.3888  13.2732  13.3767  13.3767  14.2246
    15.8928  15.9848  15.9848  16.3921  17.3154  17.5482  17.5482  17.7449
    17.7624  17.7624  18.2119  18.2654  18.2654  18.2924  18.5341  18.5341
    18.6014  18.6014  18.6635  18.6934  18.6934  18.6949  18.9019  19.0376
    19.4905  19.4905  19.6956  19.7092  19.7092  19.8031  19.9837  19.9837
    20.0505  20.0505  20.2280  20.5902  21.1518  21.4574  21.4851  21.4851
    21.6526  21.6526  22.1356  22.1356  22.2098  22.2098  22.3032  22.6676
    23.0305  23.3110  24.1213  24.1213  24.2349  24.2349  24.2781  24.3980
    24.9150  24.9150  24.9496  24.9496  25.3661  25.5909  26.7193  26.7737
    26.7737  26.8449  26.8449  26.9923  27.4926  27.4926  27.6183  27.6183
    27.9784  28.0953  28.2650  28.2650  28.2764  28.8938  28.8938  29.0677
    29.0677  29.1770  29.4441  30.5165  30.5444  31.2034  31.2034  31.3008
    31.5255  31.5255  32.1025  32.1025  32.6905  32.6905  32.8411  33.1973
    33.1973  33.8874  34.3516  34.3861  34.6676  34.9287  35.5618  35.5618
    36.3608  36.5266  36.5266  37.1353  37.1353  37.4208  37.4208  37.7312
    38.1808  38.1808  38.6166  38.9474  38.9474  38.9974  39.1493  39.9270
    40.2920  40.3893  40.3893  41.0185  41.2351  41.3088  41.3088  42.0546
    42.0546  42.4919  42.8968  42.8968  43.2615  43.2615  43.3411  43.7354
    43.8149  44.1285  44.1285  44.2270  44.6342  44.6342  45.4484  45.8269
    45.8269  45.9092  46.6630  46.6630  46.7505  47.0984  47.0989  47.2767
    47.2767  47.3966  47.5445  47.5445  47.6664  47.6664  47.9024  47.9024
    48.0364  48.1677  48.1677  48.3031  48.3094  48.3190  48.3190  48.3595
    48.3788  48.3788  48.3950  48.6571  48.6571  48.7442  48.7442  48.7821
    48.9338  48.9338  49.1653  49.1653  49.2417  49.4119  49.4262  49.5897
    49.5897  49.6501  49.6501  49.6558  49.6719  49.6952  50.3626  50.3626
    50.3696  50.3796  50.3796  51.2382  51.2382  51.3193  51.3193  51.3196
    51.5582  51.8264  51.8494  52.0593  52.0593  52.2432  52.2432  52.4354
    52.4354  52.5318  52.6592  53.5136  53.5136  54.1474  54.1474  54.3246
    54.3632  54.3632  54.4805  54.6724  54.6810  54.6810  54.7075  54.9523
    54.9849  54.9849  55.1626  55.3557  55.5998  55.5998  55.6383  55.6383
    56.0830  56.3839  56.3839  56.6704  56.6704  56.7331  56.7331  56.8959
    56.9611  57.8478  57.8478  57.8804  58.0245  58.0245  58.1869  58.1879
    58.7204  58.7954  58.7954  59.1751  59.1751  59.6333  60.0314  60.2965
    60.2965  60.4410  60.5578  60.5578  60.8258  60.9893  60.9893  61.0785
    61.3078  61.3078  61.4978  61.4978  62.0412  62.0412  62.2297  62.2869
    62.3139  62.3943  62.4635  62.4635  62.5550  62.5550  62.6628  62.7014
    62.7014  62.8827  63.0458  63.0458  63.0470  63.1353  63.1365  63.1365
    63.2245  63.2382  63.2382  63.3618  63.3846  63.3846  63.4289  63.4289
    63.4771  63.4771  63.4973  63.8331  63.9525  64.1440  64.1440  64.3866
    64.4219  64.4219  64.5591  64.5591  64.6677  64.7341  64.7341  64.7494
    64.7947  65.3259  65.3259  65.6920  65.9806  65.9806  66.1154  66.1154
    66.3011  66.3011  66.4548  66.4823  66.6803  66.7804  66.7804  67.0041
    67.0085  67.1634  67.1634  67.3491  67.4529  67.4529  67.5640  67.5640
    67.7431  67.9690  67.9690  68.0474  68.2933  68.5518  68.5518  68.8768
    68.9254  69.1474  69.1474  69.3278  69.3278  69.4826  69.6500  69.6500
    69.8482  69.8647  69.8647  69.8657  69.8657  70.0199  70.0199  70.2701
    70.4983  70.6641  71.3750  71.3750  71.6565  71.6565  71.8670  71.8670
    72.0059  72.0059  72.1922  72.2344  72.3140  72.3957  72.5092  72.5092
    72.7085  72.8084  73.0022  73.0022  73.2691  73.2691  73.4503  73.6116
    73.6706  73.6706  73.6938  74.2636  74.2636  74.7244  74.8599  75.0006
    75.0006  75.4146  75.7239  75.7239  75.8442  75.8442  76.4386  76.4386
    76.4853  77.1101  77.2670  77.2670  77.3206  77.3206  77.3546  77.6144
    77.7968  78.0168  78.0168  78.0624  78.0624  78.1995  78.2872  78.3709
    78.7414  78.7414  78.7739  78.7739  79.2358  79.2358  79.3640  79.3640
    79.4031  79.4961  79.5537  79.5614  79.5614  80.4377  80.4377  81.0400
    81.1698  81.3169  81.3802  81.3802  81.8742  81.8742  82.2043  82.2757
    82.4499  82.9746  82.9746  83.1407  83.2024  83.2024  83.2786  83.8837
    83.8837  84.2516  84.3145  84.3145  84.4259  84.6599  84.7947  84.7947
    84.8350  84.8350  85.3582  85.4935  85.4935  85.5104  85.5104  86.0176
    86.1096  86.1639  86.2696  86.4876  86.8109  86.8109  87.2191  87.2191
    87.3522  87.3522  87.3598  87.4809  87.4809  87.4927  87.4927  87.6638
    87.7366  87.9036  88.2778  88.2778  88.3583  88.3583  88.7000  89.4412
    89.4412  89.5930  89.5930  90.5683  90.5683  90.6013  90.6013  90.7875
    90.8059  91.1354  91.1506  91.2619  91.2619  91.7129  91.8768  91.8768
    92.1355  92.1355  92.2408  92.3890  92.4335  93.0470  93.1442  93.1442
    93.6348  93.6357  93.6357  93.6496  93.8475  93.8475  94.0213  94.0357
    94.0357  94.3297  94.9626  94.9626  94.9856  95.2457  95.2874  95.2874
    95.5282  95.6921  95.6921  95.8506  95.8506  96.3088  96.3088  96.4945
    96.4945  96.5646  96.5646  96.5657  96.5657  96.8632  97.2988  97.3146
    97.8169  98.4991  98.4991  98.8670  98.8670  98.9774  99.2765  99.2765
    99.3645  99.3645  99.4176  99.4303  99.6256  99.6256  99.7872  99.8830
    99.8830  99.9789  99.9789 100.1207 100.4942 100.5320 100.5555 100.6071
   100.6071 101.4656 101.6299 101.6299 101.8133 101.8474 101.8474 102.0553
   102.5000 102.7131 102.8965 102.8965 103.6998 104.1605 104.1605 104.2642
   104.3139 104.3139 104.3595 104.3595 104.4715 104.6317 104.6317 104.6352
   104.8430 104.8430 105.3061 105.4686 105.4686 105.6407 105.7972 106.0420
   106.0420 106.1157 106.1157 106.3167 106.5373 106.5373 106.5790 106.6458
   106.7561 106.7561 106.8771 107.0224 107.0235 107.0235 107.1274 107.1274
   107.1964 107.1964 107.2471 107.2471 107.3367 107.3367 107.3779 107.4713
   107.4713 107.4871 107.5322 107.5655 107.5760 107.5838 107.6073 107.6073
   107.6468 107.6468 107.7553 107.7553 107.7694 107.7694 107.7803 107.7941
   107.7941 107.8033 107.8272 107.8272 107.8440 107.8519 107.8519 108.0749
   108.0861 108.1892 108.1892 108.1968 108.3341 108.3341 108.3371 108.4408
   108.4408 108.5404 108.6907 108.7138 108.7138 108.7457 108.7457 108.7468
   108.7468 108.9693 108.9921 109.0178 109.0178 109.1033 109.1174 109.1500
   109.1500 109.1734 109.1851 109.1851 109.2198 109.2228 109.2228 109.5072
   109.7144 109.7144 110.2464 110.2953 110.2953 110.4605 110.5225 110.5225
   110.6109 110.6109 110.8134 110.9282 110.9329 110.9329 110.9989 111.1136
   111.2914 111.2914 111.3034 111.3034 111.3243 111.3398 111.3398 111.3646
   111.7701 111.7701 111.7921 111.7921 111.8613 112.2967 112.5459 112.5459
   112.5469 112.8954 112.8954 112.8954 112.9257 113.1653 113.1653 113.2987
   113.2987 113.4556 113.5903 113.6400 113.6842 113.6842 113.7174 113.7714
   113.7714 113.9156 113.9156 114.0362 114.0362 114.0841 114.1726 114.1771
   114.1867 114.2466 114.2466 114.3805 114.3805 114.6296 114.6763 114.6763
   114.9095 114.9095 114.9529 114.9529 115.0147 115.0543 115.3395 115.3837
   115.3837 115.7008 115.7535 116.0426 116.0426 116.1475 116.3400 116.3400
   116.4548 116.4874 116.5032 116.5445 116.5445 116.5806 116.5806 116.7190
   116.7190 116.9114 116.9114 117.1361 117.1813 117.3348 117.3348 117.3750
   117.3750 117.3859 117.3967 117.4254 117.4254 117.7793 117.7793 117.7964
   117.8222 117.8467 117.8467 117.9094 117.9094 117.9149 117.9231 117.9232
   117.9242 118.1198 118.1198 118.8443 118.9183 118.9183 119.3226 119.3226
   119.3849 119.4550 119.4550 119.6474 119.7162 120.0452 120.3646 120.5743
   120.5743 120.7839 120.7839 121.2248 121.2486 121.2824 121.2824 121.5097
   121.5134 121.5319 121.5319 121.6557 121.6557 121.7440 121.7440 121.7474
   121.7474 121.7837 121.8387 121.8387 121.8429 122.3384 122.5156 122.5156
   122.5403 122.7410 122.7410 122.7920 122.7920 122.8313 123.2044 123.2044
   123.3501 123.6886 123.7908 123.7908 124.0588 124.2547 124.4039 124.6998
   124.6998 124.9591 124.9591 125.3385 125.3385 125.4165 125.4165 125.4524
   125.5406 125.5438 125.8993 125.9031 126.0205 126.1904 126.2150 126.2150
   126.3104 126.3221 126.3221 126.4790 126.4790 126.6088 126.6088 126.6467
   126.6467 126.7229 126.7229 126.8273 126.8634 126.8732 126.8735 126.9002
   126.9002 127.2023 127.2023 127.5741 127.5741 127.5841 127.6998 127.7371
   127.7371 128.0324 128.0324 128.0995 128.2074 128.4294 128.4294 128.6781
   128.6781 129.9333 129.9333 129.9379 130.2221 130.2221 130.4618 130.4618
   130.9400 130.9481 130.9481 131.0783 131.0783 131.1584 131.2571 131.2701
   131.3791 131.3791 131.3934 131.4858 131.4858 131.4866 131.5335 131.5335
   131.6473 131.6828 131.6828 131.8285 131.8438 131.9303 131.9303 132.5501
   132.7624 132.7624 132.8112 132.8112 132.9829 133.3208 133.3208 133.3856
   133.6231 134.2053 134.2053 134.2410 134.2410 134.3241 134.4368 134.4368
   134.7417 135.2869 135.3866 135.3866 135.5676 135.5676 135.9194 135.9246
   135.9280 136.0796 136.0796 136.2140 136.5584 136.5584 136.6333 136.6387
   136.6388 136.7450 136.8116 136.8147 136.8147 136.9368 136.9368 136.9947
   137.1548 137.2533 137.3150 137.3150 137.3380 137.3380 137.3654 137.3883
   137.4699 137.4863 137.4863 137.4998 137.4998 137.5421 137.5798 137.5798
   137.6440 137.6440 137.7279 137.7833 137.7833 137.8861 137.9143 138.1239
   138.1239 138.1454 138.1454 138.2112 138.2112 138.2733 138.4613 138.5125
   138.6331 138.6750 138.6750 138.7017 138.7017 138.8157 138.8157 138.8656
   138.8656 138.9764 139.0668 139.0668 139.0823 139.1165 139.3160 139.5150
   139.5150 139.8288 139.8288 139.8782 139.8782 140.1948 140.1948 140.2912
   140.4002 140.4002 140.4496 140.5875 140.6070 140.6070 140.6920 140.7415
   140.8419 140.8419 140.9634 140.9634 140.9957 141.0895 141.0895 141.6035
   141.7780 141.7780 141.8124 141.8124 142.2753 142.5183 142.5183 142.7303
   142.9553 142.9868 142.9868 143.0422 143.2402 143.2402 143.3129 143.4437
   143.5439 143.6437 143.6437 143.7386 143.8269 143.8269 143.8577 143.8577
   143.9942 143.9942 144.0403 144.1659 144.2974 144.3224 144.3224 144.4470
   144.4470 144.5256 144.5256 144.5937 144.6700 145.1588 145.1588 145.3017
   145.3017 145.3768 145.5762 145.8072 145.8072 145.8913 145.8913 146.0202
   146.3483 146.3483 146.4576 146.4576 146.4889 146.4889 146.7562 146.7786
   146.7855 146.8640 147.2110 147.2110 147.2700 147.2937 147.5395 147.5395
   147.8636 147.8636 148.2068 148.2068 148.5083 148.5713 148.6648 148.6648
   149.1193 149.2398 149.7086 149.7086 149.8699 149.8699 149.9031 150.1835
   150.2445 150.3165 150.3165 150.3673 150.3673 150.4522 150.4522 150.4601
   150.5603 150.6523 150.7547 150.7969 151.0259 151.0259 151.0445 151.0445
   151.1260 151.1504 151.1504 151.1568 151.2834 151.3130 151.3130 151.4582
   151.4606 151.4620 151.4620 151.7795 151.8279 151.8279 151.8741 151.8741
   152.2833 152.2833 152.2965 152.2965 152.3348 152.3551 152.3554 152.3807

          k = 0.0000 0.1443 0.0000 (  7967 PWs)   bands (ev):

   -24.1033 -24.0867 -24.0404 -24.0336 -24.0275 -16.4004 -14.7760  -8.2470
    -4.7444  -4.0854  -4.0440  -3.9240  -3.2279  -0.4088   1.3223   2.1246
     2.5887   3.3284   3.5179   4.0861   4.6066   5.3204   5.5689   6.1608
     6.5517   6.5900   7.6758   7.7786   8.6144   9.1068   9.6598  10.0855
    10.4254  10.8759  11.6854  12.2438  12.5090  13.2724  13.4686  14.4350
    14.6471  14.7970  15.1431  15.2208  15.6999  16.1325  16.3137  16.4465
    16.4530  16.7858  16.9403  16.9915  17.1696  17.2785  17.7652  17.8988
    18.1677  18.4346  18.4878  18.5357  18.7673  19.1225  19.6553  19.6567
    19.8535  20.0497  20.1617  20.2289  20.5455  20.6633  20.7432  20.7813
    20.8702  21.0531  21.3902  21.4104  21.6080  21.6574  21.9730  22.1237
    22.2799  22.5190  22.5791  22.6451  22.8581  23.0063  23.1528  23.2974
    23.5684  23.6660  23.8592  24.0168  24.1288  24.1508  24.3110  24.4302
    24.5317  25.0578  25.1940  25.2623  25.7570  26.0834  26.0947  26.1802
    26.2851  26.5124  26.8847  26.8891  27.1080  27.2178  27.6469  27.8427
    28.1212  28.2319  28.6617  28.7136  29.2205  29.4778  29.5422  29.6060
    29.7960  29.9641  30.1113  30.3817  30.8175  31.0321  31.2783  31.6994
    31.7118  32.4241  32.4471  32.5842  33.1855  33.4054  33.4636  33.7864
    34.0606  34.2699  34.4739  34.9795  35.0122  35.2426  35.7246  35.7561
    35.8735  36.1495  36.5489  36.5803  36.9790  37.2825  37.4561  37.5473
    37.9601  38.5118  38.6608  38.9327  39.0909  39.2901  39.6152  39.7144
    40.1139  40.1587  40.4774  40.6877  40.6912  40.9680  41.3355  41.4750
    41.5757  41.6340  42.1977  42.2396  42.3355  42.4836  42.5296  42.8618
    42.8688  43.0327  43.0802  43.4498  43.6416  43.6530  43.9136  44.3046
    44.3655  44.3701  44.4201  44.5890  44.6736  45.0041  45.1209  45.4221
    45.4461  45.5179  46.1205  46.2033  46.3497  46.4606  46.5560  46.5953
    46.7837  46.9774  47.1787  47.2304  47.8176  47.8528  48.0545  48.1912
    48.2944  48.3326  48.4998  48.5214  48.6145  48.6494  48.7037  48.9221
    49.0751  49.1613  49.4395  49.5847  49.6130  49.8564  49.8927  50.0261
    50.0690  50.3312  50.4458  50.6233  50.7790  50.9681  51.0564  51.4007
    51.5239  51.7451  51.7761  51.8845  51.9218  52.1379  52.2947  52.5070
    52.6135  52.6487  52.8142  53.0251  53.0369  53.1512  53.4824  53.5632
    53.6058  53.6634  53.7828  53.9375  53.9991  54.0558  54.2271  54.3679
    54.4220  54.5776  54.7448  54.8834  55.0390  55.1274  55.1925  55.3261
    55.3582  55.4369  55.4421  55.6451  55.6529  56.0423  56.0999  56.2545
    56.4813  56.6666  56.6992  56.7424  56.7774  56.8873  57.0523  57.2815
    57.2969  57.4471  57.4893  57.6137  57.9064  57.9587  57.9845  58.0377
    58.2358  58.3044  58.4345  58.4667  58.5962  58.6666  59.0680  59.0819
    59.1438  59.2654  59.3115  59.5485  59.6529  59.6943  59.7853  59.7891
    59.8519  60.1623  60.2294  60.3233  60.4785  60.4857  60.6851  60.9102
    61.0924  61.0927  61.1633  61.2066  61.4129  61.4783  61.6433  61.6810
    61.8696  61.9868  62.2596  62.3332  62.4987  62.5657  62.6521  62.7318
    62.7906  63.0392  63.1173  63.3191  63.3593  63.5620  63.5668  63.6870
    63.8974  63.9709  64.1815  64.1917  64.4427  64.6615  64.7369  64.9052
    65.0134  65.1582  65.2568  65.5625  65.6229  65.7132  65.7998  66.0078
    66.0643  66.2751  66.3285  66.3659  66.6040  66.7423  66.7455  66.9263
    67.0083  67.0533  67.0745  67.2084  67.2724  67.3684  67.5040  67.5817
    67.5984  67.8679  68.0361  68.0688  68.1635  68.2964  68.3780  68.5022
    68.6084  68.6514  68.7832  68.8517  69.0188  69.2177  69.2182  69.4335
    69.5163  69.5666  69.8788  69.9196  70.0317  70.0994  70.2496  70.5063
    70.6323  70.7945  70.8159  70.9021  71.0319  71.0578  71.3529  71.6307
    71.6487  71.7859  71.9669  72.0089  72.1725  72.2953  72.4071  72.4389
    72.4945  72.5385  72.6571  72.7027  72.7538  72.7580  72.9898  73.1921
    73.3330  73.4023  73.5009  73.7260  73.8350  73.8912  74.0491  74.1574
    74.2466  74.2764  74.3511  74.5076  74.6785  74.8132  75.0689  75.0730
    75.1793  75.3314  75.7401  75.9794  76.0058  76.1862  76.2575  76.4700
    76.5340  76.7510  77.0881  77.2522  77.3348  77.4720  77.5794  77.6617
    77.7416  78.1876  78.2137  78.3048  78.3049  78.4269  78.6055  78.8154
    78.8566  79.1767  79.3505  79.4785  79.4935  79.7008  79.7760  79.7785
    79.8852  80.1606  80.3557  80.3998  80.4634  80.6547  80.9009  81.0149
    81.2392  81.2937  81.6400  81.6541  81.9282  82.0713  82.2626  82.2912
    82.4578  82.6530  82.9548  83.1718  83.2315  83.5689  83.6520  83.8883
    83.8978  84.0426  84.2718  84.3369  84.3984  84.6964  84.7931  84.8980
    84.9141  85.1225  85.2960  85.4479  85.4625  85.5164  85.5935  85.8206
    85.8902  85.9307  86.0375  86.2005  86.5227  86.6065  86.6768  86.7393
    86.8982  86.9558  87.3807  87.6715  87.7107  87.8313  88.1125  88.3151
    88.4161  88.7295  88.9468  88.9578  89.3525  89.3869  89.5105  89.7453
    89.8858  89.9904  90.0369  90.1316  90.2214  90.3613  90.5174  90.6870
    91.0569  91.1612  91.1953  91.2285  91.4529  91.5250  91.7561  91.9068
    91.9798  91.9964  92.3287  92.3513  92.4060  92.4887  92.5035  92.7084
    92.9894  93.2980  93.4236  93.5856  93.7288  93.8587  93.9294  93.9491
    94.2826  94.2867  94.5662  94.6624  94.7764  95.1977  95.2577  95.4383
    95.4755  95.5146  95.8360  95.9515  96.2587  96.3690  96.4773  96.5066
    96.7011  96.8004  96.8554  96.8682  97.3423  97.4364  97.5026  97.5764
    97.6722  97.7365  97.8687  98.1369  98.2969  98.4221  98.4417  98.5400
    98.5716  98.6706  98.7310  98.8262  98.8556  98.8825  99.1545  99.2762
    99.4615  99.4824  99.5557  99.6958  99.7964  99.8840  99.9121  99.9483
    99.9952 100.1336 100.2616 100.2667 100.4604 100.4780 100.5181 100.5825
   100.6269 101.0297 101.0616 101.1794 101.2538 101.4320 101.4835 101.6130
   101.6203 101.7863 101.8759 101.8908 101.9174 102.0058 102.1636 102.2531
   102.3129 102.3639 102.6219 102.6479 102.7079 102.7557 102.8994 103.0984
   103.1559 103.3608 103.4001 103.5755 103.6656 103.7739 103.8755 103.9306
   103.9543 104.0295 104.1377 104.1450 104.2775 104.3277 104.5681 104.6646
   104.7065 104.8593 104.9195 105.0015 105.1208 105.2191 105.2578 105.2892
   105.4434 105.4780 105.7150 105.7660 105.9333 105.9723 106.0621 106.1453
   106.2151 106.3282 106.3403 106.4797 106.5397 106.7827 106.7940 106.8673
   106.9952 107.0339 107.0507 107.2740 107.4238 107.4265 107.5389 107.5481
   107.6279 107.8889 108.0113 108.0885 108.1452 108.2768 108.3154 108.3398
   108.4402 108.6232 108.7586 108.7671 108.8322 108.9037 109.0360 109.1641
   109.2938 109.3244 109.4891 109.5460 109.5952 109.6832 109.7055 109.8101
   109.8452 109.9137 109.9577 109.9968 110.1342 110.1782 110.3447 110.4033
   110.4540 110.5292 110.6244 110.7088 110.8067 110.8083 110.8866 110.9403
   111.0132 111.1568 111.2473 111.3594 111.4307 111.7041 111.7196 111.8533
   111.8587 111.9948 112.0575 112.2323 112.3429 112.4174 112.6283 112.6729
   112.7655 112.7887 112.9026 113.0067 113.0731 113.1634 113.1948 113.2398
   113.3467 113.4220 113.4333 113.4521 113.8109 113.8666 113.8780 113.9400
   114.0586 114.1087 114.2263 114.2402 114.3940 114.4898 114.5865 114.7459
   114.7731 114.8069 114.8601 115.0705 115.1201 115.1293 115.2301 115.2621
   115.3796 115.4029 115.4715 115.6274 115.6299 115.7263 115.7509 115.8843
   115.9340 116.0589 116.0591 116.2008 116.2848 116.3071 116.5540 116.5762
   116.5817 116.7051 116.7170 116.7418 116.8484 116.9677 116.9893 117.0916
   117.1052 117.1696 117.1876 117.3002 117.3090 117.3969 117.5387 117.6284
   117.7114 117.8759 118.0576 118.1322 118.1778 118.2021 118.2926 118.3431
   118.5612 118.6222 118.6255 118.6637 118.6968 118.7512 118.8152 118.8840
   118.9152 118.9589 119.0782 119.1884 119.2478 119.2759 119.3261 119.3811
   119.4510 119.6153 119.6720 119.7305 119.8719 119.9931 120.0710 120.1157
   120.1341 120.2453 120.3734 120.4597 120.6499 120.7566 120.8201 120.8423
   120.9355 121.0772 121.1523 121.4176 121.4306 121.5973 121.7139 121.8831
   121.9330 121.9839 122.0344 122.0821 122.1917 122.3035 122.3353 122.5648
   122.6811 122.9009 122.9077 123.0422 123.0993 123.2256 123.2770 123.3661
   123.5127 123.5259 123.6081 123.6149 123.8044 123.9322 124.0250 124.0597
   124.0605 124.2190 124.2861 124.4062 124.4441 124.4948 124.5612 124.7186
   124.7586 124.8204 124.9309 125.0483 125.0678 125.1921 125.2954 125.3743
   125.4035 125.5986 125.7506 125.7948 125.8639 126.0439 126.0734 126.1913
   126.3258 126.4246 126.5450 126.6224 126.7495 126.8010 126.8452 126.9231
   126.9923 127.0233 127.1473 127.2303 127.5324 127.5867 127.6158 127.6392
   127.8680 127.9197 128.1554 128.1589 128.2528 128.2883 128.3685 128.4517
   128.4531 128.6059 128.6555 128.8421 128.9689 128.9788 129.0876 129.1582
   129.2612 129.2658 129.5677 129.5846 129.7245 129.7377 129.7764 129.7820
   129.9215 129.9661 130.0125 130.0416 130.2232 130.3090 130.3441 130.4747
   130.6879 130.7350 130.8359 130.9044 130.9269 131.0670 131.0852 131.2379
   131.3266 131.4795 131.5508 131.5786 131.6442 131.7416 131.8286 131.9953
   132.0674 132.0696 132.1671 132.1901 132.2531 132.2865 132.4394 132.7983
   132.8386 132.8887 133.1012 133.1580 133.2384 133.3104 133.4399 133.5103
   133.5699 133.6450 133.6550 133.7586 133.9040 134.1422 134.1932 134.2332
   134.4863 134.5336 134.6200 134.6923 134.9368 134.9487 135.0557 135.0649
   135.0962 135.1604 135.3472 135.3512 135.4014 135.4170 135.4708 135.5114
   135.6747 135.6830 135.7634 135.9049 135.9450 136.0737 136.1034 136.2528
   136.3156 136.3354 136.3520 136.5688 136.6609 136.8866 136.9355 137.0134
   137.0274 137.2067 137.2164 137.5062 137.5808 137.7227 137.8941 138.0051
   138.0480 138.1596 138.1934 138.3002 138.3216 138.4324 138.4496 138.7835
   138.8128 138.9216 138.9924 139.0281 139.2406 139.4420 139.5507 139.6925
   139.7840 139.8508 139.8688 140.1162 140.1571 140.2015 140.2999 140.4559
   140.5481 140.6882 140.6984 140.7585 140.9457 141.0329 141.1211 141.1387
   141.2431 141.3267 141.5286 141.5512 141.6423 141.7809 141.8152 141.8766
   141.9261 142.0890 142.1404 142.1435 142.2730 142.4794 142.5352 142.5739
   142.6194 142.7123 142.7751 142.8444 142.8762 143.1751 143.1808 143.2549
   143.2686 143.4189 143.4514 143.5987 143.7454 143.9272 143.9716 144.0001
   144.0871 144.1615 144.2220 144.3236 144.3327 144.5195 144.7622 144.8341
   144.8872 145.0197 145.0471 145.0870 145.1544 145.2857 145.3008 145.3900
   145.4383 145.5824 145.7436 145.8183 145.8977 145.9701 145.9858 146.1342
   146.3112 146.3773 146.5029 146.6134 146.6751 146.7727 146.7802 146.9198
   146.9765 147.0517 147.0525 147.1805 147.2502 147.4224 147.5447 147.6759
   147.8108 147.9057 148.1811 148.2572 148.2829 148.2962 148.3866 148.5731
   148.8137 148.8662 148.9129 148.9941 149.0622 149.2118 149.2447 149.3299
   149.3743 149.5081 149.5885 149.6098 149.7002 149.7944 149.9253 149.9614
   150.1134 150.1695 150.1835 150.2203 150.2521 150.4159 150.4425 150.5258
   150.6120 150.7353 150.8754 150.9113 151.1041 151.2254 151.2746 151.2921
   151.3175 151.4534 151.6601 151.7259 151.8276 151.8348 151.9588 152.0122
   152.1061 152.2624 152.3919 152.4114 152.4507 152.4617 152.6153 152.6863
   152.7644 152.8075 152.9221 153.0113 153.0796 153.2256 153.3491 153.3927

          k = 0.0000 0.2887 0.0000 (  8004 PWs)   bands (ev):

   -24.1248 -24.0676 -24.0490 -24.0250 -24.0218 -15.9211 -14.4841  -8.6092
    -6.1936  -4.9187  -4.7214  -3.8700  -3.3043  -0.6992   1.6631   2.9568
     3.1493   3.7563   4.2848   4.4062   4.7748   5.3645   6.1535   6.4193
     6.7530   7.4369   7.6712   8.3469   9.1460   9.4625   9.9977  10.6796
    11.0389  11.1619  11.6151  12.1171  12.1920  12.9926  13.0392  13.5019
    13.7474  13.8977  14.2000  14.4348  14.7824  14.9932  15.4361  15.5006
    15.6496  15.8075  15.8541  15.8684  16.1553  16.2682  16.6140  16.9838
    17.1380  17.2680  17.7424  18.1855  18.2003  18.3335  18.7024  18.9444
    19.2415  19.7043  19.7692  19.9701  20.1296  20.4531  21.1200  21.1821
    21.6237  21.6279  21.9627  22.0850  22.1934  22.5739  22.6630  22.6692
    23.0080  23.1475  23.2155  23.3860  23.6623  23.6972  24.1168  24.3027
    24.4798  24.5526  24.8011  25.0427  25.2743  25.3080  25.3967  25.7013
    25.9641  26.0821  26.3752  26.4815  26.5530  26.8060  27.0131  27.0761
    27.5009  27.6004  27.6529  28.0829  28.3604  28.5181  28.5908  28.9672
    28.9970  29.0853  29.3585  29.3983  29.6018  29.7978  29.8100  30.2448
    30.4785  30.5553  30.6522  31.2019  31.4896  31.9545  32.0019  32.1450
    32.5223  32.7964  33.2200  33.3012  33.3548  33.6597  33.7107  34.2371
    34.4373  34.6291  34.8509  34.8956  35.1218  35.4601  35.8229  35.9769
    36.3554  36.4005  36.5060  36.8045  37.1372  37.2249  37.4643  37.4778
    37.7080  37.9579  37.9590  38.1396  38.2620  38.3116  38.3462  38.6394
    38.6986  38.9410  39.0477  39.2415  39.3437  39.5185  39.6596  39.6783
    39.8739  40.2623  40.4960  40.6091  40.7015  41.0848  41.5358  41.5438
    41.6208  41.7775  41.8392  42.0586  42.2805  42.3497  42.3716  42.5758
    42.6308  43.0416  43.1130  43.1876  43.4656  43.9994  44.2197  44.2945
    44.9243  44.9296  45.0257  45.2374  45.4680  45.6469  45.7642  45.9628
    46.1482  46.4399  46.8500  46.9697  47.1699  47.2991  47.5890  47.6282
    47.8414  47.9868  48.0479  48.5299  48.5920  48.6917  48.6972  48.8331
    48.8546  48.9137  49.0453  49.1782  49.2205  49.2839  49.3025  49.3732
    49.6491  49.6731  49.7390  49.8554  49.8867  50.4128  50.6523  50.6586
    50.8151  50.8576  51.0266  51.3583  51.5017  51.5141  51.5818  51.9378
    52.1014  52.2593  52.3561  52.4559  52.5942  52.7414  52.7777  52.9852
    53.1382  53.1863  53.2077  53.3182  53.4060  53.5628  53.6786  54.2611
    54.3092  54.6448  54.8699  55.0059  55.0687  55.3585  55.4787  55.5965
    55.6970  55.7321  55.8489  56.0140  56.1498  56.2469  56.2908  56.4781
    56.5853  56.7203  56.7575  56.8986  56.9335  56.9839  57.0039  57.1679
    57.2108  57.3308  57.4418  57.8040  57.8402  57.9826  58.0276  58.1179
    58.1632  58.4728  58.6637  58.7817  58.7882  58.9694  59.3700  59.3738
    59.4290  59.6036  59.6386  59.7962  59.8641  59.8746  59.9537  60.0693
    60.1505  60.2774  60.3048  60.3592  60.3923  60.6014  60.6983  61.0654
    61.1541  61.1677  61.2403  61.6185  61.6405  61.8041  61.9878  62.0241
    62.1100  62.2865  62.3798  62.5975  62.6268  62.8658  62.9533  63.0439
    63.0757  63.1740  63.2276  63.4508  63.5523  63.7067  63.7138  63.8325
    63.9570  64.2370  64.2925  64.3271  64.5834  64.7735  64.9824  64.9963
    65.2428  65.6372  65.6865  65.8033  66.2626  66.3255  66.3987  66.5181
    66.5681  66.6761  66.7051  66.8357  66.8762  67.0474  67.0794  67.2080
    67.3130  67.4153  67.6557  67.7244  68.0151  68.1063  68.2031  68.3707
    68.5591  68.5698  68.7063  68.8058  68.9827  69.0538  69.5109  69.6311
    69.7638  69.9918  70.0474  70.1340  70.2543  70.3643  70.5288  70.7189
    70.9056  70.9728  71.0985  71.2566  71.4243  71.5001  71.5159  71.5541
    71.7398  71.7865  71.7989  72.1396  72.2604  72.3248  72.5173  72.6391
    72.7937  72.8582  72.9860  73.1100  73.2651  73.4424  73.4936  73.5880
    73.7774  73.8838  73.8971  74.0032  74.1456  74.2734  74.4569  74.5475
    74.5924  74.6196  74.7284  75.0215  75.1068  75.1319  75.3002  75.3677
    75.3749  75.4047  75.7428  75.9428  75.9885  76.0684  76.2263  76.2308
    76.5039  76.5146  76.7340  77.2309  77.5651  77.5742  77.7030  78.0321
    78.0485  78.1601  78.3850  78.4642  78.7012  78.7941  78.8246  79.0106
    79.0169  79.0750  79.3246  79.3605  79.5916  79.5921  79.6505  79.8209
    79.9892  80.0331  80.2853  80.3601  80.4202  80.4878  80.5790  80.6916
    80.8819  80.9146  81.1912  81.4289  81.4577  81.5065  81.6560  81.9013
    82.0301  82.1837  82.2143  82.2780  82.4630  82.4960  82.5235  82.8469
    83.1143  83.1367  83.2236  83.3047  83.7194  83.7593  83.8250  83.9710
    84.2080  84.4442  84.4837  84.5789  84.5836  84.9451  84.9646  85.0846
    85.1739  85.2672  85.5075  85.6068  85.7509  85.8387  86.0170  86.0766
    86.0793  86.2915  86.3292  86.4824  86.7286  86.8332  86.9900  87.0650
    87.0746  87.4556  87.5643  87.8893  88.0734  88.1946  88.4784  88.6632
    88.8521  88.9335  89.0037  89.0091  89.2824  89.3476  89.5661  89.5881
    89.7213  89.9161  89.9363  90.0468  90.1790  90.1850  90.2333  90.4019
    90.4595  90.4938  90.8203  90.8454  90.8931  91.0004  91.1828  91.2765
    91.3945  91.4064  91.4804  91.5349  91.6735  91.7152  92.0085  92.0832
    92.2315  92.3300  92.3837  92.4669  92.6148  92.7374  92.7452  92.7963
    92.9995  93.0719  93.1241  93.2798  93.4047  93.4485  93.5376  93.6340
    93.7337  93.7553  93.7971  93.8508  93.9348  93.9748  94.0313  94.1367
    94.1844  94.3445  94.4117  94.5567  94.7169  94.7553  94.8247  94.9986
    95.0095  95.2373  95.3935  95.4698  95.7104  95.9187  95.9579  96.1204
    96.1469  96.3497  96.3948  96.4888  96.6747  96.6902  96.7840  96.8622
    97.0298  97.1256  97.1291  97.2094  97.4572  97.4626  97.6581  97.7380
    97.8126  97.9547  97.9785  98.0387  98.4078  98.4085  98.7665  99.0271
    99.3480  99.3856  99.4893  99.5385  99.5829  99.7033  99.8049  99.8806
    99.9735 100.0162 100.0823 100.1027 100.2132 100.3509 100.4884 100.5727
   100.6617 100.6913 100.8558 100.9191 101.0555 101.2274 101.2582 101.5313
   101.5682 101.7774 101.8092 101.9820 102.0378 102.1767 102.4550 102.7150
   102.7506 102.8781 102.9678 103.0855 103.1155 103.2900 103.3140 103.4588
   103.4891 103.5830 103.5863 103.7875 103.8259 103.8701 103.9557 104.1046
   104.2335 104.3739 104.3897 104.5320 104.6367 104.6940 104.9096 104.9633
   104.9837 105.1222 105.1879 105.2848 105.3148 105.4323 105.5265 105.7141
   105.7963 105.8699 106.1781 106.1995 106.2233 106.5321 106.6397 106.7545
   106.8339 107.0791 107.2465 107.2777 107.3106 107.4104 107.5527 107.6223
   107.6534 107.9149 108.0167 108.0509 108.0861 108.2391 108.4045 108.4462
   108.5563 108.5950 108.6595 108.7021 108.7710 108.7907 109.0246 109.0875
   109.1143 109.2935 109.3425 109.5417 109.8870 109.9647 109.9700 110.1173
   110.4016 110.5413 110.5932 110.6308 110.6641 110.7240 111.0078 111.0823
   111.2867 111.3447 111.4232 111.4797 111.6103 111.6648 111.7339 111.8459
   111.8574 111.9184 112.0411 112.0962 112.1304 112.2743 112.3387 112.3705
   112.4139 112.5488 112.6011 112.6594 112.7946 112.9464 113.1990 113.3566
   113.3768 113.4543 113.5267 113.5434 113.6400 113.7415 113.8978 113.9835
   114.0708 114.0744 114.2409 114.2724 114.3350 114.3781 114.4790 114.5848
   114.5862 114.6387 114.8142 114.9558 115.0664 115.0998 115.1852 115.2171
   115.4871 115.5401 115.5486 115.6170 115.6559 115.8167 115.8750 115.9210
   116.0124 116.1097 116.1282 116.2640 116.3431 116.5567 116.6349 116.7432
   116.7755 117.0844 117.1253 117.2046 117.2919 117.3325 117.4791 117.5804
   117.6096 117.7837 117.7898 118.0207 118.0862 118.1604 118.2382 118.4381
   118.5163 118.5289 118.7264 118.8346 119.0008 119.0310 119.1516 119.2036
   119.3431 119.4656 119.4970 119.6179 119.8104 119.9158 119.9731 120.1057
   120.2421 120.2669 120.3148 120.4054 120.4248 120.9523 120.9595 121.0030
   121.0792 121.3094 121.4340 121.6403 121.7234 121.7243 121.8944 122.0413
   122.0926 122.1701 122.1752 122.4204 122.4906 122.6426 122.7282 122.7551
   122.8571 122.8826 123.0911 123.1653 123.2779 123.3902 123.4163 123.5064
   123.5235 123.5248 123.5677 123.6097 123.6107 123.6752 123.8606 124.0245
   124.1010 124.3147 124.3880 124.4352 124.5231 124.5459 124.6567 124.7541
   124.7544 124.8786 124.9084 125.0063 125.0837 125.1939 125.2212 125.3095
   125.4351 125.4832 125.6797 125.7208 125.7853 125.9228 125.9308 126.0166
   126.0292 126.0464 126.1935 126.2134 126.2671 126.3198 126.4848 126.4872
   126.5996 126.6727 126.7055 126.7937 126.8347 126.8535 126.9006 127.0567
   127.1154 127.1450 127.1576 127.1605 127.2249 127.2479 127.2835 127.3574
   127.4165 127.4675 127.4775 127.6183 127.6441 127.7573 128.0138 128.0277
   128.1774 128.2461 128.3272 128.3812 128.4411 128.5150 128.5759 128.6842
   128.7653 128.7888 128.8050 128.8923 128.9419 129.0516 129.1014 129.3061
   129.3136 129.4252 129.4486 129.6579 129.7408 129.9192 130.0671 130.1225
   130.1901 130.2342 130.2462 130.3571 130.4831 130.5750 130.6050 130.6928
   130.7509 130.7533 130.8532 130.9531 130.9928 131.0880 131.1768 131.1961
   131.3493 131.4737 131.5334 131.8745 131.9610 132.1546 132.2315 132.2491
   132.2840 132.3635 132.5985 132.6166 132.7469 132.7680 132.8609 133.0530
   133.0596 133.1802 133.2221 133.2837 133.3733 133.4107 133.4582 133.5214
   133.6501 133.7620 133.7652 133.8509 134.0069 134.0085 134.1166 134.3984
   134.4569 134.4793 134.5858 134.6495 134.7571 134.9420 135.1168 135.1900
   135.2504 135.3822 135.4302 135.5295 135.7745 135.8161 135.9334 136.0408
   136.0419 136.1356 136.1451 136.3673 136.4086 136.5467 136.5800 136.6095
   136.7063 136.7223 136.8333 136.8606 137.0152 137.1000 137.1321 137.1486
   137.2465 137.3716 137.4762 137.4806 137.5286 137.5614 137.7180 137.7186
   137.7431 137.7847 137.8675 138.0625 138.1878 138.2355 138.4616 138.5027
   138.6541 138.9704 139.0685 139.0892 139.2245 139.2365 139.2864 139.5596
   139.7783 140.0686 140.1944 140.2817 140.5077 140.6435 140.7011 140.8854
   140.9098 141.0182 141.0359 141.0631 141.2324 141.2416 141.2840 141.3480
   141.4686 141.5122 141.6094 141.7332 141.8235 141.9441 141.9501 142.0177
   142.1909 142.3519 142.5103 142.5500 142.7134 142.7356 143.1446 143.2986
   143.4222 143.4952 143.6262 143.8854 143.9959 144.1695 144.2460 144.3471
   144.4428 144.5037 144.7108 144.7587 144.9332 144.9916 145.0994 145.1475
   145.2716 145.3308 145.3319 145.6629 145.7878 145.8058 145.9052 146.0102
   146.0918 146.1913 146.2293 146.4619 146.5704 146.7704 146.8080 146.8667
   146.9697 147.0257 147.1385 147.1549 147.2157 147.3260 147.4430 147.4680
   147.5048 147.7380 147.9796 148.0081 148.0649 148.0969 148.2199 148.2608
   148.3804 148.4544 148.4671 148.4942 148.5751 148.6415 148.6818 148.7263
   148.8286 148.8639 149.1017 149.1203 149.1618 149.2644 149.3777 149.3980
   149.4527 149.4568 149.5766 149.6076 149.6478 149.7639 149.8703 149.9180
   150.0394 150.0460 150.2470 150.2748 150.3757 150.4073 150.6749 150.7023
   150.9241 150.9442 150.9556 151.1017 151.1544 151.3945 151.5005 151.6003
   151.7419 151.9048 151.9359 152.1845 152.2199 152.4004 152.5960 152.7076
   152.8157 152.9221 152.9481 153.0661 153.1097 153.2271 153.2921 153.3733
   153.4925 153.5340 153.7675 153.7932 153.9566 153.9663 154.1659 154.2889
   154.3014 154.3962 154.7526 154.9150 154.9829 155.1125 155.2196 155.3016

          k = 0.0000 0.4330 0.0000 (  8046 PWs)   bands (ev):

   -24.1492 -24.0609 -24.0576 -24.0132 -24.0036 -15.2421 -14.2408  -9.4339
    -7.1234  -5.2919  -5.2000  -3.7634  -3.4422  -1.4206   1.6538   2.9309
     3.3514   3.6339   4.9250   5.4066   5.8307   6.5097   7.0538   7.2873
     7.9100   8.3176   8.9433   8.9726   9.2447   9.3695   9.7432   9.9214
    10.2272  10.5005  10.7316  10.9811  11.2846  11.8908  12.2192  12.9753
    13.4051  13.6455  13.9570  14.4642  14.6441  14.7434  14.8816  14.9623
    15.3271  15.5271  15.5924  15.7393  15.9276  15.9754  16.2621  16.4063
    16.6972  16.9406  17.0279  17.2422  17.6547  17.7386  17.8896  18.3586
    18.7716  18.8025  18.9920  19.3072  19.4251  19.7186  20.2316  20.3794
    21.0501  21.2528  21.3245  21.7442  22.5264  22.8148  23.1225  23.5947
    23.9624  24.4750  24.6296  24.6482  24.7051  25.0371  25.0639  25.3750
    25.8289  25.9546  26.1387  26.2479  26.2581  26.4028  26.7079  26.8587
    26.9859  27.0700  27.4103  27.4831  27.8762  27.9638  28.0885  28.1620
    28.4264  29.0208  29.1978  29.2230  29.2591  29.5523  29.5825  29.9557
    30.1240  30.4366  30.4891  30.5443  30.7608  31.0002  31.4851  31.5413
    31.7239  31.9321  32.0368  32.3344  32.5381  32.6650  32.9375  33.0334
    33.1116  33.1625  33.3054  33.3655  33.5531  33.6308  33.7289  33.8184
    33.8385  34.0272  34.1271  34.2032  34.6500  34.7403  34.7871  34.9400
    35.2752  35.4141  35.5904  35.5994  35.7130  35.8389  36.4370  36.5126
    36.7175  36.7190  36.9250  36.9355  37.2111  37.3250  37.7279  37.7892
    38.0026  38.1244  38.2326  38.5699  38.7331  38.7677  39.0625  39.2122
    39.3046  39.6060  39.6755  40.1019  40.1909  40.3135  40.3609  40.5644
    40.8443  41.1626  41.2042  41.6178  41.6181  41.9343  42.1542  42.5481
    42.5610  42.5720  42.6579  42.7821  43.0590  43.2357  43.2845  43.6811
    43.7666  43.8001  43.9864  44.3800  44.6976  44.7903  44.9298  44.9564
    45.0513  45.4730  45.5873  45.6089  45.8588  45.9414  46.1783  46.2839
    46.4674  46.5614  46.7781  47.1454  47.4642  47.8363  47.8843  48.0400
    48.2539  48.2828  48.6419  48.7547  49.1708  49.2060  49.5473  49.5607
    49.7863  49.9939  50.1135  50.2060  50.2644  50.4018  50.5167  50.5413
    50.5712  50.6771  50.6974  50.8385  50.9729  51.0851  51.4290  51.5004
    51.6147  51.6429  51.8852  51.8903  51.9754  52.3124  52.3511  52.4509
    52.5610  52.7446  53.2384  53.2801  53.4292  53.4431  53.5845  53.6721
    53.7069  53.8734  54.0163  54.1252  54.1513  54.1850  54.2703  54.2916
    54.4168  54.5496  54.8227  55.1545  55.2044  55.4614  55.5171  55.5645
    55.9075  55.9554  56.1019  56.4215  56.4484  56.5508  56.5582  56.7645
    56.9336  57.0344  57.1780  57.2878  57.5048  57.5182  57.6867  57.7640
    57.8784  57.9808  58.0277  58.3104  58.4453  58.6713  58.6808  58.7280
    58.9588  59.5216  59.5923  59.7167  60.1254  60.2943  60.3341  60.4101
    60.5112  60.5847  60.7128  60.9651  61.0509  61.0590  61.2240  61.4059
    61.4766  61.6627  61.8411  62.0699  62.1162  62.3693  62.5285  62.6590
    62.8243  62.9043  63.3361  63.3748  63.6085  63.7042  63.8686  64.0404
    64.0901  64.2574  64.3575  64.6584  64.6841  64.9467  65.0196  65.2809
    65.3703  65.6599  65.7079  65.9425  66.0555  66.2003  66.3222  66.3495
    66.4633  66.6987  66.8930  67.0337  67.1256  67.1625  67.2562  67.3888
    67.4516  67.7051  67.7370  68.0074  68.0522  68.2418  68.4090  68.4826
    68.5718  68.5952  68.6661  68.7594  68.9463  69.0339  69.1066  69.3421
    69.4144  69.6868  69.6978  69.8856  69.9596  70.0097  70.1507  70.1658
    70.3693  70.5174  70.6550  70.8607  71.0194  71.4584  71.5286  71.6976
    71.9074  72.0326  72.1764  72.5141  72.5606  72.7197  72.7954  73.0316
    73.0961  73.1630  73.1891  73.4653  73.4708  73.7483  73.7653  73.8589
    74.1461  74.2722  74.4577  74.5467  74.7031  74.7171  74.7675  74.9811
    75.1566  75.2216  75.4052  75.6460  75.7477  75.7972  75.8067  76.1198
    76.1290  76.3108  76.4142  76.5108  76.5315  76.6308  76.6604  76.7068
    76.8968  77.0293  77.1219  77.1311  77.4662  77.5475  77.6540  77.6554
    77.7451  77.9040  77.9668  77.9897  78.0940  78.2895  78.3216  78.3750
    78.5928  79.0234  79.0388  79.2659  79.3873  79.5678  79.6165  79.7481
    79.8085  79.9207  80.1682  80.1734  80.2596  80.6078  80.8777  80.8873
    81.0242  81.0664  81.1754  81.3069  81.4655  81.4682  81.5929  81.7624
    81.9144  81.9312  81.9957  82.0467  82.1222  82.3100  82.4406  82.5245
    82.7918  82.8018  82.9893  83.0073  83.0265  83.0665  83.3514  83.4284
    83.5015  83.5769  83.6794  83.8206  84.0031  84.0675  84.1553  84.2267
    84.3744  84.3990  84.4362  84.5118  84.6183  84.7643  84.9288  85.0484
    85.0670  85.2293  85.3796  85.4625  85.7038  85.7256  85.7644  85.7774
    85.9750  86.0746  86.1340  86.1769  86.3732  86.4981  86.6309  86.6560
    86.6948  86.8549  86.8638  86.9688  87.0130  87.1374  87.1645  87.3007
    87.3073  87.4343  87.4725  87.5109  87.5207  87.5820  87.6694  87.8068
    87.9392  88.0430  88.1525  88.3059  88.4247  88.4835  88.5374  88.6918
    88.6954  88.9319  88.9888  89.0013  89.1405  89.1813  89.4192  89.7553
    89.8602  89.8710  90.0459  90.1451  90.2639  90.4246  90.6345  90.7912
    90.8057  90.9182  90.9205  91.1181  91.2104  91.2145  91.2553  91.4530
    91.5205  91.5485  91.7477  91.8777  91.9224  92.0367  92.1762  92.2009
    92.3237  92.5629  92.5767  92.8219  92.9020  92.9146  92.9267  93.1124
    93.2447  93.3414  93.5538  93.6270  93.7315  93.7750  93.9179  93.9564
    93.9907  94.1503  94.3139  94.3648  94.4487  94.4999  94.5568  94.8349
    94.8549  95.0320  95.2110  95.4975  95.6343  95.7633  95.9061  95.9119
    95.9909  96.1561  96.2443  96.3392  96.4129  96.6150  96.6327  96.9244
    96.9891  97.1782  97.2457  97.2905  97.3517  97.4287  97.5527  97.6019
    97.8004  97.8165  98.0795  98.2657  98.5315  98.6158  98.7907  98.9685
    98.9870  99.5767  99.6399  99.6917  99.9178 100.0365 100.1680 100.3808
   100.4473 100.5566 100.5911 100.6804 100.7834 100.8738 101.1548 101.2031
   101.2371 101.3814 101.4950 101.5546 101.6813 101.8483 101.8945 101.9618
   102.0607 102.2644 102.2717 102.3824 102.5909 102.5965 102.7748 102.7782
   102.9719 103.1596 103.2237 103.2731 103.3207 103.3816 103.4651 103.5497
   103.6280 103.7876 103.8946 103.9387 104.0874 104.1892 104.2437 104.2961
   104.4824 104.6139 104.6532 104.7172 104.7423 104.9425 105.0005 105.1257
   105.2276 105.2277 105.4546 105.4775 105.6477 105.7542 105.8628 105.9363
   105.9571 106.0278 106.0288 106.1505 106.2216 106.2470 106.3474 106.4172
   106.5670 106.6495 106.8127 106.8597 107.0861 107.1156 107.3029 107.3168
   107.4283 107.5598 107.5767 107.7607 107.8852 107.9826 108.0784 108.2207
   108.3722 108.6149 108.7380 108.8418 108.8884 109.0745 109.3503 109.6150
   109.6665 109.7379 109.7561 109.8018 110.0400 110.0981 110.1544 110.3120
   110.3575 110.4341 110.4792 110.6318 110.7258 110.8700 111.0625 111.1700
   111.1770 111.2957 111.3825 111.4721 111.6162 111.7062 111.7184 111.8073
   111.9240 111.9685 112.0728 112.1425 112.2216 112.3250 112.4198 112.6425
   112.6844 112.7671 112.8444 112.9633 112.9999 113.1082 113.2232 113.4197
   113.5578 113.6326 113.7539 113.7834 114.0544 114.0675 114.1496 114.2284
   114.2795 114.2977 114.5517 114.6446 114.6644 114.9175 115.0623 115.1287
   115.1985 115.3211 115.3287 115.4045 115.4720 115.6368 115.8523 115.8620
   116.1019 116.1569 116.3120 116.3271 116.6159 116.6239 116.6683 116.7431
   116.8648 117.1256 117.1361 117.2725 117.4399 117.5201 117.6370 117.6867
   117.7048 117.8511 118.0175 118.0241 118.1854 118.2296 118.2846 118.3160
   118.4144 118.5786 118.6224 118.6435 118.7077 118.7135 118.8961 119.1104
   119.1163 119.2460 119.3694 119.3788 119.4554 119.4904 119.5879 119.8141
   119.8489 119.9546 120.0397 120.1307 120.3924 120.6054 120.7082 120.7467
   120.9064 120.9356 121.1250 121.2624 121.2842 121.3621 121.5288 121.5393
   121.8546 121.9149 122.0129 122.1030 122.1500 122.4324 122.4799 122.5443
   122.5697 122.6647 122.6938 122.7580 122.7980 122.8064 122.9754 122.9856
   123.1502 123.3530 123.4224 123.4491 123.4900 123.6394 123.7400 123.8262
   123.8545 123.9738 124.0203 124.0901 124.1761 124.2140 124.2360 124.3440
   124.6455 124.6623 124.6681 124.7670 124.8294 124.9330 125.0506 125.1205
   125.3119 125.4533 125.4618 125.5494 125.6372 125.6834 125.8651 125.9930
   126.0641 126.0920 126.1695 126.4117 126.6131 126.7250 126.7258 126.8493
   126.8620 127.0532 127.1104 127.2658 127.3354 127.4848 127.6238 127.6693
   127.8169 127.9486 128.0673 128.1461 128.1660 128.3520 128.4968 128.5621
   128.6387 128.6934 128.7090 128.8480 128.8588 129.0890 129.1029 129.1977
   129.2700 129.2840 129.4397 129.5002 129.6693 129.8069 129.8761 130.0659
   130.1107 130.3506 130.3640 130.4717 130.7520 130.8371 131.0003 131.1839
   131.1911 131.3350 131.3422 131.6654 131.7197 131.8297 131.8853 131.9683
   132.0197 132.0469 132.1334 132.1531 132.1939 132.2040 132.2973 132.4113
   132.5814 132.6003 132.7817 132.8659 132.9057 132.9842 133.0466 133.1692
   133.2550 133.2558 133.4789 133.6332 133.6404 133.7763 133.7954 133.9336
   133.9800 134.0909 134.0939 134.1265 134.2354 134.4133 134.4138 134.4764
   134.6623 134.8577 134.8702 134.9425 135.0279 135.0535 135.0642 135.1072
   135.3872 135.4581 135.5235 135.6433 135.8155 135.8556 136.0275 136.1336
   136.1982 136.3260 136.4020 136.5037 136.6176 136.7345 136.8846 136.9286
   137.0093 137.1022 137.2644 137.3280 137.4440 137.5818 137.6472 137.6648
   137.7236 137.7480 137.8686 137.9112 137.9205 138.0058 138.0697 138.2460
   138.2736 138.3517 138.4504 138.5503 138.5885 138.7428 138.8218 138.8666
   138.8938 139.0560 139.1223 139.2247 139.2899 139.3451 139.4175 139.6269
   139.8020 139.8231 139.8509 139.9534 140.1612 140.2306 140.2315 140.3427
   140.5415 140.5917 140.6541 140.7024 140.7758 140.7798 140.9408 141.0115
   141.1122 141.1736 141.2523 141.3946 141.4339 141.5004 141.5343 141.7167
   141.7790 141.8396 141.8713 141.9166 142.0603 142.2562 142.3762 142.4990
   142.6117 142.7058 142.8644 142.9797 142.9869 143.1551 143.1594 143.2388
   143.2473 143.3823 143.4514 143.6292 143.6418 143.7298 143.8311 143.9576
   144.1094 144.1456 144.2701 144.3430 144.4262 144.7537 144.8948 144.9807
   145.1008 145.1224 145.1430 145.3447 145.6119 145.6905 145.8620 146.0400
   146.0713 146.1481 146.1991 146.2416 146.4430 146.5071 146.5074 146.6042
   146.7610 146.8262 147.0038 147.0543 147.0659 147.1652 147.1654 147.2190
   147.3382 147.3804 147.3904 147.4576 147.6542 147.6857 147.7081 147.7975
   147.8438 148.0307 148.3087 148.4403 148.5314 148.6937 148.7644 148.7829
   148.8855 149.0320 149.2239 149.2761 149.5726 149.7283 149.7357 149.7914
   149.8588 150.0836 150.1407 150.1739 150.3625 150.4246 150.4491 150.4996
   150.5710 150.6582 150.7653 150.7904 150.8543 150.8875 150.9578 151.0221
   151.1553 151.1812 151.1916 151.3045 151.5343 151.5579 151.6176 151.6396
   151.7135 151.8328 151.8723 151.9652 152.0715 152.1301 152.2988 152.3014
   152.3530 152.3628 152.5247 152.7039 152.7560 152.8187 152.9512 153.0725
   153.1214 153.2162 153.2199 153.3186 153.4162 153.4362 153.4899 153.8359
   153.8921 153.9710 153.9900 154.1899 154.2341 154.2814 154.3010 154.5147
   154.5388 154.6029 154.6445 154.8783 154.8899 154.9199 155.0050 155.0872

          k = 0.0000-0.5774 0.0000 (  8052 PWs)   bands (ev):

   -24.1597 -24.0654 -24.0563 -24.0054 -23.9961 -14.7773 -14.2619  -9.8807
    -7.4861  -5.3737  -5.2624  -3.7703  -3.5029  -1.7177   1.5579   3.0579
     3.1057   3.3576   6.2605   6.3801   6.6068   6.9209   7.4002   7.4246
     7.9720   7.9813   8.5525   8.6971   9.3917   9.4810   9.6395  10.1149
    10.2259  10.6427  10.6704  11.2300  11.7182  11.9842  12.1916  12.3770
    12.4496  12.9307  13.8909  14.0629  14.1117  14.3848  14.4331  14.6361
    14.6381  14.7748  14.8457  15.1517  15.2331  15.7312  15.8661  16.5288
    16.6766  16.8128  17.0884  17.1766  17.3490  17.8229  18.3773  18.5063
    18.8000  19.4138  19.7672  19.7895  20.0302  20.2960  20.6099  20.6932
    20.8217  20.9958  21.5963  21.8458  22.0554  22.1452  22.3254  22.6859
    22.9648  23.7501  23.8357  24.3238  25.1613  25.4854  25.4965  25.7227
    25.7309  26.1776  26.7246  26.8439  27.4133  27.6455  28.0772  28.2811
    28.4719  28.5388  28.8410  28.9070  29.1985  29.2556  29.2960  29.4147
    29.4711  29.6278  29.6973  29.7635  29.7893  29.8851  29.9929  30.1737
    30.2104  30.2835  30.6019  30.6629  30.7314  31.0997  31.1697  31.2332
    31.2488  31.6131  31.6587  31.9708  31.9787  32.0950  32.2143  32.3695
    32.6532  33.0010  33.1831  33.2319  33.3595  33.5346  33.5793  33.6004
    33.6388  34.0106  34.1640  34.2443  34.5107  35.2046  35.2228  35.3587
    35.8535  35.8936  35.9704  36.2451  36.2724  36.5549  36.6754  37.0307
    37.0636  37.0669  37.0689  37.2352  37.2590  37.3694  37.6236  37.6376
    37.7247  37.8006  37.8901  37.9689  38.1049  38.2428  38.7089  38.8399
    38.9870  39.2192  39.2417  39.3280  39.4318  39.5331  39.6515  39.7934
    39.9359  40.0193  40.4898  40.5998  40.8157  40.8780  41.3132  41.4323
    41.4623  42.1989  42.4058  42.5538  42.5715  42.7138  42.7161  43.0206
    43.5526  43.6099  43.8395  43.9961  44.1230  44.1343  44.4766  44.4906
    44.5686  44.7976  44.8235  44.9831  45.1716  45.2021  45.6088  45.9918
    46.4056  46.6500  46.6631  46.8431  47.2602  47.6303  47.7226  48.1218
    48.1732  48.3618  48.6756  48.8129  48.8345  48.9252  49.5201  49.6969
    49.8157  49.9078  50.1778  50.2837  50.3425  50.3859  50.5955  51.0282
    51.0848  51.1942  51.3989  51.4617  51.5748  51.5785  51.5950  51.8628
    51.8831  52.0002  52.0151  52.0271  52.1079  52.1475  52.2487  52.3386
    52.3800  52.7085  52.9344  53.0543  53.1315  53.1573  53.2317  53.3597
    53.3807  53.5111  53.6617  53.7989  53.8799  53.8900  54.0181  54.0862
    54.1451  54.4823  54.4959  54.6903  54.8546  54.8952  54.9485  55.2786
    55.5491  55.6808  55.7214  55.7906  55.8130  55.8542  56.1460  56.2031
    56.2312  56.3323  56.5157  56.8579  57.1698  57.5300  57.6672  57.8890
    58.1158  58.1358  58.2351  58.5026  58.5539  58.5778  58.6137  58.7540
    58.9286  59.0439  59.0534  59.1831  59.3855  59.6229  59.7668  59.8150
    59.8169  59.9445  60.0483  60.2187  60.6811  60.8048  61.1146  61.2723
    61.3675  61.5547  61.6317  61.9979  62.2859  62.3729  62.3763  62.4947
    62.8929  62.9844  63.1921  63.3819  63.7693  63.8708  64.2676  64.4195
    64.5498  64.7060  65.1515  65.2042  65.4788  65.5765  65.8015  65.9276
    65.9555  66.0118  66.1530  66.4245  66.5400  66.6389  66.6508  66.7306
    66.7883  66.8358  67.0112  67.1357  67.2742  67.5000  67.5585  67.6767
    67.6834  67.8353  67.8564  67.9337  68.0470  68.6980  68.7393  69.1849
    69.3695  69.5353  69.5429  70.1895  70.3091  70.5836  70.6579  70.6637
    70.7503  71.2005  71.3880  71.4316  71.7836  72.1535  72.5134  72.5421
    72.5789  72.6204  72.6358  72.7786  73.0852  73.1076  73.1772  73.2265
    73.3332  73.5219  73.5817  73.6644  73.7817  73.9422  73.9596  74.0208
    74.2239  74.2349  74.2563  74.2726  74.3063  74.4027  74.4265  74.5583
    74.6389  74.8580  74.8814  74.8977  75.1670  75.3034  75.3519  75.4573
    75.4579  75.6772  75.6810  75.7606  75.9095  75.9128  75.9349  76.0124
    76.0517  76.1262  76.1738  76.3510  76.3703  76.8271  76.8526  77.0853
    77.2106  77.4930  77.5294  77.5966  77.6387  77.8426  77.9400  78.0443
    78.1231  78.1343  78.4180  78.5780  78.6179  78.6568  78.7098  78.9855
    79.1263  79.5229  79.7994  79.8028  79.8582  80.0404  80.1096  80.1530
    80.1996  80.2200  80.3161  80.4166  80.7082  80.7709  80.8804  80.9008
    80.9836  81.1898  81.3484  81.3922  81.4382  81.4741  81.4938  81.5398
    81.5410  81.5648  81.7844  81.7876  81.7961  81.7985  81.8854  81.9069
    81.9124  81.9339  82.0793  82.4387  82.5861  82.6410  82.6768  82.7226
    82.7908  82.8577  82.8945  82.9975  83.0066  83.0547  83.1247  83.2396
    83.2692  83.6082  83.6676  83.6877  83.7148  83.7496  83.8238  84.1391
    84.2471  84.3202  84.3548  84.3801  84.4872  84.6642  84.7235  84.7394
    84.8134  84.8924  85.1070  85.1197  85.3796  85.4833  85.5489  85.6330
    85.8069  85.8118  85.9065  86.1117  86.4878  86.4930  86.5825  86.7138
    87.0524  87.2128  87.2698  87.3970  87.5184  87.5791  87.7493  87.8184
    87.8859  87.9724  88.0626  88.0990  88.2296  88.2529  88.4422  88.4496
    88.4760  88.6625  88.6786  88.7246  88.7950  88.9188  88.9611  89.1188
    89.2000  89.2021  89.2194  89.5126  89.6234  89.7705  89.8290  90.0043
    90.2521  90.3659  90.3709  90.8092  91.0346  91.2109  91.2551  91.5447
    91.6731  91.7991  92.0046  92.0079  92.2197  92.4379  92.4791  92.6151
    92.6158  92.9027  93.0217  93.1299  93.2308  93.5014  93.5073  93.5601
    93.6947  93.7313  93.9282  94.1218  94.1672  94.1752  94.2914  94.6417
    94.6886  95.1252  95.1470  95.1576  95.2062  95.3545  95.3611  95.5137
    95.5149  95.6683  95.6916  95.9301  95.9611  96.0127  96.0423  96.0580
    96.3131  96.4775  96.5285  96.5460  96.5931  96.9703  96.9828  97.0254
    97.1029  97.1813  97.2416  97.2837  97.4637  97.5580  97.6028  97.7120
    97.7438  97.8035  97.8152  98.0877  98.1202  98.2003  98.2113  98.4045
    98.5827  98.5884  98.6648  98.7749  98.7960  98.8392  98.9204  99.0520
    99.6225  99.7464  99.8728  99.8796  99.9631 100.2546 100.3073 100.4546
   100.5245 100.5553 100.7665 100.8067 100.9884 101.2329 101.3219 101.3394
   101.3566 101.5681 101.6033 101.7113 101.7507 101.9811 102.0835 102.4877
   102.5423 102.7044 102.7089 102.9025 103.1933 103.2020 103.3258 103.4502
   103.4593 103.5774 103.6430 103.7756 103.7977 103.8388 103.8681 103.9340
   103.9461 104.1442 104.1491 104.1937 104.2950 104.3072 104.3959 104.4481
   104.4564 104.4844 104.8922 105.0242 105.0261 105.0353 105.2029 105.2409
   105.2700 105.5120 105.5527 105.5851 105.6344 105.8926 105.9481 106.0155
   106.0250 106.1667 106.3404 106.3991 106.5723 106.6269 106.7035 106.7608
   106.8516 106.9288 106.9554 107.0506 107.1177 107.2794 107.3068 107.4194
   107.4905 107.7546 107.8155 107.8859 108.1674 108.2689 108.5136 108.5490
   108.8389 108.8624 109.4993 109.6278 109.6336 109.9400 110.0037 110.0981
   110.3525 110.3836 110.4434 110.4662 110.5237 110.6006 110.6043 110.7312
   110.9624 110.9938 111.1461 111.1626 111.2166 111.2724 111.3566 111.4139
   111.6263 111.6906 111.7181 111.8413 112.0895 112.1727 112.2753 112.5290
   112.8438 112.9137 112.9423 113.0182 113.0188 113.3551 113.3854 113.3863
   113.4317 113.5402 113.7851 113.8097 113.9410 114.0865 114.2176 114.4681
   114.5051 114.7972 114.9355 114.9554 115.1121 115.4001 115.4118 115.4772
   115.5613 115.5692 115.8012 115.9718 115.9854 116.3223 116.4956 116.5014
   116.6110 116.6920 116.7000 116.7656 116.9513 117.0133 117.0145 117.3640
   117.4845 117.4859 117.5098 117.6317 117.7094 117.7139 117.9024 117.9975
   118.0403 118.1108 118.1189 118.2978 118.4192 118.4978 118.5007 118.5133
   118.5265 118.5928 118.7629 118.7753 118.8030 118.8316 118.8436 118.8566
   118.8902 118.9893 119.0086 119.1645 119.1674 119.2805 119.4135 119.4283
   119.4474 119.4546 119.6974 119.7144 119.7643 119.8051 119.8376 119.9058
   119.9759 120.0472 120.0553 120.1403 120.1610 120.3673 120.5059 120.7616
   120.9249 120.9603 121.1733 121.6297 121.6490 121.7348 121.8117 121.8211
   121.8229 122.0544 122.0974 122.2345 122.3946 122.4023 122.6260 122.6643
   122.6866 122.7570 123.0294 123.2169 123.2562 123.3083 123.4118 123.5164
   123.6081 123.8241 124.1310 124.2398 124.2900 124.3208 124.3636 124.3831
   124.4746 124.5445 124.6058 124.6705 125.0068 125.0151 125.1316 125.1952
   125.2970 125.3005 125.3007 125.4573 125.5720 125.5920 125.6977 125.7290
   125.7686 125.8686 126.0147 126.3606 126.6555 126.8744 126.8987 126.8992
   126.9355 126.9377 127.1833 127.2754 127.4175 127.4452 127.5560 127.5568
   127.5958 127.8245 127.8757 127.9122 128.1689 128.1929 128.4065 128.4598
   128.5245 128.5448 128.5887 128.6576 128.8907 129.0103 129.0910 129.1430
   129.2032 129.2404 129.2838 129.4046 129.6113 129.7195 129.9803 130.0759
   130.1446 130.1458 130.4336 130.8863 130.9075 131.1905 131.3077 131.5010
   131.5326 131.6431 131.6622 131.8088 131.9154 132.0137 132.1505 132.2427
   132.3555 132.4952 132.5305 132.5587 132.5639 132.7293 132.8543 132.9112
   133.1426 133.2115 133.3935 133.5187 133.7664 133.8303 133.8339 133.9439
   133.9857 134.0243 134.0307 134.2162 134.2909 134.4252 134.6361 134.8680
   134.8894 135.0862 135.1031 135.1384 135.1397 135.2586 135.5669 135.6497
   135.6676 135.7083 135.8762 136.1367 136.4873 136.5085 136.5153 136.5253
   136.5757 136.5931 136.7612 137.1060 137.1310 137.3120 137.4616 137.5318
   137.6676 138.0074 138.0190 138.1239 138.3779 138.5099 138.6767 138.6853
   138.6874 138.7343 138.8599 138.8738 138.9300 138.9877 139.1256 139.2149
   139.3479 139.3715 139.5151 139.6876 139.7052 139.8416 140.0722 140.2186
   140.2205 140.2419 140.4006 140.5176 140.5182 140.6188 140.6463 140.6790
   140.7219 140.8413 140.8603 140.9556 140.9916 141.0071 141.0100 141.0473
   141.0952 141.2354 141.2933 141.3057 141.3856 141.4261 141.4814 141.4826
   141.5279 141.5500 141.6605 141.7302 141.8414 141.9934 142.0739 142.1100
   142.2159 142.2406 142.2754 142.3950 142.4883 142.5664 142.5937 142.5971
   142.5982 142.7862 142.8150 142.9034 142.9368 142.9929 143.0886 143.1457
   143.5035 143.5146 143.6891 143.7736 143.9811 143.9946 144.0687 144.1964
   144.2297 144.2818 144.6041 144.6149 144.6196 144.8058 144.8114 145.0510
   145.0974 145.1688 145.1967 145.4325 145.5571 145.6310 145.7185 145.7290
   145.9974 146.1293 146.2550 146.3249 146.3277 146.6052 146.6628 146.9492
   146.9498 146.9750 147.2534 147.3486 147.3912 147.4189 147.4278 147.5308
   147.5389 147.5403 147.5466 147.8346 147.8630 147.8811 147.8890 147.9473
   147.9959 148.0381 148.1086 148.1800 148.2261 148.4847 148.4896 148.5121
   148.5313 148.5372 148.5627 148.6089 148.6205 148.6603 148.7125 148.7494
   148.8246 148.8876 148.9181 149.0065 149.1601 149.4118 149.4761 149.5190
   149.5928 149.6091 149.6176 149.6267 149.7411 149.7790 149.8002 149.8768
   149.8799 149.9690 150.0072 150.0199 150.0734 150.1876 150.2089 150.2717
   150.2897 150.3643 150.3686 150.7096 150.7960 150.8464 150.8823 150.9171
   150.9739 151.0236 151.0703 151.1047 151.1681 151.2127 151.2185 151.2539
   151.3282 151.3890 151.4533 151.4540 151.5864 151.6362 151.6964 151.7075
   152.0125 152.0840 152.1281 152.2215 152.2273 152.2276 152.3316 152.5578
   152.5608 152.6201 152.8121 152.8888 152.9367 153.2546 153.2821 153.2839
   153.3076 153.5779 153.5893 153.6941 154.1104 154.1874 154.3606 154.3767

          k = 0.1250 0.2165 0.0000 (  7987 PWs)   bands (ev):

   -24.1141 -24.0771 -24.0426 -24.0325 -24.0228 -16.0757 -14.5687  -8.4446
    -5.4918  -5.4322  -4.1467  -3.7161  -3.6564  -0.3059   2.0645   2.2227
     2.9581   3.8266   4.0039   4.5651   4.6110   5.2353   5.6278   6.0479
     6.7911   7.0450   7.9662   8.1255   8.4010   9.5949  10.0332  10.5881
    11.3301  12.0430  12.0726  12.4814  12.7391  13.0282  13.1399  13.3775
    13.7137  13.7554  13.8066  14.0233  14.2103  14.8306  15.1559  15.1778
    15.3574  15.4207  15.9205  16.7488  16.9476  17.1175  17.3426  17.4180
    17.6674  18.3957  18.4594  18.8251  18.8684  19.1520  19.3789  19.4006
    19.6459  19.7105  19.7442  19.7878  20.1548  20.3539  20.5803  20.6607
    20.8353  21.0243  21.6200  21.8401  22.2530  22.2945  22.7444  22.7906
    22.9870  23.0373  23.0693  23.4213  23.4991  23.7166  23.8530  23.9028
    24.2264  24.6951  24.7656  24.8136  24.8798  24.9024  25.0625  25.1894
    25.4407  25.5733  25.8247  25.8490  25.9869  26.2917  26.5853  26.7782
    26.7788  27.0497  27.4264  27.5511  27.8725  28.0252  28.2251  28.3994
    28.5484  28.8604  28.9751  29.0284  29.3459  29.3500  29.8864  30.2972
    30.3359  30.7443  30.8262  31.2866  31.5290  31.6176  31.8329  32.4599
    32.6024  32.6866  33.0451  33.0666  33.1493  33.4374  34.0570  34.2259
    34.3922  34.4457  34.9564  35.0045  35.1952  35.3602  35.8229  35.9709
    36.1870  36.4683  36.4990  36.7696  37.0190  37.0210  37.4547  37.5137
    37.8031  37.9416  38.0262  38.1915  38.2161  38.3612  38.7520  38.8047
    38.9858  39.2552  39.3424  39.4082  39.5403  39.7778  40.2357  40.2432
    40.5024  40.7493  41.1440  41.5203  41.5633  42.1227  42.1417  42.4436
    42.5404  42.6606  42.8168  42.9111  43.1319  43.1700  43.2805  43.4330
    43.5346  43.5848  43.6485  43.6667  43.8989  44.1881  44.2862  44.3225
    44.3869  44.6723  44.7502  44.9405  44.9859  45.0711  45.1860  45.3392
    45.9077  46.0668  46.2415  46.4950  47.0085  47.0198  47.1186  47.2276
    47.3689  47.7974  47.8829  48.0841  48.2813  48.4914  48.5053  48.7641
    48.8041  48.8310  49.3020  49.3149  49.3561  49.4496  49.6188  49.8995
    49.9275  50.1269  50.3790  50.3962  50.5750  50.6505  50.6600  51.0231
    51.3775  51.5054  51.8734  51.8959  52.0846  52.1823  52.2777  52.6381
    52.6903  52.8334  52.8810  53.0936  53.2975  53.3671  53.3974  53.4195
    53.8157  53.9022  53.9330  53.9840  54.0020  54.3204  54.3282  54.4280
    54.4958  54.5627  54.5744  54.7180  54.7635  54.8084  55.1086  55.2465
    55.3959  55.4338  55.4520  55.5717  55.7105  55.9101  55.9150  56.0516
    56.1310  56.1463  56.3379  56.4456  56.5186  56.7824  56.8454  56.8655
    57.0761  57.1920  57.2359  57.6082  57.7324  57.7672  57.7964  57.9058
    58.0557  58.1648  58.3953  58.6024  58.7328  58.8345  58.9032  59.0767
    59.3010  59.3701  59.4023  59.5843  59.9637  59.9797  60.1762  60.3151
    60.5135  60.5320  60.6777  61.0044  61.0103  61.0950  61.1134  61.2761
    61.3946  61.5258  61.5492  61.6235  61.7694  62.1013  62.2130  62.2340
    62.3647  62.4438  62.4497  62.8512  62.9013  63.0551  63.1180  63.2620
    63.3020  63.4608  63.6488  63.6570  63.7518  63.7682  63.8288  63.8562
    63.9670  64.0982  64.2490  64.3252  64.4281  64.5196  64.6705  64.8788
    64.8842  65.0682  65.0867  65.2603  65.2911  65.4803  65.5297  65.9162
    65.9751  66.2486  66.3220  66.4931  66.5447  66.6895  66.7222  67.0183
    67.1099  67.1271  67.4069  67.4512  67.6620  67.6850  67.7880  67.9344
    67.9800  68.1518  68.1776  68.3852  68.3972  68.6219  68.7101  68.8051
    69.0120  69.0847  69.6228  69.6434  69.8678  69.9715  70.1136  70.1937
    70.2431  70.3138  70.3896  70.6509  70.8987  70.9501  71.0345  71.1623
    71.3443  71.4639  71.8261  72.0510  72.1549  72.2084  72.3678  72.5790
    72.6021  72.9892  73.1004  73.1416  73.1496  73.2903  73.5839  73.6059
    73.6763  73.7465  73.8115  74.0069  74.0714  74.3142  74.3422  74.3905
    74.4153  74.5654  74.6771  74.7179  74.9235  74.9454  75.0369  75.1271
    75.2157  75.2169  75.3042  75.3914  75.7503  75.8682  76.1755  76.1811
    76.3804  76.4591  76.5238  76.6147  76.7623  76.9046  77.0641  77.1090
    77.5486  77.7709  77.8585  77.8645  77.9645  78.0143  78.2730  78.3877
    78.3936  78.5001  78.8596  78.9171  78.9833  79.0894  79.1780  79.2761
    79.2888  79.3401  79.4623  79.8553  80.1406  80.1543  80.4535  80.4638
    80.5678  80.8705  80.9284  81.1433  81.3653  81.4668  81.5156  81.7367
    81.7622  82.0329  82.1405  82.3626  82.4628  82.5822  82.6330  82.6731
    82.8423  82.9099  83.0010  83.2259  83.3345  83.5044  83.5077  83.6208
    84.1372  84.2472  84.2655  84.4004  84.5771  84.6765  84.7223  84.8409
    84.8654  85.2514  85.2865  85.5024  85.5543  85.8535  85.9628  86.0488
    86.2664  86.3306  86.5865  86.7629  86.8174  87.2148  87.3369  87.4807
    87.5891  87.5905  87.6758  88.0394  88.1303  88.3019  88.3066  88.5171
    88.6446  88.7032  88.8585  88.9490  89.0443  89.2216  89.2697  89.5630
    89.6023  89.8927  90.2125  90.3278  90.4104  90.4497  90.6888  90.7547
    90.8755  90.9958  90.9963  91.1214  91.1300  91.3922  91.4674  91.4993
    91.7126  91.7224  91.7225  91.7818  91.8727  91.9464  92.0122  92.1803
    92.3897  92.4873  92.5567  92.7709  92.9404  92.9630  92.9701  93.1361
    93.2148  93.3819  93.4474  93.5825  93.6769  93.7910  93.9626  94.0304
    94.2155  94.2655  94.4202  94.4757  94.5540  94.7367  95.0872  95.2939
    95.3113  95.3842  95.3876  95.5393  95.6253  95.7826  95.8875  96.0387
    96.2581  96.3375  96.4010  96.4894  96.7398  96.8116  96.9060  96.9542
    97.1620  97.1943  97.2928  97.3309  97.3817  97.4662  97.6313  97.7994
    97.8830  97.8988  97.9315  98.0564  98.1798  98.2881  98.2912  98.3431
    98.4730  98.4866  98.8000  98.9245  98.9669  98.9980  99.0378  99.2398
    99.3237  99.4848  99.6072 100.1062 100.1778 100.2355 100.4179 100.4586
   100.5254 100.5576 100.7322 100.7677 100.8939 100.9310 101.0778 101.1073
   101.2450 101.3078 101.3661 101.5547 101.5903 101.6766 101.6932 101.8397
   102.0347 102.0558 102.2802 102.3115 102.5112 102.5837 102.5858 102.6861
   102.8069 102.8584 102.9232 102.9466 103.0492 103.2005 103.2169 103.2760
   103.3293 103.4944 103.6880 103.7735 103.8202 103.8849 103.9906 104.0673
   104.2116 104.2633 104.3198 104.3477 104.4771 104.6140 104.6197 104.6847
   104.7492 104.9944 105.0412 105.2311 105.3181 105.3843 105.4859 105.6774
   105.7084 105.7604 105.8668 106.0237 106.1042 106.1922 106.2722 106.3603
   106.3884 106.4562 106.7089 106.7781 106.9149 107.0035 107.1683 107.1733
   107.2815 107.4430 107.4756 107.6484 107.6979 107.8607 107.9889 108.2883
   108.3364 108.5618 108.7301 108.8017 108.8957 109.0308 109.1755 109.1978
   109.5768 109.7230 109.9350 110.0352 110.0875 110.1748 110.4006 110.4445
   110.5229 110.5338 110.6560 110.8125 110.8721 110.8976 110.9896 111.1006
   111.3566 111.5535 111.5780 111.7614 111.7679 111.8937 111.9286 112.0853
   112.1956 112.2797 112.3622 112.3969 112.5220 112.5523 112.6624 112.7196
   112.8111 112.8135 112.8970 113.0730 113.1314 113.1562 113.3313 113.5402
   113.6392 113.7505 113.7716 113.9207 113.9882 114.0132 114.1219 114.1732
   114.2182 114.3576 114.4988 114.5696 114.5703 114.7042 114.8272 115.0410
   115.0971 115.1668 115.2581 115.2944 115.4216 115.5717 115.6080 115.6705
   115.6874 115.8307 115.9520 115.9636 116.1512 116.2779 116.2997 116.5276
   116.5816 116.7055 116.7442 116.9556 116.9945 117.0183 117.1498 117.2102
   117.2887 117.4666 117.5503 117.6198 117.6341 117.7967 117.9449 118.1434
   118.1624 118.1794 118.3376 118.4820 118.7368 118.8160 118.9602 119.0643
   119.1887 119.2546 119.2989 119.4172 119.5227 119.5333 119.5906 119.8117
   119.8563 120.0099 120.1063 120.1295 120.2168 120.2839 120.4247 120.4772
   120.6120 120.6277 120.6920 120.7378 120.7623 120.8738 120.9047 121.0440
   121.0831 121.1043 121.1967 121.2196 121.2631 121.3077 121.3240 121.3869
   121.4024 121.4766 121.4976 121.5991 121.6964 121.7524 121.8826 121.9042
   122.0062 122.0248 122.1120 122.1245 122.3103 122.4545 122.4723 122.5438
   122.6786 122.7798 122.8044 122.8181 122.8771 122.9237 122.9325 122.9545
   123.0469 123.1657 123.1770 123.2981 123.3749 123.3997 123.4347 123.4649
   123.4673 123.7995 123.8685 124.0742 124.1450 124.1598 124.3383 124.3597
   124.3899 124.5655 124.6294 124.7973 124.9146 124.9179 125.0661 125.1349
   125.1459 125.1964 125.2716 125.4842 125.5042 125.5796 125.6402 125.6603
   125.7128 125.7346 125.8847 126.0281 126.1298 126.3021 126.3164 126.3331
   126.4002 126.4100 126.4730 126.5231 126.7201 127.1263 127.1857 127.1950
   127.2327 127.2505 127.3354 127.4035 127.4314 127.4949 127.7129 127.7382
   127.7873 127.8740 127.8742 128.0182 128.0190 128.1234 128.1390 128.2603
   128.2895 128.4804 128.5185 128.5950 128.6951 128.8561 128.8735 128.9334
   129.0363 129.1430 129.2389 129.3105 129.3193 129.4695 129.5596 129.7058
   129.9012 129.9326 130.2901 130.3325 130.4407 130.6653 130.7775 130.7797
   130.9601 131.0218 131.0819 131.1243 131.2652 131.4937 131.5499 131.6095
   131.6864 131.7204 131.7289 132.0428 132.1197 132.1606 132.3292 132.4289
   132.4291 132.5638 132.7067 132.7601 132.8010 132.9243 132.9390 133.0545
   133.1896 133.2812 133.3662 133.5091 133.5297 133.6563 133.7198 133.7284
   133.8908 133.9199 133.9578 134.0852 134.2041 134.2874 134.3527 134.3671
   134.4216 134.5643 134.6815 134.7299 134.7867 134.9241 135.0007 135.0452
   135.1242 135.2677 135.3775 135.4661 135.5309 135.6545 135.8132 135.9811
   136.0403 136.1325 136.3703 136.4882 136.6810 136.7232 136.8815 137.0143
   137.1364 137.1932 137.2260 137.4693 137.5057 137.5724 137.6522 137.7955
   137.8636 137.9736 138.0353 138.0804 138.1183 138.2465 138.2468 138.2875
   138.3537 138.4425 138.5140 138.7033 138.7678 138.8774 138.9954 139.0564
   139.0784 139.1329 139.2031 139.2516 139.2937 139.4009 139.4485 139.6558
   139.7334 139.7704 139.8465 139.9396 140.0732 140.1898 140.2995 140.3650
   140.4994 140.5161 140.6672 140.7155 140.8126 140.8249 140.9707 141.0632
   141.2127 141.2508 141.3479 141.3741 141.4453 141.5138 141.6597 141.7922
   141.8601 141.9523 142.0433 142.1206 142.3313 142.3345 142.4590 142.5228
   142.5881 142.7864 142.9282 142.9505 143.2117 143.2415 143.3246 143.3705
   143.5298 143.5854 143.6250 143.6489 143.9248 143.9420 143.9732 144.0355
   144.0624 144.2702 144.4293 144.4991 144.5366 144.6442 144.7470 144.8129
   144.8204 145.0105 145.0355 145.1912 145.2449 145.3729 145.5677 145.8393
   145.9303 146.0952 146.1023 146.2475 146.5194 146.6715 146.7568 146.7668
   146.9093 147.1310 147.2156 147.2181 147.3655 147.5179 147.7036 147.7371
   147.9471 147.9788 148.0911 148.1820 148.2109 148.4742 148.5318 148.5748
   148.6789 148.8243 148.9750 148.9804 149.0502 149.1982 149.2292 149.2536
   149.4179 149.6654 149.7003 149.7291 150.1126 150.1643 150.2508 150.2931
   150.3820 150.4402 150.5917 150.6130 150.7530 150.8196 150.8420 150.9887
   151.0373 151.0921 151.2055 151.3017 151.3628 151.4545 151.4766 151.6138
   151.6788 151.7276 151.7880 151.9162 152.1032 152.1725 152.2004 152.3388
   152.4243 152.5200 152.6231 152.7086 152.9321 153.0031 153.0692 153.2802
   153.2949 153.4100 153.4283 153.5839 153.6485 153.9117 153.9821 154.0953
   154.1459 154.2654 154.3252 154.5329 154.5678 154.7663 154.8389 154.8433

          k = 0.1250 0.3608 0.0000 (  8036 PWs)   bands (ev):

   -24.1323 -24.0684 -24.0524 -24.0269 -24.0059 -15.4856 -14.2881  -9.0806
    -6.6742  -5.7750  -4.8731  -3.9850  -3.5560  -0.6961   2.2202   2.8291
     3.2708   4.0446   4.6639   4.9959   5.3812   5.8359   6.0953   6.7657
     7.2683   7.6707   8.5525   8.9348   9.2503  10.0750  10.2147  10.5914
    10.8932  10.9997  11.2884  11.5764  12.0263  12.2167  12.5023  12.5594
    12.8305  12.8586  13.3953  13.8484  13.9588  14.0611  14.4550  14.7547
    14.8913  15.3008  15.7386  16.1692  16.2373  16.3636  16.7833  16.9940
    17.2394  17.4586  17.8444  17.9459  18.1547  18.4666  18.7130  18.8765
    19.4131  19.5462  19.7077  19.9754  20.1326  20.5078  20.6067  20.8290
    21.2341  21.4999  21.7646  21.8939  22.0826  22.1523  22.4129  22.5984
    22.8240  23.3935  23.5408  23.7039  24.0928  24.1996  24.4574  24.7127
    24.9558  25.1494  25.4185  25.5756  25.7462  26.0889  26.4352  26.5394
    26.7554  27.0375  27.3061  27.6371  27.6637  27.8354  28.1037  28.2173
    28.3495  28.5094  28.7338  29.0068  29.2593  29.3001  29.4152  29.4963
    29.6757  29.8493  29.9391  30.1086  30.6274  30.6660  30.8967  31.0951
    31.1589  31.3395  31.5904  31.8210  31.8568  31.9513  32.1321  32.5378
    32.8367  33.0091  33.0179  33.2052  33.3921  33.5345  33.8253  33.9359
    34.0621  34.1742  34.5879  34.6065  34.8330  35.1892  35.4157  35.4556
    35.4843  35.6477  35.8966  35.9416  36.1476  36.4258  36.5312  36.7008
    37.1078  37.1373  37.3225  37.5435  37.5952  37.8839  38.2136  38.3980
    38.7077  38.8260  39.0358  39.0665  39.2305  39.3299  39.5273  39.7571
    39.8015  39.9027  40.4518  40.4985  40.6636  40.8006  40.9588  41.1386
    41.3655  41.6877  41.8441  41.9713  42.0891  42.5173  42.5562  42.7025
    42.9759  43.0265  43.1027  43.3576  43.4447  43.4724  43.7130  43.8188
    44.0522  44.3115  44.4631  44.5882  44.7520  44.9213  45.2917  45.3870
    45.5787  45.6955  45.7381  45.9761  46.0900  46.2036  46.3159  46.4893
    46.5698  46.8363  46.9123  47.1337  47.3170  47.3880  47.5112  47.7289
    47.8493  48.0209  48.0573  48.1451  48.2400  48.5379  48.7437  48.9272
    49.0075  49.0845  49.3245  49.4958  49.5383  49.6850  49.7951  49.8474
    49.9426  50.0488  50.1918  50.3225  50.6436  50.8584  50.9272  51.1311
    51.1974  51.4121  51.7259  51.7820  51.8853  52.0029  52.1752  52.3412
    52.6015  52.6592  52.9043  53.1569  53.2746  53.6152  53.6942  53.7313
    53.8667  53.9913  54.1832  54.4116  54.4548  54.7832  54.8599  55.0101
    55.0854  55.2388  55.4733  55.6157  55.8250  55.8755  56.0213  56.2460
    56.3700  56.4909  56.5920  56.7264  56.8572  57.0935  57.1818  57.2392
    57.3568  57.5639  57.7780  57.8449  58.1121  58.2362  58.3906  58.5338
    58.6212  58.7186  58.9284  59.1048  59.3540  59.4575  59.5649  59.6407
    59.8448  60.1035  60.1363  60.3957  60.4321  60.8392  60.8804  60.9400
    61.0013  61.1051  61.2110  61.3428  61.4529  61.6406  61.7739  61.8767
    62.0079  62.0999  62.2871  62.3104  62.4271  62.6094  62.6324  62.8538
    62.8784  62.9797  63.1297  63.2765  63.4015  63.4290  63.7078  63.8394
    64.0479  64.1892  64.2395  64.3386  64.4051  64.5470  64.7303  64.7590
    64.9168  65.0425  65.1205  65.2590  65.3136  65.4309  65.5782  65.6833
    65.7943  66.0433  66.1426  66.3085  66.4170  66.6590  66.8873  66.9020
    67.1209  67.1985  67.3770  67.4665  67.5490  67.6795  67.8209  67.8713
    67.9907  68.1215  68.2623  68.4400  68.5010  68.5880  68.6876  68.8404
    68.8561  69.1790  69.2669  69.3317  69.5011  69.5417  69.7694  69.7774
    69.9238  69.9523  70.1098  70.2718  70.3441  70.4798  70.6400  70.7918
    70.9341  71.0288  71.0748  71.2356  71.3006  71.3221  71.4667  71.7237
    71.7924  71.9595  71.9994  72.2925  72.5124  72.6159  72.6316  72.9844
    73.2352  73.3262  73.3899  73.5974  73.6681  73.8014  74.0020  74.2033
    74.3234  74.4515  74.6057  74.6901  74.7927  74.9366  74.9637  75.0747
    75.2457  75.3946  75.5292  75.6813  75.7597  75.9373  75.9552  76.1870
    76.3098  76.8030  76.8810  76.9943  77.0236  77.2903  77.5371  77.6589
    78.1029  78.2181  78.3832  78.5237  78.6065  78.7935  78.9473  79.0546
    79.1634  79.3224  79.3835  79.4773  79.6040  79.7129  79.7473  79.8826
    79.9342  80.0322  80.0935  80.2982  80.4054  80.5585  80.5825  80.7538
    80.8067  80.9267  81.0633  81.2138  81.3232  81.4644  81.5362  81.6602
    81.8519  81.8797  82.0326  82.1978  82.2607  82.3693  82.5547  82.6391
    82.8399  82.9716  83.0898  83.1685  83.2075  83.3118  83.3715  83.4373
    83.4898  83.5499  83.7781  83.8902  83.9205  84.1288  84.2230  84.2907
    84.3919  84.4792  84.5387  84.7692  84.7744  84.9617  85.0357  85.1204
    85.1829  85.2519  85.2870  85.3246  85.4824  85.5209  85.6021  85.8892
    86.0100  86.1414  86.2323  86.2791  86.4668  86.5061  86.6058  86.7649
    86.9332  86.9868  87.0953  87.2098  87.3124  87.3321  87.4651  87.5119
    87.6149  87.6905  87.7532  88.0675  88.2628  88.3236  88.3601  88.5497
    88.6746  88.7285  88.8922  88.9717  88.9889  89.1306  89.3167  89.3903
    89.4691  89.6303  89.7065  89.8002  89.8295  89.9588  90.0029  90.0741
    90.1260  90.2558  90.3695  90.4797  90.5977  90.6855  90.7752  90.9183
    90.9683  91.1892  91.2671  91.3839  91.4598  91.6287  91.7071  91.8102
    91.9519  92.0750  92.2492  92.3127  92.5924  92.6638  92.7457  92.8223
    92.9350  93.0185  93.1036  93.1360  93.2246  93.4087  93.5963  93.6680
    93.7103  93.9585  94.2090  94.3386  94.4589  94.5915  94.6695  94.7928
    94.9292  94.9965  95.1328  95.2213  95.4009  95.5902  95.6293  95.7776
    95.8481  95.9043  96.1440  96.2619  96.2982  96.3295  96.3997  96.4612
    96.5258  96.5814  96.6976  96.8319  96.9241  97.1369  97.2998  97.3193
    97.3928  97.4459  97.5121  97.5706  97.6576  97.7185  97.7549  97.9618
    97.9997  98.2058  98.2828  98.3880  98.4094  98.5744  98.6523  98.8078
    98.8434  98.9785  98.9868  99.1310  99.1839  99.3178  99.3859  99.4550
    99.5003  99.5908  99.7401  99.8567  99.8788 100.1539 100.3213 100.4877
   100.6205 100.6768 100.8545 101.1590 101.2479 101.4058 101.6760 101.7042
   101.8032 101.9026 102.1834 102.2999 102.3334 102.3967 102.4636 102.6273
[...]
    83.4829  83.6890  83.7565  83.8247  83.8774  84.0219  84.0307  84.1890
    84.2139  84.5615  84.6736  84.7803  84.8914  84.9745  85.2740  85.3320
    85.4809  85.5473  85.6012  85.8375  85.9872  86.0672  86.2778  86.4399
    86.5899  86.6609  86.7500  86.7828  87.0418  87.1481  87.2017  87.2369
    87.2912  87.4559  87.6388  87.6501  87.7782  87.8247  87.9382  87.9486
    87.9819  88.0870  88.1731  88.2667  88.2796  88.3427  88.3629  88.4004
    88.4559  88.4852  88.7030  88.8185  88.8319  88.9183  89.0704  89.1400
    89.2728  89.3103  89.5736  89.6254  89.6453  89.6810  89.8199  89.8666
    89.9956  90.0792  90.1956  90.2865  90.3326  90.4007  90.4497  90.5371
    90.9090  90.9709  91.0356  91.1755  91.2090  91.2130  91.2521  91.4900
    91.5066  91.5217  91.6296  91.6371  91.8497  91.9424  91.9662  92.0468
    92.3265  92.3423  92.4370  92.5198  92.6354  92.7660  92.8327  92.9620
    93.0079  93.6048  93.6981  93.7642  93.8495  93.9600  94.1371  94.1538
    94.3177  94.4223  94.5418  94.6421  94.7471  94.8525  94.9813  95.1528
    95.1601  95.2467  95.4293  95.7718  95.8778  95.8843  95.9325  96.1041
    96.2013  96.2634  96.5076  96.5592  96.7596  96.8313  96.9538  97.0444
    97.2303  97.3361  97.4554  97.5143  97.6742  97.6853  97.7735  97.8169
    98.0814  98.0931  98.1019  98.2196  98.3741  98.4109  98.6203  98.6883
    98.6995  98.8702  98.9824  99.0076  99.0922  99.0936  99.3593  99.3887
    99.4637  99.4727  99.5341  99.6091  99.6776  99.8445  99.9602 100.0421
   100.1804 100.2773 100.3644 100.4854 100.5240 100.6195 100.6298 100.7807
   100.9820 101.1115 101.2625 101.4296 101.5079 101.6644 101.7247 101.8065
   101.8919 101.9486 102.0822 102.2194 102.2937 102.4185 102.4329 102.5102
   102.6466 102.7124 102.7833 102.8038 102.9740 103.0175 103.1745 103.1999
   103.4516 103.5379 103.8643 103.9132 104.2514 104.4235 104.5068 104.6914
   104.9236 104.9619 104.9772 105.1974 105.3074 105.4417 105.4556 105.5979
   105.7457 105.7760 106.0734 106.0997 106.2183 106.2302 106.3296 106.4492
   106.4614 106.6223 106.6516 106.7067 106.8027 106.8136 107.0338 107.0339
   107.0892 107.1068 107.2317 107.2370 107.3921 107.6309 107.7449 107.8148
   107.9416 108.0031 108.0361 108.0583 108.2095 108.2721 108.3609 108.4421
   108.4696 108.5308 108.6931 108.8526 109.0555 109.1002 109.1257 109.1907
   109.3321 109.3483 109.4330 109.5393 109.7228 109.7766 109.8696 110.0817
   110.0995 110.1568 110.2371 110.4513 110.5449 110.6121 110.6955 110.7004
   110.8046 111.1536 111.3298 111.5850 111.6995 111.8148 111.8569 112.0111
   112.1100 112.1914 112.4129 112.4477 112.5660 112.6333 112.6579 112.7073
   112.8859 112.9560 113.0310 113.1782 113.2272 113.2954 113.5363 113.6182
   113.7567 113.8071 113.8715 113.9461 114.0001 114.3902 114.5825 114.7816
   114.8504 115.0157 115.4118 115.5649 115.6883 115.8125 115.9086 115.9193
   115.9591 116.0205 116.0846 116.2426 116.2632 116.3526 116.6066 116.6104
   116.6844 116.8432 117.0249 117.0618 117.1227 117.2657 117.4120 117.6177
   117.6558 117.7020 117.7230 117.9245 118.0437 118.1229 118.3102 118.5296
   118.5918 118.7645 118.7882 118.7974 118.8292 118.9287 119.0719 119.1155
   119.3560 119.4439 119.4727 119.5611 119.5761 119.7896 119.8724 119.9092
   119.9718 120.1277 120.1731 120.2727 120.3837 120.4871 120.6449 120.7065
   120.7998 121.0389 121.1200 121.1666 121.2590 121.2748 121.4279 121.4376
   121.4426 121.4692 121.6366 121.6400 121.8698 121.9403 121.9550 122.0240
   122.1806 122.2248 122.4378 122.4465 122.8296 122.8545 123.0984 123.1021
   123.1669 123.2985 123.5186 123.6070 123.7437 123.7614 123.8242 123.9642
   124.2946 124.3550 124.4148 124.5146 124.6292 124.7284 124.8238 124.8261
   124.9359 125.0285 125.2353 125.2858 125.4177 125.5255 125.5349 125.6322
   125.8828 125.9813 126.0394 126.1585 126.4474 126.5456 126.6348 126.6556
   126.7324 126.8279 127.3255 127.3334 127.4521 127.5298 127.5351 127.5682
   127.6478 127.8479 127.9715 128.2607 128.3420 128.4136 128.5636 128.6600
   128.7431 128.8575 128.9269 128.9584 128.9944 129.1035 129.3093 129.3508
   129.3536 129.5723 129.6296 129.7583 129.8134 130.0482 130.1511 130.3656
   130.3772 130.4474 130.6476 130.7287 130.7751 130.7844 130.9048 131.1526
   131.1719 131.2537 131.2580 131.3897 131.4771 131.5267 131.6101 131.6607
   131.7571 131.8273 131.8537 131.9669 132.0226 132.0596 132.2119 132.2424
   132.3473 132.4805 132.5842 132.7076 132.7408 132.7889 132.8516 132.9505
   133.1220 133.2379 133.3128 133.3371 133.3619 133.6180 133.7984 133.8227
   133.8505 133.9133 133.9328 134.1508 134.5013 134.5358 134.6183 134.6679
   134.8056 134.8510 135.0809 135.1011 135.3458 135.4146 135.5292 135.5877
   135.7839 135.7892 136.0934 136.1357 136.1881 136.3073 136.5065 136.5084
   136.5133 136.7001 136.7892 136.8160 136.9530 137.1231 137.1470 137.2706
   137.2822 137.4527 137.6432 137.6709 137.7630 137.9975 138.1592 138.2140
   138.2998 138.3167 138.3593 138.5198 138.6205 138.6842 138.8177 138.8792
   138.9261 139.0736 139.0764 139.1800 139.3378 139.3920 139.4622 139.5290
   139.6952 139.7529 139.8961 139.9127 139.9384 140.0825 140.1101 140.1383
   140.2209 140.3020 140.3082 140.3436 140.3732 140.4124 140.4988 140.5396
   140.6048 140.6779 140.8535 140.8787 140.9461 141.1169 141.2155 141.2822
   141.2883 141.3686 141.3929 141.4358 141.5500 141.6527 141.6697 141.8520
   141.8549 141.9548 142.0007 142.1301 142.2748 142.3444 142.4717 142.4787
   142.5186 142.5457 142.5729 142.6786 142.8137 142.8813 142.9084 142.9985
   143.1300 143.2084 143.2322 143.2772 143.3469 143.4366 143.4534 143.5302
   143.6359 143.6428 143.6668 143.7361 143.8649 143.8665 143.8758 143.8893
   144.0005 144.0787 144.2759 144.3064 144.4808 144.5886 144.7594 144.7893
   144.8443 144.9362 145.0197 145.1165 145.1594 145.1846 145.3412 145.3715
   145.5033 145.5224 145.8695 145.8893 145.9491 145.9866 146.1192 146.1998
   146.3642 146.4195 146.6606 146.6944 146.7676 146.7861 146.8048 146.8589
   146.9227 147.0054 147.0790 147.1427 147.2524 147.2688 147.5393 147.5830
   147.7713 147.9977 148.0781 148.0814 148.2943 148.3893 148.4831 148.7482
   148.7891 149.0317 149.0881 149.2281 149.3109 149.3395 149.4403 149.5066
   149.5386 149.6375 149.6980 149.7264 149.7565 149.8679 149.8893 149.9569
   150.1186 150.1842 150.2028 150.4030 150.4250 150.4836 150.6819 150.7318
   150.7825 150.7844 150.8443 150.9108 150.9443 150.9873 151.1925 151.3120
   151.4100 151.4510 151.4882 151.5632 151.7097 151.7857 151.9578 152.0279
   152.0574 152.2023 152.4154 152.4959 152.5853 152.6679 152.7510 152.7538
   152.8408 153.0324 153.0692 153.1518 153.1988 153.3085 153.4278 153.4321
   153.5554 153.5841 153.6182 153.7385 153.8594 153.8649 154.1547 154.1792
   154.2856 154.2941 154.3467 154.4585 154.6791 154.6860 154.7402 154.8257

          k = 0.2500 0.5774 0.0000 (  8061 PWs)   bands (ev):

   -24.1248 -24.0895 -24.0453 -24.0244 -23.9993 -14.4678 -14.2150 -10.0043
    -6.9654  -6.5912  -5.9826  -4.0253  -3.7764  -0.7274   2.7492   2.8330
     3.9606   4.7765   6.2088   6.3666   6.3853   7.4355   7.6223   7.8200
     8.0926   8.2885   8.3060   8.6636   8.8664   9.0561   9.5359   9.7641
     9.7813   9.9644   9.9844  10.1840  10.9924  11.2116  11.4450  11.5724
    11.6306  11.8450  12.9473  13.1738  13.4949  13.5986  14.1445  14.2321
    14.5222  14.9767  15.4506  15.5577  15.8717  15.9872  16.5310  16.9046
    17.3422  17.5954  17.7439  18.0428  18.2302  18.8261  19.0503  19.1365
    20.3393  20.3710  20.4991  20.8132  20.9893  21.1909  21.2096  21.7609
    21.9495  22.2856  22.6186  22.7721  23.1503  23.1675  23.2938  23.5017
    23.6966  23.9061  24.1766  24.2860  24.3100  24.5229  24.7739  24.7803
    24.9655  25.0604  25.2457  25.5853  25.7650  25.7678  25.8403  26.0292
    26.2810  26.6147  26.7188  27.0139  27.0334  27.4522  27.5984  27.9719
    28.0788  28.4163  28.7199  28.7909  28.8623  28.9924  29.1355  29.4580
    29.7161  30.1670  30.7620  31.1588  31.1730  31.4707  31.6353  31.9312
    32.1003  32.3673  32.4796  32.7928  32.7949  33.0777  33.3901  33.4995
    33.9238  34.1266  34.5357  34.6044  34.7951  34.8432  35.2672  35.4416
    35.4983  35.5174  35.7666  35.9291  35.9738  36.0770  36.1917  36.5417
    36.7273  36.7319  36.9591  36.9653  37.1784  37.2201  37.5072  37.5725
    37.6771  37.7380  37.8169  37.8711  37.9377  38.1418  38.2638  38.4027
    38.5527  38.6344  38.8411  38.8542  39.0730  39.1769  39.2999  39.4010
    39.6216  39.6588  39.7369  39.9707  40.0927  40.2242  40.2330  40.4234
    40.6774  40.7863  41.0387  41.1190  41.2229  41.3033  41.5373  41.5623
    41.6203  41.7194  41.8484  41.9004  42.0158  42.0497  42.2076  42.5841
    42.6982  42.9457  42.9874  43.1681  43.1871  43.2770  43.3379  43.5160
    43.5514  43.9268  44.1449  44.3010  44.4260  44.6409  44.6888  44.7635
    44.9676  45.2101  45.2348  45.3129  45.5328  45.5341  45.6986  45.8613
    46.1064  46.2681  46.3555  46.4353  46.4893  47.1367  47.4179  47.5899
    47.6909  47.7192  47.8207  47.9625  48.0659  48.3528  48.3737  48.6072
    48.9669  49.1591  49.2434  49.3560  49.5217  49.7928  50.0274  50.2697
    50.3584  50.6918  50.7158  50.9748  51.1343  51.2712  51.4779  51.5290
    51.8065  52.0206  52.0977  52.3822  52.4056  52.5155  52.7489  52.8894
    53.1494  53.1679  53.4241  53.6175  53.9131  54.1036  54.4628  54.5040
    54.7258  54.8702  55.1414  55.3276  55.4795  55.6961  55.8005  55.8653
    56.1895  56.2206  56.2542  56.4921  56.6344  56.7696  57.0486  57.2694
    57.9233  57.9345  58.0579  58.3037  58.4417  58.8473  59.0540  59.2249
    59.5484  59.6195  59.7851  59.9621  60.2138  60.2538  60.3848  60.5454
    60.7603  60.9899  61.0224  61.0344  61.1173  61.4173  61.4769  61.6098
    61.7432  61.9486  62.0236  62.2701  62.4062  62.5028  62.5077  62.8660
    63.0902  63.2943  63.5912  63.6769  63.6866  63.8227  63.9155  63.9867
    64.1223  64.5423  64.6487  64.9783  65.0117  65.1253  65.2667  65.4020
    65.4488  65.7495  65.8021  65.9190  66.0797  66.1487  66.3417  66.3921
    66.4179  66.6470  67.0128  67.0988  67.1298  67.2564  67.3161  67.4490
    67.6001  67.8608  67.8978  68.0808  68.1533  68.2324  68.2411  68.4009
    68.4120  68.7725  68.7729  68.9244  68.9489  69.2237  69.3455  69.4115
    69.5033  69.5489  69.6253  69.7555  69.8234  70.0799  70.2950  70.4111
    70.4594  70.5450  70.5503  70.7734  70.7881  70.8814  70.9301  71.0578
    71.1061  71.2240  71.3277  71.3654  71.4086  71.4336  71.7149  71.7900
    72.0426  72.0481  72.3175  72.3387  72.3547  72.6121  72.6885  72.7385
    72.7558  72.9866  73.1237  73.1431  73.2335  73.3050  73.3509  73.4983
    73.6434  73.7315  73.9740  74.0193  74.0221  74.5218  74.6182  74.6473
    74.8735  74.9650  74.9838  75.1606  75.2204  75.4239  75.4931  75.7138
    75.7375  75.8264  75.9097  76.1801  76.2917  76.4706  76.5287  76.5911
    76.6142  76.6667  76.9551  77.1055  77.1851  77.3179  77.4581  77.7530
    77.8016  77.8454  77.8687  77.9766  78.0450  78.0745  78.2227  78.3752
    78.4245  78.6303  78.6963  78.9072  79.2728  79.3144  79.3517  79.5326
    79.6553  79.6607  79.7427  79.9368  79.9539  80.1791  80.2175  80.3586
    80.3815  80.5451  80.6244  80.6631  80.7540  80.7690  80.8692  81.0514
    81.1208  81.2190  81.2746  81.2959  81.6060  81.8009  81.8019  82.0022
    82.2545  82.3284  82.3418  82.4919  82.5168  82.6228  82.8550  82.8592
    83.0217  83.1903  83.2051  83.4534  83.4750  83.6647  83.8257  83.9533
    84.0042  84.0609  84.0852  84.4347  84.4376  84.4600  84.7174  84.7573
    85.1062  85.1492  85.2787  85.3324  85.3817  85.4403  85.4866  85.5056
    85.6717  85.8902  85.9548  86.0002  86.0552  86.4266  86.5840  86.7107
    86.8433  87.0131  87.0141  87.1375  87.2475  87.3261  87.5705  87.6115
    87.6976  87.7359  87.8779  88.0831  88.1025  88.1569  88.2128  88.2888
    88.3198  88.4557  88.6014  88.7045  88.7892  88.9061  89.0637  89.2362
    89.2909  89.3485  89.4599  89.5400  89.6357  89.8562  89.9653  90.1828
    90.2487  90.3408  90.4214  90.6989  90.7030  90.8915  90.9485  91.3640
    91.6027  91.7190  91.7998  91.8700  92.0175  92.0285  92.4208  92.4916
    92.6015  92.6572  92.7785  93.0653  93.1371  93.2407  93.2576  93.4067
    93.4438  93.4584  93.5305  93.5498  93.7088  93.7581  93.7822  93.8148
    93.9689  94.0019  94.0569  94.2386  94.3723  94.4241  94.6166  94.6522
    94.6864  94.7611  94.8569  94.9000  94.9193  95.2403  95.2922  95.3471
    95.3942  95.5097  95.6536  95.6583  95.7797  95.8954  95.9324  95.9821
    96.0435  96.2448  96.3633  96.3968  96.7148  96.8433  96.8843  97.0154
    97.0820  97.1859  97.1918  97.3321  97.3827  97.3896  97.4922  97.4974
    97.6343  97.8368  97.8571  97.9376  97.9614  98.0199  98.2778  98.3842
    98.4118  98.4833  98.6379  98.6859  98.8364  99.0219  99.1086  99.2880
    99.3616  99.4474  99.4956  99.6029  99.6038  99.8781  99.9015  99.9450
   100.0758 100.0900 100.2655 100.3695 100.4604 100.4864 100.5939 100.6421
   100.7701 100.7878 100.8428 100.9549 101.0753 101.2575 101.4315 101.4481
   101.6648 101.7285 102.0095 102.0256 102.0696 102.2096 102.3792 102.5251
   102.5876 102.6187 102.6707 102.8420 102.8518 102.9173 102.9214 102.9760
   102.9956 103.2444 103.3550 103.4600 103.5109 103.5647 103.7163 103.7558
   103.8425 103.9960 104.0146 104.0979 104.1163 104.2466 104.2490 104.4533
   104.6874 104.7506 104.7895 105.1286 105.1411 105.3649 105.3724 105.5387
   105.6280 105.6508 105.9496 105.9575 106.0284 106.1728 106.2948 106.3020
   106.4705 106.5361 106.5563 106.5762 106.6806 106.7791 106.8393 106.8946
   107.0149 107.0333 107.1291 107.1927 107.2123 107.4413 107.4543 107.6470
   107.6915 107.8128 107.8939 108.0681 108.1499 108.3372 108.6414 108.7250
   108.7289 108.8580 108.8943 109.0364 109.0366 109.1525 109.3326 109.3916
   109.4939 109.7302 109.9970 109.9999 110.1718 110.3839 110.3841 110.6194
   110.7914 110.8657 110.9906 111.0166 111.4444 111.5211 111.5656 111.6312
   111.8072 111.8243 111.9834 112.1441 112.2545 112.2774 112.4459 112.6080
   112.6588 112.7024 112.7251 112.8680 113.0589 113.0723 113.2614 113.3523
   113.4224 113.6338 113.7215 113.8984 114.0442 114.1665 114.1968 114.4472
   114.5652 114.6111 114.7250 114.7363 114.8819 115.0891 115.3096 115.4057
   115.5202 115.6917 115.7639 115.8901 115.9935 116.0807 116.2507 116.3344
   116.6236 116.6483 116.7425 116.7692 116.8670 116.9405 117.2148 117.2407
   117.3678 117.4947 117.5730 117.5770 117.6341 117.7254 117.8002 117.8435
   118.1633 118.3984 118.4561 118.4877 118.5295 118.7906 118.8708 118.9616
   119.0236 119.2923 119.3911 119.5028 119.5980 119.8305 120.0649 120.1329
   120.3795 120.5356 120.5752 120.7948 120.8574 120.9294 121.1296 121.1639
   121.2924 121.3650 121.4179 121.6061 121.7131 121.7196 121.8316 121.9041
   121.9539 122.1751 122.3440 122.4291 122.4876 122.7453 122.7514 122.8650
   122.9345 123.0434 123.0951 123.2205 123.2288 123.3427 123.3882 123.4837
   123.5288 123.6307 123.7787 123.8197 123.9417 123.9680 124.0255 124.0898
   124.2000 124.2806 124.7131 124.7502 124.8191 124.9150 124.9449 124.9527
   125.1116 125.3147 125.3298 125.4945 125.6867 125.7109 125.9770 126.2304
   126.5503 126.6117 126.7447 126.9288 127.0770 127.0843 127.2836 127.4119
   127.4799 127.4842 127.7057 128.0256 128.0272 128.1674 128.2740 128.3264
   128.4342 128.5389 128.5617 128.6554 128.6846 128.7962 128.9225 129.0471
   129.0850 129.1895 129.3542 129.4605 129.5230 129.7661 129.8060 129.8351
   130.1826 130.3088 130.3396 130.4369 130.5763 130.5854 130.6769 130.7093
   130.7284 130.7630 130.8360 130.9844 131.0035 131.0778 131.1684 131.1999
   131.3884 131.5216 131.5250 131.5425 131.6484 131.6641 131.8072 131.8270
   131.9268 132.0488 132.0978 132.2273 132.3522 132.4437 132.4959 132.5422
   132.7147 132.7897 132.8665 132.9674 133.1202 133.1362 133.2227 133.3885
   133.4256 133.6636 133.7110 133.8062 133.8853 133.9914 134.0959 134.1159
   134.3729 134.4556 134.4867 134.5032 134.5962 134.8233 134.8765 135.0469
   135.1547 135.1958 135.2166 135.6330 135.6846 135.7419 135.8491 136.0442
   136.0666 136.1844 136.2239 136.2693 136.3340 136.4280 136.4369 136.6928
   136.6996 136.8198 136.9583 137.0419 137.2378 137.2937 137.3596 137.4304
   137.5147 137.5398 137.6161 137.7212 137.7273 137.9201 137.9897 138.0915
   138.2982 138.4599 138.5272 138.5529 138.6967 138.7508 138.9761 139.0248
   139.0640 139.2003 139.2312 139.2548 139.3619 139.4394 139.5850 139.6058
   139.6503 139.7282 139.7767 139.8489 140.0545 140.1390 140.1734 140.2968
   140.3365 140.3862 140.4087 140.4730 140.5414 140.6471 140.7208 140.7553
   140.9868 141.0161 141.0405 141.1601 141.2847 141.4623 141.4738 141.5687
   141.6077 141.7925 141.8467 142.0916 142.1459 142.1949 142.3857 142.5403
   142.5461 142.7751 142.7833 142.8394 142.9800 143.0301 143.1315 143.3354
   143.3549 143.3707 143.4948 143.5696 143.7007 143.7062 143.7810 143.8985
   144.0537 144.1499 144.3469 144.3940 144.5002 144.5558 144.6118 144.6529
   144.6996 144.7437 144.8543 144.9421 144.9725 145.0414 145.0452 145.1975
   145.2230 145.2915 145.3023 145.4585 145.4781 145.7063 145.7098 145.7298
   145.8324 145.8863 146.1490 146.1654 146.2121 146.2417 146.3163 146.4513
   146.4726 146.6185 146.7315 146.8147 146.8758 147.0015 147.1824 147.2367
   147.2446 147.2498 147.3758 147.4316 147.4723 147.5073 147.6744 147.6775
   147.7482 147.9698 148.0062 148.1101 148.1560 148.2873 148.3538 148.3941
   148.4642 148.5113 148.5269 148.6201 148.6939 148.7386 148.8649 148.9703
   148.9763 149.0935 149.2250 149.2430 149.2815 149.3733 149.4898 149.5251
   149.5308 149.5840 149.6713 149.7848 149.9999 150.0146 150.0833 150.1261
   150.2395 150.2614 150.4224 150.5464 150.5609 150.6108 150.6218 150.7374
   150.7759 150.8023 151.0224 151.1275 151.3423 151.5091 151.7115 151.8173
   151.8210 151.9758 152.0727 152.2350 152.2586 152.2916 152.4776 152.6111
   152.6190 152.7127 152.8197 152.8619 152.9293 152.9785 152.9889 153.0701
   153.0770 153.1286 153.2040 153.2521 153.3213 153.5701 153.6166 153.6648
   153.7046 153.7561 153.8769 153.9225 153.9450 154.0402 154.0417 154.1082
   154.1872 154.3020 154.3795 154.4262 154.4462 154.6025 154.6593 154.6910

     the Fermi energy is    -1.7739 ev
     (compare with:    -2.6191 eV, computed in scf)

     Writing all to output data dir out/SnS2.save/
 
     init_run     :      0.05s CPU      0.07s WALL (       1 calls)
     electrons    :    219.12s CPU    237.97s WALL (       1 calls)

     Called by init_run:
     wfcinit      :      0.00s CPU      0.00s WALL (       1 calls)
     potinit      :      0.03s CPU      0.03s WALL (       1 calls)
     hinit0       :      0.01s CPU      0.02s WALL (       1 calls)

     Called by electrons:
     c_bands      :    219.12s CPU    237.97s WALL (       1 calls)
     v_of_rho     :      0.00s CPU      0.00s WALL (       1 calls)

     Called by c_bands:
     init_us_2    :      0.00s CPU      0.00s WALL (      10 calls)
     init_us_2:cp :      0.00s CPU      0.00s WALL (      10 calls)
     cegterg      :    213.06s CPU    231.44s WALL (      12 calls)

     Called by *egterg:
     cdiaghg      :    171.01s CPU    186.49s WALL (     152 calls)
     h_psi        :     15.60s CPU     16.11s WALL (     164 calls)
     g_psi        :      0.08s CPU      0.08s WALL (     142 calls)

     Called by h_psi:
     h_psi:calbec :      0.22s CPU      0.25s WALL (     164 calls)
     vloc_psi     :     15.08s CPU     15.53s WALL (     164 calls)
     add_vuspsi   :      0.16s CPU      0.16s WALL (     164 calls)

     General routines
     calbec       :      0.22s CPU      0.25s WALL (     164 calls)
     fft          :      0.00s CPU      0.02s WALL (      10 calls)
     fftw         :     14.46s CPU     14.89s WALL (  190122 calls)
 
     Parallel routines
 
     PWSCF        :   3m41.22s CPU   4m 2.76s WALL

 
   This run was terminated on:  10:59: 8  17Apr2024            

=------------------------------------------------------------------------------=
   JOB DONE.
=------------------------------------------------------------------------------=
