
     Program PWSCF v.7.1 starts on 16Apr2024 at  7:49: 8 

     This program is part of the open-source Quantum ESPRESSO suite
     for quantum simulation of materials; please cite
         "P. Giannozzi et al., J. Phys.:Condens. Matter 21 395502 (2009);
         "P. Giannozzi et al., J. Phys.:Condens. Matter 29 465901 (2017);
         "P. Giannozzi et al., J. Chem. Phys. 152 154105 (2020);
          URL http://www.quantum-espresso.org", 
     in publications or presentations arising from this work. More details at
     http://www.quantum-espresso.org/quote

     Parallel version (MPI), running on     8 processors

     MPI processes distributed on     1 nodes
     124360 MiB available memory on the printing compute node when the environment starts
 
     Reading input from pw_SnS2_nscf_k1_E41.in
Warning: card &IONS ignored
Warning: card / ignored
Warning: card &CELL ignored
Warning: card / ignored

     Current dimensions of program PWSCF are:
     Max number of different atomic species (ntypx) = 10
     Max number of k-points (npk) =  40000
     Max angular momentum in pseudopotentials (lmaxx) =  4

     Atomic positions and unit cell read from directory:
     out/SnS2.save/
     Atomic positions from file used, from input discarded
 
 
     R & G space division:  proc/nbgrp/npool/nimage =       8
     Subspace diagonalization in iterative solution of the eigenvalue problem:
     one sub-group per band group will be used
     scalapack distributed-memory algorithm (size of sub-group:  2*  2 procs)

 
     Parallelization info
     --------------------
     sticks:   dense  smooth     PW     G-vecs:    dense   smooth      PW
     Min          68      68     20                 8014     8014    1274
     Max          69      69     22                 8035     8035    1287
     Sum         547     547    163                64179    64179   10217
 
     Using Slab Decomposition
 


     bravais-lattice index     =            4
     lattice parameter (alat)  =       6.9420  a.u.
     unit-cell volume          =    1811.2082 (a.u.)^3
     number of atoms/cell      =            3
     number of atomic types    =            2
     number of electrons       =        26.00
     number of Kohn-Sham states=         1200
     kinetic-energy cutoff     =      41.0000  Ry
     charge density cutoff     =     164.0000  Ry
     Exchange-correlation= PBE
                           (   1   4   3   4   0   0   0)

     celldm(1)=   6.941954  celldm(2)=   0.000000  celldm(3)=   6.251619
     celldm(4)=   0.000000  celldm(5)=   0.000000  celldm(6)=   0.000000

     crystal axes: (cart. coord. in units of alat)
               a(1) = (   1.000000   0.000000   0.000000 )  
               a(2) = (  -0.500000   0.866025   0.000000 )  
               a(3) = (   0.000000   0.000000   6.251619 )  

     reciprocal axes: (cart. coord. in units 2 pi/alat)
               b(1) = (  1.000000  0.577350  0.000000 )  
               b(2) = (  0.000000  1.154701  0.000000 )  
               b(3) = (  0.000000  0.000000  0.159959 )  


     PseudoPot. # 1 for S  read from file:
     /usr/scratch4/magr4985/FGWC/FGWC/pseudo/SG15/S.upf
     MD5 check sum: f9d020296ee6110346977bfd66d424f6
     Pseudo is Norm-conserving, Zval =  6.0
     Generated using ONCVPSP code by D. R. Hamann
     Using radial grid of  602 points,  4 beta functions with: 
                l(1) =   0
                l(2) =   0
                l(3) =   1
                l(4) =   1

     PseudoPot. # 2 for Sn read from file:
     /usr/scratch4/magr4985/FGWC/FGWC/pseudo/SG15/Sn.upf
     MD5 check sum: 6680f7ee4d83b53e0fcd4167fcb72813
     Pseudo is Norm-conserving, Zval = 14.0
     Generated using ONCVPSP code by D. R. Hamann
     Using radial grid of  602 points,  6 beta functions with: 
                l(1) =   0
                l(2) =   0
                l(3) =   1
                l(4) =   1
                l(5) =   2
                l(6) =   2

     atomic species   valence    mass     pseudopotential
        S              6.00    32.06500     S ( 1.00)
        Sn            14.00   118.71000     Sn( 1.00)

     12 Sym. Ops., with inversion, found



   Cartesian axes

     site n.     atom                  positions (alat units)
         1           Sn  tau(   1) = (   0.0000000   0.0000000   3.1258098  )
         2           S   tau(   2) = (   0.5000000   0.2886752   2.7172909  )
         3           S   tau(   3) = (   0.0000000   0.5773502   3.5343286  )

     number of k points=     2  Gaussian smearing, width (Ry)=  0.0005
                       cart. coord. in units 2pi/alat
        k(    1) = (   0.0000000   0.0000000   0.0000000), wk =   0.5000000
        k(    2) = (   0.0000000  -0.5773503   0.0000000), wk =   1.5000000

     Dense  grid:    64179 G-vectors     FFT dimensions: (  30,  30, 180)

     Estimated max dynamical RAM per process >     200.44 MB

     Estimated total dynamical RAM >       1.57 GB

     The potential is recalculated from file :
     out/SnS2.save/charge-density

     Starting wfcs are random

     Band Structure Calculation
     Davidson diagonalization with overlap

     ethr =  5.00E-06,  avg # of iterations = 11.0

     total cpu time spent up to now is      263.1 secs

     End of band structure calculation

          k = 0.0000 0.0000 0.0000 (  7991 PWs)   bands (ev):

   -24.0960 -24.0960 -24.0466 -24.0272 -24.0272 -16.5684 -14.8954  -8.2025
    -4.1160  -3.6635  -3.6635  -3.3155  -3.3155  -0.8869   0.6572   2.2498
     2.2498   3.1560   3.1778   3.8098   4.4693   5.2490   6.1982   6.2793
     6.2793   6.3551   7.4548   8.5673   8.9330   8.9330   9.1527   9.2391
     9.8002   9.8002  11.0803  11.3888  13.2732  13.3767  13.3767  14.2246
    15.8928  15.9848  15.9848  16.3921  17.3154  17.5482  17.5482  17.7449
    17.7624  17.7624  18.2119  18.2654  18.2654  18.2924  18.5341  18.5341
    18.6014  18.6014  18.6635  18.6934  18.6934  18.6949  18.9019  19.0376
    19.4905  19.4905  19.6956  19.7092  19.7092  19.8031  19.9837  19.9837
    20.0505  20.0505  20.2280  20.5902  21.1518  21.4574  21.4851  21.4851
    21.6526  21.6526  22.1356  22.1356  22.2098  22.2098  22.3032  22.6676
    23.0305  23.3110  24.1213  24.1213  24.2349  24.2349  24.2781  24.3980
    24.9150  24.9150  24.9496  24.9496  25.3661  25.5909  26.7193  26.7737
    26.7737  26.8449  26.8449  26.9923  27.4926  27.4926  27.6183  27.6183
    27.9784  28.0953  28.2650  28.2650  28.2764  28.8938  28.8938  29.0677
    29.0677  29.1770  29.4441  30.5165  30.5444  31.2034  31.2034  31.3008
    31.5255  31.5255  32.1025  32.1025  32.6905  32.6905  32.8411  33.1973
    33.1973  33.8874  34.3516  34.3861  34.6676  34.9287  35.5618  35.5618
    36.3608  36.5266  36.5266  37.1353  37.1353  37.4208  37.4208  37.7312
    38.1807  38.1807  38.6166  38.9474  38.9474  38.9974  39.1493  39.9270
    40.2920  40.3893  40.3893  41.0185  41.2351  41.3088  41.3088  42.0546
    42.0546  42.4919  42.8968  42.8968  43.2615  43.2615  43.3411  43.7354
    43.8149  44.1285  44.1285  44.2270  44.6342  44.6342  45.4484  45.8269
    45.8269  45.9092  46.6630  46.6630  46.7505  47.0984  47.0989  47.2767
    47.2767  47.3966  47.5445  47.5445  47.6664  47.6664  47.9024  47.9024
    48.0364  48.1677  48.1677  48.3031  48.3094  48.3190  48.3190  48.3595
    48.3788  48.3788  48.3950  48.6571  48.6571  48.7442  48.7442  48.7821
    48.9338  48.9338  49.1653  49.1653  49.2417  49.4119  49.4262  49.5897
    49.5897  49.6501  49.6501  49.6558  49.6719  49.6952  50.3626  50.3626
    50.3696  50.3796  50.3796  51.2382  51.2382  51.3193  51.3193  51.3196
    51.5582  51.8264  51.8494  52.0593  52.0593  52.2432  52.2432  52.4354
    52.4354  52.5318  52.6592  53.5136  53.5136  54.1474  54.1474  54.3246
    54.3632  54.3632  54.4805  54.6724  54.6810  54.6810  54.7075  54.9523
    54.9849  54.9849  55.1626  55.3557  55.5998  55.5998  55.6383  55.6383
    56.0831  56.3839  56.3839  56.6704  56.6704  56.7331  56.7331  56.8959
    56.9611  57.8478  57.8478  57.8804  58.0245  58.0245  58.1869  58.1879
    58.7204  58.7954  58.7954  59.1751  59.1751  59.6333  60.0314  60.2965
    60.2965  60.4410  60.5578  60.5578  60.8258  60.9893  60.9893  61.0785
    61.3078  61.3078  61.4978  61.4978  62.0412  62.0412  62.2297  62.2869
    62.3139  62.3943  62.4635  62.4635  62.5550  62.5550  62.6628  62.7014
    62.7014  62.8827  63.0458  63.0458  63.0470  63.1353  63.1365  63.1365
    63.2245  63.2382  63.2382  63.3618  63.3846  63.3846  63.4289  63.4289
    63.4771  63.4771  63.4973  63.8331  63.9525  64.1440  64.1440  64.3866
    64.4219  64.4219  64.5591  64.5591  64.6677  64.7341  64.7341  64.7494
    64.7947  65.3259  65.3259  65.6920  65.9806  65.9806  66.1154  66.1154
    66.3011  66.3011  66.4548  66.4823  66.6803  66.7804  66.7804  67.0041
    67.0085  67.1634  67.1634  67.3491  67.4529  67.4529  67.5640  67.5640
    67.7431  67.9690  67.9690  68.0474  68.2933  68.5518  68.5518  68.8768
    68.9254  69.1474  69.1474  69.3278  69.3278  69.4826  69.6500  69.6500
    69.8482  69.8647  69.8647  69.8657  69.8657  70.0199  70.0199  70.2701
    70.4983  70.6641  71.3750  71.3750  71.6565  71.6565  71.8670  71.8670
    72.0059  72.0059  72.1922  72.2344  72.3140  72.3957  72.5092  72.5092
    72.7085  72.8084  73.0022  73.0022  73.2691  73.2691  73.4503  73.6116
    73.6706  73.6706  73.6938  74.2636  74.2636  74.7244  74.8599  75.0006
    75.0006  75.4146  75.7239  75.7239  75.8442  75.8442  76.4386  76.4386
    76.4853  77.1101  77.2670  77.2670  77.3206  77.3206  77.3546  77.6144
    77.7968  78.0168  78.0168  78.0624  78.0624  78.1995  78.2872  78.3709
    78.7414  78.7414  78.7739  78.7739  79.2358  79.2358  79.3640  79.3640
    79.4031  79.4961  79.5537  79.5614  79.5614  80.4377  80.4377  81.0400
    81.1698  81.3169  81.3802  81.3802  81.8742  81.8742  82.2043  82.2757
    82.4499  82.9746  82.9746  83.1407  83.2024  83.2024  83.2786  83.8837
    83.8837  84.2516  84.3145  84.3145  84.4259  84.6599  84.7947  84.7947
    84.8350  84.8350  85.3582  85.4935  85.4935  85.5104  85.5104  86.0176
    86.1096  86.1639  86.2696  86.4876  86.8109  86.8109  87.2191  87.2191
    87.3522  87.3522  87.3598  87.4809  87.4809  87.4927  87.4927  87.6638
    87.7366  87.9036  88.2778  88.2778  88.3583  88.3583  88.7000  89.4412
    89.4412  89.5930  89.5930  90.5683  90.5683  90.6013  90.6013  90.7875
    90.8059  91.1354  91.1506  91.2619  91.2619  91.7129  91.8768  91.8768
    92.1355  92.1355  92.2408  92.3890  92.4335  93.0470  93.1442  93.1442
    93.6348  93.6357  93.6357  93.6496  93.8475  93.8475  94.0213  94.0357
    94.0357  94.3297  94.9626  94.9626  94.9856  95.2457  95.2874  95.2874
    95.5282  95.6921  95.6921  95.8506  95.8506  96.3088  96.3088  96.4945
    96.4945  96.5646  96.5646  96.5657  96.5657  96.8632  97.2988  97.3146
    97.8169  98.4991  98.4991  98.8670  98.8670  98.9774  99.2765  99.2765
    99.3645  99.3645  99.4176  99.4303  99.6256  99.6256  99.7872  99.8830
    99.8830  99.9789  99.9789 100.1207 100.4942 100.5320 100.5555 100.6071
   100.6071 101.4656 101.6299 101.6299 101.8133 101.8474 101.8474 102.0553
   102.5000 102.7131 102.8965 102.8965 103.6998 104.1605 104.1605 104.2642
   104.3139 104.3139 104.3595 104.3595 104.4715 104.6317 104.6317 104.6352
   104.8430 104.8430 105.3061 105.4686 105.4686 105.6407 105.7972 106.0420
   106.0420 106.1157 106.1157 106.3167 106.5373 106.5373 106.5790 106.6458
   106.7561 106.7561 106.8771 107.0224 107.0235 107.0235 107.1274 107.1274
   107.1964 107.1964 107.2471 107.2471 107.3367 107.3367 107.3779 107.4713
   107.4713 107.4871 107.5322 107.5655 107.5760 107.5838 107.6073 107.6073
   107.6468 107.6468 107.7553 107.7553 107.7694 107.7694 107.7803 107.7941
   107.7941 107.8033 107.8272 107.8272 107.8440 107.8519 107.8519 108.0749
   108.0861 108.1892 108.1892 108.1968 108.3341 108.3341 108.3371 108.4408
   108.4408 108.5404 108.6907 108.7138 108.7138 108.7457 108.7457 108.7468
   108.7468 108.9693 108.9921 109.0178 109.0178 109.1033 109.1174 109.1500
   109.1500 109.1734 109.1851 109.1851 109.2198 109.2228 109.2228 109.5072
   109.7144 109.7144 110.2464 110.2953 110.2953 110.4605 110.5225 110.5225
   110.6109 110.6109 110.8134 110.9282 110.9329 110.9329 110.9989 111.1136
   111.2914 111.2914 111.3034 111.3034 111.3243 111.3398 111.3398 111.3646
   111.7701 111.7701 111.7921 111.7921 111.8613 112.2967 112.5459 112.5459
   112.5469 112.8954 112.8954 112.8954 112.9257 113.1653 113.1653 113.2987
   113.2987 113.4556 113.5903 113.6400 113.6842 113.6842 113.7174 113.7714
   113.7714 113.9156 113.9156 114.0362 114.0362 114.0841 114.1726 114.1771
   114.1867 114.2466 114.2466 114.3805 114.3805 114.6296 114.6763 114.6763
   114.9095 114.9095 114.9529 114.9529 115.0147 115.0543 115.3395 115.3837
   115.3837 115.7008 115.7535 116.0426 116.0426 116.1475 116.3400 116.3400
   116.4548 116.4874 116.5032 116.5445 116.5445 116.5806 116.5806 116.7190
   116.7190 116.9114 116.9114 117.1361 117.1813 117.3348 117.3348 117.3750
   117.3750 117.3859 117.3967 117.4254 117.4254 117.7793 117.7793 117.7964
   117.8222 117.8467 117.8467 117.9094 117.9094 117.9149 117.9231 117.9231
   117.9242 118.1198 118.1198 118.8443 118.9183 118.9183 119.3226 119.3226
   119.3849 119.4550 119.4550 119.6474 119.7162 120.0452 120.3646 120.5743
   120.5743 120.7839 120.7839 121.2248 121.2486 121.2824 121.2824 121.5097
   121.5134 121.5319 121.5319 121.6557 121.6557 121.7440 121.7440 121.7474
   121.7474 121.7837 121.8387 121.8387 121.8429 122.3384 122.5156 122.5156
   122.5403 122.7410 122.7410 122.7920 122.7920 122.8313 123.2044 123.2044
   123.3501 123.6886 123.7908 123.7908 124.0588 124.2547 124.4039 124.6998
   124.6998 124.9591 124.9591 125.3385 125.3385 125.4165 125.4165 125.4524
   125.5406 125.5438 125.8993 125.9031 126.0205 126.1904 126.2150 126.2150
   126.3104 126.3221 126.3221 126.4790 126.4790 126.6088 126.6088 126.6467
   126.6467 126.7229 126.7229 126.8273 126.8634 126.8732 126.8735 126.9002
   126.9002 127.2023 127.2023 127.5741 127.5741 127.5841 127.6998 127.7371
   127.7371 128.0324 128.0324 128.0995 128.2074 128.4294 128.4294 128.6781
   128.6781 129.9333 129.9333 129.9379 130.2221 130.2221 130.4618 130.4618
   130.9400 130.9481 130.9481 131.0783 131.0783 131.1584 131.2571 131.2701
   131.3791 131.3791 131.3934 131.4858 131.4858 131.4866 131.5335 131.5335
   131.6473 131.6828 131.6828 131.8285 131.8438 131.9303 131.9303 132.5501
   132.7624 132.7624 132.8112 132.8112 132.9829 133.3208 133.3208 133.3856
   133.6231 134.2053 134.2053 134.2410 134.2410 134.3241 134.4368 134.4368
   134.7417 135.2869 135.3866 135.3866 135.5676 135.5676 135.9194 135.9246
   135.9280 136.0796 136.0796 136.2140 136.5584 136.5584 136.6333 136.6388
   136.6388 136.7450 136.8116 136.8147 136.8147 136.9368 136.9368 136.9947
   137.1548 137.2533 137.3150 137.3150 137.3380 137.3380 137.3654 137.3883
   137.4699 137.4863 137.4863 137.4998 137.4998 137.5421 137.5798 137.5798
   137.6440 137.6440 137.7279 137.7833 137.7833 137.8861 137.9143 138.1239
   138.1239 138.1454 138.1454 138.2112 138.2112 138.2733 138.4613 138.5125
   138.6331 138.6750 138.6750 138.7017 138.7017 138.8157 138.8157 138.8656
   138.8656 138.9764 139.0668 139.0668 139.0823 139.1165 139.3160 139.5150
   139.5150 139.8288 139.8288 139.8782 139.8782 140.1948 140.1948 140.2912
   140.4002 140.4002 140.4496 140.5875 140.6070 140.6070 140.6920 140.7415
   140.8419 140.8419 140.9634 140.9634 140.9957 141.0895 141.0895 141.6035
   141.7780 141.7780 141.8124 141.8124 142.2753 142.5183 142.5183 142.7303
   142.9553 142.9868 142.9868 143.0422 143.2402 143.2402 143.3129 143.4437
   143.5439 143.6437 143.6437 143.7386 143.8269 143.8269 143.8577 143.8577
   143.9942 143.9942 144.0403 144.1659 144.2974 144.3224 144.3224 144.4470
   144.4470 144.5256 144.5256 144.5937 144.6700 145.1588 145.1588 145.3017
   145.3017 145.3768 145.5762 145.8072 145.8072 145.8913 145.8913 146.0202
   146.3483 146.3483 146.4576 146.4576 146.4889 146.4889 146.7562 146.7786
   146.7855 146.8640 147.2110 147.2110 147.2700 147.2937 147.5395 147.5395
   147.8636 147.8636 148.2068 148.2068 148.5083 148.5713 148.6648 148.6648
   149.1193 149.2398 149.7086 149.7086 149.8699 149.8699 149.9031 150.1835
   150.2445 150.3165 150.3165 150.3673 150.3673 150.4522 150.4522 150.4601
   150.5603 150.6523 150.7547 150.7969 151.0259 151.0259 151.0445 151.0445
   151.1260 151.1504 151.1504 151.1568 151.2834 151.3130 151.3130 151.4582
   151.4606 151.4620 151.4620 151.7795 151.8279 151.8279 151.8741 151.8741
   152.2833 152.2833 152.2965 152.2965 152.3348 152.3551 152.3551 152.3807

          k = 0.0000-0.5774 0.0000 (  8052 PWs)   bands (ev):

   -24.1597 -24.0654 -24.0563 -24.0054 -23.9961 -14.7773 -14.2619  -9.8807
    -7.4861  -5.3737  -5.2624  -3.7703  -3.5029  -1.7177   1.5579   3.0579
     3.1057   3.3576   6.2605   6.3801   6.6068   6.9209   7.4002   7.4246
     7.9720   7.9813   8.5525   8.6971   9.3917   9.4810   9.6395  10.1149
    10.2259  10.6427  10.6704  11.2300  11.7182  11.9842  12.1916  12.3770
    12.4496  12.9307  13.8909  14.0629  14.1117  14.3848  14.4331  14.6361
    14.6381  14.7748  14.8457  15.1517  15.2331  15.7312  15.8661  16.5288
    16.6766  16.8128  17.0884  17.1766  17.3490  17.8229  18.3773  18.5063
    18.8000  19.4138  19.7672  19.7895  20.0302  20.2960  20.6099  20.6932
    20.8217  20.9958  21.5963  21.8458  22.0554  22.1452  22.3254  22.6859
    22.9648  23.7501  23.8357  24.3238  25.1613  25.4854  25.4965  25.7227
    25.7309  26.1776  26.7246  26.8439  27.4133  27.6455  28.0772  28.2811
    28.4719  28.5388  28.8410  28.9070  29.1985  29.2556  29.2960  29.4147
    29.4711  29.6278  29.6973  29.7635  29.7893  29.8851  29.9929  30.1737
    30.2104  30.2835  30.6019  30.6629  30.7314  31.0997  31.1697  31.2332
    31.2488  31.6131  31.6587  31.9708  31.9787  32.0950  32.2143  32.3695
    32.6532  33.0010  33.1831  33.2319  33.3595  33.5346  33.5793  33.6004
    33.6388  34.0106  34.1640  34.2443  34.5107  35.2046  35.2228  35.3587
    35.8535  35.8936  35.9704  36.2451  36.2724  36.5549  36.6754  37.0307
    37.0636  37.0669  37.0689  37.2352  37.2590  37.3694  37.6236  37.6376
    37.7247  37.8006  37.8901  37.9689  38.1049  38.2428  38.7089  38.8399
    38.9870  39.2192  39.2417  39.3280  39.4318  39.5331  39.6515  39.7934
    39.9359  40.0193  40.4898  40.5998  40.8157  40.8780  41.3132  41.4323
    41.4623  42.1989  42.4058  42.5538  42.5715  42.7138  42.7161  43.0206
    43.5526  43.6099  43.8395  43.9961  44.1230  44.1343  44.4766  44.4906
    44.5686  44.7976  44.8235  44.9831  45.1716  45.2021  45.6088  45.9918
    46.4056  46.6500  46.6631  46.8431  47.2602  47.6303  47.7226  48.1218
    48.1732  48.3618  48.6756  48.8129  48.8345  48.9252  49.5201  49.6969
    49.8157  49.9078  50.1778  50.2837  50.3425  50.3859  50.5955  51.0282
    51.0848  51.1942  51.3989  51.4617  51.5748  51.5785  51.5950  51.8628
    51.8831  52.0002  52.0151  52.0271  52.1079  52.1475  52.2487  52.3386
    52.3800  52.7085  52.9344  53.0543  53.1315  53.1573  53.2317  53.3597
    53.3807  53.5111  53.6617  53.7989  53.8799  53.8900  54.0181  54.0862
    54.1451  54.4823  54.4959  54.6903  54.8546  54.8952  54.9485  55.2786
    55.5491  55.6808  55.7214  55.7906  55.8130  55.8542  56.1460  56.2031
    56.2312  56.3323  56.5157  56.8579  57.1698  57.5300  57.6672  57.8890
    58.1158  58.1358  58.2351  58.5026  58.5539  58.5778  58.6137  58.7540
    58.9286  59.0439  59.0534  59.1831  59.3855  59.6229  59.7668  59.8150
    59.8169  59.9445  60.0483  60.2187  60.6811  60.8048  61.1146  61.2723
    61.3675  61.5547  61.6317  61.9979  62.2859  62.3729  62.3763  62.4947
    62.8929  62.9844  63.1921  63.3819  63.7693  63.8708  64.2676  64.4195
    64.5498  64.7060  65.1515  65.2042  65.4788  65.5765  65.8015  65.9276
    65.9555  66.0118  66.1530  66.4245  66.5400  66.6389  66.6508  66.7306
    66.7883  66.8358  67.0112  67.1357  67.2742  67.5000  67.5585  67.6767
    67.6834  67.8353  67.8564  67.9337  68.0470  68.6980  68.7393  69.1849
    69.3695  69.5353  69.5429  70.1895  70.3091  70.5836  70.6579  70.6637
    70.7503  71.2005  71.3880  71.4316  71.7836  72.1535  72.5134  72.5421
    72.5789  72.6204  72.6358  72.7786  73.0852  73.1076  73.1772  73.2265
    73.3332  73.5219  73.5817  73.6644  73.7817  73.9422  73.9596  74.0208
    74.2239  74.2349  74.2563  74.2726  74.3063  74.4027  74.4265  74.5583
    74.6389  74.8580  74.8814  74.8977  75.1670  75.3034  75.3519  75.4573
    75.4579  75.6772  75.6810  75.7606  75.9095  75.9128  75.9349  76.0124
    76.0517  76.1262  76.1738  76.3510  76.3703  76.8271  76.8526  77.0853
    77.2106  77.4930  77.5294  77.5966  77.6387  77.8426  77.9400  78.0443
    78.1231  78.1343  78.4180  78.5780  78.6179  78.6568  78.7098  78.9855
    79.1263  79.5229  79.7994  79.8028  79.8582  80.0404  80.1096  80.1530
    80.1996  80.2200  80.3161  80.4166  80.7082  80.7709  80.8804  80.9008
    80.9836  81.1898  81.3484  81.3922  81.4382  81.4741  81.4938  81.5398
    81.5410  81.5648  81.7844  81.7876  81.7961  81.7985  81.8854  81.9069
    81.9124  81.9339  82.0793  82.4387  82.5861  82.6410  82.6768  82.7226
    82.7908  82.8577  82.8945  82.9975  83.0066  83.0547  83.1247  83.2396
    83.2692  83.6082  83.6676  83.6877  83.7148  83.7496  83.8238  84.1391
    84.2471  84.3202  84.3548  84.3801  84.4872  84.6642  84.7235  84.7394
    84.8134  84.8924  85.1070  85.1197  85.3796  85.4833  85.5489  85.6330
    85.8069  85.8118  85.9065  86.1117  86.4878  86.4930  86.5825  86.7138
    87.0524  87.2128  87.2698  87.3970  87.5184  87.5791  87.7493  87.8184
    87.8859  87.9724  88.0626  88.0990  88.2296  88.2529  88.4422  88.4496
    88.4760  88.6625  88.6786  88.7246  88.7950  88.9188  88.9611  89.1188
    89.2000  89.2021  89.2194  89.5126  89.6234  89.7705  89.8290  90.0043
    90.2521  90.3659  90.3709  90.8092  91.0346  91.2109  91.2551  91.5447
    91.6731  91.7991  92.0046  92.0079  92.2197  92.4379  92.4791  92.6151
    92.6158  92.9027  93.0217  93.1299  93.2308  93.5014  93.5073  93.5601
    93.6947  93.7313  93.9282  94.1218  94.1672  94.1752  94.2914  94.6417
    94.6886  95.1252  95.1470  95.1576  95.2062  95.3545  95.3611  95.5137
    95.5149  95.6683  95.6916  95.9301  95.9611  96.0127  96.0423  96.0580
    96.3131  96.4775  96.5285  96.5460  96.5931  96.9703  96.9828  97.0254
    97.1029  97.1813  97.2416  97.2837  97.4637  97.5580  97.6028  97.7120
    97.7438  97.8035  97.8152  98.0877  98.1202  98.2003  98.2113  98.4045
    98.5827  98.5884  98.6648  98.7749  98.7960  98.8392  98.9204  99.0520
    99.6225  99.7464  99.8728  99.8796  99.9631 100.2546 100.3073 100.4546
   100.5245 100.5553 100.7665 100.8067 100.9884 101.2329 101.3219 101.3394
   101.3566 101.5681 101.6033 101.7113 101.7507 101.9811 102.0835 102.4877
   102.5423 102.7044 102.7089 102.9025 103.1933 103.2020 103.3258 103.4502
   103.4593 103.5774 103.6430 103.7756 103.7977 103.8388 103.8681 103.9340
   103.9461 104.1442 104.1491 104.1937 104.2950 104.3072 104.3959 104.4481
   104.4564 104.4844 104.8922 105.0242 105.0261 105.0353 105.2029 105.2409
   105.2700 105.5120 105.5527 105.5851 105.6344 105.8926 105.9481 106.0155
   106.0250 106.1667 106.3404 106.3991 106.5723 106.6269 106.7035 106.7608
   106.8516 106.9288 106.9554 107.0506 107.1177 107.2794 107.3068 107.4194
   107.4905 107.7546 107.8155 107.8859 108.1674 108.2689 108.5136 108.5490
   108.8389 108.8624 109.4993 109.6278 109.6336 109.9400 110.0037 110.0981
   110.3525 110.3836 110.4434 110.4662 110.5237 110.6006 110.6043 110.7312
   110.9624 110.9938 111.1461 111.1626 111.2166 111.2724 111.3566 111.4139
   111.6263 111.6906 111.7181 111.8413 112.0895 112.1727 112.2753 112.5290
   112.8438 112.9137 112.9423 113.0182 113.0188 113.3551 113.3854 113.3863
   113.4317 113.5402 113.7851 113.8097 113.9410 114.0865 114.2176 114.4681
   114.5051 114.7972 114.9355 114.9554 115.1121 115.4001 115.4118 115.4772
   115.5613 115.5692 115.8012 115.9718 115.9854 116.3223 116.4956 116.5014
   116.6110 116.6920 116.7000 116.7656 116.9513 117.0133 117.0145 117.3640
   117.4845 117.4859 117.5098 117.6317 117.7094 117.7139 117.9024 117.9975
   118.0403 118.1108 118.1189 118.2978 118.4192 118.4978 118.5007 118.5133
   118.5265 118.5928 118.7629 118.7753 118.8030 118.8316 118.8436 118.8566
   118.8902 118.9893 119.0086 119.1645 119.1674 119.2805 119.4135 119.4283
   119.4474 119.4546 119.6974 119.7144 119.7643 119.8051 119.8376 119.9058
   119.9759 120.0472 120.0553 120.1403 120.1610 120.3673 120.5059 120.7616
   120.9249 120.9603 121.1733 121.6297 121.6490 121.7348 121.8117 121.8211
   121.8229 122.0544 122.0974 122.2345 122.3946 122.4023 122.6260 122.6643
   122.6866 122.7570 123.0294 123.2169 123.2562 123.3083 123.4118 123.5164
   123.6081 123.8241 124.1310 124.2398 124.2900 124.3208 124.3636 124.3831
   124.4746 124.5445 124.6058 124.6705 125.0068 125.0151 125.1316 125.1952
   125.2970 125.3005 125.3007 125.4573 125.5720 125.5920 125.6977 125.7290
   125.7686 125.8686 126.0147 126.3606 126.6555 126.8744 126.8987 126.8992
   126.9355 126.9377 127.1833 127.2754 127.4175 127.4452 127.5560 127.5568
   127.5958 127.8245 127.8757 127.9122 128.1689 128.1929 128.4065 128.4598
   128.5245 128.5448 128.5887 128.6576 128.8907 129.0103 129.0910 129.1430
   129.2032 129.2404 129.2838 129.4046 129.6113 129.7195 129.9803 130.0759
   130.1446 130.1458 130.4336 130.8863 130.9075 131.1905 131.3077 131.5010
   131.5326 131.6431 131.6622 131.8088 131.9154 132.0137 132.1505 132.2427
   132.3555 132.4952 132.5305 132.5587 132.5639 132.7293 132.8543 132.9112
   133.1426 133.2115 133.3935 133.5187 133.7664 133.8303 133.8339 133.9439
   133.9857 134.0243 134.0307 134.2162 134.2909 134.4252 134.6361 134.8680
   134.8894 135.0862 135.1031 135.1384 135.1397 135.2586 135.5669 135.6497
   135.6676 135.7083 135.8762 136.1367 136.4873 136.5085 136.5153 136.5253
   136.5757 136.5931 136.7612 137.1060 137.1310 137.3120 137.4616 137.5318
   137.6676 138.0074 138.0190 138.1239 138.3779 138.5099 138.6767 138.6853
   138.6874 138.7343 138.8599 138.8738 138.9300 138.9877 139.1256 139.2149
   139.3479 139.3715 139.5151 139.6876 139.7052 139.8416 140.0722 140.2186
   140.2205 140.2419 140.4006 140.5176 140.5182 140.6188 140.6463 140.6790
   140.7219 140.8413 140.8603 140.9556 140.9916 141.0071 141.0100 141.0473
   141.0952 141.2354 141.2933 141.3057 141.3856 141.4261 141.4814 141.4826
   141.5279 141.5500 141.6605 141.7302 141.8414 141.9934 142.0739 142.1100
   142.2159 142.2406 142.2754 142.3950 142.4883 142.5664 142.5937 142.5971
   142.5982 142.7862 142.8150 142.9034 142.9368 142.9929 143.0886 143.1457
   143.5035 143.5146 143.6891 143.7736 143.9811 143.9946 144.0687 144.1964
   144.2297 144.2818 144.6041 144.6149 144.6196 144.8058 144.8114 145.0510
   145.0974 145.1688 145.1967 145.4325 145.5571 145.6310 145.7185 145.7290
   145.9974 146.1293 146.2550 146.3249 146.3277 146.6052 146.6628 146.9492
   146.9498 146.9750 147.2534 147.3486 147.3912 147.4189 147.4278 147.5308
   147.5389 147.5403 147.5466 147.8346 147.8630 147.8811 147.8890 147.9473
   147.9959 148.0381 148.1086 148.1800 148.2261 148.4847 148.4896 148.5121
   148.5313 148.5372 148.5627 148.6089 148.6205 148.6603 148.7125 148.7494
   148.8246 148.8876 148.9181 149.0065 149.1601 149.4118 149.4761 149.5190
   149.5928 149.6091 149.6176 149.6267 149.7411 149.7790 149.8002 149.8768
   149.8799 149.9690 150.0072 150.0199 150.0734 150.1876 150.2089 150.2717
   150.2897 150.3643 150.3686 150.7096 150.7960 150.8464 150.8823 150.9171
   150.9739 151.0236 151.0703 151.1047 151.1681 151.2127 151.2185 151.2539
   151.3282 151.3890 151.4533 151.4540 151.5864 151.6362 151.6964 151.7075
   152.0125 152.0840 152.1281 152.2215 152.2273 152.2276 152.3316 152.5578
   152.5608 152.6201 152.8121 152.8888 152.9367 153.2546 153.2821 153.2839
   153.3076 153.5779 153.5893 153.6941 154.1104 154.1874 154.3606 154.3767

     the Fermi energy is    -1.8896 ev
     (compare with:    -2.6157 eV, computed in scf)

     Writing all to output data dir out/SnS2.save/
 
     init_run     :      0.17s CPU      0.22s WALL (       1 calls)
     electrons    :    254.56s CPU    262.54s WALL (       1 calls)

     Called by init_run:
     wfcinit      :      0.00s CPU      0.00s WALL (       1 calls)
     potinit      :      0.02s CPU      0.03s WALL (       1 calls)
     hinit0       :      0.04s CPU      0.08s WALL (       1 calls)

     Called by electrons:
     c_bands      :    254.56s CPU    262.53s WALL (       1 calls)
     v_of_rho     :      0.02s CPU      0.02s WALL (       1 calls)

     Called by c_bands:
     init_us_2    :      0.00s CPU      0.00s WALL (       2 calls)
     init_us_2:cp :      0.00s CPU      0.00s WALL (       2 calls)
     cegterg      :    250.44s CPU    258.23s WALL (       2 calls)

     Called by *egterg:
     cdiaghg      :    231.89s CPU    239.31s WALL (      24 calls)
     h_psi        :      3.96s CPU      4.04s WALL (      26 calls)
     g_psi        :      0.04s CPU      0.05s WALL (      22 calls)

     Called by h_psi:
     h_psi:calbec :      0.11s CPU      0.11s WALL (      26 calls)
     vloc_psi     :      3.69s CPU      3.76s WALL (      26 calls)
     add_vuspsi   :      0.09s CPU      0.09s WALL (      26 calls)

     General routines
     calbec       :      0.11s CPU      0.11s WALL (      26 calls)
     fft          :      0.01s CPU      0.05s WALL (      10 calls)
     fftw         :      3.28s CPU      3.33s WALL (   35760 calls)
 
     Parallel routines
 
     PWSCF        :   4m15.31s CPU   4m23.75s WALL

 
   This run was terminated on:   7:53:31  16Apr2024            

=------------------------------------------------------------------------------=
   JOB DONE.
=------------------------------------------------------------------------------=
