
     Program PWSCF v.7.1 starts on 16Apr2024 at  7:37:37 

     This program is part of the open-source Quantum ESPRESSO suite
     for quantum simulation of materials; please cite
         "P. Giannozzi et al., J. Phys.:Condens. Matter 21 395502 (2009);
         "P. Giannozzi et al., J. Phys.:Condens. Matter 29 465901 (2017);
         "P. Giannozzi et al., J. Chem. Phys. 152 154105 (2020);
          URL http://www.quantum-espresso.org", 
     in publications or presentations arising from this work. More details at
     http://www.quantum-espresso.org/quote

     Parallel version (MPI), running on     8 processors

     MPI processes distributed on     1 nodes
     124364 MiB available memory on the printing compute node when the environment starts
 
     Reading input from pw_SnS2_nscf_k0_E41.in
Warning: card &IONS ignored
Warning: card / ignored
Warning: card &CELL ignored
Warning: card / ignored

     Current dimensions of program PWSCF are:
     Max number of different atomic species (ntypx) = 10
     Max number of k-points (npk) =  40000
     Max angular momentum in pseudopotentials (lmaxx) =  4

     Atomic positions and unit cell read from directory:
     out/SnS2.save/
     Atomic positions from file used, from input discarded
 
 
     R & G space division:  proc/nbgrp/npool/nimage =       8
     Subspace diagonalization in iterative solution of the eigenvalue problem:
     one sub-group per band group will be used
     scalapack distributed-memory algorithm (size of sub-group:  2*  2 procs)

 
     Parallelization info
     --------------------
     sticks:   dense  smooth     PW     G-vecs:    dense   smooth      PW
     Min          68      68     16                 8014     8014     995
     Max          69      69     18                 8035     8035    1006
     Sum         547     547    139                64179    64179    7991
 
     Using Slab Decomposition
 


     bravais-lattice index     =            4
     lattice parameter (alat)  =       6.9420  a.u.
     unit-cell volume          =    1811.2082 (a.u.)^3
     number of atoms/cell      =            3
     number of atomic types    =            2
     number of electrons       =        26.00
     number of Kohn-Sham states=         1200
     kinetic-energy cutoff     =      41.0000  Ry
     charge density cutoff     =     164.0000  Ry
     Exchange-correlation= PBE
                           (   1   4   3   4   0   0   0)

     celldm(1)=   6.941954  celldm(2)=   0.000000  celldm(3)=   6.251619
     celldm(4)=   0.000000  celldm(5)=   0.000000  celldm(6)=   0.000000

     crystal axes: (cart. coord. in units of alat)
               a(1) = (   1.000000   0.000000   0.000000 )  
               a(2) = (  -0.500000   0.866025   0.000000 )  
               a(3) = (   0.000000   0.000000   6.251619 )  

     reciprocal axes: (cart. coord. in units 2 pi/alat)
               b(1) = (  1.000000  0.577350  0.000000 )  
               b(2) = (  0.000000  1.154701  0.000000 )  
               b(3) = (  0.000000  0.000000  0.159959 )  


     PseudoPot. # 1 for S  read from file:
     /usr/scratch4/magr4985/FGWC/FGWC/pseudo/SG15/S.upf
     MD5 check sum: f9d020296ee6110346977bfd66d424f6
     Pseudo is Norm-conserving, Zval =  6.0
     Generated using ONCVPSP code by D. R. Hamann
     Using radial grid of  602 points,  4 beta functions with: 
                l(1) =   0
                l(2) =   0
                l(3) =   1
                l(4) =   1

     PseudoPot. # 2 for Sn read from file:
     /usr/scratch4/magr4985/FGWC/FGWC/pseudo/SG15/Sn.upf
     MD5 check sum: 6680f7ee4d83b53e0fcd4167fcb72813
     Pseudo is Norm-conserving, Zval = 14.0
     Generated using ONCVPSP code by D. R. Hamann
     Using radial grid of  602 points,  6 beta functions with: 
                l(1) =   0
                l(2) =   0
                l(3) =   1
                l(4) =   1
                l(5) =   2
                l(6) =   2

     atomic species   valence    mass     pseudopotential
        S              6.00    32.06500     S ( 1.00)
        Sn            14.00   118.71000     Sn( 1.00)

     12 Sym. Ops., with inversion, found



   Cartesian axes

     site n.     atom                  positions (alat units)
         1           Sn  tau(   1) = (   0.0000000   0.0000000   3.1258098  )
         2           S   tau(   2) = (   0.5000000   0.2886752   2.7172909  )
         3           S   tau(   3) = (   0.0000000   0.5773502   3.5343286  )

     number of k points=     1  Gaussian smearing, width (Ry)=  0.0005
                       cart. coord. in units 2pi/alat
        k(    1) = (   0.0000000   0.0000000   0.0000000), wk =   2.0000000

     Dense  grid:    64179 G-vectors     FFT dimensions: (  30,  30, 180)

     Estimated max dynamical RAM per process >     163.71 MB

     Estimated total dynamical RAM >       1.28 GB

     The potential is recalculated from file :
     out/SnS2.save/charge-density

     Starting wfcs are random

     Band Structure Calculation
     Davidson diagonalization with overlap

     ethr =  5.00E-06,  avg # of iterations = 12.0

     total cpu time spent up to now is      185.6 secs

     End of band structure calculation

          k = 0.0000 0.0000 0.0000 (  7991 PWs)   bands (ev):

   -24.0960 -24.0960 -24.0466 -24.0272 -24.0272 -16.5684 -14.8954  -8.2025
    -4.1160  -3.6635  -3.6635  -3.3155  -3.3155  -0.8869   0.6572   2.2498
     2.2498   3.1560   3.1778   3.8098   4.4693   5.2490   6.1982   6.2793
     6.2793   6.3551   7.4548   8.5673   8.9330   8.9330   9.1527   9.2391
     9.8002   9.8002  11.0803  11.3888  13.2732  13.3767  13.3767  14.2246
    15.8928  15.9848  15.9848  16.3921  17.3154  17.5482  17.5482  17.7449
    17.7624  17.7624  18.2119  18.2654  18.2654  18.2924  18.5341  18.5341
    18.6014  18.6014  18.6635  18.6934  18.6934  18.6949  18.9019  19.0376
    19.4905  19.4905  19.6956  19.7092  19.7092  19.8031  19.9837  19.9837
    20.0505  20.0505  20.2280  20.5902  21.1518  21.4574  21.4851  21.4851
    21.6526  21.6526  22.1356  22.1356  22.2098  22.2098  22.3032  22.6676
    23.0305  23.3110  24.1213  24.1213  24.2349  24.2349  24.2781  24.3980
    24.9150  24.9150  24.9496  24.9496  25.3661  25.5909  26.7193  26.7737
    26.7737  26.8449  26.8449  26.9923  27.4926  27.4926  27.6183  27.6183
    27.9784  28.0953  28.2650  28.2650  28.2764  28.8938  28.8938  29.0677
    29.0677  29.1770  29.4441  30.5165  30.5444  31.2034  31.2034  31.3008
    31.5255  31.5255  32.1025  32.1025  32.6905  32.6905  32.8411  33.1973
    33.1973  33.8874  34.3516  34.3861  34.6676  34.9287  35.5618  35.5618
    36.3608  36.5266  36.5266  37.1353  37.1353  37.4208  37.4208  37.7312
    38.1807  38.1807  38.6166  38.9474  38.9474  38.9974  39.1493  39.9270
    40.2920  40.3893  40.3893  41.0185  41.2351  41.3088  41.3088  42.0546
    42.0546  42.4919  42.8968  42.8968  43.2615  43.2615  43.3411  43.7354
    43.8149  44.1285  44.1285  44.2270  44.6342  44.6342  45.4484  45.8269
    45.8269  45.9092  46.6630  46.6630  46.7505  47.0984  47.0989  47.2767
    47.2767  47.3966  47.5445  47.5445  47.6664  47.6664  47.9024  47.9024
    48.0364  48.1677  48.1677  48.3031  48.3094  48.3190  48.3190  48.3595
    48.3788  48.3788  48.3950  48.6571  48.6571  48.7442  48.7442  48.7821
    48.9338  48.9338  49.1653  49.1653  49.2417  49.4119  49.4262  49.5897
    49.5897  49.6501  49.6501  49.6558  49.6719  49.6952  50.3626  50.3626
    50.3696  50.3796  50.3796  51.2382  51.2382  51.3193  51.3193  51.3196
    51.5582  51.8264  51.8494  52.0593  52.0593  52.2432  52.2432  52.4354
    52.4354  52.5318  52.6592  53.5136  53.5136  54.1474  54.1474  54.3246
    54.3632  54.3633  54.4805  54.6724  54.6810  54.6810  54.7075  54.9523
    54.9849  54.9849  55.1626  55.3557  55.5998  55.5998  55.6383  55.6383
    56.0831  56.3839  56.3839  56.6704  56.6704  56.7331  56.7331  56.8959
    56.9611  57.8478  57.8478  57.8804  58.0245  58.0245  58.1869  58.1879
    58.7204  58.7954  58.7954  59.1751  59.1751  59.6333  60.0314  60.2965
    60.2965  60.4410  60.5578  60.5578  60.8258  60.9893  60.9893  61.0785
    61.3078  61.3078  61.4978  61.4978  62.0412  62.0412  62.2297  62.2869
    62.3139  62.3943  62.4635  62.4635  62.5550  62.5550  62.6628  62.7014
    62.7014  62.8827  63.0458  63.0458  63.0470  63.1353  63.1365  63.1365
    63.2245  63.2382  63.2382  63.3618  63.3846  63.3846  63.4289  63.4289
    63.4771  63.4771  63.4973  63.8331  63.9525  64.1440  64.1440  64.3866
    64.4219  64.4219  64.5591  64.5591  64.6677  64.7341  64.7341  64.7494
    64.7947  65.3259  65.3259  65.6920  65.9806  65.9806  66.1154  66.1154
    66.3011  66.3011  66.4548  66.4823  66.6803  66.7804  66.7804  67.0041
    67.0085  67.1634  67.1634  67.3491  67.4529  67.4529  67.5640  67.5640
    67.7431  67.9690  67.9690  68.0474  68.2933  68.5518  68.5518  68.8768
    68.9254  69.1474  69.1474  69.3278  69.3278  69.4826  69.6500  69.6500
    69.8482  69.8647  69.8647  69.8657  69.8657  70.0199  70.0199  70.2701
    70.4983  70.6641  71.3750  71.3750  71.6565  71.6565  71.8670  71.8670
    72.0059  72.0059  72.1922  72.2344  72.3140  72.3957  72.5092  72.5092
    72.7085  72.8084  73.0022  73.0022  73.2691  73.2691  73.4503  73.6116
    73.6706  73.6706  73.6938  74.2636  74.2636  74.7244  74.8599  75.0006
    75.0006  75.4146  75.7239  75.7239  75.8442  75.8442  76.4386  76.4386
    76.4853  77.1101  77.2670  77.2670  77.3206  77.3206  77.3546  77.6144
    77.7968  78.0168  78.0168  78.0624  78.0624  78.1995  78.2872  78.3709
    78.7414  78.7414  78.7739  78.7739  79.2358  79.2358  79.3640  79.3640
    79.4031  79.4961  79.5537  79.5614  79.5614  80.4377  80.4377  81.0400
    81.1698  81.3169  81.3802  81.3802  81.8742  81.8742  82.2043  82.2757
    82.4499  82.9746  82.9746  83.1407  83.2024  83.2024  83.2786  83.8837
    83.8837  84.2516  84.3145  84.3145  84.4259  84.6599  84.7947  84.7947
    84.8350  84.8350  85.3582  85.4935  85.4935  85.5104  85.5104  86.0176
    86.1096  86.1639  86.2696  86.4876  86.8109  86.8109  87.2191  87.2191
    87.3522  87.3522  87.3598  87.4809  87.4809  87.4927  87.4927  87.6638
    87.7366  87.9036  88.2778  88.2778  88.3583  88.3583  88.7000  89.4412
    89.4412  89.5930  89.5930  90.5683  90.5683  90.6013  90.6013  90.7875
    90.8059  91.1354  91.1506  91.2619  91.2619  91.7129  91.8768  91.8768
    92.1355  92.1355  92.2408  92.3890  92.4335  93.0470  93.1442  93.1442
    93.6348  93.6357  93.6357  93.6496  93.8475  93.8475  94.0213  94.0357
    94.0357  94.3297  94.9626  94.9626  94.9856  95.2457  95.2874  95.2874
    95.5282  95.6921  95.6921  95.8506  95.8506  96.3088  96.3088  96.4945
    96.4945  96.5646  96.5646  96.5657  96.5657  96.8632  97.2988  97.3146
    97.8169  98.4991  98.4991  98.8670  98.8670  98.9774  99.2765  99.2765
    99.3645  99.3645  99.4176  99.4303  99.6256  99.6256  99.7872  99.8830
    99.8830  99.9789  99.9789 100.1207 100.4942 100.5320 100.5555 100.6071
   100.6071 101.4656 101.6299 101.6299 101.8133 101.8474 101.8474 102.0553
   102.5000 102.7131 102.8965 102.8965 103.6998 104.1605 104.1605 104.2642
   104.3139 104.3139 104.3595 104.3595 104.4715 104.6317 104.6317 104.6352
   104.8430 104.8430 105.3061 105.4686 105.4686 105.6407 105.7972 106.0420
   106.0420 106.1157 106.1157 106.3167 106.5373 106.5373 106.5790 106.6458
   106.7561 106.7561 106.8771 107.0224 107.0235 107.0235 107.1274 107.1274
   107.1964 107.1964 107.2471 107.2471 107.3367 107.3367 107.3779 107.4713
   107.4713 107.4871 107.5322 107.5655 107.5760 107.5838 107.6073 107.6073
   107.6468 107.6468 107.7553 107.7553 107.7694 107.7694 107.7803 107.7941
   107.7941 107.8033 107.8272 107.8272 107.8440 107.8519 107.8519 108.0749
   108.0861 108.1892 108.1892 108.1968 108.3341 108.3341 108.3371 108.4408
   108.4408 108.5404 108.6907 108.7138 108.7138 108.7457 108.7457 108.7468
   108.7468 108.9693 108.9921 109.0178 109.0178 109.1033 109.1174 109.1500
   109.1500 109.1734 109.1851 109.1851 109.2198 109.2228 109.2228 109.5072
   109.7144 109.7144 110.2464 110.2953 110.2953 110.4605 110.5225 110.5225
   110.6109 110.6109 110.8134 110.9282 110.9329 110.9329 110.9989 111.1136
   111.2914 111.2914 111.3034 111.3034 111.3243 111.3398 111.3398 111.3646
   111.7701 111.7701 111.7921 111.7921 111.8613 112.2967 112.5459 112.5459
   112.5469 112.8954 112.8954 112.8954 112.9257 113.1653 113.1653 113.2987
   113.2987 113.4556 113.5903 113.6400 113.6842 113.6842 113.7174 113.7714
   113.7714 113.9156 113.9156 114.0362 114.0362 114.0841 114.1726 114.1771
   114.1867 114.2466 114.2466 114.3805 114.3805 114.6296 114.6763 114.6763
   114.9095 114.9095 114.9529 114.9529 115.0147 115.0543 115.3395 115.3837
   115.3837 115.7008 115.7535 116.0426 116.0426 116.1475 116.3400 116.3400
   116.4548 116.4874 116.5032 116.5445 116.5445 116.5806 116.5806 116.7190
   116.7190 116.9114 116.9114 117.1361 117.1813 117.3348 117.3348 117.3750
   117.3750 117.3859 117.3967 117.4254 117.4254 117.7793 117.7793 117.7964
   117.8222 117.8467 117.8467 117.9094 117.9094 117.9149 117.9231 117.9231
   117.9242 118.1198 118.1198 118.8443 118.9183 118.9183 119.3226 119.3226
   119.3849 119.4550 119.4550 119.6474 119.7162 120.0452 120.3646 120.5743
   120.5743 120.7839 120.7839 121.2248 121.2486 121.2824 121.2824 121.5097
   121.5134 121.5319 121.5319 121.6557 121.6557 121.7440 121.7440 121.7474
   121.7474 121.7837 121.8387 121.8387 121.8429 122.3384 122.5156 122.5156
   122.5403 122.7410 122.7410 122.7920 122.7920 122.8313 123.2044 123.2044
   123.3501 123.6886 123.7908 123.7908 124.0588 124.2547 124.4039 124.6998
   124.6998 124.9591 124.9591 125.3385 125.3385 125.4165 125.4165 125.4524
   125.5406 125.5438 125.8993 125.9031 126.0205 126.1904 126.2150 126.2150
   126.3104 126.3221 126.3221 126.4790 126.4790 126.6088 126.6088 126.6467
   126.6467 126.7229 126.7229 126.8273 126.8634 126.8732 126.8735 126.9002
   126.9002 127.2023 127.2023 127.5741 127.5741 127.5841 127.6998 127.7371
   127.7371 128.0324 128.0324 128.0995 128.2074 128.4294 128.4294 128.6781
   128.6781 129.9333 129.9333 129.9379 130.2221 130.2221 130.4618 130.4618
   130.9400 130.9481 130.9481 131.0783 131.0783 131.1584 131.2571 131.2701
   131.3791 131.3791 131.3934 131.4858 131.4858 131.4866 131.5335 131.5335
   131.6473 131.6828 131.6828 131.8285 131.8438 131.9303 131.9303 132.5501
   132.7624 132.7624 132.8112 132.8112 132.9829 133.3208 133.3208 133.3856
   133.6231 134.2053 134.2053 134.2410 134.2410 134.3241 134.4368 134.4368
   134.7417 135.2869 135.3866 135.3866 135.5676 135.5676 135.9194 135.9246
   135.9280 136.0796 136.0796 136.2140 136.5584 136.5584 136.6333 136.6388
   136.6388 136.7450 136.8116 136.8147 136.8147 136.9368 136.9368 136.9947
   137.1548 137.2533 137.3150 137.3150 137.3380 137.3380 137.3654 137.3883
   137.4699 137.4863 137.4863 137.4998 137.4998 137.5421 137.5798 137.5798
   137.6440 137.6440 137.7279 137.7833 137.7833 137.8861 137.9143 138.1239
   138.1239 138.1454 138.1454 138.2112 138.2112 138.2733 138.4613 138.5125
   138.6331 138.6750 138.6750 138.7017 138.7017 138.8157 138.8157 138.8656
   138.8656 138.9764 139.0668 139.0668 139.0823 139.1165 139.3160 139.5150
   139.5150 139.8288 139.8288 139.8782 139.8782 140.1948 140.1948 140.2912
   140.4002 140.4002 140.4496 140.5875 140.6070 140.6070 140.6920 140.7415
   140.8419 140.8419 140.9634 140.9634 140.9957 141.0895 141.0895 141.6035
   141.7780 141.7780 141.8124 141.8124 142.2753 142.5183 142.5183 142.7303
   142.9553 142.9868 142.9868 143.0422 143.2401 143.2402 143.3129 143.4437
   143.5439 143.6437 143.6437 143.7386 143.8269 143.8269 143.8577 143.8577
   143.9942 143.9942 144.0403 144.1659 144.2974 144.3224 144.3224 144.4470
   144.4470 144.5256 144.5256 144.5937 144.6700 145.1588 145.1588 145.3017
   145.3017 145.3768 145.5762 145.8072 145.8072 145.8913 145.8913 146.0202
   146.3483 146.3483 146.4576 146.4576 146.4889 146.4889 146.7562 146.7786
   146.7855 146.8640 147.2110 147.2110 147.2700 147.2937 147.5395 147.5395
   147.8636 147.8636 148.2068 148.2068 148.5083 148.5713 148.6648 148.6648
   149.1193 149.2398 149.7086 149.7086 149.8699 149.8699 149.9031 150.1835
   150.2445 150.3165 150.3165 150.3673 150.3673 150.4522 150.4522 150.4601
   150.5603 150.6523 150.7547 150.7969 151.0259 151.0259 151.0445 151.0445
   151.1260 151.1504 151.1504 151.1568 151.2834 151.3130 151.3130 151.4582
   151.4606 151.4620 151.4620 151.7795 151.8279 151.8279 151.8741 151.8741
   152.2833 152.2833 152.2965 152.2965 152.3348 152.3551 152.3551 152.3807

     the Fermi energy is    -2.0833 ev
     (compare with:    -2.6157 eV, computed in scf)

     Writing all to output data dir out/SnS2.save/
 
     init_run     :      0.20s CPU      0.26s WALL (       1 calls)
     electrons    :    179.70s CPU    185.13s WALL (       1 calls)

     Called by init_run:
     wfcinit      :      0.00s CPU      0.00s WALL (       1 calls)
     potinit      :      0.05s CPU      0.07s WALL (       1 calls)
     hinit0       :      0.04s CPU      0.07s WALL (       1 calls)

     Called by electrons:
     c_bands      :    179.70s CPU    185.13s WALL (       1 calls)
     v_of_rho     :      0.01s CPU      0.02s WALL (       1 calls)

     Called by c_bands:
     init_us_2    :      0.00s CPU      0.00s WALL (       1 calls)
     init_us_2:cp :      0.00s CPU      0.00s WALL (       1 calls)
     cegterg      :    177.46s CPU    182.76s WALL (       1 calls)

     Called by *egterg:
     cdiaghg      :    166.09s CPU    171.16s WALL (      13 calls)
     h_psi        :      2.35s CPU      2.41s WALL (      14 calls)
     g_psi        :      0.03s CPU      0.03s WALL (      12 calls)

     Called by h_psi:
     h_psi:calbec :      0.06s CPU      0.07s WALL (      14 calls)
     vloc_psi     :      2.20s CPU      2.24s WALL (      14 calls)
     add_vuspsi   :      0.05s CPU      0.05s WALL (      14 calls)

     General routines
     calbec       :      0.06s CPU      0.07s WALL (      14 calls)
     fft          :      0.01s CPU      0.04s WALL (      10 calls)
     fftw         :      1.95s CPU      1.99s WALL (   20858 calls)
 
     Parallel routines
 
     PWSCF        :   3m 0.27s CPU   3m 5.93s WALL

 
   This run was terminated on:   7:40:43  16Apr2024            

=------------------------------------------------------------------------------=
   JOB DONE.
=------------------------------------------------------------------------------=
