
     Program PWSCF v.7.1 starts on 16Apr2024 at  8:49: 1 

     This program is part of the open-source Quantum ESPRESSO suite
     for quantum simulation of materials; please cite
         "P. Giannozzi et al., J. Phys.:Condens. Matter 21 395502 (2009);
         "P. Giannozzi et al., J. Phys.:Condens. Matter 29 465901 (2017);
         "P. Giannozzi et al., J. Chem. Phys. 152 154105 (2020);
          URL http://www.quantum-espresso.org", 
     in publications or presentations arising from this work. More details at
     http://www.quantum-espresso.org/quote

     Parallel version (MPI), running on     8 processors

     MPI processes distributed on     1 nodes
     124357 MiB available memory on the printing compute node when the environment starts
 
     Reading input from pw_SnS2_nscf_k13_E41.in
Warning: card &IONS ignored
Warning: card / ignored
Warning: card &CELL ignored
Warning: card / ignored

     Current dimensions of program PWSCF are:
     Max number of different atomic species (ntypx) = 10
     Max number of k-points (npk) =  40000
     Max angular momentum in pseudopotentials (lmaxx) =  4

     Atomic positions and unit cell read from directory:
     out/SnS2.save/
     Atomic positions from file used, from input discarded
 
 
     R & G space division:  proc/nbgrp/npool/nimage =       8
     Subspace diagonalization in iterative solution of the eigenvalue problem:
     one sub-group per band group will be used
     scalapack distributed-memory algorithm (size of sub-group:  2*  2 procs)

 
     Parallelization info
     --------------------
     sticks:   dense  smooth     PW     G-vecs:    dense   smooth      PW
     Min          68      68     20                 8014     8014    1274
     Max          69      69     22                 8035     8035    1287
     Sum         547     547    163                64179    64179   10217
 
     Using Slab Decomposition
 


     bravais-lattice index     =            4
     lattice parameter (alat)  =       6.9420  a.u.
     unit-cell volume          =    1811.2082 (a.u.)^3
     number of atoms/cell      =            3
     number of atomic types    =            2
     number of electrons       =        26.00
     number of Kohn-Sham states=         1200
     kinetic-energy cutoff     =      41.0000  Ry
     charge density cutoff     =     164.0000  Ry
     Exchange-correlation= PBE
                           (   1   4   3   4   0   0   0)

     celldm(1)=   6.941954  celldm(2)=   0.000000  celldm(3)=   6.251619
     celldm(4)=   0.000000  celldm(5)=   0.000000  celldm(6)=   0.000000

     crystal axes: (cart. coord. in units of alat)
               a(1) = (   1.000000   0.000000   0.000000 )  
               a(2) = (  -0.500000   0.866025   0.000000 )  
               a(3) = (   0.000000   0.000000   6.251619 )  

     reciprocal axes: (cart. coord. in units 2 pi/alat)
               b(1) = (  1.000000  0.577350  0.000000 )  
               b(2) = (  0.000000  1.154701  0.000000 )  
               b(3) = (  0.000000  0.000000  0.159959 )  


     PseudoPot. # 1 for S  read from file:
     /usr/scratch4/magr4985/FGWC/FGWC/pseudo/SG15/S.upf
     MD5 check sum: f9d020296ee6110346977bfd66d424f6
     Pseudo is Norm-conserving, Zval =  6.0
     Generated using ONCVPSP code by D. R. Hamann
     Using radial grid of  602 points,  4 beta functions with: 
                l(1) =   0
                l(2) =   0
                l(3) =   1
                l(4) =   1

     PseudoPot. # 2 for Sn read from file:
     /usr/scratch4/magr4985/FGWC/FGWC/pseudo/SG15/Sn.upf
     MD5 check sum: 6680f7ee4d83b53e0fcd4167fcb72813
     Pseudo is Norm-conserving, Zval = 14.0
     Generated using ONCVPSP code by D. R. Hamann
     Using radial grid of  602 points,  6 beta functions with: 
                l(1) =   0
                l(2) =   0
                l(3) =   1
                l(4) =   1
                l(5) =   2
                l(6) =   2

     atomic species   valence    mass     pseudopotential
        S              6.00    32.06500     S ( 1.00)
        Sn            14.00   118.71000     Sn( 1.00)

     12 Sym. Ops., with inversion, found



   Cartesian axes

     site n.     atom                  positions (alat units)
         1           Sn  tau(   1) = (   0.0000000   0.0000000   3.1258098  )
         2           S   tau(   2) = (   0.5000000   0.2886752   2.7172909  )
         3           S   tau(   3) = (   0.0000000   0.5773502   3.5343286  )

     number of k points=     4  Gaussian smearing, width (Ry)=  0.0005
                       cart. coord. in units 2pi/alat
        k(    1) = (   0.0000000   0.0000000   0.0000000), wk =   0.1250000
        k(    2) = (   0.0000000   0.2886751   0.0000000), wk =   0.7500000
        k(    3) = (   0.0000000  -0.5773503   0.0000000), wk =   0.3750000
        k(    4) = (   0.2500000   0.4330127   0.0000000), wk =   0.7500000

     Dense  grid:    64179 G-vectors     FFT dimensions: (  30,  30, 180)

     Estimated max dynamical RAM per process >     237.17 MB

     Estimated total dynamical RAM >       1.85 GB

     The potential is recalculated from file :
     out/SnS2.save/charge-density

     Starting wfcs are random

     Band Structure Calculation
     Davidson diagonalization with overlap

     ethr =  5.00E-06,  avg # of iterations = 11.0

     total cpu time spent up to now is      508.3 secs

     End of band structure calculation

          k = 0.0000 0.0000 0.0000 (  7991 PWs)   bands (ev):

   -24.0960 -24.0960 -24.0466 -24.0272 -24.0272 -16.5684 -14.8954  -8.2025
    -4.1160  -3.6635  -3.6635  -3.3155  -3.3155  -0.8869   0.6572   2.2498
     2.2498   3.1560   3.1778   3.8098   4.4693   5.2490   6.1982   6.2793
     6.2793   6.3551   7.4548   8.5673   8.9330   8.9330   9.1527   9.2391
     9.8002   9.8002  11.0803  11.3888  13.2732  13.3767  13.3767  14.2246
    15.8928  15.9848  15.9848  16.3921  17.3154  17.5482  17.5482  17.7449
    17.7624  17.7624  18.2119  18.2654  18.2654  18.2924  18.5341  18.5341
    18.6014  18.6014  18.6635  18.6934  18.6934  18.6949  18.9019  19.0376
    19.4905  19.4905  19.6956  19.7092  19.7092  19.8031  19.9837  19.9837
    20.0505  20.0505  20.2280  20.5902  21.1518  21.4574  21.4851  21.4851
    21.6526  21.6526  22.1356  22.1356  22.2098  22.2098  22.3032  22.6676
    23.0305  23.3110  24.1213  24.1213  24.2349  24.2349  24.2781  24.3980
    24.9150  24.9150  24.9496  24.9496  25.3661  25.5909  26.7193  26.7737
    26.7737  26.8449  26.8449  26.9923  27.4926  27.4926  27.6183  27.6183
    27.9784  28.0953  28.2650  28.2650  28.2764  28.8938  28.8938  29.0677
    29.0677  29.1770  29.4441  30.5165  30.5444  31.2034  31.2034  31.3008
    31.5255  31.5255  32.1025  32.1025  32.6905  32.6905  32.8411  33.1973
    33.1973  33.8874  34.3516  34.3861  34.6676  34.9287  35.5618  35.5618
    36.3608  36.5266  36.5266  37.1353  37.1353  37.4208  37.4208  37.7312
    38.1807  38.1807  38.6166  38.9474  38.9474  38.9974  39.1493  39.9270
    40.2920  40.3893  40.3893  41.0185  41.2351  41.3088  41.3088  42.0546
    42.0546  42.4919  42.8968  42.8968  43.2615  43.2615  43.3411  43.7354
    43.8149  44.1285  44.1285  44.2270  44.6342  44.6342  45.4484  45.8269
    45.8269  45.9092  46.6630  46.6630  46.7505  47.0984  47.0989  47.2767
    47.2767  47.3966  47.5445  47.5445  47.6664  47.6664  47.9024  47.9024
    48.0364  48.1677  48.1677  48.3031  48.3094  48.3190  48.3190  48.3595
    48.3788  48.3788  48.3950  48.6571  48.6571  48.7442  48.7442  48.7821
    48.9338  48.9338  49.1653  49.1653  49.2417  49.4119  49.4262  49.5897
    49.5897  49.6501  49.6501  49.6558  49.6719  49.6952  50.3626  50.3626
    50.3696  50.3796  50.3796  51.2382  51.2382  51.3193  51.3193  51.3196
    51.5582  51.8264  51.8494  52.0593  52.0593  52.2432  52.2432  52.4354
    52.4354  52.5318  52.6592  53.5136  53.5136  54.1474  54.1474  54.3246
    54.3632  54.3632  54.4805  54.6724  54.6810  54.6810  54.7075  54.9523
    54.9849  54.9849  55.1626  55.3557  55.5998  55.5998  55.6383  55.6383
    56.0831  56.3839  56.3839  56.6704  56.6704  56.7331  56.7331  56.8959
    56.9611  57.8478  57.8478  57.8804  58.0245  58.0245  58.1869  58.1879
    58.7204  58.7954  58.7954  59.1751  59.1751  59.6333  60.0314  60.2965
    60.2965  60.4410  60.5578  60.5578  60.8258  60.9893  60.9893  61.0785
    61.3078  61.3078  61.4978  61.4978  62.0412  62.0412  62.2297  62.2869
    62.3139  62.3943  62.4635  62.4635  62.5550  62.5550  62.6628  62.7014
    62.7014  62.8827  63.0458  63.0458  63.0470  63.1353  63.1365  63.1365
    63.2245  63.2382  63.2382  63.3618  63.3846  63.3846  63.4289  63.4289
    63.4771  63.4771  63.4973  63.8331  63.9525  64.1440  64.1440  64.3866
    64.4219  64.4219  64.5591  64.5591  64.6677  64.7341  64.7341  64.7494
    64.7947  65.3259  65.3259  65.6920  65.9806  65.9806  66.1154  66.1154
    66.3011  66.3011  66.4548  66.4823  66.6803  66.7804  66.7804  67.0041
    67.0085  67.1634  67.1634  67.3491  67.4529  67.4529  67.5640  67.5640
    67.7431  67.9690  67.9690  68.0474  68.2933  68.5518  68.5518  68.8768
    68.9254  69.1474  69.1474  69.3278  69.3278  69.4826  69.6500  69.6500
    69.8482  69.8647  69.8647  69.8657  69.8657  70.0199  70.0199  70.2701
    70.4983  70.6641  71.3750  71.3750  71.6565  71.6565  71.8670  71.8670
    72.0059  72.0059  72.1922  72.2344  72.3140  72.3957  72.5092  72.5092
    72.7085  72.8084  73.0022  73.0022  73.2691  73.2691  73.4503  73.6116
    73.6706  73.6706  73.6938  74.2636  74.2636  74.7244  74.8599  75.0006
    75.0006  75.4146  75.7239  75.7239  75.8442  75.8442  76.4386  76.4386
    76.4853  77.1101  77.2670  77.2670  77.3206  77.3206  77.3546  77.6144
    77.7968  78.0168  78.0168  78.0624  78.0624  78.1995  78.2872  78.3709
    78.7414  78.7414  78.7739  78.7739  79.2358  79.2358  79.3640  79.3640
    79.4031  79.4961  79.5537  79.5614  79.5614  80.4377  80.4377  81.0400
    81.1698  81.3169  81.3802  81.3802  81.8742  81.8742  82.2043  82.2757
    82.4499  82.9746  82.9746  83.1407  83.2024  83.2024  83.2786  83.8837
    83.8837  84.2516  84.3145  84.3145  84.4259  84.6599  84.7947  84.7947
    84.8350  84.8350  85.3582  85.4935  85.4935  85.5104  85.5104  86.0176
    86.1096  86.1639  86.2696  86.4876  86.8109  86.8109  87.2191  87.2191
    87.3522  87.3522  87.3598  87.4809  87.4809  87.4927  87.4927  87.6638
    87.7366  87.9036  88.2778  88.2778  88.3583  88.3583  88.7000  89.4412
    89.4412  89.5930  89.5930  90.5683  90.5683  90.6013  90.6013  90.7875
    90.8059  91.1354  91.1506  91.2619  91.2619  91.7129  91.8768  91.8768
    92.1355  92.1355  92.2408  92.3890  92.4335  93.0470  93.1442  93.1442
    93.6348  93.6357  93.6357  93.6496  93.8475  93.8475  94.0213  94.0357
    94.0357  94.3297  94.9626  94.9626  94.9856  95.2457  95.2874  95.2874
    95.5282  95.6921  95.6921  95.8506  95.8506  96.3088  96.3088  96.4945
    96.4945  96.5646  96.5646  96.5657  96.5657  96.8632  97.2988  97.3146
    97.8169  98.4991  98.4991  98.8670  98.8670  98.9774  99.2765  99.2765
    99.3645  99.3645  99.4176  99.4303  99.6256  99.6256  99.7872  99.8830
    99.8830  99.9789  99.9789 100.1207 100.4942 100.5320 100.5555 100.6071
   100.6071 101.4656 101.6299 101.6299 101.8133 101.8474 101.8474 102.0553
   102.5000 102.7131 102.8965 102.8965 103.6998 104.1605 104.1605 104.2642
   104.3139 104.3139 104.3595 104.3595 104.4715 104.6317 104.6317 104.6352
   104.8430 104.8430 105.3061 105.4686 105.4686 105.6407 105.7972 106.0420
   106.0420 106.1157 106.1157 106.3167 106.5373 106.5373 106.5790 106.6458
   106.7561 106.7561 106.8771 107.0224 107.0235 107.0235 107.1274 107.1274
   107.1964 107.1964 107.2471 107.2471 107.3367 107.3367 107.3779 107.4713
   107.4713 107.4871 107.5322 107.5655 107.5760 107.5838 107.6073 107.6073
   107.6468 107.6468 107.7553 107.7553 107.7694 107.7694 107.7803 107.7941
   107.7941 107.8033 107.8272 107.8272 107.8440 107.8519 107.8519 108.0749
   108.0861 108.1892 108.1892 108.1968 108.3341 108.3341 108.3371 108.4408
   108.4408 108.5404 108.6907 108.7138 108.7138 108.7457 108.7457 108.7468
   108.7468 108.9693 108.9921 109.0178 109.0178 109.1033 109.1174 109.1500
   109.1500 109.1734 109.1851 109.1851 109.2198 109.2228 109.2228 109.5072
   109.7144 109.7144 110.2464 110.2953 110.2953 110.4605 110.5225 110.5225
   110.6109 110.6109 110.8134 110.9282 110.9329 110.9329 110.9989 111.1136
   111.2914 111.2914 111.3034 111.3034 111.3243 111.3398 111.3398 111.3646
   111.7701 111.7701 111.7921 111.7921 111.8613 112.2967 112.5459 112.5459
   112.5469 112.8954 112.8954 112.8954 112.9257 113.1653 113.1653 113.2987
   113.2987 113.4556 113.5903 113.6400 113.6842 113.6842 113.7174 113.7714
   113.7714 113.9156 113.9156 114.0362 114.0362 114.0841 114.1726 114.1771
   114.1867 114.2466 114.2466 114.3805 114.3805 114.6296 114.6763 114.6763
   114.9095 114.9095 114.9529 114.9529 115.0147 115.0543 115.3395 115.3837
   115.3837 115.7008 115.7535 116.0426 116.0426 116.1475 116.3400 116.3400
   116.4548 116.4874 116.5032 116.5445 116.5445 116.5806 116.5806 116.7190
   116.7190 116.9114 116.9114 117.1361 117.1813 117.3348 117.3348 117.3750
   117.3750 117.3859 117.3967 117.4254 117.4254 117.7793 117.7793 117.7964
   117.8222 117.8467 117.8467 117.9094 117.9094 117.9149 117.9231 117.9231
   117.9242 118.1198 118.1198 118.8443 118.9183 118.9183 119.3226 119.3226
   119.3849 119.4550 119.4550 119.6474 119.7162 120.0452 120.3646 120.5743
   120.5743 120.7839 120.7839 121.2248 121.2486 121.2824 121.2824 121.5097
   121.5134 121.5319 121.5319 121.6557 121.6557 121.7440 121.7440 121.7474
   121.7474 121.7837 121.8387 121.8387 121.8429 122.3384 122.5156 122.5156
   122.5403 122.7410 122.7410 122.7920 122.7920 122.8313 123.2044 123.2044
   123.3501 123.6886 123.7908 123.7908 124.0588 124.2547 124.4039 124.6998
   124.6998 124.9591 124.9591 125.3385 125.3385 125.4165 125.4165 125.4524
   125.5406 125.5438 125.8993 125.9031 126.0205 126.1904 126.2150 126.2150
   126.3104 126.3221 126.3221 126.4790 126.4790 126.6088 126.6088 126.6467
   126.6467 126.7229 126.7229 126.8273 126.8634 126.8732 126.8735 126.9002
   126.9002 127.2023 127.2023 127.5741 127.5741 127.5841 127.6998 127.7371
   127.7371 128.0324 128.0324 128.0995 128.2074 128.4294 128.4294 128.6781
   128.6781 129.9333 129.9333 129.9379 130.2221 130.2221 130.4618 130.4618
   130.9400 130.9481 130.9481 131.0783 131.0783 131.1584 131.2571 131.2701
   131.3791 131.3791 131.3934 131.4858 131.4858 131.4866 131.5335 131.5335
   131.6473 131.6828 131.6828 131.8285 131.8438 131.9303 131.9303 132.5501
   132.7624 132.7624 132.8112 132.8112 132.9829 133.3208 133.3208 133.3856
   133.6231 134.2053 134.2053 134.2410 134.2410 134.3241 134.4368 134.4368
   134.7417 135.2869 135.3866 135.3866 135.5676 135.5676 135.9194 135.9246
   135.9280 136.0796 136.0796 136.2140 136.5584 136.5584 136.6333 136.6388
   136.6388 136.7450 136.8116 136.8147 136.8147 136.9368 136.9368 136.9947
   137.1548 137.2533 137.3150 137.3150 137.3380 137.3380 137.3654 137.3883
   137.4699 137.4863 137.4863 137.4998 137.4998 137.5421 137.5798 137.5798
   137.6440 137.6440 137.7279 137.7833 137.7833 137.8861 137.9143 138.1239
   138.1239 138.1454 138.1454 138.2112 138.2112 138.2733 138.4613 138.5125
   138.6331 138.6750 138.6750 138.7017 138.7017 138.8157 138.8157 138.8656
   138.8656 138.9764 139.0668 139.0668 139.0823 139.1165 139.3160 139.5150
   139.5150 139.8288 139.8288 139.8782 139.8782 140.1948 140.1948 140.2912
   140.4002 140.4002 140.4496 140.5875 140.6070 140.6070 140.6920 140.7415
   140.8419 140.8419 140.9634 140.9634 140.9957 141.0895 141.0895 141.6035
   141.7780 141.7780 141.8124 141.8124 142.2753 142.5183 142.5183 142.7303
   142.9553 142.9868 142.9868 143.0422 143.2402 143.2402 143.3129 143.4437
   143.5439 143.6437 143.6437 143.7386 143.8269 143.8269 143.8577 143.8577
   143.9942 143.9942 144.0403 144.1659 144.2974 144.3224 144.3224 144.4470
   144.4470 144.5256 144.5256 144.5937 144.6700 145.1588 145.1588 145.3017
   145.3017 145.3768 145.5762 145.8072 145.8072 145.8913 145.8913 146.0202
   146.3483 146.3483 146.4576 146.4576 146.4889 146.4889 146.7562 146.7786
   146.7855 146.8640 147.2110 147.2110 147.2700 147.2937 147.5395 147.5395
   147.8636 147.8636 148.2068 148.2068 148.5083 148.5713 148.6648 148.6648
   149.1193 149.2398 149.7086 149.7086 149.8699 149.8699 149.9031 150.1835
   150.2445 150.3165 150.3165 150.3673 150.3673 150.4522 150.4522 150.4601
   150.5603 150.6523 150.7547 150.7969 151.0259 151.0259 151.0445 151.0445
   151.1260 151.1504 151.1504 151.1568 151.2834 151.3130 151.3130 151.4582
   151.4606 151.4620 151.4620 151.7795 151.8279 151.8279 151.8741 151.8741
   152.2833 152.2833 152.2965 152.2965 152.3348 152.3551 152.3551 152.3807

          k = 0.0000 0.2887 0.0000 (  8004 PWs)   bands (ev):

   -24.1248 -24.0676 -24.0490 -24.0250 -24.0218 -15.9211 -14.4841  -8.6092
    -6.1936  -4.9187  -4.7214  -3.8700  -3.3043  -0.6992   1.6631   2.9568
     3.1493   3.7563   4.2848   4.4062   4.7748   5.3645   6.1535   6.4193
     6.7530   7.4369   7.6712   8.3469   9.1460   9.4625   9.9977  10.6796
    11.0389  11.1619  11.6151  12.1171  12.1920  12.9926  13.0392  13.5019
    13.7474  13.8977  14.2000  14.4348  14.7824  14.9932  15.4361  15.5006
    15.6496  15.8075  15.8541  15.8684  16.1553  16.2682  16.6140  16.9838
    17.1380  17.2680  17.7424  18.1855  18.2003  18.3335  18.7024  18.9444
    19.2415  19.7043  19.7692  19.9701  20.1296  20.4531  21.1200  21.1821
    21.6237  21.6279  21.9627  22.0850  22.1934  22.5739  22.6630  22.6692
    23.0080  23.1475  23.2155  23.3860  23.6623  23.6972  24.1168  24.3027
    24.4798  24.5526  24.8011  25.0427  25.2743  25.3080  25.3967  25.7013
    25.9641  26.0821  26.3752  26.4815  26.5530  26.8060  27.0131  27.0761
    27.5009  27.6004  27.6529  28.0829  28.3604  28.5181  28.5908  28.9672
    28.9970  29.0853  29.3585  29.3983  29.6018  29.7978  29.8100  30.2448
    30.4785  30.5553  30.6522  31.2019  31.4896  31.9545  32.0019  32.1450
    32.5223  32.7964  33.2200  33.3012  33.3548  33.6597  33.7107  34.2371
    34.4373  34.6291  34.8509  34.8956  35.1218  35.4601  35.8229  35.9769
    36.3554  36.4005  36.5060  36.8045  37.1372  37.2249  37.4643  37.4778
    37.7080  37.9579  37.9590  38.1396  38.2620  38.3116  38.3462  38.6394
    38.6986  38.9410  39.0477  39.2415  39.3437  39.5185  39.6596  39.6783
    39.8739  40.2623  40.4960  40.6091  40.7015  41.0848  41.5358  41.5438
    41.6208  41.7775  41.8392  42.0586  42.2805  42.3497  42.3716  42.5758
    42.6308  43.0416  43.1130  43.1876  43.4656  43.9994  44.2197  44.2945
    44.9243  44.9296  45.0257  45.2374  45.4680  45.6469  45.7642  45.9628
    46.1482  46.4399  46.8500  46.9697  47.1699  47.2991  47.5890  47.6282
    47.8414  47.9868  48.0479  48.5299  48.5920  48.6917  48.6972  48.8331
    48.8546  48.9137  49.0453  49.1782  49.2205  49.2839  49.3025  49.3732
    49.6491  49.6731  49.7390  49.8554  49.8867  50.4128  50.6523  50.6586
    50.8151  50.8576  51.0266  51.3583  51.5017  51.5141  51.5818  51.9378
    52.1014  52.2593  52.3561  52.4559  52.5942  52.7414  52.7777  52.9852
    53.1382  53.1863  53.2077  53.3182  53.4060  53.5628  53.6786  54.2611
    54.3092  54.6448  54.8699  55.0059  55.0687  55.3585  55.4787  55.5965
    55.6970  55.7321  55.8489  56.0140  56.1498  56.2469  56.2908  56.4781
    56.5853  56.7203  56.7575  56.8986  56.9335  56.9839  57.0039  57.1679
    57.2108  57.3308  57.4418  57.8040  57.8402  57.9826  58.0276  58.1179
    58.1632  58.4728  58.6637  58.7817  58.7882  58.9694  59.3700  59.3738
    59.4290  59.6036  59.6386  59.7962  59.8641  59.8746  59.9537  60.0693
    60.1505  60.2774  60.3048  60.3592  60.3923  60.6014  60.6983  61.0654
    61.1541  61.1677  61.2403  61.6185  61.6405  61.8041  61.9878  62.0241
    62.1100  62.2865  62.3798  62.5975  62.6268  62.8658  62.9533  63.0439
    63.0757  63.1740  63.2276  63.4508  63.5523  63.7067  63.7138  63.8325
    63.9570  64.2370  64.2925  64.3271  64.5834  64.7735  64.9824  64.9963
    65.2428  65.6372  65.6865  65.8033  66.2626  66.3255  66.3987  66.5181
    66.5681  66.6761  66.7051  66.8357  66.8762  67.0474  67.0794  67.2080
    67.3130  67.4153  67.6557  67.7244  68.0151  68.1063  68.2031  68.3707
    68.5591  68.5698  68.7063  68.8058  68.9827  69.0538  69.5109  69.6311
    69.7638  69.9918  70.0474  70.1340  70.2543  70.3643  70.5288  70.7189
    70.9056  70.9728  71.0985  71.2566  71.4243  71.5001  71.5159  71.5541
    71.7398  71.7865  71.7989  72.1396  72.2604  72.3248  72.5173  72.6391
    72.7937  72.8582  72.9860  73.1100  73.2651  73.4424  73.4936  73.5880
    73.7774  73.8838  73.8971  74.0032  74.1456  74.2734  74.4569  74.5475
    74.5924  74.6196  74.7284  75.0215  75.1068  75.1319  75.3002  75.3677
    75.3749  75.4047  75.7428  75.9428  75.9885  76.0684  76.2263  76.2308
    76.5038  76.5146  76.7340  77.2309  77.5651  77.5742  77.7030  78.0321
    78.0485  78.1601  78.3850  78.4642  78.7012  78.7941  78.8246  79.0106
    79.0169  79.0750  79.3246  79.3605  79.5916  79.5921  79.6505  79.8209
    79.9892  80.0331  80.2853  80.3601  80.4202  80.4878  80.5790  80.6916
    80.8819  80.9146  81.1912  81.4289  81.4577  81.5065  81.6560  81.9013
    82.0301  82.1837  82.2143  82.2780  82.4630  82.4960  82.5235  82.8469
    83.1143  83.1367  83.2236  83.3047  83.7194  83.7593  83.8250  83.9710
    84.2080  84.4442  84.4837  84.5789  84.5836  84.9451  84.9646  85.0846
    85.1739  85.2672  85.5075  85.6068  85.7509  85.8387  86.0170  86.0766
    86.0793  86.2915  86.3292  86.4824  86.7286  86.8332  86.9900  87.0650
    87.0746  87.4556  87.5643  87.8893  88.0734  88.1946  88.4784  88.6632
    88.8521  88.9335  89.0037  89.0091  89.2824  89.3476  89.5661  89.5881
    89.7213  89.9161  89.9363  90.0468  90.1790  90.1850  90.2333  90.4019
    90.4595  90.4938  90.8203  90.8454  90.8931  91.0004  91.1828  91.2765
    91.3945  91.4064  91.4804  91.5349  91.6735  91.7152  92.0085  92.0832
    92.2315  92.3300  92.3837  92.4669  92.6148  92.7374  92.7452  92.7963
    92.9995  93.0719  93.1241  93.2798  93.4047  93.4485  93.5376  93.6340
    93.7337  93.7553  93.7971  93.8508  93.9348  93.9748  94.0313  94.1367
    94.1844  94.3445  94.4117  94.5567  94.7169  94.7553  94.8247  94.9986
    95.0095  95.2373  95.3935  95.4698  95.7104  95.9187  95.9579  96.1204
    96.1469  96.3497  96.3948  96.4888  96.6747  96.6902  96.7840  96.8622
    97.0298  97.1256  97.1291  97.2094  97.4572  97.4626  97.6581  97.7380
    97.8126  97.9547  97.9785  98.0387  98.4078  98.4085  98.7665  99.0271
    99.3480  99.3856  99.4893  99.5385  99.5829  99.7033  99.8049  99.8806
    99.9735 100.0162 100.0823 100.1027 100.2132 100.3509 100.4884 100.5727
   100.6617 100.6913 100.8558 100.9191 101.0555 101.2274 101.2582 101.5313
   101.5682 101.7774 101.8092 101.9820 102.0378 102.1767 102.4550 102.7150
   102.7506 102.8781 102.9678 103.0855 103.1155 103.2900 103.3140 103.4588
   103.4891 103.5830 103.5863 103.7875 103.8259 103.8701 103.9557 104.1046
   104.2335 104.3739 104.3897 104.5320 104.6367 104.6940 104.9096 104.9633
   104.9837 105.1222 105.1879 105.2848 105.3148 105.4323 105.5265 105.7141
   105.7963 105.8699 106.1781 106.1995 106.2233 106.5321 106.6397 106.7545
   106.8339 107.0791 107.2465 107.2777 107.3106 107.4104 107.5527 107.6223
   107.6534 107.9149 108.0167 108.0509 108.0861 108.2391 108.4045 108.4462
   108.5563 108.5950 108.6595 108.7021 108.7710 108.7907 109.0246 109.0875
   109.1143 109.2935 109.3425 109.5417 109.8870 109.9647 109.9700 110.1173
   110.4016 110.5413 110.5932 110.6308 110.6641 110.7240 111.0078 111.0823
   111.2867 111.3447 111.4232 111.4797 111.6103 111.6648 111.7339 111.8459
   111.8574 111.9184 112.0411 112.0962 112.1304 112.2743 112.3387 112.3705
   112.4139 112.5488 112.6011 112.6594 112.7946 112.9464 113.1990 113.3566
   113.3768 113.4543 113.5267 113.5434 113.6400 113.7415 113.8978 113.9835
   114.0708 114.0744 114.2409 114.2724 114.3350 114.3781 114.4790 114.5848
   114.5862 114.6387 114.8142 114.9558 115.0664 115.0998 115.1852 115.2171
   115.4871 115.5401 115.5486 115.6170 115.6559 115.8167 115.8750 115.9210
   116.0124 116.1097 116.1282 116.2640 116.3431 116.5567 116.6349 116.7432
   116.7755 117.0844 117.1253 117.2046 117.2919 117.3325 117.4791 117.5804
   117.6096 117.7837 117.7898 118.0207 118.0862 118.1604 118.2382 118.4381
   118.5163 118.5289 118.7264 118.8346 119.0008 119.0310 119.1516 119.2036
   119.3431 119.4656 119.4970 119.6179 119.8104 119.9158 119.9731 120.1057
   120.2421 120.2669 120.3148 120.4054 120.4248 120.9523 120.9595 121.0030
   121.0792 121.3094 121.4340 121.6403 121.7234 121.7243 121.8944 122.0413
   122.0926 122.1701 122.1752 122.4204 122.4906 122.6426 122.7282 122.7551
   122.8571 122.8826 123.0911 123.1653 123.2779 123.3902 123.4163 123.5064
   123.5235 123.5248 123.5677 123.6097 123.6107 123.6752 123.8606 124.0245
   124.1010 124.3147 124.3880 124.4352 124.5231 124.5459 124.6567 124.7541
   124.7544 124.8786 124.9084 125.0063 125.0837 125.1939 125.2212 125.3095
   125.4351 125.4832 125.6797 125.7208 125.7853 125.9228 125.9308 126.0166
   126.0292 126.0464 126.1935 126.2134 126.2671 126.3198 126.4848 126.4872
   126.5996 126.6727 126.7055 126.7937 126.8347 126.8535 126.9006 127.0567
   127.1154 127.1450 127.1576 127.1605 127.2249 127.2479 127.2835 127.3574
   127.4165 127.4675 127.4775 127.6183 127.6441 127.7573 128.0138 128.0277
   128.1774 128.2461 128.3272 128.3812 128.4411 128.5150 128.5759 128.6842
   128.7653 128.7888 128.8050 128.8923 128.9419 129.0516 129.1014 129.3061
   129.3136 129.4252 129.4486 129.6579 129.7408 129.9192 130.0671 130.1225
   130.1901 130.2342 130.2462 130.3571 130.4831 130.5750 130.6050 130.6928
   130.7509 130.7533 130.8532 130.9531 130.9928 131.0880 131.1768 131.1961
   131.3493 131.4737 131.5334 131.8745 131.9610 132.1546 132.2315 132.2491
   132.2840 132.3635 132.5985 132.6166 132.7469 132.7680 132.8609 133.0530
   133.0596 133.1802 133.2221 133.2837 133.3733 133.4107 133.4582 133.5214
   133.6501 133.7620 133.7652 133.8509 134.0069 134.0085 134.1166 134.3984
   134.4569 134.4793 134.5858 134.6495 134.7571 134.9420 135.1168 135.1900
   135.2504 135.3822 135.4302 135.5295 135.7745 135.8161 135.9334 136.0408
   136.0419 136.1356 136.1451 136.3673 136.4086 136.5467 136.5800 136.6095
   136.7063 136.7223 136.8333 136.8606 137.0152 137.1000 137.1321 137.1486
   137.2465 137.3716 137.4762 137.4806 137.5286 137.5614 137.7180 137.7186
   137.7431 137.7847 137.8675 138.0625 138.1878 138.2355 138.4616 138.5027
   138.6541 138.9704 139.0685 139.0892 139.2245 139.2365 139.2864 139.5596
   139.7783 140.0686 140.1944 140.2817 140.5077 140.6435 140.7011 140.8854
   140.9098 141.0182 141.0359 141.0631 141.2324 141.2416 141.2840 141.3480
   141.4686 141.5122 141.6094 141.7332 141.8235 141.9441 141.9501 142.0177
   142.1909 142.3519 142.5103 142.5500 142.7134 142.7356 143.1446 143.2986
   143.4222 143.4952 143.6262 143.8854 143.9959 144.1695 144.2460 144.3471
   144.4428 144.5037 144.7108 144.7587 144.9332 144.9916 145.0994 145.1475
   145.2716 145.3308 145.3319 145.6629 145.7878 145.8058 145.9052 146.0102
   146.0918 146.1913 146.2293 146.4619 146.5704 146.7704 146.8080 146.8667
   146.9697 147.0257 147.1385 147.1549 147.2157 147.3260 147.4430 147.4680
   147.5048 147.7380 147.9796 148.0081 148.0649 148.0969 148.2199 148.2608
   148.3804 148.4544 148.4671 148.4942 148.5751 148.6415 148.6818 148.7263
   148.8286 148.8639 149.1017 149.1203 149.1618 149.2644 149.3777 149.3980
   149.4527 149.4568 149.5766 149.6076 149.6478 149.7639 149.8703 149.9180
   150.0394 150.0460 150.2470 150.2748 150.3757 150.4073 150.6749 150.7023
   150.9241 150.9442 150.9556 151.1017 151.1544 151.3945 151.5005 151.6003
   151.7419 151.9048 151.9359 152.1845 152.2199 152.4004 152.5960 152.7076
   152.8157 152.9221 152.9481 153.0661 153.1097 153.2271 153.2921 153.3733
   153.4925 153.5340 153.7675 153.7932 153.9566 153.9663 154.1659 154.2889
   154.3014 154.3962 154.7526 154.9150 154.9829 155.1125 155.2196 155.3016

          k = 0.0000-0.5774 0.0000 (  8052 PWs)   bands (ev):

   -24.1597 -24.0654 -24.0563 -24.0054 -23.9961 -14.7773 -14.2619  -9.8807
    -7.4861  -5.3737  -5.2624  -3.7703  -3.5029  -1.7177   1.5579   3.0579
     3.1057   3.3576   6.2605   6.3801   6.6068   6.9209   7.4002   7.4246
     7.9720   7.9813   8.5525   8.6971   9.3917   9.4810   9.6395  10.1149
    10.2259  10.6427  10.6704  11.2300  11.7182  11.9842  12.1916  12.3770
    12.4496  12.9307  13.8909  14.0629  14.1117  14.3848  14.4331  14.6361
    14.6381  14.7748  14.8457  15.1517  15.2331  15.7312  15.8661  16.5288
    16.6766  16.8128  17.0884  17.1766  17.3490  17.8229  18.3773  18.5063
    18.8000  19.4138  19.7672  19.7895  20.0302  20.2960  20.6099  20.6932
    20.8217  20.9958  21.5963  21.8458  22.0554  22.1452  22.3254  22.6859
    22.9648  23.7501  23.8357  24.3238  25.1613  25.4854  25.4965  25.7227
    25.7309  26.1776  26.7246  26.8439  27.4133  27.6455  28.0772  28.2811
    28.4719  28.5388  28.8410  28.9070  29.1985  29.2556  29.2960  29.4147
    29.4711  29.6278  29.6973  29.7635  29.7893  29.8851  29.9929  30.1737
    30.2104  30.2835  30.6019  30.6629  30.7314  31.0997  31.1697  31.2332
    31.2488  31.6131  31.6587  31.9708  31.9787  32.0950  32.2143  32.3695
    32.6532  33.0010  33.1831  33.2319  33.3595  33.5346  33.5793  33.6004
    33.6388  34.0106  34.1640  34.2443  34.5107  35.2046  35.2228  35.3587
    35.8535  35.8936  35.9704  36.2451  36.2724  36.5549  36.6754  37.0307
    37.0636  37.0669  37.0689  37.2352  37.2590  37.3694  37.6236  37.6376
    37.7247  37.8006  37.8901  37.9689  38.1049  38.2428  38.7089  38.8399
    38.9870  39.2192  39.2417  39.3280  39.4318  39.5331  39.6515  39.7934
    39.9359  40.0193  40.4898  40.5998  40.8157  40.8780  41.3132  41.4323
    41.4623  42.1989  42.4058  42.5538  42.5715  42.7138  42.7161  43.0206
    43.5526  43.6099  43.8395  43.9961  44.1230  44.1343  44.4766  44.4906
    44.5686  44.7976  44.8235  44.9831  45.1716  45.2021  45.6088  45.9918
    46.4056  46.6500  46.6631  46.8431  47.2602  47.6303  47.7226  48.1218
    48.1732  48.3618  48.6756  48.8129  48.8345  48.9252  49.5201  49.6969
    49.8157  49.9078  50.1778  50.2837  50.3425  50.3859  50.5955  51.0282
    51.0848  51.1942  51.3989  51.4617  51.5748  51.5785  51.5950  51.8628
    51.8831  52.0002  52.0151  52.0271  52.1079  52.1475  52.2487  52.3386
    52.3800  52.7085  52.9344  53.0543  53.1315  53.1573  53.2317  53.3597
    53.3807  53.5111  53.6617  53.7989  53.8799  53.8900  54.0181  54.0862
    54.1451  54.4823  54.4959  54.6903  54.8546  54.8952  54.9485  55.2786
    55.5491  55.6808  55.7214  55.7906  55.8130  55.8542  56.1460  56.2031
    56.2312  56.3323  56.5157  56.8579  57.1698  57.5300  57.6672  57.8890
    58.1158  58.1358  58.2351  58.5026  58.5539  58.5778  58.6137  58.7540
    58.9286  59.0439  59.0534  59.1831  59.3855  59.6229  59.7668  59.8150
    59.8169  59.9445  60.0483  60.2187  60.6811  60.8048  61.1146  61.2723
    61.3675  61.5547  61.6317  61.9979  62.2859  62.3729  62.3763  62.4947
    62.8929  62.9844  63.1921  63.3819  63.7693  63.8708  64.2676  64.4195
    64.5498  64.7060  65.1515  65.2042  65.4788  65.5765  65.8015  65.9276
    65.9555  66.0118  66.1530  66.4245  66.5400  66.6389  66.6508  66.7306
    66.7883  66.8358  67.0112  67.1357  67.2742  67.5000  67.5585  67.6767
    67.6834  67.8353  67.8564  67.9337  68.0470  68.6980  68.7393  69.1849
    69.3695  69.5353  69.5429  70.1895  70.3091  70.5836  70.6579  70.6637
    70.7503  71.2005  71.3880  71.4316  71.7836  72.1535  72.5134  72.5421
    72.5789  72.6204  72.6358  72.7786  73.0852  73.1076  73.1772  73.2265
    73.3332  73.5219  73.5817  73.6644  73.7817  73.9422  73.9596  74.0208
    74.2239  74.2349  74.2563  74.2726  74.3063  74.4027  74.4265  74.5583
    74.6389  74.8580  74.8814  74.8977  75.1670  75.3034  75.3519  75.4573
    75.4579  75.6772  75.6810  75.7606  75.9095  75.9128  75.9349  76.0124
    76.0517  76.1262  76.1738  76.3510  76.3703  76.8271  76.8526  77.0853
    77.2106  77.4930  77.5294  77.5966  77.6387  77.8426  77.9400  78.0443
    78.1231  78.1343  78.4180  78.5780  78.6179  78.6568  78.7098  78.9855
    79.1263  79.5229  79.7994  79.8028  79.8582  80.0404  80.1096  80.1530
    80.1996  80.2200  80.3161  80.4166  80.7082  80.7709  80.8804  80.9008
    80.9836  81.1898  81.3484  81.3922  81.4382  81.4741  81.4938  81.5398
    81.5410  81.5648  81.7844  81.7876  81.7961  81.7985  81.8854  81.9069
    81.9124  81.9339  82.0793  82.4387  82.5861  82.6410  82.6768  82.7226
    82.7908  82.8577  82.8945  82.9975  83.0066  83.0547  83.1247  83.2396
    83.2692  83.6082  83.6676  83.6877  83.7148  83.7496  83.8238  84.1391
    84.2471  84.3202  84.3548  84.3801  84.4872  84.6642  84.7235  84.7394
    84.8134  84.8924  85.1070  85.1197  85.3796  85.4833  85.5489  85.6330
    85.8069  85.8118  85.9065  86.1117  86.4878  86.4930  86.5825  86.7138
    87.0524  87.2128  87.2698  87.3970  87.5184  87.5791  87.7493  87.8184
    87.8859  87.9724  88.0626  88.0990  88.2296  88.2529  88.4422  88.4496
    88.4760  88.6625  88.6786  88.7246  88.7950  88.9188  88.9611  89.1188
    89.2000  89.2021  89.2194  89.5126  89.6234  89.7705  89.8290  90.0043
    90.2521  90.3659  90.3709  90.8092  91.0346  91.2109  91.2551  91.5447
    91.6731  91.7991  92.0046  92.0079  92.2197  92.4379  92.4791  92.6151
    92.6158  92.9027  93.0217  93.1299  93.2308  93.5014  93.5073  93.5601
    93.6947  93.7313  93.9282  94.1218  94.1672  94.1752  94.2914  94.6417
    94.6886  95.1252  95.1470  95.1576  95.2062  95.3545  95.3611  95.5137
    95.5149  95.6683  95.6916  95.9301  95.9611  96.0127  96.0423  96.0580
    96.3131  96.4775  96.5285  96.5460  96.5931  96.9703  96.9828  97.0254
    97.1029  97.1813  97.2416  97.2837  97.4637  97.5580  97.6028  97.7120
    97.7438  97.8035  97.8152  98.0877  98.1202  98.2003  98.2113  98.4045
    98.5827  98.5884  98.6648  98.7749  98.7960  98.8392  98.9204  99.0520
    99.6225  99.7464  99.8728  99.8796  99.9631 100.2546 100.3073 100.4546
   100.5245 100.5553 100.7665 100.8067 100.9884 101.2329 101.3219 101.3394
   101.3566 101.5681 101.6033 101.7113 101.7507 101.9811 102.0835 102.4877
   102.5423 102.7044 102.7089 102.9025 103.1933 103.2020 103.3258 103.4502
   103.4593 103.5774 103.6430 103.7756 103.7977 103.8388 103.8681 103.9340
   103.9461 104.1442 104.1491 104.1937 104.2950 104.3072 104.3959 104.4481
   104.4564 104.4844 104.8922 105.0242 105.0261 105.0353 105.2029 105.2409
   105.2700 105.5120 105.5527 105.5851 105.6344 105.8926 105.9481 106.0155
   106.0250 106.1667 106.3404 106.3991 106.5723 106.6269 106.7035 106.7608
   106.8516 106.9288 106.9554 107.0506 107.1177 107.2794 107.3068 107.4194
   107.4905 107.7546 107.8155 107.8859 108.1674 108.2689 108.5136 108.5490
   108.8389 108.8624 109.4993 109.6278 109.6336 109.9400 110.0037 110.0981
   110.3525 110.3836 110.4434 110.4662 110.5237 110.6006 110.6043 110.7312
   110.9624 110.9938 111.1461 111.1626 111.2166 111.2724 111.3566 111.4139
   111.6263 111.6906 111.7181 111.8413 112.0895 112.1727 112.2753 112.5290
   112.8438 112.9137 112.9423 113.0182 113.0188 113.3551 113.3854 113.3863
   113.4317 113.5402 113.7851 113.8097 113.9410 114.0865 114.2176 114.4681
   114.5051 114.7972 114.9355 114.9554 115.1121 115.4001 115.4118 115.4772
   115.5613 115.5692 115.8012 115.9718 115.9854 116.3223 116.4956 116.5014
   116.6110 116.6920 116.7000 116.7656 116.9513 117.0133 117.0145 117.3640
   117.4845 117.4859 117.5098 117.6317 117.7094 117.7139 117.9024 117.9975
   118.0403 118.1108 118.1189 118.2978 118.4192 118.4978 118.5007 118.5133
   118.5265 118.5928 118.7629 118.7753 118.8030 118.8316 118.8436 118.8566
   118.8902 118.9893 119.0086 119.1645 119.1674 119.2805 119.4135 119.4283
   119.4474 119.4546 119.6974 119.7144 119.7643 119.8051 119.8376 119.9058
   119.9759 120.0472 120.0553 120.1403 120.1610 120.3673 120.5059 120.7616
   120.9249 120.9603 121.1733 121.6297 121.6490 121.7348 121.8117 121.8211
   121.8229 122.0544 122.0974 122.2345 122.3946 122.4023 122.6260 122.6643
   122.6866 122.7570 123.0294 123.2169 123.2562 123.3083 123.4118 123.5164
   123.6081 123.8241 124.1310 124.2398 124.2900 124.3208 124.3636 124.3831
   124.4746 124.5445 124.6058 124.6705 125.0068 125.0151 125.1316 125.1952
   125.2970 125.3005 125.3007 125.4573 125.5720 125.5920 125.6977 125.7290
   125.7686 125.8686 126.0147 126.3606 126.6555 126.8744 126.8987 126.8992
   126.9355 126.9377 127.1833 127.2754 127.4175 127.4452 127.5560 127.5568
   127.5958 127.8245 127.8757 127.9122 128.1689 128.1929 128.4065 128.4598
   128.5245 128.5448 128.5887 128.6576 128.8907 129.0103 129.0910 129.1430
   129.2032 129.2404 129.2838 129.4046 129.6113 129.7195 129.9803 130.0759
   130.1446 130.1458 130.4336 130.8863 130.9075 131.1905 131.3077 131.5010
   131.5326 131.6431 131.6622 131.8088 131.9154 132.0137 132.1505 132.2427
   132.3555 132.4952 132.5305 132.5587 132.5639 132.7293 132.8543 132.9112
   133.1426 133.2115 133.3935 133.5187 133.7664 133.8303 133.8339 133.9439
   133.9857 134.0243 134.0307 134.2162 134.2909 134.4252 134.6361 134.8680
   134.8894 135.0862 135.1031 135.1384 135.1397 135.2586 135.5669 135.6497
   135.6676 135.7083 135.8762 136.1367 136.4873 136.5085 136.5153 136.5253
   136.5757 136.5931 136.7612 137.1060 137.1310 137.3120 137.4616 137.5318
   137.6676 138.0074 138.0190 138.1239 138.3779 138.5099 138.6767 138.6853
   138.6874 138.7343 138.8599 138.8738 138.9300 138.9877 139.1256 139.2149
   139.3479 139.3715 139.5151 139.6876 139.7052 139.8416 140.0722 140.2186
   140.2205 140.2419 140.4006 140.5176 140.5182 140.6188 140.6463 140.6790
   140.7219 140.8413 140.8603 140.9556 140.9916 141.0071 141.0100 141.0473
   141.0952 141.2354 141.2933 141.3057 141.3856 141.4261 141.4814 141.4826
   141.5279 141.5500 141.6605 141.7302 141.8414 141.9934 142.0739 142.1100
   142.2159 142.2406 142.2754 142.3950 142.4883 142.5664 142.5937 142.5971
   142.5982 142.7862 142.8150 142.9034 142.9368 142.9929 143.0886 143.1457
   143.5035 143.5146 143.6891 143.7736 143.9811 143.9946 144.0687 144.1964
   144.2297 144.2818 144.6041 144.6149 144.6196 144.8058 144.8114 145.0510
   145.0974 145.1688 145.1967 145.4325 145.5571 145.6310 145.7185 145.7290
   145.9974 146.1293 146.2550 146.3249 146.3277 146.6052 146.6628 146.9492
   146.9498 146.9750 147.2534 147.3486 147.3912 147.4189 147.4278 147.5308
   147.5389 147.5403 147.5466 147.8346 147.8630 147.8811 147.8890 147.9473
   147.9959 148.0381 148.1086 148.1800 148.2261 148.4847 148.4896 148.5121
   148.5313 148.5372 148.5627 148.6089 148.6205 148.6603 148.7125 148.7494
   148.8246 148.8876 148.9181 149.0065 149.1601 149.4118 149.4761 149.5190
   149.5928 149.6091 149.6176 149.6267 149.7411 149.7790 149.8002 149.8768
   149.8799 149.9690 150.0072 150.0199 150.0734 150.1876 150.2089 150.2717
   150.2897 150.3643 150.3686 150.7096 150.7960 150.8464 150.8823 150.9171
   150.9739 151.0236 151.0703 151.1047 151.1681 151.2127 151.2185 151.2539
   151.3282 151.3890 151.4533 151.4540 151.5864 151.6362 151.6964 151.7075
   152.0125 152.0840 152.1281 152.2215 152.2273 152.2276 152.3316 152.5578
   152.5608 152.6201 152.8121 152.8888 152.9367 153.2546 153.2821 153.2839
   153.3076 153.5779 153.5893 153.6941 154.1104 154.1874 154.3606 154.3767

          k = 0.2500 0.4330 0.0000 (  8035 PWs)   bands (ev):

   -24.1294 -24.0807 -24.0483 -24.0277 -23.9979 -14.8864 -14.1493  -9.6869
    -6.9654  -6.3804  -5.4935  -4.2503  -3.5900  -0.6291   2.4400   3.0461
     3.7516   4.9609   4.9831   5.6608   5.9640   6.4688   6.9629   7.1484
     7.5956   8.0842   8.8444   9.2005   9.5690   9.8080   9.9167  10.1549
    10.2491  10.2693  10.8863  10.9955  11.3839  11.4207  11.6297  11.6456
    12.2581  12.8229  13.0373  13.1852  13.3140  13.4509  13.6535  13.9153
    14.3241  14.6855  15.0314  15.2291  16.1587  16.1597  16.5355  16.7937
    17.2710  17.5690  18.3131  18.6854  19.0176  19.2209  19.5462  19.8763
    20.1823  20.2843  20.4557  20.5386  20.7173  20.8794  21.1535  21.2087
    21.3533  21.4079  21.6564  21.6916  22.2399  22.2551  22.5948  22.6507
    22.7359  22.8964  23.5135  23.5147  23.8688  24.2100  24.4108  24.7219
    25.1191  25.2186  25.3371  25.5119  25.9504  26.4391  26.8055  26.9486
    27.1320  27.2203  27.7369  27.8710  28.1735  28.3380  28.3860  28.6652
    28.7826  28.8164  29.1411  29.1574  29.6588  29.6809  29.7375  30.1135
    30.2690  30.4081  30.4598  30.7100  30.9402  31.1521  31.1955  31.5298
    31.5900  32.0376  32.2256  32.4321  32.5002  32.6203  32.6545  32.7422
    32.8544  32.9246  33.3411  33.5140  33.6041  33.8310  33.9647  34.0495
    34.3393  34.6511  34.8215  34.8825  35.1004  35.1968  35.4260  35.5817
    35.7195  35.8044  36.2715  36.2901  36.4727  36.5588  36.6852  37.0206
    37.4642  37.5970  38.0657  38.1403  38.2022  38.3416  38.5619  38.7177
    38.8903  39.1989  39.2324  39.4223  39.5376  39.5406  39.7610  39.8577
    40.0527  40.2348  40.2676  40.2702  40.3527  40.3962  40.7883  40.8980
    40.9312  41.2141  41.3043  41.3377  41.6050  41.6377  41.7957  41.9812
    42.3363  42.4501  42.6981  42.8392  42.8782  43.0551  43.0847  43.2436
    43.2900  43.4993  43.5104  43.5400  43.6873  43.8398  43.8766  43.9260
    44.1900  44.4012  44.4963  44.8337  44.8408  44.9873  45.1207  45.2383
    45.3218  45.6229  45.8469  45.8610  46.0369  46.1031  46.3711  46.4347
    46.6942  46.8514  46.8956  47.0254  47.0411  47.1613  47.4404  47.6020
    47.7097  47.8159  47.9169  48.0509  48.0592  48.5589  48.7524  49.1940
    49.4854  49.6447  49.6840  49.7634  49.9534  50.2744  50.4115  50.4617
    50.5350  50.6188  50.8869  51.0350  51.1366  51.4182  51.6129  51.9047
    51.9287  51.9710  52.1657  52.3608  52.4193  52.4902  52.9495  53.2177
    53.5241  53.5690  53.9063  53.9537  54.0233  54.2955  54.4789  54.5336
    54.5792  54.7938  54.8129  55.0268  55.4160  55.5562  55.7178  55.9320
    56.5815  56.5937  56.6618  57.0748  57.2270  57.3549  57.4089  57.6973
    57.8922  58.0664  58.2616  58.3258  58.4106  58.5349  58.6988  58.7044
    58.9307  59.3425  59.3696  59.7268  59.8883  60.3466  60.3553  60.7199
    60.7814  60.9913  61.1068  61.2094  61.4475  61.5363  61.6737  61.7794
    61.8909  62.1781  62.2241  62.3546  62.4034  62.4350  62.4875  62.6764
    62.9201  63.0509  63.0549  63.2387  63.2771  63.5326  63.5347  63.6768
    63.6978  63.8923  64.1579  64.2457  64.3024  64.4481  64.4499  64.8096
    65.0662  65.0856  65.2310  65.3060  65.5171  65.6118  65.6494  65.7031
    65.7672  65.9143  65.9222  66.0679  66.1307  66.2353  66.3435  66.3847
    66.5746  66.6624  66.7846  67.1041  67.1486  67.4224  67.4613  67.4854
    67.6475  67.7941  67.9614  68.0284  68.3432  68.3639  68.4973  68.6483
    68.8592  68.9332  69.0253  69.0570  69.1066  69.1943  69.3932  69.4996
    69.5029  69.5977  69.7893  69.8410  70.0878  70.0971  70.1618  70.5069
    70.5530  70.7781  70.8968  71.0544  71.2649  71.4748  71.7492  72.0509
    72.1839  72.1842  72.2969  72.3763  72.5010  72.6081  72.6352  72.7628
    72.9033  73.0741  73.1191  73.2490  73.3709  73.5789  73.6620  73.7143
    73.7164  74.0581  74.1469  74.1658  74.2244  74.3347  74.5078  74.7799
    74.9561  75.0091  75.1390  75.3801  75.5610  75.7281  75.8368  76.0021
    76.0721  76.1895  76.2354  76.3033  76.3406  76.4573  76.5258  76.7214
    76.7615  76.8418  76.9448  76.9970  77.1125  77.1710  77.1944  77.3533
    77.3917  77.5887  77.6719  77.9488  78.1767  78.2570  78.3150  78.3444
    78.5763  78.6513  78.9532  79.0115  79.1163  79.2331  79.3541  79.4765
    79.4774  79.8242  79.9066  80.0285  80.1179  80.1232  80.2667  80.4362
    80.5426  80.5742  80.6935  80.7741  80.8815  80.8867  81.0352  81.2468
    81.3392  81.4589  81.4679  81.6012  81.6586  82.0112  82.1723  82.3108
    82.5814  82.6721  82.7346  82.9107  83.0276  83.1930  83.2043  83.3198
    83.4829  83.6890  83.7565  83.8247  83.8774  84.0219  84.0307  84.1890
    84.2139  84.5615  84.6736  84.7803  84.8914  84.9745  85.2740  85.3320
    85.4809  85.5473  85.6012  85.8375  85.9872  86.0672  86.2778  86.4399
    86.5899  86.6609  86.7500  86.7828  87.0418  87.1481  87.2017  87.2369
    87.2912  87.4559  87.6388  87.6501  87.7782  87.8247  87.9382  87.9486
    87.9819  88.0870  88.1731  88.2667  88.2796  88.3427  88.3629  88.4004
    88.4559  88.4852  88.7030  88.8185  88.8319  88.9183  89.0704  89.1400
    89.2728  89.3103  89.5736  89.6254  89.6453  89.6810  89.8199  89.8666
    89.9956  90.0792  90.1956  90.2865  90.3326  90.4007  90.4497  90.5371
    90.9090  90.9709  91.0356  91.1755  91.2090  91.2130  91.2521  91.4900
    91.5066  91.5217  91.6296  91.6371  91.8497  91.9424  91.9662  92.0468
    92.3265  92.3423  92.4370  92.5198  92.6354  92.7660  92.8327  92.9620
    93.0079  93.6048  93.6981  93.7642  93.8495  93.9600  94.1371  94.1538
    94.3177  94.4223  94.5418  94.6421  94.7471  94.8525  94.9813  95.1528
    95.1601  95.2467  95.4293  95.7718  95.8778  95.8843  95.9325  96.1041
    96.2013  96.2634  96.5076  96.5592  96.7596  96.8313  96.9538  97.0444
    97.2303  97.3361  97.4554  97.5143  97.6742  97.6853  97.7735  97.8169
    98.0814  98.0931  98.1019  98.2196  98.3741  98.4109  98.6203  98.6883
    98.6995  98.8702  98.9824  99.0076  99.0922  99.0936  99.3593  99.3887
    99.4637  99.4727  99.5341  99.6091  99.6776  99.8445  99.9602 100.0421
   100.1804 100.2773 100.3644 100.4854 100.5240 100.6195 100.6298 100.7807
   100.9820 101.1115 101.2625 101.4296 101.5079 101.6644 101.7247 101.8065
   101.8919 101.9486 102.0822 102.2194 102.2937 102.4185 102.4329 102.5102
   102.6466 102.7124 102.7833 102.8038 102.9740 103.0175 103.1745 103.1999
   103.4516 103.5379 103.8643 103.9132 104.2514 104.4235 104.5068 104.6914
   104.9236 104.9619 104.9772 105.1974 105.3074 105.4417 105.4556 105.5979
   105.7457 105.7760 106.0734 106.0997 106.2183 106.2302 106.3296 106.4492
   106.4614 106.6223 106.6516 106.7067 106.8027 106.8136 107.0338 107.0339
   107.0892 107.1068 107.2317 107.2370 107.3921 107.6309 107.7449 107.8148
   107.9416 108.0031 108.0361 108.0583 108.2095 108.2721 108.3609 108.4421
   108.4696 108.5308 108.6931 108.8526 109.0555 109.1002 109.1257 109.1907
   109.3321 109.3483 109.4330 109.5393 109.7228 109.7766 109.8696 110.0817
   110.0995 110.1568 110.2371 110.4513 110.5449 110.6121 110.6955 110.7004
   110.8046 111.1536 111.3298 111.5850 111.6995 111.8148 111.8569 112.0111
   112.1100 112.1914 112.4129 112.4477 112.5660 112.6333 112.6579 112.7073
   112.8859 112.9560 113.0310 113.1782 113.2272 113.2954 113.5363 113.6182
   113.7567 113.8071 113.8715 113.9461 114.0001 114.3902 114.5825 114.7816
   114.8504 115.0157 115.4118 115.5649 115.6883 115.8125 115.9086 115.9193
   115.9591 116.0205 116.0846 116.2426 116.2632 116.3526 116.6066 116.6104
   116.6844 116.8432 117.0249 117.0618 117.1227 117.2657 117.4120 117.6177
   117.6558 117.7020 117.7230 117.9245 118.0437 118.1229 118.3102 118.5296
   118.5918 118.7645 118.7882 118.7974 118.8292 118.9287 119.0719 119.1155
   119.3560 119.4439 119.4727 119.5611 119.5761 119.7896 119.8724 119.9092
   119.9718 120.1277 120.1731 120.2727 120.3837 120.4871 120.6449 120.7065
   120.7998 121.0389 121.1200 121.1666 121.2590 121.2748 121.4279 121.4376
   121.4426 121.4692 121.6366 121.6400 121.8698 121.9403 121.9550 122.0240
   122.1806 122.2248 122.4378 122.4465 122.8296 122.8545 123.0984 123.1021
   123.1669 123.2985 123.5186 123.6070 123.7437 123.7614 123.8242 123.9642
   124.2946 124.3550 124.4148 124.5146 124.6292 124.7284 124.8238 124.8261
   124.9359 125.0285 125.2353 125.2858 125.4177 125.5255 125.5349 125.6322
   125.8828 125.9813 126.0394 126.1585 126.4474 126.5456 126.6348 126.6556
   126.7324 126.8279 127.3255 127.3334 127.4521 127.5298 127.5351 127.5682
   127.6478 127.8479 127.9715 128.2607 128.3420 128.4136 128.5636 128.6600
   128.7431 128.8575 128.9269 128.9584 128.9944 129.1035 129.3093 129.3508
   129.3536 129.5723 129.6296 129.7583 129.8134 130.0482 130.1511 130.3656
   130.3772 130.4474 130.6476 130.7287 130.7751 130.7844 130.9048 131.1526
   131.1719 131.2537 131.2580 131.3897 131.4771 131.5267 131.6101 131.6607
   131.7571 131.8273 131.8537 131.9669 132.0226 132.0596 132.2119 132.2424
   132.3473 132.4805 132.5842 132.7076 132.7408 132.7889 132.8516 132.9505
   133.1220 133.2379 133.3128 133.3371 133.3619 133.6180 133.7984 133.8227
   133.8505 133.9133 133.9328 134.1508 134.5013 134.5358 134.6183 134.6679
   134.8056 134.8510 135.0809 135.1011 135.3458 135.4146 135.5292 135.5877
   135.7839 135.7892 136.0934 136.1357 136.1881 136.3073 136.5065 136.5084
   136.5133 136.7001 136.7892 136.8160 136.9530 137.1231 137.1470 137.2706
   137.2822 137.4527 137.6432 137.6709 137.7630 137.9975 138.1592 138.2140
   138.2998 138.3167 138.3593 138.5198 138.6205 138.6842 138.8177 138.8792
   138.9261 139.0736 139.0764 139.1800 139.3378 139.3920 139.4622 139.5290
   139.6952 139.7529 139.8961 139.9127 139.9384 140.0825 140.1101 140.1383
   140.2209 140.3020 140.3082 140.3436 140.3732 140.4124 140.4988 140.5396
   140.6048 140.6779 140.8535 140.8787 140.9461 141.1169 141.2155 141.2822
   141.2883 141.3686 141.3929 141.4358 141.5500 141.6527 141.6697 141.8520
   141.8549 141.9548 142.0007 142.1301 142.2748 142.3444 142.4717 142.4787
   142.5186 142.5457 142.5729 142.6786 142.8137 142.8813 142.9084 142.9985
   143.1300 143.2084 143.2322 143.2772 143.3469 143.4366 143.4534 143.5302
   143.6359 143.6428 143.6668 143.7361 143.8649 143.8665 143.8758 143.8893
   144.0005 144.0787 144.2759 144.3064 144.4808 144.5886 144.7594 144.7893
   144.8443 144.9362 145.0197 145.1165 145.1594 145.1846 145.3412 145.3715
   145.5033 145.5224 145.8695 145.8893 145.9491 145.9866 146.1192 146.1998
   146.3642 146.4195 146.6606 146.6944 146.7676 146.7861 146.8048 146.8589
   146.9227 147.0054 147.0790 147.1427 147.2524 147.2688 147.5393 147.5830
   147.7713 147.9977 148.0781 148.0814 148.2943 148.3893 148.4831 148.7482
   148.7891 149.0317 149.0881 149.2281 149.3109 149.3395 149.4403 149.5066
   149.5386 149.6375 149.6980 149.7264 149.7565 149.8679 149.8893 149.9569
   150.1186 150.1842 150.2028 150.4030 150.4250 150.4836 150.6819 150.7318
   150.7825 150.7844 150.8443 150.9108 150.9443 150.9873 151.1925 151.3120
   151.4100 151.4510 151.4882 151.5632 151.7097 151.7857 151.9578 152.0279
   152.0574 152.2023 152.4154 152.4959 152.5853 152.6679 152.7510 152.7538
   152.8408 153.0324 153.0692 153.1518 153.1988 153.3085 153.4278 153.4321
   153.5554 153.5841 153.6182 153.7385 153.8594 153.8649 154.1547 154.1792
   154.2856 154.2941 154.3467 154.4585 154.6791 154.6860 154.7402 154.8257

     the Fermi energy is    -1.7739 ev
     (compare with:    -2.6157 eV, computed in scf)

     Writing all to output data dir out/SnS2.save/
 
     init_run     :      0.18s CPU      0.23s WALL (       1 calls)
     electrons    :    492.31s CPU    507.80s WALL (       1 calls)

     Called by init_run:
     wfcinit      :      0.00s CPU      0.00s WALL (       1 calls)
     potinit      :      0.03s CPU      0.03s WALL (       1 calls)
     hinit0       :      0.05s CPU      0.09s WALL (       1 calls)

     Called by electrons:
     c_bands      :    492.31s CPU    507.80s WALL (       1 calls)
     v_of_rho     :      0.01s CPU      0.01s WALL (       1 calls)

     Called by c_bands:
     init_us_2    :      0.00s CPU      0.00s WALL (       4 calls)
     init_us_2:cp :      0.00s CPU      0.00s WALL (       4 calls)
     cegterg      :    484.29s CPU    499.49s WALL (       4 calls)

     Called by *egterg:
     cdiaghg      :    447.60s CPU    461.98s WALL (      48 calls)
     h_psi        :      7.92s CPU      8.08s WALL (      52 calls)
     g_psi        :      0.09s CPU      0.10s WALL (      44 calls)

     Called by h_psi:
     h_psi:calbec :      0.21s CPU      0.22s WALL (      52 calls)
     vloc_psi     :      7.40s CPU      7.54s WALL (      52 calls)
     add_vuspsi   :      0.16s CPU      0.16s WALL (      52 calls)

     General routines
     calbec       :      0.21s CPU      0.22s WALL (      52 calls)
     fft          :      0.01s CPU      0.05s WALL (      10 calls)
     fftw         :      6.59s CPU      6.71s WALL (   70738 calls)
 
     Parallel routines
 
     PWSCF        :   8m13.34s CPU   8m29.59s WALL

 
   This run was terminated on:   8:57:31  16Apr2024            

=------------------------------------------------------------------------------=
   JOB DONE.
=------------------------------------------------------------------------------=
