
     Program PWSCF v.7.1 starts on 16Apr2024 at 15: 5:12 

     This program is part of the open-source Quantum ESPRESSO suite
     for quantum simulation of materials; please cite
         "P. Giannozzi et al., J. Phys.:Condens. Matter 21 395502 (2009);
         "P. Giannozzi et al., J. Phys.:Condens. Matter 29 465901 (2017);
         "P. Giannozzi et al., J. Chem. Phys. 152 154105 (2020);
          URL http://www.quantum-espresso.org", 
     in publications or presentations arising from this work. More details at
     http://www.quantum-espresso.org/quote

     Parallel version (MPI), running on     8 processors

     MPI processes distributed on     1 nodes
     123447 MiB available memory on the printing compute node when the environment starts
 
     Reading input from pw_SnS2_nscf_k60_E41.in
Warning: card &IONS ignored
Warning: card / ignored
Warning: card &CELL ignored
Warning: card / ignored

     Current dimensions of program PWSCF are:
     Max number of different atomic species (ntypx) = 10
     Max number of k-points (npk) =  40000
     Max angular momentum in pseudopotentials (lmaxx) =  4

     Atomic positions and unit cell read from directory:
     out/SnS2.save/
     Atomic positions from file used, from input discarded
 
 
     R & G space division:  proc/nbgrp/npool/nimage =       8
     Subspace diagonalization in iterative solution of the eigenvalue problem:
     one sub-group per band group will be used
     scalapack distributed-memory algorithm (size of sub-group:  2*  2 procs)

 
     Parallelization info
     --------------------
     sticks:   dense  smooth     PW     G-vecs:    dense   smooth      PW
     Min          68      68     20                 8014     8014    1312
     Max          69      69     21                 8035     8035    1333
     Sum         547     547    163                64179    64179   10555
 
     Using Slab Decomposition
 


     bravais-lattice index     =            4
     lattice parameter (alat)  =       6.9420  a.u.
     unit-cell volume          =    1811.2082 (a.u.)^3
     number of atoms/cell      =            3
     number of atomic types    =            2
     number of electrons       =        26.00
     number of Kohn-Sham states=         1200
     kinetic-energy cutoff     =      41.0000  Ry
     charge density cutoff     =     164.0000  Ry
     Exchange-correlation= PBE
                           (   1   4   3   4   0   0   0)

     celldm(1)=   6.941954  celldm(2)=   0.000000  celldm(3)=   6.251619
     celldm(4)=   0.000000  celldm(5)=   0.000000  celldm(6)=   0.000000

     crystal axes: (cart. coord. in units of alat)
               a(1) = (   1.000000   0.000000   0.000000 )  
               a(2) = (  -0.500000   0.866025   0.000000 )  
               a(3) = (   0.000000   0.000000   6.251619 )  

     reciprocal axes: (cart. coord. in units 2 pi/alat)
               b(1) = (  1.000000  0.577350  0.000000 )  
               b(2) = (  0.000000  1.154701  0.000000 )  
               b(3) = (  0.000000  0.000000  0.159959 )  


     PseudoPot. # 1 for S  read from file:
     /usr/scratch4/magr4985/FGWC/FGWC/pseudo/SG15/S.upf
     MD5 check sum: f9d020296ee6110346977bfd66d424f6
     Pseudo is Norm-conserving, Zval =  6.0
     Generated using ONCVPSP code by D. R. Hamann
     Using radial grid of  602 points,  4 beta functions with: 
                l(1) =   0
                l(2) =   0
                l(3) =   1
                l(4) =   1

     PseudoPot. # 2 for Sn read from file:
     /usr/scratch4/magr4985/FGWC/FGWC/pseudo/SG15/Sn.upf
     MD5 check sum: 6680f7ee4d83b53e0fcd4167fcb72813
     Pseudo is Norm-conserving, Zval = 14.0
     Generated using ONCVPSP code by D. R. Hamann
     Using radial grid of  602 points,  6 beta functions with: 
                l(1) =   0
                l(2) =   0
                l(3) =   1
                l(4) =   1
                l(5) =   2
                l(6) =   2

     atomic species   valence    mass     pseudopotential
        S              6.00    32.06500     S ( 1.00)
        Sn            14.00   118.71000     Sn( 1.00)

     12 Sym. Ops., with inversion, found



   Cartesian axes

     site n.     atom                  positions (alat units)
         1           Sn  tau(   1) = (   0.0000000   0.0000000   3.1258098  )
         2           S   tau(   2) = (   0.5000000   0.2886752   2.7172909  )
         3           S   tau(   3) = (   0.0000000   0.5773502   3.5343286  )

     number of k points=     7  Gaussian smearing, width (Ry)=  0.0005
                       cart. coord. in units 2pi/alat
        k(    1) = (   0.0000000   0.0000000   0.0000000), wk =   0.0555556
        k(    2) = (   0.0000000   0.1924501   0.0000000), wk =   0.3333333
        k(    3) = (   0.0000000   0.3849002   0.0000000), wk =   0.3333333
        k(    4) = (   0.0000000  -0.5773503   0.0000000), wk =   0.1666667
        k(    5) = (   0.1666667   0.2886751   0.0000000), wk =   0.3333333
        k(    6) = (   0.1666667   0.4811252   0.0000000), wk =   0.6666667
        k(    7) = (   0.3333333   0.5773503   0.0000000), wk =   0.1111111

     Dense  grid:    64179 G-vectors     FFT dimensions: (  30,  30, 180)

     Estimated max dynamical RAM per process >     292.27 MB

     Estimated total dynamical RAM >       2.28 GB

     The potential is recalculated from file :
     out/SnS2.save/charge-density

     Starting wfcs are random

     Band Structure Calculation
     Davidson diagonalization with overlap

     ethr =  5.00E-06,  avg # of iterations = 11.1

     total cpu time spent up to now is      905.7 secs

     End of band structure calculation

          k = 0.0000 0.0000 0.0000 (  7991 PWs)   bands (ev):

   -24.0960 -24.0960 -24.0466 -24.0272 -24.0272 -16.5684 -14.8954  -8.2025
    -4.1160  -3.6635  -3.6635  -3.3155  -3.3155  -0.8869   0.6572   2.2498
     2.2498   3.1560   3.1778   3.8098   4.4693   5.2490   6.1982   6.2793
     6.2793   6.3551   7.4548   8.5673   8.9330   8.9330   9.1527   9.2391
     9.8002   9.8002  11.0803  11.3888  13.2732  13.3767  13.3767  14.2246
    15.8928  15.9848  15.9848  16.3921  17.3154  17.5482  17.5482  17.7449
    17.7624  17.7624  18.2119  18.2654  18.2654  18.2924  18.5341  18.5341
    18.6014  18.6014  18.6635  18.6934  18.6934  18.6949  18.9019  19.0376
    19.4905  19.4905  19.6956  19.7092  19.7092  19.8031  19.9837  19.9837
    20.0505  20.0505  20.2280  20.5902  21.1518  21.4574  21.4851  21.4851
    21.6526  21.6526  22.1356  22.1356  22.2098  22.2098  22.3032  22.6676
    23.0305  23.3110  24.1213  24.1213  24.2349  24.2349  24.2781  24.3980
    24.9150  24.9150  24.9496  24.9496  25.3661  25.5909  26.7193  26.7737
    26.7737  26.8449  26.8449  26.9923  27.4926  27.4926  27.6183  27.6183
    27.9784  28.0953  28.2650  28.2650  28.2764  28.8938  28.8938  29.0677
    29.0677  29.1770  29.4441  30.5165  30.5444  31.2034  31.2034  31.3008
    31.5255  31.5255  32.1025  32.1025  32.6905  32.6905  32.8411  33.1973
    33.1973  33.8874  34.3516  34.3861  34.6676  34.9287  35.5618  35.5618
    36.3608  36.5266  36.5266  37.1353  37.1353  37.4208  37.4208  37.7312
    38.1807  38.1807  38.6166  38.9474  38.9474  38.9974  39.1493  39.9270
    40.2920  40.3893  40.3893  41.0185  41.2351  41.3088  41.3088  42.0546
    42.0546  42.4919  42.8968  42.8968  43.2615  43.2615  43.3411  43.7354
    43.8149  44.1285  44.1285  44.2270  44.6342  44.6342  45.4484  45.8269
    45.8269  45.9092  46.6630  46.6630  46.7505  47.0984  47.0989  47.2767
    47.2767  47.3966  47.5445  47.5445  47.6664  47.6664  47.9024  47.9024
    48.0364  48.1677  48.1677  48.3031  48.3094  48.3190  48.3190  48.3595
    48.3788  48.3788  48.3950  48.6571  48.6571  48.7442  48.7442  48.7821
    48.9338  48.9338  49.1653  49.1653  49.2417  49.4119  49.4262  49.5897
    49.5897  49.6501  49.6501  49.6558  49.6719  49.6952  50.3626  50.3626
    50.3696  50.3796  50.3796  51.2382  51.2382  51.3193  51.3193  51.3196
    51.5582  51.8264  51.8494  52.0593  52.0593  52.2432  52.2432  52.4354
    52.4354  52.5318  52.6592  53.5136  53.5136  54.1474  54.1474  54.3246
    54.3632  54.3632  54.4805  54.6724  54.6810  54.6810  54.7075  54.9523
    54.9849  54.9849  55.1626  55.3557  55.5998  55.5998  55.6383  55.6383
    56.0831  56.3839  56.3839  56.6704  56.6704  56.7331  56.7331  56.8959
    56.9611  57.8478  57.8478  57.8804  58.0245  58.0245  58.1869  58.1879
    58.7204  58.7954  58.7954  59.1751  59.1751  59.6333  60.0314  60.2965
    60.2965  60.4410  60.5578  60.5578  60.8258  60.9893  60.9893  61.0785
    61.3078  61.3078  61.4978  61.4978  62.0412  62.0412  62.2297  62.2869
    62.3139  62.3943  62.4635  62.4635  62.5550  62.5550  62.6628  62.7014
    62.7014  62.8827  63.0458  63.0458  63.0470  63.1353  63.1365  63.1365
    63.2245  63.2382  63.2382  63.3618  63.3846  63.3846  63.4289  63.4289
    63.4771  63.4771  63.4973  63.8331  63.9525  64.1440  64.1440  64.3866
    64.4219  64.4219  64.5591  64.5591  64.6677  64.7341  64.7341  64.7494
    64.7947  65.3259  65.3259  65.6920  65.9806  65.9806  66.1154  66.1154
    66.3011  66.3011  66.4548  66.4823  66.6803  66.7804  66.7804  67.0041
    67.0085  67.1634  67.1634  67.3491  67.4529  67.4529  67.5640  67.5640
    67.7431  67.9690  67.9690  68.0474  68.2933  68.5518  68.5518  68.8768
    68.9254  69.1474  69.1474  69.3278  69.3278  69.4826  69.6500  69.6500
    69.8482  69.8647  69.8647  69.8657  69.8657  70.0199  70.0199  70.2701
    70.4983  70.6641  71.3750  71.3750  71.6565  71.6565  71.8670  71.8670
    72.0059  72.0059  72.1922  72.2344  72.3140  72.3957  72.5092  72.5092
    72.7085  72.8084  73.0022  73.0022  73.2691  73.2691  73.4503  73.6116
    73.6706  73.6706  73.6938  74.2636  74.2636  74.7244  74.8599  75.0006
    75.0006  75.4146  75.7239  75.7239  75.8442  75.8442  76.4386  76.4386
    76.4853  77.1101  77.2670  77.2670  77.3206  77.3206  77.3546  77.6144
    77.7968  78.0168  78.0168  78.0624  78.0624  78.1995  78.2872  78.3709
    78.7414  78.7414  78.7739  78.7739  79.2358  79.2358  79.3640  79.3640
    79.4031  79.4961  79.5537  79.5614  79.5614  80.4377  80.4377  81.0400
    81.1698  81.3169  81.3802  81.3802  81.8742  81.8742  82.2043  82.2757
    82.4499  82.9746  82.9746  83.1407  83.2024  83.2024  83.2786  83.8837
    83.8837  84.2516  84.3145  84.3145  84.4259  84.6599  84.7947  84.7947
    84.8350  84.8350  85.3582  85.4935  85.4935  85.5104  85.5104  86.0176
    86.1096  86.1639  86.2696  86.4876  86.8109  86.8109  87.2191  87.2191
    87.3522  87.3522  87.3598  87.4809  87.4809  87.4927  87.4927  87.6638
    87.7366  87.9036  88.2778  88.2778  88.3583  88.3583  88.7000  89.4412
    89.4412  89.5930  89.5930  90.5683  90.5683  90.6013  90.6013  90.7875
    90.8059  91.1354  91.1506  91.2619  91.2619  91.7129  91.8768  91.8768
    92.1355  92.1355  92.2408  92.3890  92.4335  93.0470  93.1442  93.1442
    93.6348  93.6357  93.6357  93.6496  93.8475  93.8475  94.0213  94.0357
    94.0357  94.3297  94.9626  94.9626  94.9856  95.2457  95.2874  95.2874
    95.5282  95.6921  95.6921  95.8506  95.8506  96.3088  96.3088  96.4945
    96.4945  96.5646  96.5646  96.5657  96.5657  96.8632  97.2988  97.3146
    97.8169  98.4991  98.4991  98.8670  98.8670  98.9774  99.2765  99.2765
    99.3645  99.3645  99.4176  99.4303  99.6256  99.6256  99.7872  99.8830
    99.8830  99.9789  99.9789 100.1207 100.4942 100.5320 100.5555 100.6071
   100.6071 101.4656 101.6299 101.6299 101.8133 101.8474 101.8474 102.0553
   102.5000 102.7131 102.8965 102.8965 103.6998 104.1605 104.1605 104.2642
   104.3139 104.3139 104.3595 104.3595 104.4715 104.6317 104.6317 104.6352
   104.8430 104.8430 105.3061 105.4686 105.4686 105.6407 105.7972 106.0420
   106.0420 106.1157 106.1157 106.3167 106.5373 106.5373 106.5790 106.6458
   106.7561 106.7561 106.8771 107.0224 107.0235 107.0235 107.1274 107.1274
   107.1964 107.1964 107.2471 107.2471 107.3367 107.3367 107.3779 107.4713
   107.4713 107.4871 107.5322 107.5655 107.5760 107.5838 107.6073 107.6073
   107.6468 107.6468 107.7553 107.7553 107.7694 107.7694 107.7803 107.7941
   107.7941 107.8033 107.8272 107.8272 107.8440 107.8519 107.8519 108.0749
   108.0861 108.1892 108.1892 108.1968 108.3341 108.3341 108.3371 108.4408
   108.4408 108.5404 108.6907 108.7138 108.7138 108.7457 108.7457 108.7468
   108.7468 108.9693 108.9921 109.0178 109.0178 109.1033 109.1174 109.1500
   109.1500 109.1734 109.1851 109.1851 109.2198 109.2228 109.2228 109.5072
   109.7144 109.7144 110.2464 110.2953 110.2953 110.4605 110.5225 110.5225
   110.6109 110.6109 110.8134 110.9282 110.9329 110.9329 110.9989 111.1136
   111.2914 111.2914 111.3034 111.3034 111.3243 111.3398 111.3398 111.3646
   111.7701 111.7701 111.7921 111.7921 111.8613 112.2967 112.5459 112.5459
   112.5469 112.8954 112.8954 112.8954 112.9257 113.1653 113.1653 113.2987
   113.2987 113.4556 113.5903 113.6400 113.6842 113.6842 113.7174 113.7714
   113.7714 113.9156 113.9156 114.0362 114.0362 114.0841 114.1726 114.1771
   114.1867 114.2466 114.2466 114.3805 114.3805 114.6296 114.6763 114.6763
   114.9095 114.9095 114.9529 114.9529 115.0147 115.0543 115.3395 115.3837
   115.3837 115.7008 115.7535 116.0426 116.0426 116.1475 116.3400 116.3400
   116.4548 116.4874 116.5032 116.5445 116.5445 116.5806 116.5806 116.7190
   116.7190 116.9114 116.9114 117.1361 117.1813 117.3348 117.3348 117.3750
   117.3750 117.3859 117.3967 117.4254 117.4254 117.7793 117.7793 117.7964
   117.8222 117.8467 117.8467 117.9094 117.9094 117.9149 117.9231 117.9232
   117.9242 118.1198 118.1198 118.8443 118.9183 118.9183 119.3226 119.3226
   119.3849 119.4550 119.4550 119.6474 119.7162 120.0452 120.3646 120.5743
   120.5743 120.7839 120.7839 121.2248 121.2486 121.2824 121.2824 121.5097
   121.5134 121.5319 121.5319 121.6557 121.6557 121.7440 121.7440 121.7474
   121.7474 121.7837 121.8387 121.8387 121.8429 122.3384 122.5156 122.5156
   122.5403 122.7410 122.7410 122.7920 122.7920 122.8313 123.2044 123.2044
   123.3501 123.6886 123.7908 123.7908 124.0588 124.2547 124.4039 124.6998
   124.6999 124.9591 124.9591 125.3385 125.3385 125.4165 125.4165 125.4524
   125.5406 125.5438 125.8993 125.9031 126.0205 126.1904 126.2150 126.2150
   126.3104 126.3221 126.3221 126.4790 126.4790 126.6088 126.6088 126.6467
   126.6467 126.7229 126.7229 126.8273 126.8634 126.8732 126.8735 126.9002
   126.9002 127.2023 127.2023 127.5741 127.5741 127.5841 127.6998 127.7371
   127.7371 128.0324 128.0324 128.0995 128.2074 128.4294 128.4294 128.6781
   128.6781 129.9333 129.9333 129.9379 130.2221 130.2221 130.4618 130.4618
   130.9400 130.9481 130.9481 131.0783 131.0783 131.1584 131.2571 131.2701
   131.3791 131.3791 131.3934 131.4858 131.4858 131.4866 131.5335 131.5335
   131.6473 131.6828 131.6828 131.8285 131.8438 131.9303 131.9303 132.5501
   132.7624 132.7624 132.8112 132.8112 132.9829 133.3208 133.3208 133.3856
   133.6231 134.2053 134.2053 134.2410 134.2410 134.3241 134.4368 134.4368
   134.7417 135.2869 135.3866 135.3866 135.5676 135.5676 135.9194 135.9246
   135.9280 136.0796 136.0796 136.2140 136.5584 136.5584 136.6333 136.6387
   136.6388 136.7450 136.8116 136.8147 136.8147 136.9368 136.9368 136.9947
   137.1548 137.2533 137.3150 137.3151 137.3380 137.3380 137.3654 137.3883
   137.4699 137.4863 137.4863 137.4998 137.4998 137.5421 137.5798 137.5798
   137.6440 137.6440 137.7279 137.7833 137.7833 137.8861 137.9143 138.1239
   138.1239 138.1454 138.1454 138.2112 138.2112 138.2733 138.4613 138.5125
   138.6331 138.6750 138.6750 138.7017 138.7017 138.8157 138.8157 138.8656
   138.8656 138.9764 139.0668 139.0668 139.0823 139.1165 139.3160 139.5150
   139.5150 139.8288 139.8288 139.8782 139.8782 140.1948 140.1948 140.2912
   140.4002 140.4002 140.4496 140.5875 140.6070 140.6070 140.6920 140.7415
   140.8419 140.8419 140.9634 140.9634 140.9957 141.0895 141.0895 141.6035
   141.7780 141.7780 141.8124 141.8124 142.2753 142.5183 142.5183 142.7303
   142.9553 142.9868 142.9868 143.0422 143.2402 143.2402 143.3129 143.4437
   143.5439 143.6437 143.6438 143.7386 143.8269 143.8269 143.8577 143.8577
   143.9942 143.9942 144.0403 144.1659 144.2974 144.3224 144.3224 144.4470
   144.4470 144.5256 144.5256 144.5937 144.6700 145.1588 145.1588 145.3017
   145.3017 145.3768 145.5762 145.8072 145.8072 145.8913 145.8913 146.0202
   146.3483 146.3483 146.4576 146.4576 146.4889 146.4889 146.7562 146.7786
   146.7855 146.8640 147.2110 147.2110 147.2700 147.2937 147.5395 147.5395
   147.8636 147.8636 148.2068 148.2068 148.5083 148.5713 148.6648 148.6648
   149.1193 149.2398 149.7086 149.7086 149.8699 149.8699 149.9031 150.1835
   150.2445 150.3165 150.3165 150.3673 150.3673 150.4522 150.4522 150.4601
   150.5603 150.6523 150.7547 150.7969 151.0259 151.0259 151.0445 151.0445
   151.1260 151.1504 151.1504 151.1568 151.2834 151.3130 151.3130 151.4582
   151.4606 151.4620 151.4620 151.7795 151.8279 151.8279 151.8741 151.8741
   152.2833 152.2833 152.2965 152.2965 152.3348 152.3551 152.3551 152.3807

          k = 0.0000 0.1925 0.0000 (  7982 PWs)   bands (ev):

   -24.1091 -24.0805 -24.0399 -24.0336 -24.0274 -16.2723 -14.6905  -8.3095
    -5.2672  -4.2997  -4.2922  -3.9819  -3.2347  -0.3623   1.4614   2.4135
     2.7920   3.4348   3.7395   4.2759   4.6460   5.0981   5.7737   6.1555
     6.5375   6.8115   7.4899   7.9400   8.6469   9.2248   9.9532  10.4316
    10.6005  11.4718  11.9363  12.1678  12.7373  13.1851  13.6511  13.6676
    14.0487  14.1755  14.8827  15.0872  15.2675  15.3612  15.5308  15.9792
    16.1997  16.4119  16.5136  16.5888  17.0439  17.0769  17.2725  17.5303
    17.7694  17.9423  18.0650  18.3176  18.4424  19.3485  19.6609  19.7304
    19.9554  20.0035  20.1187  20.4548  20.4766  20.6238  20.8819  21.2302
    21.3375  21.4567  21.5708  21.8056  21.9188  22.1203  22.1353  22.3968
    22.5708  22.7435  22.8870  22.9155  23.0737  23.3089  23.3729  23.4568
    23.6592  23.8627  24.0104  24.0318  24.2743  24.5236  24.5973  24.8525
    24.9258  25.0110  25.3726  25.6172  25.7312  25.9570  26.3098  26.3231
    26.5833  26.7816  27.1261  27.3252  27.5000  27.5429  27.7378  28.0065
    28.2056  28.5939  28.6912  29.0666  29.4089  29.5106  29.6974  29.9500
    30.0179  30.2107  30.4613  30.5115  30.9517  31.3674  31.5828  31.8020
    31.8787  32.6386  32.7150  32.7514  33.0098  33.6249  33.6894  33.9894
    34.2999  34.4704  34.5448  34.8957  35.1032  35.3619  35.7802  35.8937
    36.1590  36.2931  36.6645  37.0833  37.1136  37.3035  37.3377  37.5277
    37.8896  38.1166  38.4642  38.8254  39.0609  39.1972  39.5645  39.5741
    39.7850  39.9781  40.2253  40.4057  40.5982  40.9156  40.9297  40.9689
    41.1289  41.3226  41.4075  41.4177  41.6267  41.7194  41.7619  41.8078
    42.3373  42.3727  42.5347  42.7469  42.8544  43.0609  43.1045  43.2751
    43.6311  43.8077  43.9857  44.0906  44.5196  44.7551  45.0387  45.0958
    45.2312  45.2839  45.6241  45.7601  45.9431  45.9483  46.2801  46.3295
    46.7583  46.8302  47.0457  47.1794  47.4047  47.6378  47.7653  47.8525
    48.0514  48.2706  48.3410  48.4444  48.4771  48.6607  48.7995  48.8299
    48.9409  49.0724  49.2931  49.4136  49.4599  49.6749  49.8434  50.0448
    50.2403  50.2694  50.6717  50.7394  50.7981  50.9034  51.0290  51.4418
    51.5073  51.6873  51.6981  51.8445  51.9887  52.0774  52.1931  52.4257
    52.4835  52.7726  52.8942  52.9411  53.0655  53.2649  53.3133  53.4282
    53.6192  53.6725  53.7833  53.8725  54.0678  54.1642  54.4169  54.5198
    54.8389  54.8783  55.1910  55.1912  55.2762  55.3827  55.4231  55.6520
    55.7196  55.7714  55.8662  55.9278  56.0434  56.0896  56.1661  56.1813
    56.3246  56.3653  56.7414  56.7475  57.0377  57.1435  57.1441  57.2371
    57.3727  57.5125  57.5780  57.6868  57.7142  57.8926  58.0489  58.3373
    58.3652  58.4043  58.4976  58.5145  58.6465  58.7288  58.7520  58.9363
    58.9390  59.0700  59.1052  59.2706  59.3082  59.3667  59.4012  59.7432
    59.8801  59.9377  59.9863  60.0461  60.1795  60.2463  60.3159  60.3870
    60.5412  60.7049  60.7181  60.9546  61.0946  61.4411  61.4689  61.6836
    61.9827  62.0397  62.0909  62.2317  62.4403  62.6405  62.6691  62.7526
    62.8361  62.9202  63.0030  63.0488  63.4569  63.5905  63.6543  63.7132
    64.0671  64.1420  64.2441  64.4232  64.5666  64.6232  64.8498  64.9438
    65.0966  65.1279  65.3954  65.5267  65.5992  65.8193  65.9483  66.0310
    66.0767  66.2962  66.3018  66.4743  66.6907  66.7970  66.8096  66.9196
    67.0695  67.3217  67.3395  67.4638  67.6263  67.8314  68.0629  68.1732
    68.2640  68.3270  68.4067  68.4406  68.4735  68.5438  68.6549  68.7331
    68.7669  68.8259  69.3392  69.3541  69.4514  69.8216  69.9440  69.9873
    70.0669  70.1061  70.2701  70.3002  70.4039  70.5662  70.6095  70.8416
    70.9141  71.0844  71.1938  71.5669  71.5756  71.7513  71.8722  71.8839
    71.9967  72.1148  72.2729  72.2731  72.5025  72.5775  72.6426  72.6987
    72.8869  73.0998  73.1969  73.2712  73.3542  73.4461  73.4685  73.6463
    73.6708  73.6836  73.7125  74.0550  74.0827  74.4600  74.4626  74.5224
    74.7820  74.8298  74.8877  75.1414  75.1711  75.3324  75.3766  75.5350
    75.6549  75.7287  75.8515  76.0538  76.2376  76.2758  76.5027  76.7598
    76.9530  76.9556  77.1309  77.3725  77.4134  77.5140  77.7614  77.8498
    78.0160  78.3473  78.3791  78.4614  78.5066  78.5512  78.8110  78.9699
    79.0800  79.0830  79.6463  79.7211  79.8173  79.8908  80.0500  80.1229
    80.3216  80.5423  80.5861  80.7231  80.8820  81.0094  81.2106  81.3565
    81.4316  81.6183  81.7646  82.1654  82.4434  82.4775  82.5626  82.5934
    82.9318  82.9811  83.0608  83.2622  83.3565  83.5713  83.5930  83.6869
    83.7636  83.8664  84.0984  84.1329  84.2729  84.4884  84.5125  84.7854
    84.9314  85.0747  85.2269  85.3452  85.4875  85.5379  85.5909  85.8382
    85.8486  85.9597  86.0354  86.0828  86.4425  86.5650  86.6316  86.9184
    86.9805  87.5079  87.5507  87.6964  87.7519  87.8055  88.0088  88.1197
    88.2672  88.5578  88.9076  89.0610  89.1552  89.3714  89.5849  89.8628
    89.8959  90.1277  90.3491  90.4614  90.6510  90.7617  90.9491  90.9570
    91.1942  91.2823  91.3972  91.5947  91.7114  91.7857  91.9968  92.0068
    92.0943  92.3314  92.4018  92.4496  92.5843  92.6117  92.8614  92.8747
    92.9493  93.0746  93.3178  93.3443  93.4472  93.6785  93.8138  93.8821
    93.9360  94.0998  94.5342  94.7022  94.7427  94.7470  94.8537  95.0669
    95.1085  95.1901  95.2560  95.3157  95.5222  95.5324  95.7478  95.7704
    95.8252  95.8535  95.9760  96.1991  96.3132  96.3905  96.7135  96.9510
    96.9790  97.0589  97.1957  97.2632  97.3277  97.3904  97.6005  97.7893
    97.8061  97.8972  98.0110  98.1700  98.2197  98.2546  98.3100  98.4736
    98.5835  98.8152  98.8620  98.9710  99.0108  99.1161  99.2338  99.2986
    99.3565  99.3756  99.4607  99.5075  99.6054  99.6423  99.6921  99.7773
    99.9235  99.9635 100.0838 100.1362 100.3063 100.4096 100.4441 100.4458
   100.7926 100.8215 100.8489 101.0922 101.1672 101.2208 101.4784 101.5322
   101.6328 101.7001 101.8127 101.9490 102.0071 102.0086 102.1970 102.2675
   102.3115 102.4202 102.5452 102.7135 102.7629 103.1047 103.1065 103.4382
   103.4605 103.7177 103.7826 103.9716 103.9766 104.0274 104.0999 104.1899
   104.2698 104.4329 104.5625 104.6059 104.6563 104.7321 104.8932 104.9597
   105.2236 105.2307 105.2745 105.3929 105.5175 105.5175 105.6701 105.7131
   105.7362 105.7667 105.7899 105.9206 106.0888 106.3608 106.3718 106.5476
   106.7632 106.8214 106.9166 107.0158 107.1759 107.2524 107.3426 107.4079
   107.4689 107.4962 107.6109 107.7344 107.7370 107.8633 108.0377 108.1226
   108.2273 108.2951 108.3895 108.6071 108.6172 108.7502 108.8202 108.9460
   108.9863 109.0582 109.1039 109.2021 109.2412 109.3156 109.5408 109.5907
   109.6706 109.6815 109.8361 109.8582 109.9649 109.9877 110.1678 110.1800
   110.3078 110.5109 110.6023 110.6278 110.6419 110.7467 110.8112 110.8818
   110.9715 111.0970 111.1025 111.4249 111.4534 111.5657 111.7486 111.7799
   111.7958 111.8622 111.9165 112.0040 112.0179 112.0767 112.1763 112.2486
   112.2612 112.4516 112.4609 112.6265 112.8329 112.9939 113.0298 113.1542
   113.2169 113.3853 113.5224 113.5585 113.7708 113.8667 113.8898 113.9379
   114.0569 114.1818 114.2168 114.3405 114.4202 114.5175 114.6269 114.7477
   114.7942 114.9313 115.0373 115.2449 115.3356 115.3382 115.3455 115.4340
   115.5520 115.7196 115.7220 115.9610 116.0752 116.0971 116.2601 116.4884
   116.5379 116.6590 116.7111 116.8004 116.8335 116.9140 116.9348 117.1314
   117.1446 117.2084 117.2571 117.2885 117.4687 117.5055 117.6879 117.9064
   117.9473 117.9572 118.0598 118.0606 118.0810 118.1342 118.3167 118.3978
   118.4933 118.6977 118.8035 118.9826 119.1114 119.1226 119.1751 119.2115
   119.2777 119.3286 119.3690 119.5027 119.5629 119.6188 119.6634 119.7269
   119.7554 119.8791 119.9479 119.9833 119.9952 120.0302 120.2119 120.2425
   120.3188 120.4356 120.4425 120.5041 120.5164 120.5577 120.6197 120.7034
   120.7778 120.9705 121.0564 121.1783 121.2033 121.2500 121.3844 121.4298
   121.5235 121.7101 121.7267 121.9319 121.9482 122.0694 122.1789 122.1993
   122.2820 122.4092 122.5953 122.6451 122.7793 122.8309 122.9234 123.0266
   123.1721 123.2247 123.3408 123.4084 123.4392 123.5199 123.5501 123.6930
   123.7102 123.8245 123.9611 124.0165 124.0327 124.1355 124.1646 124.2639
   124.3357 124.4043 124.4642 124.5571 124.5981 124.7016 124.7372 124.8107
   124.8884 124.9199 125.0007 125.0064 125.0710 125.1288 125.2987 125.4909
   125.6023 125.7369 125.7814 125.9004 125.9871 126.0753 126.2123 126.2406
   126.3753 126.4697 126.6613 126.6795 126.7382 126.8164 126.8396 126.9476
   126.9706 127.0451 127.0517 127.2912 127.3911 127.4022 127.5045 127.6780
   127.7171 127.7919 127.7992 128.0585 128.1355 128.1378 128.2124 128.3601
   128.5717 128.6228 128.8134 128.9867 128.9957 129.0139 129.0153 129.1556
   129.2798 129.3646 129.4422 129.4824 129.5583 129.7661 129.7696 129.8548
   129.8629 129.9574 130.0236 130.0905 130.1753 130.2592 130.3642 130.3740
   130.4954 130.5236 130.5591 130.6349 130.6577 130.6996 130.7485 130.9810
   131.0029 131.4241 131.5001 131.5929 131.6618 131.7002 131.7247 131.7789
   131.8263 132.0507 132.1825 132.1955 132.2796 132.3663 132.5537 132.6159
   132.7632 132.9247 133.0264 133.2775 133.2953 133.4763 133.5347 133.6004
   133.6050 133.7911 133.7948 133.8985 134.0574 134.0671 134.0958 134.1675
   134.1842 134.1858 134.4006 134.4175 134.4730 134.5275 134.5802 134.5927
   134.6603 134.7542 134.9466 134.9615 135.1916 135.2592 135.3330 135.4163
   135.5033 135.7631 135.8123 135.9642 136.0482 136.0948 136.1686 136.2004
   136.2979 136.4296 136.5163 136.6360 136.7408 136.7699 136.8137 136.9498
   137.0826 137.1048 137.1998 137.3197 137.4550 137.5252 137.5736 137.7128
   137.8290 137.9166 137.9814 138.0921 138.3246 138.4381 138.4475 138.4632
   138.7428 138.8018 139.0449 139.1510 139.2727 139.2979 139.4660 139.5445
   139.7345 139.7923 139.8461 140.0213 140.0280 140.1026 140.2874 140.4762
   140.5559 140.5759 140.7196 140.7954 140.9870 141.0189 141.2142 141.2521
   141.3352 141.5015 141.5575 141.6162 141.6656 141.7631 141.8529 141.8603
   141.9471 141.9674 142.0957 142.2813 142.3546 142.3635 142.6082 142.6377
   142.8301 143.2017 143.2776 143.4604 143.4740 143.5118 143.5733 143.7261
   143.7665 144.0425 144.1650 144.1817 144.3107 144.4280 144.4710 144.5762
   144.6357 144.6673 144.7769 144.9102 145.0403 145.0554 145.1880 145.1894
   145.2407 145.3768 145.4014 145.6671 145.6706 145.7158 145.8527 146.0738
   146.1015 146.1153 146.2670 146.3054 146.3493 146.3968 146.4886 146.5396
   146.6666 146.6776 146.7027 146.8721 146.8882 147.0711 147.1815 147.2798
   147.3362 147.4733 147.5662 147.6886 147.7374 147.7676 147.9001 147.9736
   148.0478 148.2336 148.3725 148.4686 148.4942 148.5637 148.5976 148.7208
   148.8030 148.8293 148.9529 149.0375 149.0917 149.1509 149.3836 149.4401
   149.4938 149.6715 149.6909 149.7190 149.9240 149.9298 149.9431 150.0207
   150.2050 150.3084 150.3205 150.4258 150.6195 150.6768 150.7290 150.8014
   150.8774 151.0714 151.0735 151.2970 151.3300 151.4386 151.7583 151.8095
   151.9399 151.9534 152.1484 152.2564 152.3500 152.4960 152.6221 152.6626
   152.8026 153.0221 153.0255 153.1535 153.2230 153.3999 153.4476 153.5518
   153.5865 153.8428 153.9668 153.9824 154.1371 154.1530 154.3451 154.3637

          k = 0.0000 0.3849 0.0000 (  8014 PWs)   bands (ev):

   -24.1418 -24.0594 -24.0576 -24.0178 -24.0090 -15.4765 -14.2962  -9.1494
    -6.8687  -5.2468  -5.0697  -3.7828  -3.4000  -1.2058   1.6951   2.9701
     3.3235   3.8231   4.5612   5.0127   5.4161   6.0876   6.6916   7.0078
     7.6213   8.1089   8.3918   8.8303   9.3324   9.8309   9.9340  10.1175
    10.3983  10.5765  10.6007  11.4160  11.7432  11.8656  12.1597  13.6176
    13.7684  13.9351  14.0762  14.4793  14.6561  14.8114  15.0485  15.1641
    15.3315  15.4856  15.7075  16.0222  16.1254  16.1255  16.6391  16.7091
    16.9142  16.9491  17.1594  17.2841  17.4199  17.6972  17.8494  18.1726
    18.6136  18.8682  19.2509  19.7397  19.9302  19.9709  20.2619  20.3649
    20.7294  21.4634  21.5468  21.8791  22.3302  22.8873  23.5854  23.9159
    23.9966  24.0055  24.1395  24.3134  24.5781  24.7353  24.9103  25.1551
    25.2720  25.3551  25.3568  25.4417  25.9526  26.2725  26.3601  26.4063
    26.5564  26.8356  27.0422  27.0760  27.3573  27.7004  27.7568  28.3537
    28.3796  28.5522  28.7092  28.8552  28.9660  29.3146  29.4511  29.6500
    29.7253  29.7430  30.0219  30.2802  30.4977  30.7572  30.8003  30.9624
    31.2070  31.2535  31.5625  31.7640  31.7682  31.9550  32.4226  32.8466
    33.0279  33.2662  33.5251  33.5661  33.8069  33.8776  34.1515  34.2981
    34.3998  34.4876  34.5903  34.9351  34.9443  35.1281  35.1531  35.2379
    35.2555  35.4034  35.8961  35.9461  36.0933  36.2283  36.3808  36.5352
    36.6816  36.7518  37.0671  37.2647  37.5770  37.5847  37.6249  38.0848
    38.1973  38.3323  38.5307  38.6840  38.7875  38.8745  39.2480  39.2777
    39.8083  39.8115  39.9276  40.2014  40.3043  40.3046  40.5118  40.6579
    41.0211  41.1676  41.6006  41.7789  41.9366  42.1070  42.2780  42.3812
    42.5018  42.5526  42.9204  43.1590  43.6782  43.8920  44.0878  44.1525
    44.3877  44.5839  44.6300  44.8064  44.8834  44.9829  45.2196  45.2885
    45.4491  45.5945  45.7870  45.8235  45.9914  46.0900  46.1725  46.6104
    46.8815  47.0119  47.2761  47.7355  47.9172  48.0074  48.1888  48.3855
    48.4076  48.7059  48.8407  49.0021  49.2328  49.2929  49.3601  49.5925
    49.6109  49.6218  49.7588  49.8501  49.9215  50.0063  50.1260  50.1811
    50.4407  50.4727  50.5954  50.7477  51.0013  51.3739  51.3747  51.4210
    51.5770  51.6229  51.7851  51.9710  52.2147  52.4328  52.5151  52.6790
    52.9557  53.0113  53.3886  53.4691  53.5094  53.6418  53.8035  53.8365
    54.1390  54.3590  54.5132  54.5241  54.5589  54.5717  54.7575  54.8938
    54.9143  54.9490  55.0473  55.1149  55.1857  55.2157  55.7091  55.8242
    55.8840  56.0924  56.1726  56.2592  56.3144  56.6033  56.6821  56.8360
    56.9464  57.0820  57.1110  57.2860  57.4810  57.9377  57.9835  58.0773
    58.2229  58.3745  58.4351  58.7856  58.8192  58.9227  59.2922  59.3214
    59.4501  59.4542  59.5045  59.6836  60.0238  60.0832  60.1212  60.1697
    60.2122  60.7389  60.7946  60.7980  60.9306  61.0350  61.0700  61.3613
    61.5001  61.5626  61.6867  61.8846  61.8985  62.5594  62.7962  62.8305
    62.9646  63.1462  63.3013  63.4471  63.7634  63.9553  64.0409  64.2188
    64.3683  64.3736  64.4448  64.5250  64.5703  64.6661  64.7493  64.8144
    64.8988  64.9598  65.0527  65.2823  65.4222  65.5348  65.5556  65.6971
    65.8876  65.9010  66.1286  66.2098  66.2984  66.3744  66.5008  66.5211
    66.6533  66.7954  67.2364  67.3237  67.4048  67.6255  67.6648  67.7710
    68.1262  68.3460  68.3991  68.4737  68.5849  68.6986  68.7439  68.8484
    68.8732  69.1128  69.3465  69.4663  69.4938  69.6318  69.9495  69.9808
    70.0416  70.2755  70.6203  70.8335  70.9267  71.0514  71.0760  71.2323
    71.3394  71.5452  71.6348  71.8556  72.0716  72.3366  72.3700  72.6263
    72.8250  73.0737  73.1861  73.3429  73.5537  73.5686  73.7330  73.7930
    73.8781  74.1132  74.1530  74.3193  74.3845  74.5213  74.5257  74.5947
    74.6409  74.7795  74.7878  74.9519  74.9733  75.0388  75.1082  75.1960
    75.2062  75.2921  75.4420  75.5000  75.6477  75.8140  76.0636  76.1240
    76.3136  76.3611  76.4390  76.6559  76.7507  77.0013  77.2042  77.3851
    77.4983  77.6625  77.7817  77.8336  78.1111  78.3497  78.3999  78.5426
    78.6594  78.6911  78.8459  78.8504  79.0661  79.2293  79.2519  79.3653
    79.4915  79.7362  79.7530  79.8034  79.9160  80.1810  80.3258  80.4889
    80.5946  80.7938  80.9932  81.0394  81.2859  81.4322  81.4461  81.5493
    82.0161  82.1181  82.1988  82.3959  82.5619  82.6749  83.0342  83.0617
    83.1242  83.1279  83.1647  83.3387  83.4276  83.5955  83.6313  83.7638
    83.8842  84.1757  84.2696  84.2894  84.4107  84.5608  84.5632  84.6100
    84.6291  84.6661  84.7448  84.7955  84.8688  84.8783  84.9700  85.0259
    85.1167  85.1637  85.2272  85.3956  85.5212  85.7409  85.8139  85.8518
    85.8934  85.9432  86.1609  86.2940  86.3588  86.4275  86.4478  86.5826
    86.6079  86.8174  86.9215  86.9392  87.1776  87.2583  87.3282  87.5104
    87.7250  87.8241  87.9506  88.0520  88.1113  88.3113  88.3462  88.3610
    88.4878  88.5753  88.6134  88.6731  88.7852  88.9754  89.1942  89.2539
    89.3921  89.4710  89.5272  89.6007  89.6939  89.7254  89.7569  89.7599
    89.7955  90.0972  90.3882  90.4698  90.6830  90.7968  90.8033  90.9494
    91.0184  91.0685  91.1344  91.2552  91.2960  91.3237  91.5579  91.5893
    91.7578  92.0452  92.0823  92.1822  92.3985  92.4363  92.6520  92.8007
    92.8699  92.9749  92.9959  93.1126  93.1512  93.2309  93.2381  93.3107
    93.5545  93.7117  93.7617  93.8452  93.8770  93.9168  94.1684  94.2422
    94.3323  94.3362  94.3402  94.5407  94.7281  94.7807  94.7858  94.8823
    95.0227  95.1673  95.1911  95.3029  95.4256  95.6073  95.6816  95.7166
    95.9576  96.1463  96.3590  96.4163  96.5893  96.7049  96.7371  97.0620
    97.1644  97.4374  97.6187  97.7171  97.9308  97.9899  98.0938  98.2350
    98.2607  98.3926  98.4876  98.5608  98.7486  98.9107  98.9493  99.0215
    99.2408  99.4162  99.4273  99.6634  99.7403  99.7510 100.0209 100.2240
   100.3242 100.4871 100.6498 100.7651 100.9171 101.0638 101.1530 101.2426
   101.4225 101.5207 101.6003 101.7924 102.0284 102.0310 102.0839 102.1301
   102.2889 102.3721 102.4488 102.6450 102.7284 102.9631 102.9878 103.2166
   103.2420 103.3509 103.3734 103.4643 103.5211 103.6088 103.6578 103.8557
   103.8696 103.9802 104.0254 104.0773 104.1829 104.2089 104.2299 104.3722
   104.4786 104.5073 104.5410 104.6524 104.8648 104.9951 105.0251 105.2344
   105.3006 105.4082 105.4940 105.6378 105.7045 105.8063 105.8747 105.9265
   106.2608 106.2741 106.5461 106.5746 106.7613 106.9496 106.9955 107.4114
   107.4406 107.5962 107.6782 107.6959 107.7688 107.7942 107.8681 107.9553
   107.9979 108.1398 108.2248 108.3640 108.5122 108.5368 108.5829 108.7769
   108.7913 108.8491 108.9067 109.1435 109.2511 109.3219 109.3964 109.4722
   109.5798 109.7611 109.8352 109.9145 109.9525 110.0833 110.1997 110.3964
   110.5435 110.5623 110.7925 110.8308 110.8504 110.9929 111.1843 111.3612
   111.4332 111.4894 111.5182 111.6047 111.9187 111.9853 112.1080 112.1638
   112.3053 112.3993 112.6773 112.6853 112.7641 112.8542 112.9655 113.0215
   113.1997 113.2391 113.2950 113.4307 113.4481 113.7414 113.7781 113.8961
   113.8992 113.9337 114.0173 114.0272 114.1746 114.2362 114.2977 114.3209
   114.4422 114.4715 114.5130 114.5928 114.6712 114.7262 114.8592 114.8613
   114.8946 114.9195 115.0058 115.0998 115.3014 115.4504 115.5413 115.5572
   115.5850 115.6935 115.8174 115.8920 116.0391 116.1592 116.4981 116.5283
   116.7132 116.8303 116.8495 116.8686 117.0438 117.2289 117.3065 117.4818
   117.6083 117.6739 117.7253 117.9439 118.0097 118.0465 118.1615 118.2433
   118.3336 118.4972 118.6036 118.6869 118.8011 118.8582 118.9526 118.9590
   119.1013 119.1533 119.2962 119.5686 119.6122 119.7528 119.8337 119.9593
   120.1241 120.3097 120.3841 120.4443 120.6541 120.6973 120.8367 120.8693
   121.0361 121.1173 121.2950 121.4099 121.4845 121.7149 121.8247 122.0496
   122.1426 122.1843 122.1862 122.3014 122.4052 122.4497 122.5535 122.7576
   122.8787 122.9131 122.9575 123.0555 123.1485 123.2102 123.2864 123.3479
   123.4067 123.6076 123.6607 123.8421 123.8535 123.9482 123.9870 124.0224
   124.0759 124.1880 124.2457 124.2788 124.3630 124.3759 124.4945 124.6311
   124.6629 124.6956 124.7541 125.0939 125.1156 125.1257 125.2542 125.2651
   125.3193 125.5384 125.6730 125.7148 125.7643 125.8407 125.8999 125.9673
   126.1142 126.1274 126.3549 126.4082 126.5320 126.6038 126.8327 126.9951
   127.0643 127.2175 127.2211 127.3061 127.4790 127.5407 127.5917 127.7738
   127.7746 127.8470 127.9821 128.1084 128.1966 128.1975 128.3133 128.4324
   128.4743 128.5936 128.6457 128.7884 128.8054 128.8244 129.0153 129.0885
   129.1060 129.1519 129.1564 129.2432 129.3304 129.3845 129.5036 129.6057
   129.7322 129.9057 129.9133 130.0903 130.3162 130.3351 130.4202 130.4742
   130.6560 130.7477 130.8164 130.8176 130.9536 131.2981 131.3925 131.4755
   131.5874 131.6399 131.6783 131.7233 131.9915 132.0060 132.1867 132.2464
   132.3045 132.3351 132.4341 132.5659 132.5811 132.6858 132.6931 132.8093
   132.8318 133.1174 133.1438 133.2375 133.3274 133.3693 133.4364 133.4423
   133.5702 133.5733 133.6419 133.7902 133.8087 133.8211 133.9010 133.9686
   134.0519 134.1487 134.1521 134.2133 134.2707 134.3302 134.4134 134.5414
   134.6377 134.7352 134.7440 134.7850 134.9250 134.9831 134.9976 135.0364
   135.1254 135.1313 135.2131 135.3798 135.3926 135.5646 135.5919 135.6415
   135.6460 135.8183 135.8262 135.9523 136.0594 136.1622 136.2581 136.3963
   136.4655 136.5702 136.7778 136.7827 136.8830 137.0947 137.2316 137.3038
   137.3978 137.4057 137.5464 137.6580 137.7167 137.7174 138.0271 138.0949
   138.1847 138.2585 138.4642 138.6038 138.6746 138.7831 138.8651 138.9077
   138.9639 139.1585 139.2752 139.3296 139.3390 139.5302 139.7044 139.7320
   139.9716 139.9906 140.1246 140.2395 140.2694 140.3307 140.4862 140.5365
   140.7755 140.8214 141.0462 141.1637 141.2294 141.2650 141.2768 141.4151
   141.5361 141.5911 141.8670 141.9843 141.9873 142.0954 142.1131 142.2235
   142.2941 142.5749 142.6337 142.7152 142.7727 143.0441 143.1000 143.1459
   143.1701 143.2693 143.2980 143.5092 143.5259 143.5608 143.6432 143.7685
   143.8192 143.8301 144.0504 144.0728 144.0955 144.1594 144.3316 144.3989
   144.4647 144.5235 144.7538 144.8491 144.9013 145.0838 145.2837 145.3469
   145.4326 145.4819 145.5050 145.8453 145.8508 145.9289 146.0704 146.1356
   146.3640 146.5034 146.5275 146.7253 146.7616 146.9678 147.0180 147.1746
   147.2422 147.3428 147.4201 147.5391 147.6556 147.7265 147.7770 147.8015
   148.0124 148.1379 148.1520 148.2328 148.4084 148.6037 148.7263 148.7702
   148.7799 148.8863 148.9278 148.9525 149.1821 149.2725 149.3993 149.5407
   149.7028 149.8402 149.8586 149.9649 150.1560 150.3083 150.4440 150.5376
   150.6754 150.7199 150.8204 151.0509 151.1196 151.1882 151.2183 151.3442
   151.4465 151.5193 151.6258 151.7132 151.7327 151.9561 151.9731 152.0432
   152.1133 152.2260 152.2687 152.4080 152.5319 152.6185 152.6329 152.6852
   152.6996 152.8911 152.9473 153.0008 153.0674 153.1818 153.2499 153.2792
   153.3919 153.4643 153.5521 153.6556 153.6565 153.6671 153.7539 153.7925
   153.8520 153.8749 153.9242 153.9975 153.9992 154.0958 154.1265 154.2214
   154.2945 154.3110 154.3710 154.4887 154.5374 154.7868 154.9139 154.9399

          k = 0.0000-0.5774 0.0000 (  8052 PWs)   bands (ev):

   -24.1597 -24.0654 -24.0563 -24.0054 -23.9961 -14.7773 -14.2619  -9.8807
    -7.4861  -5.3737  -5.2624  -3.7703  -3.5029  -1.7177   1.5579   3.0579
     3.1057   3.3576   6.2605   6.3801   6.6068   6.9209   7.4002   7.4246
     7.9720   7.9813   8.5525   8.6971   9.3917   9.4810   9.6395  10.1149
    10.2259  10.6427  10.6704  11.2300  11.7182  11.9842  12.1916  12.3770
    12.4496  12.9307  13.8909  14.0629  14.1117  14.3848  14.4331  14.6361
    14.6381  14.7748  14.8457  15.1517  15.2331  15.7312  15.8661  16.5288
    16.6766  16.8128  17.0884  17.1766  17.3490  17.8229  18.3773  18.5063
    18.8000  19.4138  19.7672  19.7895  20.0302  20.2960  20.6099  20.6932
    20.8217  20.9958  21.5963  21.8458  22.0554  22.1452  22.3254  22.6859
    22.9648  23.7501  23.8357  24.3238  25.1613  25.4854  25.4965  25.7227
    25.7309  26.1776  26.7246  26.8439  27.4133  27.6455  28.0772  28.2811
    28.4719  28.5388  28.8410  28.9070  29.1985  29.2556  29.2960  29.4147
    29.4711  29.6278  29.6973  29.7635  29.7893  29.8851  29.9929  30.1737
    30.2104  30.2835  30.6019  30.6629  30.7314  31.0997  31.1697  31.2332
    31.2488  31.6131  31.6587  31.9708  31.9787  32.0950  32.2143  32.3695
    32.6532  33.0010  33.1831  33.2319  33.3595  33.5346  33.5793  33.6004
    33.6388  34.0106  34.1640  34.2443  34.5107  35.2046  35.2228  35.3587
    35.8535  35.8936  35.9704  36.2451  36.2724  36.5549  36.6754  37.0307
    37.0636  37.0669  37.0689  37.2352  37.2590  37.3694  37.6236  37.6376
    37.7247  37.8006  37.8901  37.9689  38.1049  38.2428  38.7089  38.8399
    38.9870  39.2192  39.2417  39.3280  39.4318  39.5331  39.6515  39.7934
    39.9359  40.0193  40.4898  40.5998  40.8157  40.8780  41.3132  41.4323
    41.4623  42.1989  42.4058  42.5538  42.5715  42.7138  42.7161  43.0206
    43.5526  43.6099  43.8395  43.9961  44.1230  44.1343  44.4766  44.4906
    44.5686  44.7976  44.8235  44.9831  45.1716  45.2021  45.6088  45.9918
    46.4056  46.6500  46.6631  46.8431  47.2602  47.6303  47.7226  48.1218
    48.1732  48.3618  48.6756  48.8129  48.8345  48.9252  49.5201  49.6969
    49.8157  49.9078  50.1778  50.2837  50.3425  50.3859  50.5955  51.0282
    51.0848  51.1942  51.3989  51.4617  51.5748  51.5785  51.5950  51.8628
    51.8831  52.0002  52.0151  52.0271  52.1079  52.1475  52.2487  52.3386
    52.3800  52.7085  52.9344  53.0543  53.1315  53.1573  53.2317  53.3597
    53.3807  53.5111  53.6617  53.7989  53.8799  53.8900  54.0181  54.0862
    54.1451  54.4823  54.4959  54.6903  54.8546  54.8952  54.9485  55.2786
    55.5491  55.6808  55.7214  55.7906  55.8130  55.8542  56.1460  56.2031
    56.2312  56.3323  56.5157  56.8579  57.1698  57.5300  57.6672  57.8890
    58.1158  58.1358  58.2351  58.5026  58.5539  58.5778  58.6137  58.7540
    58.9286  59.0439  59.0534  59.1831  59.3855  59.6229  59.7668  59.8150
    59.8169  59.9445  60.0483  60.2187  60.6811  60.8048  61.1146  61.2723
    61.3675  61.5547  61.6317  61.9979  62.2859  62.3729  62.3763  62.4947
    62.8929  62.9844  63.1921  63.3819  63.7693  63.8708  64.2676  64.4195
    64.5498  64.7060  65.1515  65.2042  65.4788  65.5765  65.8015  65.9276
    65.9555  66.0118  66.1530  66.4245  66.5400  66.6389  66.6508  66.7306
    66.7883  66.8358  67.0112  67.1357  67.2742  67.5000  67.5585  67.6767
    67.6834  67.8353  67.8564  67.9337  68.0470  68.6980  68.7393  69.1849
    69.3695  69.5353  69.5429  70.1895  70.3091  70.5836  70.6579  70.6637
    70.7503  71.2005  71.3880  71.4316  71.7836  72.1535  72.5134  72.5421
    72.5789  72.6204  72.6358  72.7786  73.0852  73.1076  73.1772  73.2265
    73.3332  73.5219  73.5817  73.6644  73.7817  73.9422  73.9596  74.0208
    74.2239  74.2349  74.2563  74.2726  74.3063  74.4027  74.4265  74.5583
    74.6389  74.8580  74.8814  74.8977  75.1670  75.3034  75.3519  75.4573
    75.4579  75.6772  75.6810  75.7606  75.9095  75.9128  75.9349  76.0124
    76.0517  76.1262  76.1738  76.3510  76.3703  76.8271  76.8526  77.0853
    77.2106  77.4930  77.5294  77.5966  77.6387  77.8426  77.9400  78.0443
    78.1231  78.1343  78.4180  78.5780  78.6179  78.6568  78.7098  78.9855
    79.1263  79.5229  79.7994  79.8028  79.8582  80.0404  80.1096  80.1530
    80.1996  80.2200  80.3161  80.4166  80.7082  80.7709  80.8804  80.9008
    80.9836  81.1898  81.3484  81.3922  81.4382  81.4741  81.4938  81.5398
    81.5410  81.5648  81.7844  81.7876  81.7961  81.7985  81.8854  81.9069
    81.9124  81.9339  82.0793  82.4387  82.5861  82.6410  82.6768  82.7226
    82.7908  82.8577  82.8945  82.9975  83.0066  83.0547  83.1247  83.2396
    83.2692  83.6082  83.6676  83.6877  83.7148  83.7496  83.8238  84.1391
    84.2471  84.3202  84.3548  84.3801  84.4872  84.6642  84.7235  84.7394
    84.8134  84.8924  85.1070  85.1197  85.3796  85.4833  85.5489  85.6330
    85.8069  85.8118  85.9065  86.1117  86.4878  86.4930  86.5825  86.7138
    87.0524  87.2128  87.2698  87.3970  87.5184  87.5791  87.7493  87.8184
    87.8859  87.9724  88.0626  88.0990  88.2296  88.2529  88.4422  88.4496
    88.4760  88.6625  88.6786  88.7246  88.7950  88.9188  88.9611  89.1188
    89.2000  89.2021  89.2194  89.5126  89.6234  89.7705  89.8290  90.0043
    90.2521  90.3659  90.3709  90.8092  91.0346  91.2109  91.2551  91.5447
    91.6731  91.7991  92.0046  92.0079  92.2197  92.4379  92.4791  92.6151
    92.6158  92.9027  93.0217  93.1299  93.2308  93.5014  93.5073  93.5601
    93.6947  93.7313  93.9282  94.1218  94.1672  94.1752  94.2914  94.6417
    94.6886  95.1252  95.1470  95.1576  95.2062  95.3545  95.3611  95.5137
    95.5149  95.6683  95.6916  95.9301  95.9611  96.0127  96.0423  96.0580
    96.3131  96.4775  96.5285  96.5460  96.5931  96.9703  96.9828  97.0254
    97.1029  97.1813  97.2416  97.2837  97.4637  97.5580  97.6028  97.7120
    97.7438  97.8035  97.8152  98.0877  98.1202  98.2003  98.2113  98.4045
    98.5827  98.5884  98.6648  98.7749  98.7960  98.8392  98.9204  99.0520
    99.6225  99.7464  99.8728  99.8796  99.9631 100.2546 100.3073 100.4546
   100.5245 100.5553 100.7665 100.8067 100.9884 101.2329 101.3219 101.3394
   101.3566 101.5681 101.6033 101.7113 101.7507 101.9811 102.0835 102.4877
   102.5423 102.7044 102.7089 102.9025 103.1933 103.2020 103.3258 103.4502
   103.4593 103.5774 103.6430 103.7756 103.7977 103.8388 103.8681 103.9340
   103.9461 104.1442 104.1491 104.1937 104.2950 104.3072 104.3959 104.4481
   104.4564 104.4844 104.8922 105.0242 105.0261 105.0353 105.2029 105.2409
   105.2700 105.5120 105.5527 105.5851 105.6344 105.8926 105.9481 106.0155
   106.0250 106.1667 106.3404 106.3991 106.5723 106.6269 106.7035 106.7608
   106.8516 106.9288 106.9554 107.0506 107.1177 107.2794 107.3068 107.4194
   107.4905 107.7546 107.8155 107.8859 108.1674 108.2689 108.5136 108.5490
   108.8389 108.8624 109.4993 109.6278 109.6336 109.9400 110.0037 110.0981
   110.3525 110.3836 110.4434 110.4662 110.5237 110.6006 110.6043 110.7312
   110.9624 110.9938 111.1461 111.1626 111.2166 111.2724 111.3566 111.4139
   111.6263 111.6906 111.7181 111.8413 112.0895 112.1727 112.2753 112.5290
   112.8438 112.9137 112.9423 113.0182 113.0188 113.3551 113.3854 113.3863
   113.4317 113.5402 113.7851 113.8097 113.9410 114.0865 114.2176 114.4681
   114.5051 114.7972 114.9355 114.9554 115.1121 115.4001 115.4118 115.4772
   115.5613 115.5692 115.8012 115.9718 115.9854 116.3223 116.4956 116.5014
   116.6110 116.6920 116.7000 116.7656 116.9513 117.0133 117.0145 117.3640
   117.4845 117.4859 117.5098 117.6317 117.7094 117.7139 117.9024 117.9975
   118.0403 118.1108 118.1189 118.2978 118.4192 118.4978 118.5007 118.5133
   118.5265 118.5928 118.7629 118.7753 118.8030 118.8316 118.8436 118.8566
   118.8902 118.9893 119.0086 119.1645 119.1674 119.2805 119.4135 119.4283
   119.4474 119.4546 119.6974 119.7144 119.7643 119.8051 119.8376 119.9058
   119.9759 120.0472 120.0553 120.1403 120.1610 120.3673 120.5059 120.7616
   120.9249 120.9603 121.1733 121.6297 121.6490 121.7348 121.8117 121.8211
   121.8229 122.0544 122.0974 122.2345 122.3946 122.4023 122.6260 122.6643
   122.6866 122.7570 123.0294 123.2169 123.2562 123.3083 123.4118 123.5164
   123.6081 123.8241 124.1310 124.2398 124.2900 124.3208 124.3636 124.3831
   124.4746 124.5445 124.6058 124.6705 125.0068 125.0151 125.1316 125.1952
   125.2970 125.3005 125.3007 125.4573 125.5720 125.5920 125.6977 125.7290
   125.7686 125.8686 126.0147 126.3606 126.6555 126.8744 126.8987 126.8992
   126.9355 126.9377 127.1833 127.2754 127.4175 127.4452 127.5560 127.5568
   127.5958 127.8245 127.8757 127.9122 128.1689 128.1929 128.4065 128.4598
   128.5245 128.5448 128.5887 128.6576 128.8907 129.0103 129.0910 129.1430
   129.2032 129.2404 129.2838 129.4046 129.6113 129.7195 129.9803 130.0759
   130.1446 130.1458 130.4336 130.8863 130.9075 131.1905 131.3077 131.5010
   131.5326 131.6431 131.6622 131.8088 131.9154 132.0137 132.1505 132.2427
   132.3555 132.4952 132.5305 132.5587 132.5639 132.7293 132.8543 132.9112
   133.1426 133.2115 133.3935 133.5187 133.7664 133.8303 133.8339 133.9439
   133.9857 134.0243 134.0307 134.2162 134.2909 134.4252 134.6361 134.8680
   134.8894 135.0862 135.1031 135.1384 135.1397 135.2586 135.5669 135.6497
   135.6676 135.7083 135.8762 136.1367 136.4873 136.5085 136.5153 136.5253
   136.5757 136.5931 136.7612 137.1060 137.1310 137.3120 137.4616 137.5318
   137.6676 138.0074 138.0190 138.1239 138.3779 138.5099 138.6767 138.6853
   138.6874 138.7343 138.8599 138.8738 138.9300 138.9877 139.1256 139.2149
   139.3479 139.3715 139.5151 139.6876 139.7052 139.8416 140.0722 140.2186
   140.2205 140.2419 140.4006 140.5176 140.5182 140.6188 140.6463 140.6790
   140.7219 140.8413 140.8603 140.9556 140.9916 141.0071 141.0100 141.0473
   141.0952 141.2354 141.2933 141.3057 141.3856 141.4261 141.4814 141.4826
   141.5279 141.5500 141.6605 141.7302 141.8414 141.9934 142.0739 142.1100
   142.2159 142.2406 142.2754 142.3950 142.4883 142.5664 142.5937 142.5971
   142.5982 142.7862 142.8150 142.9034 142.9368 142.9929 143.0886 143.1457
   143.5035 143.5146 143.6891 143.7736 143.9811 143.9946 144.0687 144.1964
   144.2297 144.2818 144.6041 144.6149 144.6196 144.8058 144.8114 145.0510
   145.0974 145.1688 145.1967 145.4325 145.5571 145.6310 145.7185 145.7290
   145.9974 146.1293 146.2550 146.3249 146.3277 146.6052 146.6628 146.9492
   146.9498 146.9750 147.2534 147.3486 147.3912 147.4189 147.4278 147.5308
   147.5389 147.5403 147.5466 147.8346 147.8630 147.8811 147.8890 147.9473
   147.9959 148.0381 148.1086 148.1800 148.2261 148.4847 148.4896 148.5121
   148.5313 148.5372 148.5627 148.6089 148.6205 148.6603 148.7125 148.7494
   148.8246 148.8876 148.9181 149.0065 149.1601 149.4118 149.4761 149.5190
   149.5928 149.6091 149.6176 149.6267 149.7411 149.7790 149.8002 149.8768
   149.8799 149.9690 150.0072 150.0199 150.0734 150.1876 150.2089 150.2717
   150.2897 150.3643 150.3686 150.7096 150.7960 150.8464 150.8823 150.9171
   150.9739 151.0236 151.0703 151.1047 151.1681 151.2127 151.2185 151.2539
   151.3282 151.3890 151.4533 151.4540 151.5864 151.6362 151.6964 151.7075
   152.0125 152.0840 152.1281 152.2215 152.2273 152.2276 152.3316 152.5578
   152.5608 152.6201 152.8121 152.8888 152.9367 153.2546 153.2821 153.2839
   153.3076 153.5779 153.5893 153.6941 154.1104 154.1874 154.3606 154.3767

          k = 0.1667 0.2887 0.0000 (  8033 PWs)   bands (ev):

   -24.1236 -24.0728 -24.0480 -24.0314 -24.0113 -15.7196 -14.3812  -8.7941
    -6.2151  -5.8518  -4.4949  -4.0337  -3.5910  -0.4226   2.3385   2.6177
     3.0991   4.1802   4.4522   4.7205   5.0293   5.3609   5.7390   6.5196
     6.9992   7.2868   8.4353   8.6141   9.3086   9.3851  10.3869  10.9560
    11.4803  11.6524  11.8043  12.0988  12.3767  12.3813  12.5837  12.7164
    12.7300  13.3430  13.4757  13.5158  13.9716  14.2469  14.3204  14.7261
    15.1473  15.4385  16.0269  16.1382  16.1979  16.3273  16.7077  16.9025
    17.5656  18.0193  18.4599  18.5642  18.5741  18.8994  19.1585  19.4132
    19.7111  19.7955  19.8836  19.8912  19.9605  20.2157  20.6750  20.9034
    21.0810  21.3785  21.5504  21.6615  21.6883  22.1156  22.5252  22.6132
    22.6411  23.1152  23.1476  23.3639  23.6699  23.7640  24.2801  24.5910
    24.7491  25.0945  25.4403  25.4846  25.5553  25.9861  26.0959  26.1093
    26.3835  26.5910  26.8807  26.9223  27.1622  27.2408  27.3292  27.3596
    27.5894  27.9949  28.1057  28.6305  28.6309  28.7907  28.8618  29.0738
    29.3524  29.4069  29.6037  29.9172  30.0294  30.2991  30.4844  30.6869
    30.9751  31.0345  31.4818  31.4885  31.7664  31.9439  32.1991  32.3011
    32.9641  33.0294  33.2656  33.3442  33.4270  33.4713  33.9752  34.1545
    34.3644  34.5648  34.6042  34.9691  34.9773  35.2627  35.3697  35.4621
    35.5769  35.7514  35.7957  36.1378  36.2252  36.7043  36.8030  36.8598
    36.9876  37.2647  37.6985  37.8536  37.8576  38.1020  38.3801  38.3810
    38.4652  38.7342  39.1400  39.2447  39.3680  39.5888  40.2897  40.3986
    40.7113  40.9716  40.9940  41.2878  41.2991  41.5237  41.5329  41.7980
    41.8199  41.9978  42.0143  42.0785  42.2547  42.2844  42.4823  42.5848
    42.8488  42.9492  43.3743  43.4746  43.5137  43.7306  43.7890  43.8778
    43.9772  44.0952  44.3863  44.6991  44.7519  44.8680  45.1379  45.3675
    45.7117  45.7348  45.7844  45.9964  46.1440  46.3794  46.4911  46.7706
    46.8847  47.3574  47.6302  47.7863  47.8804  48.2135  48.2357  48.3477
    48.4554  48.5318  48.7291  48.8542  49.1032  49.2662  49.3172  49.3984
    49.4261  49.4517  49.5163  49.6755  49.7008  49.7408  49.7851  49.9402
    50.1172  50.3927  50.7185  50.7306  50.8458  50.8504  50.9817  51.1643
    51.1932  51.4117  51.8240  51.8966  52.0003  52.1610  52.1726  52.3303
    52.8019  52.8626  53.0835  53.3045  53.4281  53.4863  53.5558  53.7718
    54.0368  54.6406  54.8453  54.9244  55.0077  55.3559  55.4801  55.6644
    55.9009  55.9601  55.9962  56.1432  56.1565  56.2588  56.3415  56.3853
    56.4956  56.6052  56.6206  56.7163  56.8462  56.9728  57.0715  57.1355
    57.1483  57.1870  57.2950  57.5497  57.6133  58.1012  58.1541  58.2403
    58.3261  58.3921  58.5831  58.7542  58.8684  59.0604  59.2810  59.4247
    59.4734  59.7911  59.8769  60.1192  60.2469  60.5419  60.6846  60.7215
    60.9018  61.1748  61.1953  61.3477  61.3681  61.4142  61.5013  61.6567
    62.0894  62.2840  62.3695  62.6993  62.7833  62.8500  63.0215  63.1945
    63.2292  63.3489  63.3988  63.6069  63.6268  63.6631  63.8486  63.8609
    64.0312  64.0995  64.1119  64.1719  64.2142  64.3529  64.3562  64.4763
    64.4964  64.5919  64.6283  64.7779  64.7803  64.9275  64.9865  65.2730
    65.4288  65.4476  65.5770  65.6464  65.7076  65.8638  65.9050  66.1253
    66.2209  66.3591  66.5383  66.6136  66.8484  66.9839  66.9937  67.1857
    67.2389  67.4264  67.5058  67.7528  67.7811  67.8747  67.9459  68.2007
    68.2128  68.3930  68.8433  68.8889  69.1188  69.1863  69.2999  69.5301
    69.5542  69.9011  70.0005  70.2121  70.3206  70.4197  70.5850  70.6332
    70.8038  70.8491  71.0247  71.0338  71.2137  71.2553  71.5429  71.5661
    71.6142  71.7152  71.7442  71.9729  72.0378  72.1132  72.3231  72.4986
    72.5026  72.7119  72.9849  73.0361  73.2620  73.4446  73.6313  73.7405
    73.8773  73.9203  74.0232  74.2425  74.4068  74.4320  74.5862  74.6931
    74.8913  75.1441  75.2198  75.2608  75.5300  75.8733  75.9378  76.0109
    76.2422  76.5393  76.6939  76.9301  76.9780  77.3565  77.6423  77.8114
    77.9390  78.2131  78.2384  78.2703  78.3327  78.4449  78.6486  78.6637
    78.7747  78.8454  78.9248  79.0034  79.0795  79.1940  79.2391  79.2531
    79.3224  79.4642  79.5570  79.6252  79.7121  79.8926  79.9977  80.3619
    80.4829  80.4978  80.5882  80.6380  80.6960  80.8185  80.8976  80.9458
    81.0869  81.1245  81.3154  81.5270  81.7943  81.9181  82.0359  82.2898
    82.3746  82.5523  82.5888  82.8069  82.9523  82.9719  83.1248  83.2612
    83.4983  83.5616  83.6972  83.8443  83.8830  83.9449  84.1904  84.4594
    84.5381  84.8211  84.8964  85.0237  85.0659  85.0800  85.3628  85.4031
    85.6419  85.6575  85.8090  85.8334  85.8675  85.9683  86.0718  86.0900
    86.3914  86.5333  86.6266  86.6296  86.6664  86.7856  86.8916  86.9470
    86.9908  87.0285  87.2029  87.3570  87.3847  87.6690  87.6717  87.7441
    87.8122  87.9751  88.0099  88.0848  88.2607  88.3942  88.4368  88.5332
    88.7067  88.7603  88.8756  88.9131  89.0969  89.3188  89.3527  89.5452
    89.5895  89.6797  89.7587  89.8594  90.0371  90.0553  90.4905  90.5037
    90.7953  90.8220  91.0165  91.0713  91.0887  91.3710  91.6220  91.9668
    91.9906  92.3183  92.3319  92.5089  92.6137  92.7412  92.7841  92.7891
    92.8468  92.9184  93.0226  93.1971  93.2157  93.2628  93.4690  93.4768
    93.5203  93.5420  93.7234  93.7455  93.8493  93.9036  93.9279  94.1158
    94.1667  94.2141  94.2327  94.3068  94.3252  94.3764  94.6376  94.7165
    94.8225  95.0994  95.1855  95.3141  95.4442  95.4753  95.6706  95.7872
    95.8811  96.0816  96.2370  96.2502  96.2811  96.5452  96.7186  96.7557
    96.7625  96.8189  96.9769  97.1998  97.3494  97.3500  97.5569  97.5793
    97.6709  98.0098  98.0381  98.1491  98.1621  98.3318  98.4095  98.5322
    98.6485  98.7049  99.0548  99.1387  99.2455  99.2885  99.4452  99.6883
    99.8477  99.8836 100.1087 100.1979 100.3388 100.3551 100.4210 100.5216
   100.5323 100.5527 100.6358 100.7531 100.8182 100.8665 100.8866 101.0104
   101.0846 101.1852 101.2909 101.4412 101.4544 101.5341 101.6280 101.6646
   101.7485 101.7718 101.8189 101.9345 101.9935 102.2620 102.3100 102.3948
   102.6191 102.7219 102.7821 102.8369 102.9071 103.0686 103.1823 103.3138
   103.4748 103.7014 103.7729 103.7907 103.9693 104.0325 104.0661 104.1658
   104.3528 104.4488 104.5883 104.7469 104.8651 104.9319 105.0139 105.1010
   105.2994 105.3944 105.5424 105.5904 105.7417 105.7691 105.9835 106.1313
   106.3178 106.3239 106.4372 106.5418 106.6332 106.7745 107.2327 107.2505
   107.5424 107.5426 107.6177 107.7310 107.7878 107.8119 107.9237 107.9813
   108.0168 108.0315 108.2299 108.3545 108.3606 108.4076 108.7369 108.7925
   108.9013 108.9474 109.0735 109.1955 109.2997 109.4559 109.5120 109.7723
   109.7922 110.1532 110.1554 110.2425 110.3644 110.4897 110.5305 110.6037
   110.6040 110.6811 110.7262 110.7475 110.9880 111.0350 111.2586 111.5530
   111.6241 111.7152 111.8116 111.9378 112.1089 112.4638 112.6091 112.6826
   112.8251 112.8587 112.9738 113.0985 113.3404 113.4721 113.4738 113.5043
   113.7840 113.8073 113.9998 114.1029 114.2604 114.2685 114.5512 114.7462
   114.8301 115.0266 115.1538 115.2063 115.2253 115.3233 115.3962 115.4513
   115.5966 115.6360 115.8575 115.9001 115.9361 116.0407 116.1303 116.1756
   116.1945 116.2435 116.3092 116.3203 116.3819 116.4347 116.4687 116.4806
   116.4865 116.5739 116.5803 116.7094 116.7177 116.8231 116.9005 116.9962
   117.0107 117.0492 117.1719 117.2247 117.4301 117.4671 117.5890 117.6150
   117.6325 117.7162 117.7789 117.8303 117.8375 117.8891 118.0388 118.3164
   118.3903 118.4961 118.5533 118.6599 118.6849 118.8719 119.0578 119.0768
   119.2227 119.2518 119.2997 119.4632 119.5585 119.7005 119.7569 119.8511
   119.9311 119.9787 120.0583 120.0970 120.1527 120.3911 120.4056 120.5571
   120.6802 120.8357 120.8641 120.8911 121.1173 121.2098 121.2802 121.3307
   121.7207 121.8609 121.9015 121.9995 122.0238 122.0306 122.3275 122.3550
   122.4154 122.6160 122.6981 122.7174 122.9332 122.9847 123.0215 123.0331
   123.1036 123.2627 123.3218 123.3589 123.3778 123.5471 123.5472 123.5713
   123.6339 123.6793 123.7668 123.8008 123.8352 123.8710 124.0482 124.0829
   124.2049 124.2330 124.4630 124.5974 124.8031 124.8203 124.8875 124.9075
   125.0367 125.0408 125.1883 125.2176 125.3417 125.3787 125.4084 125.4803
   125.5841 125.6228 125.7209 125.7390 125.9191 125.9344 126.1051 126.1872
   126.2168 126.2687 126.2845 126.3726 126.5388 126.5655 126.7367 126.9803
   127.0314 127.0713 127.1879 127.2647 127.3923 127.5041 127.6657 127.8275
   127.8533 127.9903 128.0991 128.3620 128.4481 128.5033 128.6485 128.9151
   128.9997 129.0345 129.2601 129.3923 129.3945 129.5674 129.6735 129.7357
   129.8139 129.9080 129.9746 130.0761 130.1343 130.1496 130.1802 130.2876
   130.3756 130.4466 130.4851 130.6471 130.6845 130.8277 130.9402 131.0001
   131.0789 131.0847 131.1619 131.2432 131.2539 131.3162 131.3510 131.5001
   131.6197 131.6384 131.7590 131.8344 131.9256 132.0078 132.1342 132.2086
   132.2727 132.3384 132.4304 132.4798 132.5250 132.6928 132.7018 132.7649
   132.7760 132.8568 133.0345 133.1848 133.2266 133.3696 133.4726 133.6822
   133.7728 133.8381 133.9692 134.1415 134.1696 134.2424 134.4948 134.5027
   134.5964 134.7001 134.7227 134.7629 134.9190 134.9229 135.1582 135.1864
   135.2114 135.4473 135.6942 135.7811 135.7880 135.8579 135.9940 136.0378
   136.0611 136.2182 136.5259 136.5977 136.7386 136.7672 136.8336 136.9095
   137.0581 137.1663 137.1848 137.3001 137.3108 137.4475 137.6636 137.6692
   137.6831 137.7731 137.7891 137.8546 137.9404 137.9618 138.0605 138.0767
   138.1338 138.2274 138.4780 138.4787 138.6233 138.6307 138.6480 138.6715
   138.7538 138.7910 138.9917 139.0385 139.0883 139.0985 139.2313 139.3403
   139.5218 139.6074 139.7789 139.7975 139.8605 139.9602 140.0159 140.0519
   140.1302 140.1509 140.1807 140.3966 140.4928 140.4979 140.5411 140.7980
   140.8362 140.9134 140.9701 141.0984 141.2478 141.2989 141.4144 141.4267
   141.7393 141.7899 141.9106 141.9262 141.9749 142.0385 142.1272 142.1325
   142.4011 142.4812 142.4873 142.5599 142.9094 143.1401 143.2159 143.2872
   143.3574 143.4427 143.6050 143.7021 143.8033 143.9046 143.9797 144.0427
   144.2402 144.4286 144.5382 144.5968 144.6109 144.6960 144.7247 144.7825
   144.9252 145.0386 145.0649 145.1019 145.1403 145.1718 145.2990 145.3271
   145.4891 145.7851 145.7953 145.8875 145.8940 145.9937 146.0751 146.1041
   146.2433 146.2689 146.3032 146.3891 146.4157 146.6890 146.7663 146.9084
   147.2081 147.3030 147.3169 147.3479 147.5771 147.5822 147.6025 147.7369
   147.7866 147.8919 147.9300 148.0644 148.1149 148.1606 148.2120 148.3727
   148.4200 148.4596 148.6174 148.7175 148.7849 148.9956 149.1554 149.3472
   149.4042 149.4692 149.6647 149.8912 150.1420 150.2595 150.3376 150.3383
   150.5810 150.6683 150.6863 150.8831 151.1196 151.1636 151.3945 151.3950
   151.4548 151.6242 151.6266 151.8115 152.0229 152.0474 152.0841 152.1954
   152.1991 152.3992 152.5111 152.5630 152.6455 152.6982 152.7696 152.7904
   152.9527 153.0967 153.1082 153.1834 153.2738 153.3742 153.3974 153.4466
   153.5028 153.5565 153.7123 153.7750 153.8197 153.8670 153.9878 154.0449
   154.0600 154.0737 154.1701 154.2093 154.3663 154.4236 154.4956 154.5364

          k = 0.1667 0.4811 0.0000 (  8051 PWs)   bands (ev):

   -24.1394 -24.0722 -24.0547 -24.0198 -23.9977 -14.8627 -14.1737  -9.7411
    -7.1404  -6.1266  -5.4170  -4.0877  -3.6203  -0.8860   2.4597   2.8573
     3.4881   3.9574   5.6089   6.0734   6.4114   6.6083   7.0878   7.4251
     7.6951   8.1657   8.5049   8.9299   9.1309   9.3084   9.9923  10.1159
    10.2114  10.6232  11.1178  11.2238  11.5173  11.5588  11.9120  12.1278
    12.3969  12.6721  12.6984  13.0513  13.2984  13.4247  13.6934  13.9736
    14.5033  14.7188  15.3590  15.6803  15.8988  16.2824  16.6934  16.9877
    17.3810  17.7556  18.1758  18.2746  18.5371  18.6072  18.9857  19.0755
    19.1938  19.3638  19.8299  20.1718  20.2979  20.4434  20.6972  20.8755
    21.0795  21.5080  21.8981  22.1246  22.3703  22.5640  23.0260  23.3035
    23.5367  23.6415  23.7454  24.0064  24.2403  24.4785  24.8667  25.1266
    25.1918  25.4656  25.6907  25.8188  26.1662  26.5421  26.6182  26.9117
    27.0387  27.2073  27.4856  27.5439  27.7900  28.2903  28.6116  28.7493
    28.8792  29.1012  29.2055  29.4068  29.6171  29.9835  30.0000  30.3819
    30.4763  30.5673  30.7399  30.8767  31.0249  31.1551  31.2188  31.5138
    31.5747  31.9133  32.0945  32.2321  32.5567  32.6376  32.8016  32.9826
    33.0335  33.3536  33.4978  33.6550  33.7043  33.8213  33.9615  34.2617
    34.4285  34.4747  34.5937  34.8302  35.2336  35.2954  35.4301  35.5262
    35.7536  35.7934  36.0337  36.2613  36.3553  36.4663  36.5420  36.6819
    36.8284  37.1976  37.2342  37.3637  37.6463  37.7743  37.9560  38.0284
    38.2329  38.3500  38.5186  38.5946  38.7449  39.0252  39.1921  39.4372
    39.7575  39.9343  39.9954  40.1157  40.3207  40.5033  40.7283  40.9957
    41.0283  41.1414  41.2989  41.4442  41.6876  41.7673  42.0898  42.2223
    42.4373  42.5526  42.6265  42.7526  42.9353  43.0669  43.2307  43.2862
    43.3893  43.4686  43.7450  43.8175  43.8872  44.0946  44.1671  44.1820
    44.5200  44.7694  44.9147  45.0588  45.1053  45.2065  45.2915  45.5290
    45.7490  45.7981  46.0746  46.1425  46.3550  46.3949  46.4767  46.6217
    46.8525  47.1139  47.2134  47.3028  47.5471  47.6395  47.8070  47.8925
    47.9436  48.1235  48.3297  48.3430  48.4033  48.7213  48.8407  49.0722
    49.3455  49.6960  49.7734  49.8988  50.0092  50.1385  50.2469  50.4665
    50.6094  50.7542  51.0692  51.1177  51.4166  51.6769  51.8573  51.9203
    52.0939  52.2528  52.4920  52.5193  52.6992  52.9635  53.0706  53.3498
    53.5773  53.7158  53.9898  54.0798  54.2272  54.3888  54.5516  54.7962
    54.8370  55.1291  55.2877  55.3666  55.6906  55.8396  55.9412  56.0321
    56.2306  56.3104  56.4603  56.7947  56.9682  57.3346  57.4806  57.5450
    57.7663  57.9254  58.1633  58.2336  58.3915  58.5400  58.6239  58.7293
    58.8759  59.0701  59.1284  59.2984  59.4784  59.7621  59.9186  59.9692
    60.1249  60.2482  60.3928  60.4310  60.6760  60.8461  60.8773  60.9845
    61.0864  61.2117  61.2830  61.4975  61.6131  61.8228  61.8785  62.0579
    62.1028  62.3765  62.4618  62.5797  62.6718  62.8222  62.9220  63.1349
    63.3357  63.6804  63.7197  63.9950  64.0499  64.2026  64.4099  64.7463
    64.7995  64.9664  65.0591  65.2218  65.3434  65.4875  65.5527  65.6802
    65.7643  65.9909  66.0528  66.1086  66.1931  66.3235  66.4905  66.7764
    66.9686  66.9969  67.0869  67.2096  67.4172  67.5210  67.5686  67.7923
    67.8989  68.0164  68.2032  68.3372  68.4050  68.5108  68.7639  68.7892
    69.0217  69.2160  69.4212  69.5612  69.6165  69.8036  69.9938  70.0567
    70.1028  70.3374  70.5626  70.6321  70.7900  70.8641  70.9739  71.0709
    71.1388  71.2653  71.3908  71.5787  71.7046  71.8513  71.9525  72.0561
    72.2522  72.3689  72.4492  72.5382  72.5852  72.7712  72.8538  73.0326
    73.1988  73.3361  73.3595  73.4630  73.5919  73.7209  73.8408  74.1244
    74.2043  74.3068  74.5326  74.5802  74.6884  74.7240  74.7933  74.9240
    75.1070  75.2274  75.3273  75.3952  75.4956  75.6992  75.8251  75.9505
    76.0635  76.0999  76.1584  76.3105  76.3614  76.5004  76.7175  76.7359
    76.8518  77.0463  77.1267  77.2148  77.2504  77.3109  77.4323  77.5493
    77.6614  77.7939  77.9121  77.9632  78.0567  78.1623  78.3608  78.4361
    78.4812  78.6232  78.7903  78.8697  79.1862  79.2623  79.4026  79.5289
    79.5977  79.6604  79.7599  79.9224  79.9761  80.0490  80.0721  80.2062
    80.2798  80.4397  80.5048  80.6291  80.6957  80.8671  81.0717  81.2685
    81.3896  81.5901  81.7148  81.8565  81.9992  82.1739  82.2445  82.2708
    82.5480  82.6256  82.7313  82.7851  82.9209  83.0287  83.0883  83.3482
    83.4136  83.4565  83.5773  83.7430  83.8937  83.9839  84.1368  84.2065
    84.2596  84.3586  84.4215  84.6210  84.6656  84.7506  84.8013  85.0067
    85.0931  85.2454  85.2952  85.4124  85.4841  85.5868  85.7209  85.7745
    85.8246  85.9096  85.9742  86.0437  86.1735  86.3317  86.5498  86.6309
    86.6463  86.9090  86.9550  87.0932  87.1978  87.3272  87.3814  87.5330
    87.6057  87.6435  87.8122  87.9181  88.0203  88.1142  88.1858  88.3155
    88.3809  88.5732  88.7571  88.8767  88.9385  89.0125  89.1741  89.3267
    89.4243  89.5645  89.6030  89.7126  89.7795  90.0190  90.0573  90.1515
    90.1907  90.2929  90.4059  90.5952  90.6779  90.7729  90.7911  90.8520
    90.9921  91.1619  91.1742  91.3221  91.3735  91.5518  91.7432  91.9503
    92.0292  92.1551  92.2053  92.3056  92.3177  92.3984  92.4841  92.6360
    92.8014  92.9059  92.9848  93.0112  93.1370  93.2747  93.3090  93.3920
    93.4233  93.5421  93.6356  93.6968  93.8492  93.8797  94.1268  94.2101
    94.2851  94.3230  94.4847  94.5068  94.6215  94.7642  94.8953  94.9247
    94.9754  95.0910  95.1315  95.3488  95.4246  95.4495  95.5431  95.6811
    95.8283  95.8682  95.9701  96.1061  96.1925  96.2324  96.3889  96.4992
    96.6978  96.7537  96.8631  96.8882  96.9259  96.9771  97.0608  97.2780
    97.3364  97.4808  97.5782  97.7589  97.7622  97.8605  97.9361  98.1132
    98.1838  98.3693  98.5212  98.7141  98.8250  99.0896  99.1982  99.2657
    99.3655  99.5222  99.6273  99.6713  99.7891  99.8822  99.9933 100.0240
   100.1372 100.2285 100.4040 100.5643 100.8236 100.9159 101.0600 101.1648
   101.3803 101.4429 101.6805 101.7887 101.9676 102.0288 102.0594 102.1810
   102.2639 102.4248 102.4262 102.5302 102.7018 102.8234 102.9866 103.0247
   103.1121 103.1680 103.2742 103.3067 103.3897 103.4662 103.5927 103.8461
   103.9092 104.0837 104.1680 104.2211 104.2560 104.3257 104.5016 104.5962
   104.7986 104.8194 104.9840 105.0477 105.0685 105.2343 105.3577 105.5158
   105.6293 105.6903 105.7544 105.9350 106.0999 106.1798 106.2225 106.2746
   106.5102 106.6131 106.6632 106.8001 106.8557 106.8909 107.0046 107.0478
   107.2230 107.2819 107.3287 107.5083 107.5806 107.7451 107.8311 107.9064
   108.0488 108.1535 108.2109 108.3504 108.4957 108.6147 108.8154 108.8769
   108.9502 109.0978 109.1622 109.2390 109.2795 109.4079 109.4958 109.5275
   109.6237 109.7415 109.9565 110.0217 110.0642 110.2013 110.4452 110.5108
   110.5755 110.6186 110.6703 110.7991 110.8494 110.9829 111.1631 111.2874
   111.3453 111.4694 111.5681 111.6374 111.7754 111.8083 111.9889 112.0516
   112.0742 112.2180 112.3379 112.4291 112.5657 112.6590 112.8276 112.9507
   113.0223 113.0926 113.2573 113.4000 113.5610 113.6764 113.7765 113.7846
   113.9587 114.0461 114.1820 114.3034 114.3362 114.4561 114.6205 114.7392
   114.8568 115.0391 115.1288 115.1677 115.3175 115.4022 115.4737 115.5146
   115.6848 115.8643 115.8849 115.9595 116.0959 116.1595 116.3504 116.3601
   116.4806 116.5530 116.6791 116.8118 116.8417 116.8667 116.9761 116.9868
   117.0839 117.2527 117.3386 117.4853 117.5038 117.6297 117.6924 117.8097
   117.9417 118.0741 118.2459 118.3568 118.4183 118.5557 118.7097 118.8268
   118.9649 119.0336 119.1176 119.1612 119.2838 119.3687 119.4835 119.6026
   119.6491 119.6731 119.8048 119.8621 120.0353 120.1563 120.2581 120.4572
   120.5875 120.7667 120.8327 120.9366 121.0382 121.1914 121.2533 121.4289
   121.6413 121.6715 121.7407 121.8204 121.9620 122.0463 122.1981 122.2694
   122.4458 122.4767 122.5633 122.6434 122.7907 122.8659 123.1022 123.3115
   123.3765 123.4066 123.5585 123.8101 123.8598 123.9465 124.0224 124.2319
   124.3082 124.4615 124.5361 124.7090 124.8651 124.9967 125.0308 125.1817
   125.3281 125.5276 125.6034 125.6878 125.8113 125.8741 126.1043 126.1376
   126.2457 126.3544 126.5191 126.6447 126.6722 126.8049 126.8773 126.9862
   127.1613 127.2739 127.4066 127.6363 127.7370 127.7757 127.8352 127.8665
   127.9065 128.1274 128.1736 128.2340 128.3007 128.4162 128.4506 128.4898
   128.5664 128.6566 128.8131 128.8607 129.0517 129.1428 129.1474 129.2473
   129.2650 129.3675 129.4081 129.5240 129.5873 129.6825 129.7683 129.7910
   129.9043 130.0355 130.1508 130.2243 130.3295 130.3558 130.4233 130.4953
   130.6082 130.8530 130.8842 130.9939 131.0669 131.1864 131.2946 131.4136
   131.5077 131.5719 131.7899 131.9918 132.0137 132.2047 132.2893 132.3463
   132.4747 132.6273 132.6749 132.8039 132.8989 132.9363 132.9644 133.1195
   133.1583 133.2554 133.2870 133.3949 133.4653 133.6913 133.7570 133.8289
   133.9762 134.0191 134.0911 134.1994 134.2998 134.3385 134.4429 134.5097
   134.5960 134.6961 134.8190 134.8859 134.9683 135.0899 135.1921 135.3099
   135.4572 135.4988 135.6441 135.7515 135.9482 136.0215 136.1681 136.2405
   136.2905 136.4543 136.5062 136.5672 136.6332 136.7830 136.7949 136.8527
   137.0711 137.2590 137.3203 137.3522 137.4657 137.6247 137.7586 137.7935
   137.8030 137.9675 138.0508 138.1767 138.2578 138.3985 138.4201 138.4970
   138.5055 138.6807 138.8141 138.8792 138.9540 139.0360 139.0547 139.2381
   139.3170 139.4353 139.5461 139.5884 139.7704 139.8475 139.9336 140.0247
   140.0937 140.1183 140.2506 140.3686 140.4071 140.4175 140.4739 140.5969
   140.6247 140.8297 140.8664 140.9134 141.0409 141.0832 141.2352 141.5011
   141.5438 141.5621 141.6983 141.7902 141.8896 141.9730 142.0480 142.1733
   142.2464 142.2535 142.2980 142.3351 142.4165 142.5390 142.5633 142.6354
   142.7265 142.7614 142.8391 142.8895 142.9881 143.0691 143.1788 143.3320
   143.4471 143.4735 143.6008 143.6286 143.7009 143.7681 143.8841 143.9963
   144.0201 144.1318 144.2265 144.2942 144.3120 144.4431 144.4774 144.6064
   144.6884 144.7548 144.8228 144.8630 145.0150 145.0974 145.1757 145.2175
   145.2664 145.2907 145.3579 145.5398 145.6242 145.6978 145.8438 145.8964
   145.9748 145.9855 146.1180 146.2048 146.2334 146.4307 146.4714 146.5115
   146.5395 146.6363 146.7408 146.7727 146.8801 147.0490 147.0536 147.1430
   147.2292 147.4815 147.5248 147.5972 147.6365 147.7007 147.7997 147.8643
   148.0063 148.0271 148.2519 148.3253 148.4391 148.5625 148.5967 148.6984
   148.7867 148.8180 148.8920 149.0177 149.1069 149.1345 149.2667 149.3176
   149.4025 149.6067 149.7217 149.8742 149.9547 150.0107 150.0653 150.1967
   150.3063 150.4970 150.5055 150.7349 150.7744 150.8802 150.9567 151.0158
   151.1354 151.1426 151.2726 151.3138 151.3716 151.4072 151.4851 151.5965
   151.7133 151.7550 151.9019 151.9344 152.0067 152.0606 152.1327 152.2183
   152.2642 152.4451 152.4522 152.5473 152.5846 152.6362 152.6856 152.7302
   152.8044 152.8573 152.9866 153.0681 153.1652 153.2399 153.3007 153.3654
   153.4803 153.5926 153.6123 153.7451 153.7897 153.8720 154.0114 154.0738
   154.1335 154.2379 154.3808 154.4874 154.5571 154.5819 154.6454 154.6986

          k = 0.3333 0.5774 0.0000 (  8085 PWs)   bands (ev):

   -24.1073 -24.1073 -24.0343 -24.0343 -24.0002 -14.3019 -14.3017 -10.0545
    -6.7238  -6.7238  -6.3240  -3.9036  -3.9035  -0.6799   2.8134   2.8135
     4.2474   5.4783   6.0938   6.0940   6.2977   7.9035   7.9037   7.9167
     7.9168   8.2963   8.6782   8.6782   8.7936   8.8581   9.1094   9.1094
     9.9370   9.9370  10.0891  10.1830  10.1830  10.3495  11.7195  11.7195
    11.9117  11.9117  12.2052  12.4779  13.9855  13.9855  14.3718  14.3718
    14.7880  14.9339  15.0603  15.8142  16.3471  16.3472  16.7191  16.7192
    17.0674  17.0675  17.2760  18.0942  18.4142  18.4142  19.1440  19.7063
    19.7063  19.7977  21.0325  21.0326  22.1133  22.3035  22.3036  22.5731
    22.5731  22.5896  22.8424  22.9798  22.9799  23.4109  23.5047  23.5047
    23.5659  23.5766  23.6701  23.6701  24.4078  24.4078  24.5314  24.6434
    24.6434  24.8469  24.8470  24.8523  25.6425  25.9542  25.9542  26.0851
    26.0851  26.2233  26.5950  27.0379  27.0379  27.3674  27.4433  27.6036
    27.6036  28.0989  28.0989  28.1596  28.1596  28.8009  29.2861  29.5264
    29.5264  30.5277  30.6584  30.6584  30.7090  31.5494  31.5495  32.3061
    32.3061  32.5779  32.8419  32.8419  33.2819  33.2819  33.2832  33.5141
    33.5756  33.5756  34.0945  34.8247  34.8247  35.1164  35.2452  35.2452
    35.8968  36.4128  36.4128  36.6617  36.8658  37.0169  37.0169  37.2722
    37.4079  37.4080  37.9996  37.9996  38.0102  38.0679  38.0680  38.0890
    38.2216  38.3350  38.3351  38.4408  38.4408  38.4622  38.5680  38.5680
    38.6228  38.6228  38.6337  38.6478  38.8875  38.8875  38.9320  39.3776
    39.3776  39.5058  39.6688  39.6688  39.8517  39.8517  39.8665  39.9377
    40.0279  40.0279  40.1237  40.6566  40.8486  40.8486  41.0754  41.0754
    41.4583  41.5958  41.5958  41.6608  41.8594  41.9993  41.9993  42.2491
    42.3566  42.3566  42.5472  42.5472  42.7823  42.8911  43.1337  43.1337
    43.7601  43.7601  43.9692  44.1047  44.2389  44.2389  44.5258  44.8656
    44.8656  45.1206  45.1206  45.4282  45.4282  45.4710  45.5477  45.7113
    45.7113  45.8952  46.5139  46.5140  46.8352  47.1971  47.2340  47.2340
    47.4920  47.8277  47.8277  47.8403  48.3163  48.3163  48.3274  48.4137
    48.4137  48.7879  48.7879  48.8388  48.8592  49.4717  49.4717  50.0038
    50.5857  50.9046  50.9047  51.2912  51.2912  51.4369  51.7570  51.8362
    51.8362  52.3275  52.3275  52.5577  52.7434  52.7434  52.8399  52.8399
    53.0284  53.2347  53.2347  53.4204  53.5344  53.8957  53.8957  54.0114
    54.0193  54.3156  54.3157  54.6342  54.6343  55.1130  56.1725  56.1772
    56.1773  56.2611  56.8041  56.8041  57.2115  57.2115  57.7183  57.8311
    57.8311  58.1309  58.1309  58.1413  58.3845  58.5380  58.7636  58.7636
    59.1517  59.1931  59.1931  59.8221  59.9942  60.0364  60.0365  60.3604
    60.3604  60.6612  60.6612  61.5107  61.6829  61.7128  61.7128  62.2400
    62.2400  62.3561  62.3561  62.5492  62.5493  62.5868  62.9345  63.3712
    63.6754  63.6754  63.9333  63.9478  63.9478  64.6297  64.6297  64.6914
    64.9484  65.3648  65.3649  66.1484  66.1484  66.1649  66.2418  66.4293
    66.4294  66.5296  67.0951  67.0951  67.1169  67.3222  67.3222  67.3569
    67.6485  67.6486  67.8388  67.8571  67.8571  68.0265  68.0265  68.0537
    68.1074  68.1074  68.1529  68.1529  68.1572  68.2040  68.2040  68.2222
    68.2780  68.4454  68.4454  68.6955  68.6955  68.7050  68.9027  68.9027
    68.9102  69.0727  69.1847  69.1896  69.1897  69.2394  69.4636  69.4636
    69.4826  69.5183  69.5183  69.6191  69.6883  69.6883  69.9361  69.9361
    70.1362  70.5529  70.8544  70.8544  70.8568  71.3082  71.3082  71.4872
    71.6272  71.7575  71.7575  71.9326  71.9326  72.0327  72.0327  72.3511
    72.5561  72.7735  72.7735  73.4927  73.8629  73.8748  73.8748  74.0842
    74.0842  74.0955  74.3507  74.3507  74.5165  74.5374  74.5374  74.6399
    74.6399  74.6811  74.6811  74.6890  75.0609  75.0980  75.0980  75.1424
    75.5406  75.5406  75.7008  75.9487  76.0053  76.4826  76.4827  76.5858
    76.5858  76.8139  76.8945  76.8945  77.0363  77.0951  77.4671  77.4671
    77.6537  77.8273  77.8273  78.0847  78.0847  78.2583  78.2583  78.3172
    78.3481  78.3482  78.6269  78.6568  78.8577  78.8577  79.2011  79.3628
    79.3628  79.6738  80.2083  80.2083  80.6854  80.6854  80.7299  80.7736
    81.0340  81.0340  81.3898  81.3898  81.7265  81.7713  81.9060  81.9060
    81.9289  81.9935  81.9936  82.2019  82.2624  82.2624  82.4199  82.4199
    82.4936  82.6317  82.6317  82.7277  82.7359  82.8441  82.8441  82.8727
    82.9842  82.9842  83.1348  83.1348  83.3443  83.3763  83.4876  83.4876
    83.6170  83.6191  83.6191  83.7923  84.1160  84.1801  84.1801  84.6248
    84.6248  84.7685  84.7959  84.7960  84.8523  84.9430  85.5073  85.6847
    85.6848  85.9969  85.9969  86.0421  86.0421  86.1197  86.3699  86.4312
    86.4480  86.4480  86.5585  86.5585  86.8770  86.8770  87.0666  87.1602
    87.1720  87.1720  87.3788  87.4753  87.4753  87.7351  87.9237  87.9237
    88.3602  88.3602  88.4221  88.7495  88.8558  88.8558  89.0648  89.3410
    89.3410  89.5743  89.5743  89.6464  89.9112  89.9112  90.1116  90.1788
    90.3155  90.3295  90.3295  90.6431  90.6431  91.1034  91.3847  91.3847
    91.6048  91.6048  91.6588  91.6589  91.6929  92.0198  92.1124  92.1124
    92.1405  92.3209  92.3209  92.3241  92.5225  92.5225  92.9842  93.0902
    93.2309  93.2309  93.4334  93.4334  93.5442  93.6804  94.1278  94.1278
    94.3694  94.7852  94.7852  95.2085  95.2681  95.2682  95.4153  95.6635
    95.6635  95.8056  96.0543  96.0543  96.3472  96.3472  96.4635  96.5885
    96.5886  96.7441  96.9226  96.9991  96.9992  97.0873  97.0873  97.1232
    97.2222  97.3116  97.3116  97.4157  97.4401  97.4402  97.5807  97.6802
    97.6999  97.6999  97.7740  97.7740  97.8280  97.8283  97.8284  97.9342
    97.9342  97.9537  98.0895  98.0895  98.1668  98.1668  98.2134  98.2862
    98.3197  98.3197  98.3261  98.4211  98.5409  98.5409  98.7056  98.8419
    98.9307  98.9307  99.0775  99.0775  99.1321  99.1929  99.2621  99.2621
    99.4458  99.4458  99.6188  99.6188  99.7235 100.1401 100.3212 100.3212
   100.5661 100.5661 100.7414 100.8747 100.8747 100.9086 101.1021 101.1442
   101.1442 101.1891 101.3394 101.3394 101.3617 101.5195 101.5195 101.6795
   101.6795 101.7408 101.9471 101.9745 101.9745 102.2613 102.2613 102.3062
   102.8473 103.0348 103.0348 103.3734 103.6953 103.6954 103.7420 103.8935
   103.8935 104.0227 104.0227 104.1380 104.1488 104.3370 104.3370 104.3841
   104.5077 104.5077 104.5906 104.6631 104.6631 105.0430 105.0430 105.1019
   105.1019 105.1357 105.2118 105.4473 105.5990 105.5991 105.6034 105.8302
   105.8302 106.3024 106.3424 106.3424 106.4506 106.6133 106.7449 106.7449
   107.0074 107.0074 107.0791 107.1013 107.1013 107.2508 107.3874 107.3874
   107.5869 107.5869 107.6675 107.7214 107.7300 107.7300 108.0002 108.2591
   108.2591 108.3217 108.3816 108.3816 108.7883 108.7883 109.1456 109.5998
   109.5998 109.6551 109.7654 110.0435 110.0598 110.0598 110.3461 110.3461
   111.0841 111.0842 111.1382 111.2008 111.5393 111.5393 111.6002 111.6002
   111.6830 111.6832 111.8415 111.8415 111.9004 111.9124 112.0911 112.0911
   112.2359 112.2359 112.5075 112.5075 112.6458 112.8083 112.8083 112.9584
   113.1840 113.3838 113.6655 113.6655 113.6809 113.6809 114.2280 114.5151
   114.5151 114.7017 114.7017 114.7872 115.1627 115.1627 115.2343 115.4397
   115.6528 115.6528 115.8253 115.8253 115.9919 116.0738 116.0738 116.0990
   116.4902 116.4902 116.8221 116.8629 116.8629 117.4553 117.5126 117.5126
   117.9332 117.9332 117.9457 118.0064 118.0974 118.0975 118.1611 118.3186
   118.3186 118.3479 118.3480 118.3647 118.9597 119.0857 119.2397 119.2397
   119.2624 119.3133 119.3133 119.7355 119.7800 119.7989 119.7989 120.0537
   120.0537 120.1929 120.3174 120.3174 120.4665 120.9586 120.9586 121.2195
   121.3198 121.3199 121.4154 121.4274 121.4274 121.8363 122.0510 122.0510
   122.0733 122.1496 122.1497 122.5653 122.5653 122.7404 122.8420 122.8421
   123.0890 123.0891 123.1762 123.8381 123.8382 123.9162 123.9377 124.1514
   124.1514 124.3407 124.5217 124.6795 124.6795 124.8642 125.1290 125.1290
   125.3962 125.3962 125.5280 125.5748 125.5749 125.8371 125.8371 126.1881
   126.1882 126.5132 126.6183 126.6184 126.6289 126.7855 126.9079 126.9699
   126.9699 127.0964 127.1070 127.1070 127.2044 127.3149 127.3150 127.4774
   127.4774 127.5134 127.5674 127.5749 127.5749 127.7006 127.7436 127.9364
   127.9408 127.9409 127.9985 127.9985 128.0596 128.0596 128.1858 128.4268
   128.4380 128.4380 128.6878 128.6878 128.7348 128.8815 128.8815 128.9808
   129.0273 129.3534 129.3534 129.4612 129.4612 129.6448 129.6669 129.6669
   129.8767 129.8767 130.1460 130.6552 130.7874 130.7874 130.8583 130.8584
   131.0109 131.0674 131.0674 131.2314 131.3397 131.3397 131.6423 131.9335
   132.0660 132.0660 132.1099 132.2686 132.2686 132.4175 132.7528 132.9547
   132.9547 133.1790 133.1790 133.2580 133.2580 133.3188 133.4171 133.6531
   133.6531 133.9567 133.9567 134.0301 134.2108 134.2488 134.2488 134.3738
   134.7518 134.8152 134.8152 134.9073 134.9074 135.1591 135.1591 135.2049
   135.2347 135.2948 135.2948 135.6503 135.6503 135.8167 136.1767 136.1767
   136.2133 136.2190 136.2536 136.2536 136.4079 136.4079 136.4305 136.6554
   136.7089 136.7298 136.7298 137.1099 137.1100 137.3263 137.3263 137.4769
   137.5430 137.6638 137.6973 137.6973 138.0577 138.0577 138.5883 138.6067
   138.6068 138.7531 138.9188 138.9188 139.1677 139.5138 139.5139 139.9313
   139.9313 139.9765 140.1518 140.5926 140.5927 140.6650 140.7954 140.8645
   140.8645 140.9464 141.0932 141.0932 141.2973 141.3176 141.3177 141.3994
   141.4371 141.4371 141.4783 141.7344 141.7344 141.8392 141.8392 141.8789
   142.0616 142.0616 142.2519 142.2896 142.2896 142.2905 142.3484 142.3485
   142.3757 142.3870 142.3871 142.4618 142.4722 142.4722 142.5566 142.5656
   142.5734 142.5734 142.7487 142.7487 142.8127 142.8127 143.1048 143.1959
   143.1959 143.2399 143.3422 143.3422 143.4019 143.5052 143.5114 143.5114
   143.6152 143.6152 143.6163 143.6532 143.7620 143.7620 143.8103 143.9850
   143.9850 144.0128 144.4659 144.4994 144.4994 144.6199 144.6904 144.6904
   144.9559 144.9559 145.1493 145.2607 145.2607 145.2963 145.2963 145.3488
   145.4364 145.4364 145.5089 145.5225 145.6622 145.6622 145.7924 145.8503
   145.8503 146.1384 146.1384 146.1933 146.2295 146.2295 146.4933 146.5739
   146.5822 146.7278 146.7278 146.8121 146.8121 146.9396 147.0750 147.1736
   147.1736 147.2659 147.3132 147.3132 147.4864 147.4864 147.5209 147.6579
   147.8078 147.8078 148.0248 148.0248 148.1599 148.1599 148.3315 148.5680
   148.5830 148.6055 148.6178 148.6178 148.6463 148.6463 149.0526 149.0526
   149.1249 149.2811 149.3134 149.3134 150.0213 150.0213 150.0732 150.0732
   150.1984 150.5272 150.5675 150.5675 150.7356 150.9177 150.9177 151.1217
   151.1483 151.2110 151.2110 151.2889 151.2889 151.4634 151.4634 151.5182
   151.6835 151.9105 151.9105 151.9590 151.9661 151.9661 152.2788 152.2788
   152.2791 152.5161 152.6204 152.6204 152.6819 153.2785 153.2785 153.3091
   153.3091 153.3553 153.5208 153.6071 153.6071 153.8442 153.8671 154.0541
   154.2826 154.2826 154.3338 154.3338 154.5013 154.5401 154.5401 154.6148
   154.9165 154.9165 155.1856 155.1856 155.4450 155.4450 155.5312 155.5938

     the Fermi energy is    -3.1427 ev
     (compare with:    -2.6157 eV, computed in scf)

     Writing all to output data dir out/SnS2.save/
 
     init_run     :      0.20s CPU      0.26s WALL (       1 calls)
     electrons    :    877.47s CPU    905.15s WALL (       1 calls)

     Called by init_run:
     wfcinit      :      0.00s CPU      0.00s WALL (       1 calls)
     potinit      :      0.04s CPU      0.05s WALL (       1 calls)
     hinit0       :      0.04s CPU      0.10s WALL (       1 calls)

     Called by electrons:
     c_bands      :    877.47s CPU    905.15s WALL (       1 calls)
     v_of_rho     :      0.02s CPU      0.02s WALL (       1 calls)

     Called by c_bands:
     init_us_2    :      0.00s CPU      0.00s WALL (       7 calls)
     init_us_2:cp :      0.00s CPU      0.00s WALL (       7 calls)
     cegterg      :    864.35s CPU    891.55s WALL (       7 calls)

     Called by *egterg:
     cdiaghg      :    800.48s CPU    826.17s WALL (      85 calls)
     h_psi        :     13.17s CPU     13.43s WALL (      92 calls)
     g_psi        :      0.15s CPU      0.15s WALL (      78 calls)

     Called by h_psi:
     h_psi:calbec :      0.36s CPU      0.37s WALL (      92 calls)
     vloc_psi     :     12.31s CPU     12.53s WALL (      92 calls)
     add_vuspsi   :      0.27s CPU      0.27s WALL (      92 calls)

     General routines
     calbec       :      0.36s CPU      0.37s WALL (      92 calls)
     fft          :      0.02s CPU      0.07s WALL (      10 calls)
     fftw         :     10.95s CPU     11.14s WALL (  125672 calls)
 
     Parallel routines
 
     PWSCF        :  14m39.00s CPU  15m 9.25s WALL

 
   This run was terminated on:  15:20:21  16Apr2024            

=------------------------------------------------------------------------------=
   JOB DONE.
=------------------------------------------------------------------------------=
