
     Program PWSCF v.7.1 starts on 18Nov2023 at 21: 3: 6 

     This program is part of the open-source Quantum ESPRESSO suite
     for quantum simulation of materials; please cite
         "P. Giannozzi et al., J. Phys.:Condens. Matter 21 395502 (2009);
         "P. Giannozzi et al., J. Phys.:Condens. Matter 29 465901 (2017);
         "P. Giannozzi et al., J. Chem. Phys. 152 154105 (2020);
          URL http://www.quantum-espresso.org", 
     in publications or presentations arising from this work. More details at
     http://www.quantum-espresso.org/quote

     Parallel version (MPI), running on     8 processors

     MPI processes distributed on     1 nodes
     123658 MiB available memory on the printing compute node when the environment starts
 
     Reading input from pw_mp-23155_nscf_k30_E91.in
Warning: card &IONS ignored
Warning: card / ignored
Warning: card &CELL ignored
Warning: card / ignored

     Current dimensions of program PWSCF are:
     Max number of different atomic species (ntypx) = 10
     Max number of k-points (npk) =  40000
     Max angular momentum in pseudopotentials (lmaxx) =  4

     Atomic positions and unit cell read from directory:
     out/mp-23155.save/
 
 
     R & G space division:  proc/nbgrp/npool/nimage =       8
     Subspace diagonalization in iterative solution of the eigenvalue problem:
     one sub-group per band group will be used
     scalapack distributed-memory algorithm (size of sub-group:  2*  2 procs)

 
     Parallelization info
     --------------------
     sticks:   dense  smooth     PW     G-vecs:    dense   smooth      PW
     Min         160     160     45                 3822     3822     585
     Max         161     161     46                 3824     3824     587
     Sum        1285    1285    367                30587    30587    4693
 
     Using Slab Decomposition
 


     bravais-lattice index     =            2
     lattice parameter (alat)  =      10.1349  a.u.
     unit-cell volume          =     260.2548 (a.u.)^3
     number of atoms/cell      =            1
     number of atomic types    =            1
     number of electrons       =         8.00
     number of Kohn-Sham states=         1200
     kinetic-energy cutoff     =      91.0000  Ry
     charge density cutoff     =     364.0000  Ry
     Exchange-correlation= PBE
                           (   1   4   3   4   0   0   0)

     celldm(1)=  10.134903  celldm(2)=   0.000000  celldm(3)=   0.000000
     celldm(4)=   0.000000  celldm(5)=   0.000000  celldm(6)=   0.000000

     crystal axes: (cart. coord. in units of alat)
               a(1) = (  -0.500000   0.000000   0.500000 )  
               a(2) = (   0.000000   0.500000   0.500000 )  
               a(3) = (  -0.500000   0.500000   0.000000 )  

     reciprocal axes: (cart. coord. in units 2 pi/alat)
               b(1) = ( -1.000000 -1.000000  1.000000 )  
               b(2) = (  1.000000  1.000000  1.000000 )  
               b(3) = ( -1.000000  1.000000 -1.000000 )  


     PseudoPot. # 1 for Ar read from file:
     /usr/scratch4/magr4985/MG/HTDF/pseudo/SG15/Ar.upf
     MD5 check sum: 620464c3264a40e7652fb6a19ca6aabb
     Pseudo is Norm-conserving, Zval =  8.0
     Generated using ONCVPSP code by D. R. Hamann
     Using radial grid of  602 points,  4 beta functions with: 
                l(1) =   0
                l(2) =   0
                l(3) =   1
                l(4) =   1

     atomic species   valence    mass     pseudopotential
        Ar             8.00    39.94800     Ar( 1.00)

     48 Sym. Ops., with inversion, found



   Cartesian axes

     site n.     atom                  positions (alat units)
         1           Ar  tau(   1) = (   0.0000000   0.0000000   0.0000000  )

     number of k points=     8  Gaussian smearing, width (Ry)=  0.0005
                       cart. coord. in units 2pi/alat
        k(    1) = (   0.0000000   0.0000000   0.0000000), wk =   0.0312500
        k(    2) = (  -0.2500000   0.2500000  -0.2500000), wk =   0.2500000
        k(    3) = (   0.5000000  -0.5000000   0.5000000), wk =   0.1250000
        k(    4) = (   0.0000000   0.5000000   0.0000000), wk =   0.1875000
        k(    5) = (   0.7500000  -0.2500000   0.7500000), wk =   0.7500000
        k(    6) = (   0.5000000   0.0000000   0.5000000), wk =   0.3750000
        k(    7) = (   0.0000000  -1.0000000   0.0000000), wk =   0.0937500
        k(    8) = (  -0.5000000  -1.0000000   0.0000000), wk =   0.1875000

     Dense  grid:    30587 G-vectors     FFT dimensions: (  45,  45,  45)

     Estimated max dynamical RAM per process >     181.21 MB

     Estimated total dynamical RAM >       1.42 GB

     The potential is recalculated from file :
     out/mp-23155.save/charge-density

     Starting wfcs are random

     Band Structure Calculation
     Davidson diagonalization with overlap

     ethr =  5.00E-06,  avg # of iterations =  7.4

     total cpu time spent up to now is     1146.7 secs

     End of band structure calculation

          k = 0.0000 0.0000 0.0000 (  3839 PWs)   bands (ev):

   -19.0564  -4.3931  -4.3931  -4.3931   4.2430  12.4254  12.4254  12.4254
    15.2910  15.2910  16.2286  18.8532  18.8532  18.8532  20.9098  28.3066
    28.3066  28.3066  31.2806  31.2806  31.2806  34.6660  34.6660  37.2441
    37.8990  37.8990  37.8990  45.8595  45.8595  47.7586  47.7586  47.7586
    49.1538  49.1538  49.1538  51.9037  51.9286  51.9286  51.9286  53.8009
    54.6669  54.6669  54.6669  54.7513  54.7513  54.7513  56.9407  56.9407
    56.9407  57.5225  57.5225  61.0361  61.0361  61.0361  61.3126  61.3341
    61.3341  61.3341  61.7823  74.8279  74.8279  77.3949  77.3949  77.3949
    80.0230  80.0230  80.0230  81.1880  84.7951  84.7951  84.7951  86.7015
    86.7015  86.7015  87.0619  87.0619  92.8802  96.0185  96.0185  96.0185
    96.3089  96.3089  96.3089  96.6890  97.7143  97.7143  97.7143  97.9764
    97.9764  98.0175  98.0175  99.1008  99.1008  99.1008 100.4925 100.4925
   100.4925 101.4810 101.4810 101.4810 102.5173 102.8764 102.8764 102.8764
   102.9766 102.9766 102.9766 103.4446 103.4446 103.4446 103.5946 103.5946
   103.8697 115.7874 115.7874 115.7874 116.6678 118.3414 118.3414 118.3414
   118.7110 118.7110 120.8334 120.8334 120.8334 121.1209 121.1209 121.1209
   121.5791 121.5791 121.5791 121.8564 121.8564 121.8564 122.1689 122.1689
   123.0693 129.4837 129.4837 130.8988 130.8988 130.8988 132.9256 136.7455
   136.7455 136.7455 137.4524 137.5839 137.5839 137.5839 137.6911 137.6911
   137.6911 137.8666 137.8666 137.8666 138.0211 138.0211 138.0211 138.0336
   138.0336 138.0336 138.6817 141.0161 141.0161 141.0705 141.0705 141.0705
   141.1730 153.6206 153.6206 153.6206 155.1656 155.1656 155.1656 155.1744
   155.1744 157.4791 159.1726 159.1726 159.1726 170.0382 170.0382 170.6423
   170.8100 170.8100 170.8100 171.6079 171.7608 171.7608 171.7608 173.7590
   173.7590 173.7590 174.4839 174.4839 174.4839 174.9895 174.9895 174.9895
   175.9276 175.9276 175.9276 176.4734 176.4734 177.4923 177.4923 177.4923
   178.1237 178.2472 178.2472 178.5441 178.5441 178.5441 179.2572 179.2572
   179.2572 181.4428 181.5035 181.5035 181.5035 181.6827 181.6827 181.7984
   181.7984 181.7984 182.0658 182.0658 182.0658 182.1315 182.5570 182.5570
   182.5570 182.7379 182.7379 184.9429 185.1712 185.1712 185.1712 185.2872
   185.2872 185.2872 185.6520 186.5286 186.5286 186.5286 186.5990 186.5990
   186.7932 186.7932 186.7932 186.8143 186.8143 186.8143 186.8368 186.8368
   186.8673 186.8673 186.8673 200.3740 200.3740 200.6572 202.1610 202.1610
   202.1610 203.9197 203.9197 203.9197 203.9461 203.9461 203.9461 203.9953
   203.9953 203.9953 204.7943 204.7943 204.7943 206.6214 206.7228 206.7228
   206.7228 206.7723 206.7723 213.5982 213.6814 213.6814 213.6814 213.8279
   216.7248 216.7248 216.7248 218.9852 218.9852 219.0087 219.0087 219.0087
   219.2761 219.2761 219.2761 219.2960 219.2960 219.2960 219.4484 219.4484
   219.8950 219.8950 219.8950 226.3380 226.6061 226.6061 227.0121 227.0121
   227.0121 227.0390 227.0390 227.0390 227.0507 227.0507 227.0507 227.0690
   227.0690 227.0690 227.3421 227.3421 227.3421 227.5515 227.5712 227.5712
   227.5712 227.5863 227.5863 243.5877 244.9737 244.9737 244.9737 246.0047
   246.6464 246.6464 246.6464 247.5075 247.5075 248.0745 248.0745 248.0745
   248.7245 248.9516 248.9516 248.9516 252.3307 252.3307 252.8941 252.8941
   252.8941 254.4020 255.4730 255.4730 255.4730 261.6797 261.6797 261.6797
   262.3432 262.3432 262.3432 262.4747 262.4747 262.4747 262.9132 262.9132
   262.9132 262.9576 263.4805 263.4805 263.4805 263.7826 263.7826 263.8731
   263.8731 263.8731 263.8863 263.8863 263.8863 266.3967 266.3967 266.4234
   266.4234 266.4234 266.4765 267.1321 267.1321 267.2670 267.3333 267.3333
   267.3333 267.3646 267.3646 267.3646 267.3719 267.3719 267.3719 270.0359
   270.0359 270.0359 270.0499 270.0499 270.1204 270.1204 270.1204 270.1608
   270.4519 270.4519 270.4519 280.6525 280.6915 280.6915 280.6915 280.7676
   283.5234 283.5234 283.5234 284.2815 284.2815 284.5198 284.5198 284.5198
   284.9380 284.9380 284.9380 284.9684 284.9684 284.9684 285.4360 285.4360
   286.3918 286.3918 286.3918 288.3640 288.3640 288.5713 288.5713 288.5713
   288.6986 288.6986 288.6986 288.7637 288.7637 288.7637 289.1617 289.1617
   289.1617 289.3097 289.3097 289.6205 290.0157 290.0157 290.0157 290.1891
   290.1891 290.1891 290.2356 298.8735 298.8735 298.8791 299.8725 299.8725
   299.8725 300.8966 300.8966 300.8966 301.0410 301.0410 301.0410 301.1928
   301.1928 301.1928 301.2315 301.2315 301.2315 302.2366 302.2436 302.2436
   302.2436 302.2468 303.0545 303.1694 303.1694 303.1694 303.2248 303.2248
   303.4617 303.4617 303.4617 305.6736 305.6736 305.7118 305.7118 305.7118
   305.7310 305.7310 305.7310 305.7673 305.7673 305.7782 305.7782 305.7782
   305.8483 305.8483 305.8483 306.2531 306.2699 306.2699 306.2718 306.2718
   306.2718 307.0982 307.0982 307.0982 307.1355 307.1355 307.1355 307.1783
   307.1783 307.1783 307.2096 307.2096 307.2096 307.4750 307.6192 307.6192
   307.6192 307.6857 307.6857 326.8281 326.8281 326.9403 327.6324 327.6324
   327.6324 338.9739 339.3830 339.3830 339.3830 339.9192 341.3058 341.3058
   341.3058 341.4588 341.4588 342.1603 342.1603 342.1603 342.3668 342.3668
   342.3668 342.8628 342.8628 342.8628 343.1916 343.1916 343.1916 343.2444
   343.2444 347.0352 347.8937 347.8937 347.8937 347.9984 347.9984 349.9476
   349.9476 349.9476 349.9842 349.9842 349.9842 350.5765 350.5765 350.5765
   350.6206 350.6206 350.6206 350.7844 350.9657 351.2796 351.2796 351.2796
   351.5779 351.5779 351.5779 352.8077 352.8077 352.8099 352.8099 352.8099
   352.8235 353.3723 353.3723 353.3723 353.4052 353.4052 353.4052 353.4201
   353.4201 353.4201 353.4567 353.4567 353.4574 353.4574 353.4664 353.4664
   353.4664 362.2102 362.2102 362.2557 362.2557 362.2557 362.4372 362.4372
   362.4372 363.0042 364.9848 364.9848 364.9848 371.3254 371.3254 371.5392
   371.5392 371.5392 371.6800 371.6800 371.6800 371.8483 371.8760 371.8760
   371.8760 372.1356 372.1356 372.1356 372.2759 372.2759 372.2759 372.4972
   372.5035 372.5035 372.5042 372.5042 372.5042 382.1386 382.2214 382.2214
   382.2214 382.4315 382.4315 382.4386 382.4386 382.4386 383.1094 383.1094
   383.1094 383.3474 384.1049 384.1049 384.1049 384.5406 384.5406 384.5406
   384.6191 384.6191 384.6191 384.6518 384.6518 384.6836 384.6836 384.6836
   384.7106 384.9955 384.9955 384.9955 385.6114 385.6114 385.6574 385.6574
   385.6574 387.3935 387.9231 387.9231 387.9231 388.2383 388.2383 388.2383
   388.4780 390.5823 390.6380 390.6380 390.6380 390.6683 390.6683 390.6683
   390.6723 390.6723 390.6723 390.7133 390.7133 394.9339 394.9339 394.9339
   394.9437 394.9437 394.9745 394.9745 394.9745 394.9930 395.0449 395.0449
   395.0449 395.4172 395.4172 395.4172 395.4247 395.4247 395.5013 395.5013
   395.5013 395.5820 395.5820 395.5820 395.6330 410.2643 410.2643 410.5303
   411.0932 411.0932 411.0932 412.1243 412.1243 412.1243 412.1852 412.1852
   412.1852 412.2581 412.2581 412.2581 412.5136 412.5136 412.5136 412.9790
   413.1000 413.1000 413.1000 413.1526 413.1526 420.0594 420.0594 420.0693
   420.2446 420.2446 420.2446 420.4179 420.8029 420.8029 420.8029 421.8032
   421.8635 421.8635 421.8635 424.1092 424.1092 424.2119 424.2119 424.2119
   424.2774 424.2774 424.2774 424.3812 424.3812 424.3812 424.7998 424.7998
   424.7998 425.0043 425.0043 428.8580 428.8580 428.8580 428.8740 428.8740
   428.8740 428.9233 428.9233 428.9233 429.0265 429.0265 429.0265 429.0494
   429.0494 429.1226 429.1226 430.0379 430.0379 430.0379 430.1294 430.1294
   430.1294 430.1798 430.1798 430.1798 430.2459 430.2459 430.2459 430.3570
   430.4870 430.4870 430.4870 430.5057 430.5395 430.5395 430.5395 433.5456
   433.6067 433.6067 433.6067 433.6365 433.6365 435.2596 435.4301 435.4301
   435.4301 435.5171 435.5171 435.5171 435.6044 435.6044 435.6624 435.6648
   435.6648 435.6648 435.6653 435.6653 435.6653 435.6755 435.6755 435.6755
   435.8497 435.8497 435.8497 435.9186 435.9186 436.6572 436.7536 436.7536
   436.7536 436.8211 436.8211 437.0114 437.0114 437.0114 437.0360 437.0550
   437.0550 437.0550 437.0807 437.0807 437.0807 437.0868 437.0868 437.0868
   437.1747 437.1747 437.1747 437.2075 437.2075 452.5312 452.5556 452.5629
   452.5629 452.5629 452.6625 452.6625 452.6625 456.9689 456.9689 456.9751
   456.9751 456.9751 456.9787 456.9787 456.9787 456.9822 456.9822 456.9862
   456.9862 456.9862 456.9875 456.9875 456.9875 464.6926 464.6926 464.7622
   464.9057 464.9057 464.9057 466.9364 466.9364 466.9364 466.9801 466.9801
   466.9801 467.0233 467.0233 467.0233 467.0263 467.0263 467.0263 469.7252
   469.7827 469.7827 469.7827 469.8109 469.8109 472.9749 472.9826 472.9826
   472.9826 472.9867 472.9867 474.2345 474.2345 474.2345 474.2405 474.2405
   474.2405 474.2418 474.2418 474.2418 474.2462 474.2462 474.2462 474.7487
   474.8159 474.8159 474.8159 474.8475 474.8475 492.0261 492.5137 492.5137
   492.5137 492.7356 492.7356 492.7356 493.4035 494.2395 494.2395 494.2739
   494.2739 494.2739 494.6281 494.6281 494.6281 494.7854 494.7854 494.7854
   494.8990 494.8990 494.8990 494.9284 494.9284 498.7274 498.7274 498.7904
   498.7904 498.7904 499.1717 499.1717 499.1717 499.6761 499.6761 499.6761
   499.9704 509.7911 509.9384 509.9384 509.9384 510.0487 510.0487 510.0487
   510.1037 511.3449 511.3449 511.4800 511.4800 511.4800 511.8035 512.6029
   512.6029 512.6029 512.8183 512.8183 512.8183 512.8300 512.8300 512.8300
   513.0213 513.0213 513.0213 513.1434 513.1434 513.1866 513.1866 513.1866
   513.1946 514.0694 514.0694 514.0694 514.1324 514.1324 514.3059 514.3059
   514.3059 514.5277 514.5277 514.5277 514.6431 514.6431 514.6696 514.6696
   514.6696 515.0597 515.0597 515.0597 515.0906 515.0906 515.0906 515.1065
   515.1065 515.1323 515.1356 515.1356 515.1356 515.8791 515.8791 515.8978
   515.8978 515.8978 515.9196 517.5295 517.6928 517.6928 517.6928 517.8749
   517.8749 517.8749 517.9768 517.9768 517.9768 518.0003 518.0003 520.9647
   520.9647 520.9647 520.9678 520.9678 521.0162 521.0162 521.0162 521.0807
   521.0807 521.0807 521.1018 534.0400 534.1866 534.1866 534.1866 534.2945
   534.2945 535.0177 535.0177 535.0177 535.1738 535.1738 535.1738 535.4346
   535.4346 535.4346 535.4511 535.4511 535.7950 535.8208 535.8775 535.8775
   535.8775 535.9093 535.9093 535.9093 535.9441 535.9441 535.9600 535.9600
   535.9600 537.3274 537.3274 537.3274 537.6822 537.6822 537.6822 537.8373
   537.8373 537.8373 538.4049 538.4049 538.4049 538.5307 538.9070 538.9070
   539.2048 539.2048 539.2048 539.3367 539.3367 539.3367 539.5271 539.5271
   539.5271 539.7632 539.7632 539.7632 539.8097 539.8097 539.8766 539.8766
   539.8766 539.9105 539.9105 539.9105 539.9535 541.1569 541.1569 541.1689
   541.1689 541.1689 541.1917 551.8675 551.8675 551.8675 551.8789 551.8789
   551.9759 551.9759 551.9759 552.0303 552.0303 552.0303 552.0309 552.1802
   552.1802 552.1802 552.2051 552.2284 552.2284 552.2284 552.4433 552.4433
   552.4433 552.4778 552.4778 554.5495 554.5579 554.5734 554.5734 554.5734
   554.5780 554.5780 554.5780 555.5372 555.5372 555.5444 555.5444 555.5444
   555.5621 555.5621 555.5621 555.5702 555.5702 555.5702 555.5826 555.5826
   555.5826 555.5849 555.5849 557.5251 557.5251 557.5251 557.5298 557.5298
   557.5465 557.6632 557.6632 557.6632 557.6727 557.6727 557.6727 557.7404

          k =-0.2500 0.2500-0.2500 (  3807 PWs)   bands (ev):

   -18.9712  -5.0223  -4.4593  -4.4593   5.6434  10.4230  12.5419  12.5419
    14.8276  14.8276  16.1351  20.4925  22.2023  22.2571  22.2571  24.5837
    24.5837  26.7178  31.1269  31.1269  33.8504  33.9900  33.9900  38.0699
    38.6352  39.0211  39.0211  41.9170  44.6337  44.6337  46.3813  46.3813
    46.4757  47.1625  47.1625  48.2347  48.5799  51.2098  51.4733  51.4733
    53.0399  53.0399  54.7058  56.6702  56.6702  57.7389  59.8144  59.8144
    61.6154  62.2584  62.2584  63.3498  63.4523  66.6819  66.6819  67.5667
    67.5667  68.0965  69.2399  69.2399  69.8557  70.9091  71.5219  71.5219
    77.0771  80.2710  80.2710  81.9199  82.8368  82.8368  84.7582  84.7582
    85.2049  85.6857  85.6857  86.7945  88.3242  88.7708  88.7871  88.7871
    89.2964  89.2964  91.6785  95.0509  95.8906  95.8906  96.8197  96.8197
    98.0133  98.0133  98.2168  98.6251  98.8185  99.9625  99.9625 100.1600
   101.7563 101.7563 102.4114 102.4114 103.3265 106.1444 106.1444 106.9850
   108.0185 108.3979 108.3979 108.9377 108.9377 111.1632 111.1632 111.2978
   111.9343 111.9853 113.7744 113.7744 115.3156 116.2171 116.2171 116.5537
   116.5537 118.0770 118.1436 119.6153 119.8910 119.8910 120.2620 120.2620
   120.4990 121.4468 121.4468 122.7661 125.0823 125.0823 125.2765 125.7254
   125.7254 125.7573 129.8507 129.8507 130.7724 131.0045 131.0045 131.7313
   132.0150 132.0150 132.0717 132.5287 132.5287 132.7631 136.1270 136.1270
   137.8517 139.4848 140.8003 140.8003 142.9055 143.7351 143.7351 146.3496
   146.3496 146.6626 149.2975 150.5885 150.5885 151.1145 151.2847 151.2884
   151.2884 151.6014 151.6014 153.8207 153.8207 154.9829 155.9252 155.9252
   155.9256 157.0151 157.4552 157.4552 157.5660 158.3186 158.3186 158.5390
   159.1683 159.1683 161.4546 161.8860 162.3143 162.3143 162.4199 162.4199
   162.5566 166.3454 166.4522 166.4522 169.6382 169.6382 169.6682 171.0242
   171.3443 171.3443 171.7795 171.7795 171.8817 173.1866 173.6302 173.6302
   176.1186 176.1186 176.2019 176.8283 176.8283 177.6820 177.9965 178.2558
   178.2558 179.2512 179.5236 179.5236 182.0487 182.0487 182.1942 182.7349
   182.7349 183.2894 183.4951 183.4951 183.9445 185.4763 185.4934 185.5510
   185.5510 186.2290 186.2290 186.7000 186.7000 186.8696 187.8517 191.6025
   191.6461 191.6461 192.3178 192.3178 192.8798 192.8798 192.9858 193.4095
   193.4095 193.4513 194.6059 194.6059 194.8381 194.9194 194.9194 195.9688
   196.1934 196.1934 196.6699 197.2612 198.7567 199.6391 199.6391 200.9950
   200.9950 201.6116 201.6116 201.9383 203.3675 203.6454 203.6454 203.9324
   204.0199 204.0199 204.6941 204.6941 205.4012 206.3786 206.5978 206.5978
   211.0989 212.4735 212.4735 212.6962 213.1908 213.2568 213.2672 213.2672
   213.3688 213.3688 213.9251 213.9251 216.0617 216.5362 216.7340 216.7340
   217.1511 217.8025 217.8025 218.0146 218.4145 218.4145 223.4786 223.4786
   223.5940 224.7014 224.7014 225.5064 225.5064 225.5428 227.0787 227.1685
   227.1685 227.4075 231.3089 231.4101 231.4101 232.4348 232.4931 232.4931
   233.6789 233.6789 233.7149 234.2187 234.2187 234.8182 236.1764 236.9737
   236.9737 238.9547 238.9631 238.9631 241.3181 242.0065 242.0065 243.0783
   243.1169 243.1169 243.1811 243.4180 243.4180 243.6450 243.9765 244.0905
   244.0905 244.9770 244.9770 245.2840 245.6375 245.7446 245.7446 247.7244
   247.7244 248.4410 248.7943 248.7943 248.8890 251.6409 251.6409 251.8394
   252.1388 252.7137 252.7137 254.6751 255.0061 255.0061 255.3254 255.3254
   257.7261 257.7261 257.7634 258.6549 258.6549 259.7467 263.3342 263.5124
   263.5124 263.7976 263.7976 264.0136 264.0136 264.0178 264.3372 265.9281
   265.9893 265.9893 266.3441 266.7306 266.7306 267.9386 267.9892 267.9892
   269.6077 270.2400 270.4279 270.4279 272.9293 272.9293 273.6284 273.6902
   273.6902 274.0586 274.1189 274.1189 274.4326 274.4326 275.0860 275.4625
   275.4625 276.3053 276.4947 276.4947 276.6487 277.3887 277.3887 277.6790
   277.9608 278.1200 278.1200 279.0669 280.5473 280.5473 281.3671 281.8690
   282.4175 282.4175 282.6405 282.7677 282.7814 282.7814 282.8366 282.8366
   283.4829 284.0952 284.0952 285.1857 286.3671 286.3671 287.4070 287.4070
   287.4951 288.0491 288.0491 288.1952 288.8030 288.9564 288.9564 289.7909
   289.8568 289.8568 290.6121 290.7467 290.7467 291.2979 291.2979 291.4856
   291.9810 292.0656 292.0656 293.9391 293.9650 293.9650 296.8342 296.8342
   296.8438 297.5104 297.5157 297.5157 297.7882 297.7882 297.8446 297.9432
   298.0684 298.0684 298.2693 298.7044 298.7044 299.1685 299.2155 299.2155
   299.6274 299.6623 299.6623 306.3371 306.8160 306.8160 307.3763 307.4580
   307.4580 307.6937 309.7453 309.7800 309.7800 310.1121 310.1121 310.4146
   310.7077 310.7077 312.1537 312.1878 312.1878 312.8348 312.9455 312.9455
   314.1642 314.5904 314.6319 314.6319 316.3137 316.6680 316.6680 318.2861
   318.2861 319.0795 319.0795 319.1126 319.1684 319.2356 319.2356 320.8579
   320.8579 322.1132 323.1496 323.1496 323.2797 323.5810 323.5810 324.3171
   324.3433 324.3433 324.3516 325.3879 326.4527 326.4527 327.1613 327.1613
   327.3459 327.3709 327.3709 327.6607 327.7567 327.9696 327.9696 332.2566
   332.2566 332.7671 333.9161 333.9161 334.1392 334.2517 334.2517 334.6696
   335.5367 335.7007 335.7007 335.9301 336.0560 336.0560 337.0354 337.0631
   337.1376 337.1376 338.3563 338.4079 338.4079 340.6113 340.6113 341.6370
   341.6370 341.8592 342.0720 342.0927 342.0927 342.8441 343.4290 343.4290
   347.8841 348.7077 348.7077 348.9075 350.6672 350.6672 351.4166 351.5871
   351.5871 351.6451 351.6516 351.6516 351.7281 352.2338 352.2338 352.2589
   353.7686 353.7686 353.8746 355.8545 356.1688 356.1688 356.5940 356.6861
   356.6861 359.8238 359.9945 359.9945 360.4891 360.6769 360.6769 360.8079
   360.8920 360.8920 361.2123 361.3155 361.3155 361.9441 362.4193 362.4193
   363.5266 363.6327 363.6327 363.7925 364.6449 364.6449 365.6727 365.6727
   365.6881 368.0944 368.0944 368.3649 369.2297 369.2297 369.2527 369.3333
   369.5545 369.5545 370.6374 370.6629 370.6629 374.3007 374.4676 374.4676
   374.9516 375.0608 375.0608 377.5570 378.7197 378.7220 378.7220 379.3210
   379.3210 379.5068 379.5378 379.5378 379.7519 379.8453 379.8453 380.8908
   380.8908 381.2028 382.3262 382.4456 382.4456 382.8508 382.9820 382.9820
   384.6457 384.6457 384.6468 384.6961 384.9246 385.0585 385.0585 386.4742
   386.5536 386.5536 386.9269 387.1167 387.1167 387.3391 387.4967 387.4967
   390.5615 390.5615 391.3515 391.3515 391.5651 391.5651 391.5777 391.7061
   391.7061 391.7624 392.6430 393.3905 393.3905 393.7669 394.0389 394.1033
   394.1033 394.9015 395.0309 395.0309 395.1871 395.1871 395.5562 395.7950
   395.7950 395.8198 395.8255 395.8255 395.9544 399.4329 399.5575 399.5575
   400.3525 400.3525 400.4151 400.6050 400.6050 400.9672 400.9873 401.2115
   401.2115 401.4932 401.5483 401.5483 402.0554 402.4005 402.4005 402.4180
   402.6033 402.6033 403.1344 403.4258 403.4258 404.1153 404.1153 404.4742
   404.5893 404.5893 404.7747 406.9475 406.9530 406.9530 407.8091 407.8091
   407.9321 411.5109 411.5836 411.5836 411.9418 411.9510 411.9510 412.0408
   413.3109 413.3109 413.4650 413.6786 413.7111 413.7111 414.1727 414.3161
   414.3161 414.7194 414.7257 414.7257 415.8614 415.9410 415.9410 416.2140
   416.2140 418.5342 419.0183 419.0183 420.8445 420.9709 420.9709 422.1516
   422.2189 422.2189 422.5336 422.5909 422.5909 423.3632 423.4227 423.4227
   423.6817 423.8609 423.8613 423.8613 423.9200 423.9200 423.9624 423.9624
   423.9820 425.4838 425.4838 425.5078 427.2321 428.5013 428.5095 428.5095
   429.5402 429.5479 429.5479 432.1270 432.1270 432.4426 434.0790 434.0790
   434.1053 434.3256 434.3256 434.4824 435.1473 435.1490 435.1490 435.6251
   435.6251 435.6359 437.6196 437.6810 437.6810 439.2390 439.3175 439.3175
   439.9438 439.9438 440.0807 440.4427 440.4427 440.4698 442.3753 442.3753
   442.4332 442.6673 442.6673 442.6727 444.1663 444.1728 444.1728 444.2667
   444.3137 444.3137 444.8429 444.9631 444.9631 445.2183 445.2625 445.2625
   445.6584 445.6584 445.6863 447.5601 447.5601 447.5638 450.5090 450.5394
   450.5394 451.3561 451.4350 451.4350 451.5169 451.7752 451.7752 452.2654
   452.2654 452.2928 452.4671 452.5918 452.6179 452.6179 453.5718 453.5718
   453.6103 454.1030 454.1030 454.1835 454.1996 454.1996 455.0374 455.0626
   455.0626 459.2249 459.2421 459.2421 459.8700 460.4955 460.4955 461.2683
   461.2683 461.2716 461.4087 462.2633 462.2633 462.8712 462.9762 463.0323
   463.0323 463.1116 463.1116 463.1164 463.8077 463.8077 465.0990 465.1422
   465.1422 467.1596 468.4189 468.4189 468.4196 468.5035 468.5035 469.9170
   471.2909 471.2909 473.4178 474.0461 474.0461 474.0497 474.0905 474.0905
   474.4762 474.4762 474.8309 474.8786 474.9101 474.9101 475.1059 475.1261
   475.1261 477.8089 477.8089 477.8126 479.1578 479.1578 479.2336 481.0235
   481.0685 481.0685 481.9651 482.1279 482.1279 484.5432 484.5470 484.5470
   485.6044 485.6044 485.6669 488.5493 488.5493 488.5699 490.5062 490.5755
   490.5755 491.0751 491.0751 491.0784 491.2637 491.2762 491.2762 491.5290
   491.5290 491.5429 492.2967 492.3750 492.3750 494.3329 494.3329 494.3451
   494.8337 495.0611 495.0611 495.1649 495.9571 495.9571 496.0397 496.8750
   496.9911 496.9911 498.2228 498.2228 498.3027 498.5092 498.6304 498.6304
   498.7087 498.7087 498.7831 499.3517 499.3517 499.4734 499.4924 499.5092
   499.5092 499.7679 499.7679 504.8315 505.0214 505.0214 505.8629 505.8629
   506.2020 506.2020 506.2198 506.3224 506.8092 506.8092 506.8151 507.2694
   507.2792 507.2792 507.9164 508.2608 508.3153 508.3153 508.5546 508.5546
   509.3750 509.3750 509.6326 510.8848 512.3666 512.3666 514.3280 514.3280
   514.3620 514.4848 514.5603 514.5603 514.7663 515.1065 515.1086 515.1086
   515.5675 515.5675 515.6979 515.8182 515.9626 515.9626 515.9868 515.9868
   516.0052 516.7883 516.8052 516.8052 517.7867 517.8104 517.8104 517.9566
   517.9566 517.9720 519.8375 519.8375 519.8387 521.3050 521.3553 521.3553
   521.5112 521.5112 521.5185 523.2032 523.2653 523.2653 523.3653 523.3653
   523.3693 524.9269 524.9269 524.9390 524.9393 524.9622 524.9622 525.2634
   525.2636 525.2636 527.3913 527.3933 527.3933 527.9539 527.9539 527.9677
   528.0391 528.0507 528.0507 531.3271 531.3557 531.3557 533.7049 533.9046
   533.9115 533.9115 534.7861 534.7861 534.8736 534.8830 534.8830 534.9969
   535.0060 535.0060 536.9412 536.9743 536.9743 537.1163 537.1163 537.1363
   537.2437 537.4287 537.4287 537.4930 537.4930 537.5227 538.1239 538.1239
   538.2261 538.3798 538.3908 538.3908 538.7139 538.7181 538.7181 541.9672
   541.9700 541.9700 542.5743 542.5840 542.5840 542.7124 542.7261 542.7261
   544.3034 544.5158 544.5363 544.5363 545.3919 545.4182 545.4182 546.5230
   546.5230 548.9000 548.9000 548.9079 548.9460 548.9550 548.9550 549.2092
   549.2130 549.2130 549.5190 549.5339 549.5339 549.9093 549.9129 549.9129
   550.0738 550.0849 550.0849 551.8819 551.9204 551.9204 551.9731 551.9731
   552.8689 553.0474 553.0474 553.5411 555.0658 555.4729 555.5019 555.5019
   556.2242 557.5294 557.5294 557.5924 557.6147 557.6147 558.8109 558.8109
   558.9203 558.9203 558.9259 559.2438 559.9770 559.9770 560.4035 560.4035
   560.4048 562.8220 562.8570 562.8570 563.2331 563.3458 563.3458 563.3504
   563.3504 563.3628 563.7794 563.7794 563.8860 563.9139 563.9139 563.9546

          k = 0.5000-0.5000 0.5000 (  3828 PWs)   bands (ev):

   -18.8835  -5.5646  -4.5235  -4.5235   7.3109   9.1455  11.9212  11.9212
    15.7205  17.5314  17.5314  18.4246  19.4529  19.4529  27.4462  28.1498
    28.3802  28.3802  28.5365  28.5365  34.6424  34.6424  34.6858  35.2191
    35.2191  35.3163  37.5302  39.7719  42.5784  42.5784  42.8319  44.6706
    44.6706  45.1756  50.9218  50.9242  50.9242  52.6383  52.6383  52.7846
    52.9655  54.6337  54.6337  58.4188  58.4585  58.4585  61.8038  61.8038
    61.9522  61.9522  62.6566  64.4734  68.8780  68.8780  69.8033  69.8068
    69.8068  71.6664  71.6664  72.2004  72.2004  72.8041  73.5994  74.2981
    75.1852  76.0945  76.9884  76.9884  77.0319  77.0319  79.5221  80.7912
    83.5162  83.5162  84.0767  84.0767  84.2732  84.2732  85.0913  85.0913
    86.8536  90.8533  93.7333  95.2276  95.2276  95.2740  95.4858  96.9681
    96.9681  97.2834  97.8704  97.8704 100.0579 101.3187 101.3187 102.5602
   102.5602 103.1635 103.1635 104.1140 104.2857 104.3653 105.1351 105.6806
   105.6806 105.6832 105.6832 106.7804 113.2038 113.2038 113.4388 114.1285
   114.2769 114.2769 114.8434 114.8434 115.6471 115.8128 115.8128 116.0798
   117.8141 117.8141 118.9928 118.9928 119.5875 119.6638 122.1476 122.1476
   122.2350 122.7180 122.7180 125.7462 128.1332 128.3718 128.3718 128.3804
   128.4086 128.4086 129.7770 130.0979 131.8199 131.8199 132.2106 132.2106
   134.9474 134.9474 134.9524 134.9524 136.3570 136.4978 138.4977 138.8105
   139.2650 139.2650 139.6354 139.6354 142.5436 142.5436 143.7659 143.9814
   143.9814 144.8634 145.3009 145.3009 145.8060 146.4556 146.4884 146.4884
   151.9143 151.9143 153.6144 153.6849 154.4076 154.4076 155.4554 155.8857
   155.8857 155.9500 157.1548 157.1548 157.3240 158.0262 158.0262 158.8956
   159.2705 159.2705 161.4602 163.2611 163.8723 163.8723 164.6559 164.6559
   166.4872 166.6844 167.0772 167.1923 167.1923 167.6003 167.6003 167.8064
   167.8929 167.8929 168.2098 168.2098 169.4292 169.5185 169.5185 169.6717
   169.6717 169.6972 172.4296 173.3047 173.3047 176.0445 176.1620 176.1620
   178.0636 178.3737 178.3737 178.4132 178.4132 178.4972 178.5541 178.5541
   178.5996 178.7692 178.7692 178.9891 185.7326 185.7326 186.1549 186.3584
   186.7317 186.7317 187.4299 188.0568 188.0568 188.3192 188.3259 188.3604
   188.7350 188.7350 191.8037 191.8037 192.2150 193.4173 194.2366 194.2366
   195.3054 195.3054 195.3234 195.4692 196.0522 196.0522 198.9175 199.7225
   199.7225 200.4026 200.4026 201.0348 201.1604 201.1776 201.1776 201.3313
   201.3313 201.8578 201.9151 201.9324 201.9324 201.9550 201.9550 204.5176
   212.8806 212.8806 213.7274 214.5181 214.5181 215.1773 215.1773 215.3545
   215.5919 215.6660 215.6660 215.9775 216.8430 216.8430 216.9908 218.1756
   218.1774 218.1774 218.4954 218.5557 219.6260 219.6260 219.6816 219.6816
   221.4137 222.5725 222.7912 222.7912 222.8366 222.8366 224.4010 225.3263
   227.2559 227.2559 227.2628 227.2628 227.8137 227.9215 227.9215 228.5377
   228.5377 228.8693 229.5261 229.5261 229.7777 229.7900 230.0318 230.1346
   230.2190 230.2190 230.2364 230.2364 230.6339 230.6339 230.6406 230.6406
   230.7151 230.7151 231.5580 231.5650 239.3223 239.4950 240.4233 240.6231
   240.6231 240.7607 240.9671 240.9671 242.1400 242.1400 242.1449 242.1449
   244.3704 244.9010 244.9010 246.1482 246.3997 246.3997 246.9310 246.9310
   247.4480 247.7623 247.7623 248.2943 248.6428 248.8836 248.8836 249.9386
   250.2931 250.2931 250.3193 250.4102 250.9805 250.9805 251.8299 251.8299
   252.0683 252.0854 252.0854 252.3499 253.1451 253.1451 261.4622 261.5224
   261.5224 261.5437 261.5437 261.7531 261.8398 261.8398 261.8603 261.8964
   262.1581 262.1581 262.8069 262.9683 262.9683 263.3637 263.3707 263.3707
   268.5339 268.5600 268.5600 269.4998 269.4998 269.7811 269.9032 271.1108
   271.1108 271.3937 271.4774 271.4774 272.3158 272.4110 272.4110 272.5849
   272.5882 272.5882 273.0554 275.8929 277.6052 277.6052 277.9753 277.9753
   279.2262 279.2262 279.5457 279.9587 281.2031 281.2031 281.5912 281.6314
   281.6691 281.6691 282.1432 282.1432 284.1372 284.2866 285.3734 285.3734
   285.3843 285.3843 286.3658 286.3658 286.4033 286.4199 287.3142 287.3142
   288.9404 288.9540 288.9540 289.4212 289.4212 289.9356 290.9918 290.9998
   291.0620 291.0620 291.1048 291.1048 295.0936 295.1035 295.1077 295.1077
   295.1895 295.1895 296.0671 296.0995 296.0995 296.1226 296.1251 296.1251
   299.3238 299.7601 299.7601 301.0412 301.0412 301.3411 301.3411 301.7087
   302.0712 302.0712 302.8277 302.8573 303.5938 304.4276 304.4276 304.7611
   304.7611 307.0911 310.0156 310.0426 310.3246 310.3246 310.8031 310.8031
   310.9384 310.9735 310.9735 311.0057 311.7460 311.7460 312.5953 312.9917
   313.6495 313.6495 313.7559 313.7559 314.0095 314.2758 319.9009 319.9009
   319.9158 319.9158 319.9977 320.3763 320.6133 320.6133 320.7077 320.8268
   321.4714 321.4714 322.4750 322.5055 322.5055 322.7924 322.7924 322.8497
   322.8497 322.8740 322.8980 322.9244 323.1714 323.1714 324.0002 324.0367
   324.0367 324.1523 324.2714 324.2714 325.4231 325.4386 325.4686 325.4686
   325.4877 325.4877 327.2013 327.2013 327.2115 327.2754 327.2754 327.3101
   331.3473 331.3473 331.3797 331.6099 331.6099 331.8616 333.5731 333.6275
   333.6945 333.6945 333.7740 333.7740 334.8236 334.8236 334.8507 334.9241
   334.9308 334.9308 335.5765 335.5833 335.6545 335.6545 335.6766 335.6766
   341.7680 341.8390 341.8390 341.8776 342.6198 342.6198 345.6811 345.6892
   345.6892 345.7020 345.7280 345.7280 346.4124 348.8351 349.4637 349.4637
   349.8488 349.8488 353.1481 353.1481 353.1502 353.1502 353.6199 353.6405
   354.1114 354.5225 354.7643 354.7643 354.9617 354.9617 355.1890 355.3454
   355.3454 355.4057 355.5877 355.5877 356.1170 356.1170 356.1283 356.1283
   356.9000 356.9040 361.9489 361.9664 361.9664 362.0856 364.0236 364.0236
   364.7095 365.0515 365.0515 365.2337 365.2337 365.2789 365.4347 365.4347
   365.6344 365.8695 365.8695 366.0460 367.3687 367.3704 367.5081 367.5081
   367.5145 367.5145 371.7472 371.7472 371.9498 372.1249 372.3615 372.3615
   373.3614 373.7850 377.3952 377.3952 377.4201 377.4201 377.4240 377.4240
   377.4975 377.4975 377.5195 377.6353 379.6623 379.8735 379.8735 380.3382
   380.3382 380.4916 381.7709 381.9588 381.9588 381.9606 382.2021 382.2021
   383.1944 383.3737 383.3737 384.0870 384.0870 384.1492 384.5363 384.9890
   384.9890 385.4074 385.4225 385.4225 386.2431 386.2431 386.2644 386.3735
   386.5356 386.5356 386.8688 386.8688 386.9692 386.9692 387.0337 387.2041
   389.2587 389.2861 389.3748 389.3748 389.3802 389.3802 390.1060 390.1139
   390.1370 390.1370 390.1455 390.1455 395.5532 395.5991 395.5991 395.8136
   395.8874 395.8874 396.3008 396.5056 396.5056 396.5579 396.5579 396.6073
   398.2433 398.2470 398.2470 398.2507 398.2507 398.2571 403.3131 403.3131
   403.3437 403.5118 403.5118 403.5462 403.6329 403.6329 403.6870 403.8002
   403.8565 403.9297 403.9297 403.9468 403.9468 404.0740 404.0740 404.4086
   407.4087 407.4281 407.4301 407.4301 407.4567 407.4567 410.3796 410.3796
   410.3870 410.3979 410.3979 410.4250 410.5341 410.5987 410.6215 410.6215
   410.6474 410.6474 413.2528 413.8401 415.4500 415.4500 415.4712 415.4712
   417.0482 417.0482 417.0686 417.1531 417.2567 417.2567 417.9345 417.9429
   417.9774 417.9774 417.9835 417.9835 418.0534 418.0534 418.0934 418.1406
   418.1406 418.1763 423.0365 423.0937 423.0937 423.1858 423.4486 423.4486
   425.8267 426.0167 427.5872 427.5872 427.7925 427.7925 428.2275 428.2396
   428.2396 428.2592 428.2703 428.2703 428.5745 429.0883 430.1183 430.1183
   430.1261 430.1261 436.7055 436.7055 436.7353 436.8532 436.9155 436.9155
   437.5021 437.5021 437.5052 437.5556 437.5840 437.5840 438.1100 438.2374
   438.2374 438.2561 438.2721 438.2721 438.3508 438.3508 438.3632 438.3632
   438.6454 438.7078 440.2623 440.2623 440.2667 440.2676 440.2676 440.2804
   444.9748 444.9748 445.0334 445.0391 445.0391 445.0971 447.9735 447.9800
   448.0802 448.0802 448.1009 448.1009 448.3393 448.3411 448.3508 448.3508
   448.4086 448.4086 450.8243 450.8281 450.8281 450.8362 450.8362 450.8431
   452.5500 452.5500 452.5566 452.5566 452.5702 452.6052 456.3583 456.3671
   456.4247 456.4247 456.4760 456.5457 456.5457 456.6207 456.7534 456.7534
   456.7708 456.7708 456.9380 456.9380 456.9408 456.9686 456.9686 456.9690
   460.1522 460.1522 460.1660 460.1660 460.2732 460.2757 465.0902 465.1228
   465.1228 465.2101 465.2101 465.2282 468.4327 468.4709 470.0225 470.0299
   470.0673 470.0673 470.0837 470.0837 470.6417 470.6417 470.6574 470.6576
   470.6597 470.6597 471.2056 471.2056 471.2076 471.2076 472.1154 472.1177
   475.1205 475.1962 475.1962 475.2044 475.2761 475.2761 476.6468 476.6468
   476.6576 476.6576 477.3755 477.4042 477.7076 477.7157 478.4381 478.4381
   478.4486 478.4486 479.4390 479.4672 479.7046 479.7046 479.7193 479.7193
   480.5111 480.5111 480.5274 480.5274 481.0132 481.0403 481.1126 481.1297
   481.3156 481.3156 481.3281 481.3281 481.7387 481.7492 481.7963 481.7963
   481.7975 481.7975 482.0916 482.0916 482.1018 482.1132 482.1132 482.1402
   491.5317 491.5409 491.5409 491.5519 491.5519 491.5683 491.8689 491.8702
   491.9501 491.9501 491.9610 491.9610 492.0696 492.0696 492.0777 492.0777
   492.0919 492.1105 493.3285 493.7073 493.7073 494.1992 494.1992 494.6694
   497.4791 498.0894 498.0894 498.8381 498.8712 498.8712 498.8837 498.8848
   498.8848 499.2772 499.2772 499.7859 501.4192 501.5151 501.5612 501.5907
   501.5907 501.5995 501.5995 501.6293 501.6293 501.6316 501.6571 501.8472
   501.8472 501.9288 504.2630 504.2630 504.2927 504.2927 504.6871 504.7132
   504.7133 504.7133 504.7218 504.7218 509.4725 509.4725 509.4763 509.4763
   510.7271 510.7277 511.7964 511.8250 511.8250 511.8968 511.8968 511.9238
   511.9438 511.9793 511.9793 512.0336 512.0395 512.0395 513.6907 513.6979
   513.9848 514.0329 514.0329 514.1530 514.1530 514.1711 514.6955 514.6955
   514.7001 514.7001 515.7227 515.7227 515.7252 515.7252 515.8805 515.8809
   520.1636 520.1947 520.1947 520.2070 520.2070 520.2323 522.0501 522.0738
   522.0738 522.0781 522.0781 522.1031 530.4020 530.4860 530.4860 530.4882
   530.4882 530.5104 530.5108 530.5447 530.5447 530.8366 530.8366 531.0300
   531.1996 531.2044 531.2190 531.2190 531.2227 531.2227 531.8064 531.8203
   531.8565 531.8565 531.8643 531.8643 531.9897 532.1219 532.1219 532.2649
   532.2649 532.3021 533.4030 533.4097 533.4237 533.4237 533.4295 533.4295
   539.2114 539.2729 539.2729 539.4207 539.4207 539.4555 539.7254 539.7271
   539.7573 539.7783 539.7783 539.8038 539.8356 539.8356 539.9151 540.0241
   540.0241 540.1594 540.1594 540.1902 540.8574 540.8574 540.8623 540.9326
   540.9326 541.0132 542.2024 542.2024 542.2155 542.2155 542.2459 542.2673
   544.4044 544.4044 544.4062 544.4062 544.7998 544.8004 544.8977 544.8977
   544.8978 544.8978 546.5234 546.5234 546.5259 546.5301 546.5396 546.5396
   546.5578 546.5799 546.5799 546.6141 546.6143 546.6143 552.7962 552.8084
   552.8174 552.8174 552.8191 552.8191 555.3407 555.3458 555.3474 555.3474
   555.3500 555.3500 561.1964 561.2140 561.2140 561.2193 561.2193 561.2746
   561.2852 561.3398 561.3398 561.3477 561.3477 561.3580 564.1871 564.1941
   564.2328 564.2328 564.2365 564.2365 564.3586 564.3586 564.3644 564.3644
   564.3788 564.3912 569.6166 569.6263 569.6263 569.6281 569.6281 569.6291

          k = 0.0000 0.5000 0.0000 (  3831 PWs)   bands (ev):

   -18.9434  -4.9931  -4.5891  -4.5891   6.0337  10.1420  11.4635  13.3434
    13.3434  16.2119  19.9387  20.5373  20.5373  20.9165  22.7614  24.0987
    24.0987  28.5500  28.8905  31.6617  33.3692  33.3692  33.5858  38.8017
    38.8726  38.8726  41.5021  41.7715  42.4944  43.6821  43.6821  45.4446
    45.4446  47.4988  49.0025  49.5882  49.8897  49.8897  52.0253  52.2497
    53.6353  53.6353  54.1729  57.0995  57.7365  57.7365  58.5215  58.6848
    59.9264  61.6108  61.6108  62.8522  63.2397  67.3220  67.3220  69.0958
    69.0958  69.9103  71.2429  71.9125  73.4818  73.8591  73.8591  75.2917
    77.1516  78.7355  78.7355  78.7977  80.5477  81.9581  81.9581  82.4336
    83.5171  83.5171  83.6128  84.3092  84.3282  86.2619  86.2619  88.6292
    91.3535  91.8787  91.8787  92.4117  95.5559  95.5559  97.2983  97.4890
    98.0642  99.3920  99.8461  99.8461 100.4822 100.6927 100.6927 101.4263
   101.9506 101.9506 102.6754 103.9520 104.0306 105.3086 105.4797 105.4797
   106.6462 107.2317 109.7363 110.3765 110.3765 111.7416 111.9915 112.6193
   112.6193 113.0599 113.2061 113.2061 113.3221 113.3221 113.3472 113.8322
   114.9053 114.9504 114.9504 115.0928 116.3530 121.2306 123.1466 123.1466
   123.4037 123.4037 123.4502 123.8360 124.9171 125.5195 128.4974 128.4974
   128.6760 129.5668 129.5668 129.8593 131.6914 132.6824 132.9517 132.9517
   133.1351 135.2421 135.2639 135.2639 135.3674 136.1053 136.1053 136.7103
   139.1732 141.7312 141.7870 141.7870 142.0450 142.6070 142.6836 142.6836
   143.4283 146.1570 146.2918 146.3519 146.3519 147.5980 150.2300 150.2300
   150.2442 153.1096 153.4718 153.8464 154.1284 154.3935 154.3935 155.0094
   155.0094 155.7884 156.2726 156.3019 157.2924 157.3854 157.3854 158.2234
   159.1321 159.1321 160.0012 162.0144 162.4532 162.4532 163.2947 164.8833
   164.8833 166.1273 166.8694 166.8694 167.4187 168.4442 168.5582 168.6698
   168.6698 168.7177 171.0871 171.3527 171.4507 171.4507 172.0258 172.0923
   173.7620 173.7620 173.9890 174.3944 174.3944 176.1538 176.7733 177.1622
   177.2114 177.2114 178.0085 178.2545 178.2545 178.7563 181.4746 181.8361
   182.1920 182.6748 182.6748 182.8247 182.8247 183.9430 185.6078 186.2015
   186.2015 186.5158 190.8888 191.0955 191.0955 191.6168 193.1539 193.2092
   193.2092 193.3604 193.7920 194.4518 194.5563 194.7827 194.7827 195.8514
   195.8514 196.7634 196.8760 197.5991 197.5991 197.8274 198.0747 198.5067
   198.5067 198.6115 198.6953 199.6806 199.6806 201.8413 202.7469 202.8246
   203.0803 203.0803 203.1823 204.0112 204.0429 204.8308 204.8308 205.4407
   205.4407 205.8525 206.1889 206.1889 206.3192 206.4140 206.5288 206.9564
   206.9564 207.1120 207.4704 208.6661 208.6661 209.3289 210.2281 210.5803
   210.5803 210.7038 214.6845 215.9612 216.0483 216.2078 216.2078 216.8434
   217.1671 217.4450 217.4450 217.6382 217.7258 217.8482 217.8482 218.4874
   223.1277 223.1277 223.6676 224.6920 226.4671 227.2047 227.2047 228.1493
   228.2649 228.2649 230.2288 231.1061 231.2655 232.3745 232.3745 233.3191
   234.0487 234.1418 234.1418 234.5632 236.2877 236.2877 238.5398 238.7760
   238.7760 239.0012 239.3160 239.3363 239.6006 239.6524 239.6524 239.7779
   239.9746 239.9746 240.1352 240.8833 241.0824 241.0824 241.1609 246.0293
   246.0547 246.0547 246.2444 246.7668 247.2261 247.5597 247.9242 247.9242
   248.5709 250.6856 250.6856 251.7869 252.6364 252.6364 252.9693 254.0702
   254.4265 254.7742 254.7742 258.0162 258.5304 258.5304 258.8752 258.8896
   258.9554 258.9554 259.5341 259.8000 260.1781 260.1781 260.5057 263.7657
   264.2999 264.2999 264.3892 264.8923 265.4642 265.8071 265.8071 266.2490
   266.3521 266.4880 266.4880 266.5489 266.6950 266.7180 266.7180 266.8226
   267.6639 267.6639 268.3467 268.4236 268.6580 268.6894 268.6894 268.9079
   268.9762 268.9762 269.0420 271.2038 271.5382 271.6327 271.6327 271.6942
   272.0056 272.0056 272.4190 272.5324 272.6252 272.6315 272.6315 275.0112
   275.8154 275.8154 276.1255 276.1831 277.5408 277.5408 278.0619 279.1974
   279.1974 279.2454 279.5509 279.8325 279.8685 279.9404 279.9404 281.1462
   281.1976 281.2024 281.2024 286.3522 286.3572 286.9521 286.9521 287.1091
   289.3221 290.3159 290.7460 290.7460 290.9224 290.9820 290.9820 290.9824
   291.0643 291.6761 291.6761 291.8151 292.1640 292.2602 292.2602 292.3138
   292.6026 294.9422 295.1991 296.1566 296.1566 297.3632 297.5508 297.8189
   297.8189 299.1164 299.1164 299.9200 300.0385 300.1317 300.1317 300.7189
   300.8987 300.9207 300.9207 300.9496 301.0556 302.0714 302.0714 304.2511
   305.3761 306.3884 306.3884 307.8227 307.8625 308.3543 308.4338 308.4338
   308.5262 308.9812 308.9812 309.2808 309.9523 311.0500 311.0500 311.4461
   311.5609 311.5964 311.5964 311.6993 311.7527 311.7527 311.7835 312.3911
   316.6595 316.6595 317.0007 317.0161 318.9009 319.1447 319.1615 319.1615
   320.2634 320.7333 320.7333 320.8192 321.1450 321.1573 321.2402 321.2571
   321.2571 321.6253 321.6253 321.7886 324.0312 324.1006 324.1006 324.1706
   325.1695 325.1920 325.6082 326.3009 326.3009 326.9460 326.9460 327.4210
   328.3995 328.8212 328.8212 328.8219 330.9720 330.9720 330.9721 331.3881
   331.5055 331.5055 331.5308 332.1563 332.5348 333.2375 333.2548 333.2762
   333.2762 333.6409 333.6409 333.9178 334.3239 334.3239 334.3270 334.4239
   335.1152 335.1407 335.1407 335.1555 337.2502 338.4815 338.4815 340.8038
   341.3069 341.3116 341.4742 341.4742 343.9041 344.9644 344.9644 345.4698
   349.6132 349.6132 349.7346 349.8776 350.3595 350.4112 350.6899 350.8107
   350.8107 350.9476 351.3736 351.3736 352.3405 352.7806 352.7806 353.0798
   356.7505 356.7980 356.7987 356.7987 358.4808 358.5551 359.3225 359.5510
   359.5510 359.9611 360.0100 360.0100 360.5520 360.5520 360.6963 361.0165
   361.5375 362.3670 362.5954 362.6585 362.6585 362.8488 362.8488 363.0767
   363.1746 363.2492 363.3092 363.3092 363.3171 363.3797 363.3797 363.5115
   364.6328 364.7399 364.9207 364.9207 365.6261 365.7383 365.7383 365.8217
   367.2812 367.3415 367.3415 367.4013 369.2753 370.3839 371.7120 371.7995
   371.7995 372.0789 372.0997 372.0997 372.8694 375.0379 375.0649 375.0649
   375.0767 376.1273 378.5136 378.5136 378.8430 378.9438 379.7989 379.8629
   379.9804 379.9804 382.1809 382.3187 382.3489 382.3489 383.3224 383.6017
   383.6017 383.8568 383.8694 383.9619 383.9619 384.2382 384.2382 384.3925
   385.8600 386.5253 386.7692 386.7692 387.0532 387.0532 387.0660 387.3024
   387.4214 387.4422 387.4836 387.4836 388.2350 390.7068 391.5016 391.5060
   391.5860 391.5860 391.8734 392.2204 392.2204 392.4929 392.5283 392.6718
   392.7108 392.7108 393.1740 393.1740 393.7728 394.9449 394.9449 394.9499
   394.9589 395.4100 395.4100 395.7082 396.3928 396.4853 396.5451 396.5451
   396.6907 397.7849 397.9225 397.9225 397.9263 401.4081 401.7655 401.7655
   401.9841 402.1321 402.5167 402.5167 402.5238 405.6770 405.7011 405.7270
   405.7270 410.4633 410.7141 410.9430 410.9430 411.2916 411.8703 411.8703
   412.1152 412.2444 412.2444 412.2464 412.2668 413.1203 413.6650 413.6650
   413.8213 414.1190 414.3966 414.3966 414.7283 414.7987 414.7987 414.8300
   415.4456 415.5145 415.5424 415.5424 415.5892 415.6121 415.8080 415.8372
   415.8372 416.0517 416.1532 416.1733 416.1733 416.4629 416.4629 416.5706
   416.6118 419.4553 419.4615 419.5144 419.5944 419.5944 419.8652 420.2574
   420.2574 420.5565 421.4663 421.4663 423.7915 423.8798 423.8798 423.8911
   423.9647 424.0198 424.0198 424.0633 424.1358 426.2126 426.2732 426.2732
   426.3389 426.6932 426.7923 426.7923 426.8507 427.0129 427.0278 427.0278
   427.0485 427.3409 428.1366 428.1573 428.1573 428.1791 428.1966 428.2268
   428.2268 428.2320 428.5316 428.5316 429.0795 429.9710 430.0414 430.0414
   430.1070 432.0608 432.0854 432.1745 432.1745 436.2823 436.2992 436.2992
   436.3113 436.4251 436.4292 436.4527 436.4527 437.9441 438.1915 438.1915
   438.3708 439.6405 439.8228 439.8664 439.8664 442.1488 442.2192 442.2192
   442.3108 449.2153 449.2158 449.2286 449.2286 450.1623 450.1623 450.1668
   450.1669 452.4319 452.4319 452.4328 452.4617 452.5322 452.6152 452.6864
   452.6864 452.8327 452.9580 452.9580 453.0089 453.4494 453.6075 453.6075
   453.8700 453.8759 455.0084 455.0084 455.9900 459.1488 459.1674 459.1674
   459.1784 459.6289 459.6724 459.6779 459.6779 460.0021 460.1489 460.1489
   460.2529 462.1462 462.5875 462.5875 462.8016 462.8052 463.2436 463.2436
   463.4058 463.6459 465.8089 465.8456 465.8456 465.8517 465.8662 465.8951
   465.9525 465.9525 467.7081 467.7081 467.7116 467.7218 467.7246 467.7288
   467.7288 467.9906 468.3347 473.1517 473.4685 473.4685 473.7745 475.2031
   475.3837 475.3837 475.5241 476.3037 476.3037 476.9669 476.9822 477.1916
   477.1916 477.6202 477.6465 477.6644 477.6644 477.7108 477.7836 477.7963
   477.7963 477.8602 478.0080 478.1020 478.1435 478.1435 478.1799 479.3479
   479.3658 479.3970 479.3970 479.5072 479.5072 479.6770 479.8252 479.8252
   479.8274 480.0100 480.0440 480.0440 480.0482 482.1799 483.9579 484.8849
   484.9034 484.9040 484.9040 487.2224 487.2263 487.2263 487.2380 487.2683
   487.2683 487.6727 487.6794 487.6936 487.6936 488.6096 488.6459 488.6459
   488.6725 489.6231 489.6349 489.6349 489.6409 490.0223 490.0307 490.0381
   490.0381 490.0889 491.0009 491.0145 491.0145 491.0271 495.9347 496.0146
   496.0146 496.1221 497.0169 497.1793 497.1793 497.2868 497.3036 497.3581
   497.4149 497.4149 498.2218 498.3593 498.3593 498.5529 499.0702 499.2501
   499.2501 499.3149 506.0398 506.3749 506.3749 506.9027 507.4885 507.5055
   507.5055 507.7033 507.9529 507.9610 507.9630 507.9630 509.4407 509.7808
   509.7808 509.9883 512.2771 512.3819 512.3819 512.5063 512.8777 514.3304
   514.4321 514.4321 514.5202 515.1202 515.1283 515.1283 515.3765 515.3765
   515.6304 516.4219 516.5761 516.5761 516.7074 517.3507 517.3926 517.3926
   517.3989 518.0373 518.9798 518.9798 518.9976 519.0097 519.9906 520.0001
   520.0001 520.0097 520.4621 520.4660 520.4660 520.4695 521.2503 522.5753
   522.5753 523.0972 523.1036 523.1162 523.1162 523.1706 525.9506 525.9519
   525.9519 525.9535 526.8477 526.8614 526.8803 526.8803 529.8729 529.8957
   529.8979 529.8979 530.0231 530.0544 530.0544 530.0969 530.2628 530.2783
   530.2783 530.2998 530.3521 530.4128 530.4128 530.4597 530.7595 530.7621
   530.7621 530.8026 532.8497 532.8631 532.8631 532.8755 533.7802 534.3174
   534.3174 535.3916 536.1217 537.3684 537.3684 538.0289 538.9414 538.9496
   538.9496 538.9678 539.1832 539.1891 539.1955 539.1955 539.3245 539.3629
   539.3629 539.4216 541.7692 541.7739 541.7852 541.7852 541.8540 541.9402
   541.9402 542.0253 544.0698 544.7091 544.7091 545.4809 546.7733 546.7835
   546.8034 546.8034 548.6053 548.6053 548.6174 548.6327 548.8721 549.6554
   549.6554 549.8936 549.9353 549.9353 549.9797 550.2803 550.3116 550.3158
   550.3158 550.3631 551.0935 551.1232 551.1655 551.1655 551.2925 551.3725
   551.4943 551.4943 551.7087 551.7814 551.7814 551.9192 552.0677 552.0677
   552.1634 552.2056 552.3174 552.3737 552.4396 552.4396 552.5113 552.6091
   552.6091 552.8405 553.2184 553.2838 553.2838 553.3170 559.8466 560.3893
   560.4002 560.4002 560.4163 560.5718 560.5718 561.4388 561.7979 562.4002
   562.4002 562.4100 562.4332 562.4505 562.4505 562.5262 562.5422 562.5519
   562.5519 562.6587 562.6951 562.7004 562.7032 562.7032 565.9108 566.0040

          k = 0.7500-0.2500 0.7500 (  3830 PWs)   bands (ev):

   -18.8561  -5.3544  -4.8415  -4.6528   7.8053   9.1229  10.4111  13.1579
    14.7844  17.7482  18.2698  19.3514  19.8178  21.8360  25.2691  25.3126
    26.9600  28.1796  29.1634  29.9319  32.9062  34.0909  34.3600  35.4316
    35.7833  36.7079  38.0939  40.1552  41.0029  43.1406  43.6567  44.5397
    45.4111  46.4749  47.9419  48.2332  51.4292  51.6644  52.4370  54.1725
    55.5694  55.8062  57.1125  57.2537  58.6913  58.7038  59.8626  60.2731
    60.9943  62.5281  64.9691  66.4212  67.2642  68.9614  69.1645  69.2895
    69.9203  70.0129  71.3283  71.6739  72.6953  72.7514  73.2485  75.4725
    75.4903  77.0911  78.1957  78.9975  79.3506  80.1487  81.2026  81.4425
    82.2860  82.8688  83.1050  84.7989  85.4224  85.4882  86.3110  87.3761
    87.8391  89.7582  90.6745  90.8062  91.5998  92.0033  93.3437  94.2691
    94.6332  95.1460  96.8073  97.9260  99.4939  99.5825 100.3112 100.6014
   100.6826 101.7519 102.6912 102.7129 102.8048 103.5757 103.7457 105.2842
   106.5881 109.2790 109.9515 110.0329 110.2142 112.3560 112.9368 113.0822
   113.3105 114.0827 115.2128 116.1938 116.2192 117.0820 117.6509 117.8277
   118.2854 119.3135 119.7024 119.7717 120.1266 122.2827 122.6345 122.7862
   124.5358 124.8116 125.3902 125.7585 128.6018 129.9082 130.2323 130.2862
   131.3338 131.5981 131.7212 132.1449 132.8738 133.1356 133.8619 134.1102
   134.4360 134.5950 135.0677 137.6514 137.7436 138.4783 138.7536 139.3429
   139.5512 140.1310 140.2319 140.4455 140.6217 141.1291 141.9954 143.1983
   143.7569 144.1454 144.8945 144.9372 147.0122 147.0258 148.2671 148.5543
   149.5243 149.6192 149.7411 150.7034 151.3357 152.4965 152.7031 153.1484
   153.3554 154.2022 154.2421 154.9544 155.2067 155.4089 155.9859 156.3990
   156.9399 158.2285 158.7227 159.0441 159.9570 160.4502 164.2811 164.7867
   164.8430 164.9856 165.5488 165.6154 165.7915 166.4310 166.6160 167.4136
   167.5499 168.0484 168.3945 169.5889 169.8877 170.0892 170.5900 170.6955
   171.5763 172.8347 172.9112 173.6137 175.6900 175.7034 176.4662 176.9696
   177.4598 177.6676 178.0418 178.9322 178.9426 179.1409 179.9012 180.0093
   180.2445 180.4623 180.6859 180.8417 182.5396 183.5830 183.6989 186.4668
   186.5106 186.5489 186.7847 186.9806 190.5316 191.1515 191.2040 191.5806
   191.6629 192.2247 192.8484 193.8409 193.8562 194.1241 194.3770 194.6139
   195.2617 196.6912 197.7030 197.7086 198.0259 198.7331 198.8809 199.5351
   199.6469 200.2138 200.6998 201.1672 202.4335 203.1618 203.6476 203.8173
   204.0816 204.1506 204.4523 204.8549 205.0533 207.2141 208.1546 208.2551
   208.7417 208.7849 209.0829 209.3049 210.5566 211.1799 211.2545 212.2111
   213.3016 214.1135 214.3265 214.9218 215.1444 216.2448 216.8030 217.0039
   217.7105 217.9585 218.1410 218.4831 218.5367 219.0280 219.2523 219.6142
   220.3568 220.5100 220.6988 221.4580 221.4989 222.5999 223.6768 224.2282
   224.4783 224.5322 224.8175 225.0643 225.5435 225.5756 225.7882 226.6728
   227.8148 228.0000 228.1277 228.7105 229.4407 229.7157 230.1477 231.3342
   232.1268 232.4889 232.5675 233.0858 234.0121 235.4734 235.6762 236.2718
   236.4845 236.6409 237.3953 237.6065 238.0220 238.2216 238.3118 239.1877
   239.3035 239.4985 240.8757 241.1910 242.1015 242.2780 242.3542 242.6414
   242.7915 243.0600 243.1676 244.0740 244.7969 246.3499 246.5354 247.9484
   248.1152 248.3447 248.3738 248.6771 249.4060 249.4915 249.6353 249.8263
   249.8585 250.2718 250.6886 250.9523 251.1037 251.5252 251.8097 251.9854
   253.6954 255.0027 255.3280 257.2476 257.2925 257.5191 258.2879 258.9876
   258.9893 259.0509 259.6721 260.0408 260.5247 260.8878 260.9965 261.6720
   261.8433 262.3561 262.4990 262.6685 263.1816 263.3876 264.7402 264.7922
   265.0035 266.2152 266.3040 266.9718 267.7485 268.5355 268.7189 268.8835
   269.1698 269.7956 270.2058 270.8272 270.9846 271.4108 271.9501 272.1474
   272.7000 272.7168 273.9934 275.0102 275.7707 275.8421 275.8818 276.8280
   276.9359 277.0728 277.1039 277.2556 277.5737 278.3067 278.3301 279.3365
   279.8365 280.2721 280.8147 280.8426 281.0028 281.5200 281.7289 284.6042
   286.4408 286.4579 286.5884 286.8108 287.6331 287.8215 288.0048 288.3662
   288.8858 288.8931 289.8822 290.0460 290.5154 290.5648 291.3771 292.2718
   292.2876 292.4421 293.4373 294.2491 294.2932 294.3594 294.6227 295.0501
   295.9322 296.7375 297.8973 297.9291 298.1119 298.4959 298.9469 298.9921
   300.6900 300.9355 301.0250 301.7439 301.8692 302.4542 302.4568 303.3022
   303.5173 303.7130 303.9401 305.0265 305.2300 306.0703 306.0849 306.1903
   306.3857 306.6330 307.3623 307.4482 307.5122 308.1131 308.3410 308.4114
   308.8393 309.2843 309.7628 309.7630 310.9762 311.7201 311.7657 311.8852
   311.9138 312.1909 312.3305 312.3802 313.1425 313.3629 317.5563 317.8905
   317.9570 318.3147 318.3189 318.4515 318.6348 319.4400 319.7429 319.8380
   320.1316 320.1473 320.6635 321.3967 321.7070 322.8557 323.6258 323.8106
   324.4553 324.7168 324.7541 325.7934 325.8822 325.9226 326.2637 326.3390
   326.7590 326.9259 326.9972 327.1244 327.1932 327.4472 328.0433 328.6572
   328.8213 329.0215 329.8373 329.9042 329.9152 331.8470 331.8840 331.9469
   332.0078 332.3200 332.7696 332.7907 333.0465 333.1270 334.1926 334.7755
   335.0332 335.5874 335.6243 337.0098 337.1025 337.2202 337.3832 340.9539
   341.0013 341.3070 341.3198 341.9810 342.0840 342.5511 342.8558 343.2068
   343.3241 343.3870 343.5236 343.6529 344.1092 344.2893 345.1951 345.2327
   345.9901 346.0453 346.4318 347.7186 348.0622 348.2846 348.7760 348.9062
   348.9402 350.2594 350.5314 350.7346 350.8525 351.3343 351.4400 351.5254
   351.7337 351.9496 352.2468 352.2571 353.2066 353.2407 353.8229 353.8725
   354.2325 354.4998 354.9905 355.0744 356.4860 357.1732 358.0860 358.1373
   358.1852 358.2266 358.5345 359.4893 360.1111 360.2229 360.2527 360.7460
   361.5203 361.6387 361.7558 362.5886 362.8701 363.1007 363.2579 364.0894
   364.2751 365.0175 365.2017 365.3922 365.7622 365.7982 365.9979 366.0750
   366.1765 366.5085 366.6495 366.7075 366.8766 367.4148 368.4736 368.7600
   368.7940 369.3692 369.4238 369.5334 369.7084 373.2510 374.6825 374.7272
   374.7789 375.1128 375.3995 375.4940 375.7444 375.7546 376.5145 376.5215
   377.5915 377.7065 377.8336 377.9441 377.9840 378.2539 378.4435 378.5352
   378.7502 379.5307 379.8630 380.9536 381.0839 381.2165 381.2617 381.3606
   381.4447 381.5906 381.6000 381.6720 384.4249 384.7250 385.1719 385.4933
   385.4990 386.3531 386.8653 386.9086 387.5460 389.0736 389.1594 389.2179
   390.1180 390.1563 390.3044 391.3116 391.4247 391.5798 391.7437 391.7731
   392.5240 392.5673 392.5711 392.6326 393.1512 393.3739 393.9535 394.0711
   395.0096 395.1761 395.2223 397.0500 397.0737 397.3099 398.0530 398.2496
   399.0078 399.8566 399.9317 400.2291 400.4836 400.9232 401.7204 401.7829
   402.5947 402.7392 403.6579 404.2500 404.2596 405.9563 406.0205 406.1269
   406.2203 406.7776 406.7863 407.2400 407.2493 407.2717 407.3452 407.3868
   408.3311 409.4951 409.8667 410.0910 410.5177 410.9391 412.6779 412.9381
   412.9613 413.0249 413.0259 413.2451 413.2937 413.5757 413.8835 413.9651
   414.0140 414.4630 414.4730 414.5486 414.9131 415.3335 416.8735 416.9854
   417.3378 417.3440 417.6149 417.8200 417.8318 417.9478 418.0486 419.2157
   420.5194 420.9429 420.9955 421.0089 421.2553 422.4591 422.5965 422.6898
   422.6985 422.9407 424.8799 426.2844 426.3238 426.6177 427.2511 427.2888
   427.3885 427.6274 427.6696 427.7950 427.7957 428.0134 428.2165 428.2495
   428.4095 428.4527 428.8085 430.1313 430.3811 430.7094 430.8049 431.1399
   431.2238 432.6076 432.6495 432.8450 432.9572 433.0287 433.9022 434.2732
   434.2937 434.7703 435.1856 435.2302 435.3641 436.6985 436.9184 437.6558
   437.7632 438.5646 438.9002 438.9676 439.5595 439.8293 440.0137 440.1079
   440.5268 440.6044 440.6801 441.4117 441.6508 444.1251 444.1791 444.2629
   444.8164 444.8339 446.0284 446.2418 446.4198 446.9126 447.1434 447.2968
   447.4758 447.9727 448.1561 448.2532 448.2970 449.7109 449.8370 449.9251
   449.9581 451.2109 451.2440 451.4182 451.4201 451.8320 451.9673 451.9783
   452.0075 452.6430 452.6449 454.3053 454.3139 454.3368 455.3808 455.4865
   455.7955 456.1050 456.5012 456.5294 456.9156 457.0390 457.5227 457.7878
   457.8153 457.8713 458.2846 459.6025 459.6041 460.2983 460.3003 460.6228
   460.7492 460.9756 461.0354 461.1152 461.4868 461.7960 462.3498 462.6848
   462.7037 462.7097 463.0041 463.6536 466.5338 466.5448 466.5913 466.8136
   466.8537 466.8711 466.8806 467.0132 467.0155 467.5595 467.6685 467.6978
   468.2072 468.2135 468.3974 469.0959 469.3858 469.4090 469.6676 469.7390
   470.2754 470.5211 470.5449 471.4914 471.8939 472.2181 472.4110 475.6213
   475.8164 475.8334 476.6657 476.6974 478.1419 478.1444 478.1696 478.6203
   478.6219 478.6558 478.6771 478.6941 478.8171 478.8704 479.0370 479.0711
   479.2467 479.3744 479.4105 479.4293 480.3181 480.3270 481.1277 481.5208
   481.5988 481.7945 481.8108 482.1327 482.2999 483.6760 484.1404 484.5058
   484.9263 484.9390 485.2296 485.3500 486.9634 487.0660 487.1470 487.1988
   487.3589 487.6411 488.6588 489.0384 489.0433 489.2362 489.8472 489.8664
   489.9108 489.9439 490.7240 491.3991 491.8927 492.1489 492.3762 492.3863
   492.3891 492.5307 492.7939 492.8484 493.6478 493.6486 494.4233 495.1766
   495.2319 496.1001 496.1110 496.2099 496.5855 496.7014 497.4915 497.5341
   497.5833 497.5839 497.9571 498.5729 498.8205 498.8433 499.2463 499.4809
   499.4932 499.8417 500.0756 500.3260 500.4067 500.4994 501.0438 501.0484
   501.5726 501.5848 502.7727 502.8706 504.1681 504.1942 506.2552 506.2994
   507.1993 507.2160 507.3938 507.3981 508.0240 508.1393 508.5823 508.6016
   508.9777 509.5298 509.5326 510.4064 510.5037 510.5899 510.8708 511.7320
   511.7349 513.4808 513.5233 513.7339 513.7528 514.5733 514.6274 514.6442
   514.9556 515.1949 515.5092 516.3075 516.8691 516.8791 516.8962 517.4107
   517.4305 517.4342 517.5730 517.5913 517.6306 518.0252 518.3147 518.6524
   519.4343 519.4448 519.4655 519.4790 520.9655 520.9905 521.1298 521.6370
   521.8159 521.8566 522.3517 522.3748 522.5431 522.8501 523.0615 524.5218
   524.5455 525.6147 525.6374 525.8947 526.5164 526.5255 527.8381 527.8572
   527.9865 528.0037 530.0815 530.3454 530.7609 530.7940 530.8515 531.0808
   531.1981 531.3663 531.4429 531.4984 531.5193 531.7924 531.8133 532.3220
   532.4628 533.0771 533.5868 533.6884 533.9370 535.0678 535.4205 535.8448
   535.9309 536.0227 536.7004 537.1680 537.2450 537.6865 537.7277 537.8842
   537.8862 538.9686 539.3145 539.3341 539.7268 539.7436 540.9159 540.9332
   541.3622 541.3797 542.2169 542.2652 542.6422 542.8119 543.2626 543.2718
   545.2249 545.4650 545.5673 546.5542 546.5716 546.9330 546.9376 547.5885
   547.7501 547.9086 547.9200 547.9422 548.4303 548.4379 548.5421 548.5429
   549.0559 550.2998 550.3098 550.9293 551.0342 551.0520 551.6242 551.7874
   553.4961 553.6007 553.6044 553.6266 553.6307 553.9994 555.3733 555.3988
   555.4135 555.4206 555.5395 555.8246 556.5740 556.9079 557.1674 557.3985
   557.4096 557.9350 558.6951 558.7113 558.9635 558.9780 559.5032 559.8485
   559.8543 560.6581 560.6602 561.5437 561.5680 561.9013 562.0030 562.0175
   562.5862 562.6167 562.9467 562.9568 563.2796 563.3070 563.4701 563.4893
   564.0264 564.6238 565.0398 565.3633 565.3804 565.4042 566.4952 566.9338

          k = 0.5000 0.0000 0.5000 (  3803 PWs)   bands (ev):

   -18.8848  -5.2482  -4.8698  -4.5259   7.3979   9.9751  10.0405  12.8462
    14.6062  17.2333  18.1160  19.4503  20.1015  22.2127  23.3807  26.9936
    27.1660  27.7435  27.9143  31.6596  32.2889  33.9057  34.0841  35.2262
    36.0047  38.2585  40.1167  41.3080  41.3327  43.4284  44.4974  44.8072
    45.2138  46.7806  46.8399  47.4168  48.1142  48.8106  53.0638  55.9260
    56.0999  56.4689  56.7495  58.0624  58.2712  59.9848  61.1009  61.1482
    61.5216  61.7635  63.7685  64.6516  65.6984  66.2291  66.8248  69.2466
    69.2942  70.1081  70.1305  70.4291  72.3587  73.5531  74.1537  74.6498
    75.0428  75.7697  78.7558  79.6516  80.1724  81.4327  81.8707  82.0370
    82.9165  83.8994  84.4239  85.6044  85.9147  86.2012  86.7868  86.8708
    87.1323  90.1893  92.2100  92.4399  92.8125  93.2768  93.4397  94.3562
    94.4586  95.3314  97.0153  97.0363  97.8104  99.8168 100.2396 101.5587
   101.6993 101.7703 102.6905 102.9460 103.2356 104.1652 107.9098 109.1905
   109.5498 109.7533 110.0148 110.5553 111.3498 111.5934 112.1385 112.1920
   113.0444 113.5013 113.8804 114.5996 114.7755 115.7412 116.0659 118.0312
   118.3184 118.4667 118.7051 119.0277 121.1244 121.8771 121.8780 122.2065
   123.1074 123.2402 124.1531 124.4232 124.7078 124.9078 125.1123 127.2530
   127.3683 130.6371 132.4852 132.6397 132.9764 132.9834 133.6888 133.8639
   134.7208 135.2149 135.3589 136.8109 137.8220 137.9287 138.3351 139.2353
   139.4255 140.6210 140.7197 140.9563 141.0404 141.1335 141.1406 142.5489
   143.0654 143.3885 146.0917 146.8353 148.9933 149.5493 149.8203 149.9280
   150.3166 151.3942 151.4078 151.9154 152.3449 152.8699 152.9292 153.5607
   154.3221 154.8956 155.2821 156.1523 156.1548 156.7045 157.0197 158.0206
   158.4851 159.3957 159.8609 160.3362 160.5635 160.8250 161.8331 161.9495
   162.3541 162.5104 164.9891 165.4845 168.1006 168.4905 168.7816 169.1872
   169.4007 169.4999 170.2900 170.3734 170.9470 171.2043 171.8705 171.9013
   173.2370 173.5401 174.5400 175.0207 175.2023 175.5726 176.3302 176.7145
   177.1425 177.3038 177.6221 177.7322 177.9813 178.6847 178.6912 179.4558
   180.7094 180.8589 182.2511 183.6206 183.6997 183.9542 185.1270 185.4134
   186.4507 186.8000 187.6817 187.9873 188.1999 188.2993 189.8744 190.2334
   190.8490 191.0752 191.3623 191.6585 191.6620 191.9628 194.5545 194.6962
   195.7994 195.8454 196.1230 196.1778 196.5617 196.5974 197.6302 197.6762
   197.8122 199.5503 199.5602 201.6144 201.8271 202.2650 202.8141 202.9812
   203.2218 203.3750 204.3716 204.4642 205.0048 205.7065 207.2445 207.7256
   208.3105 208.4261 209.5308 210.0703 210.8316 211.2464 213.0383 213.2357
   213.4121 213.7844 214.1743 214.8286 214.8568 215.1649 215.7719 216.2856
   217.2034 217.2974 217.8106 218.1020 218.5898 219.2347 219.3707 220.2382
   220.2618 220.3079 220.4558 220.7022 220.9104 221.3938 221.4558 221.9720
   222.7191 224.2034 224.2221 225.1249 225.8876 226.0179 226.4698 226.8436
   227.8409 229.7255 229.7317 229.7809 229.8080 230.3393 230.8139 230.8670
   231.2440 231.2759 231.8059 232.1744 233.1204 234.8213 235.1663 235.9291
   235.9993 237.6269 237.9312 238.1818 238.2753 238.2992 238.5025 238.5980
   238.5992 238.8609 238.9412 242.5472 243.0057 243.1582 243.1640 245.2170
   246.0180 246.6278 247.2859 247.7602 247.9238 248.2801 248.3195 248.4182
   248.4474 249.0422 249.1007 249.4897 249.6390 249.9725 249.9889 250.0264
   250.1515 250.1641 250.2045 250.8387 251.1770 251.9726 252.1037 252.2999
   252.4968 254.5465 254.5775 255.1499 255.4708 256.6950 256.8025 257.1067
   257.2570 260.1093 260.1197 260.7480 261.3907 262.7902 263.0159 263.0466
   263.0695 263.1746 263.6523 263.8827 264.2475 264.2905 264.6235 265.0611
   265.3793 265.6699 265.7195 265.8773 265.9282 267.1832 267.1920 267.5905
   268.0657 268.1862 268.2456 271.2361 271.2576 271.5727 271.6235 274.2842
   274.6325 274.8896 275.7407 275.7815 276.4391 276.7097 276.7847 277.0113
   277.4499 278.0434 278.4682 278.7072 278.7431 278.9329 279.2337 279.5110
   279.5177 279.7881 280.4775 283.3948 284.1069 284.8237 284.8463 286.4188
   286.4222 288.0195 288.0629 288.8713 289.1642 289.1738 289.4736 289.7107
   289.9432 290.7165 290.8663 291.2716 291.3790 291.8302 293.0118 293.4025
   293.5309 294.6890 294.9894 294.9990 295.0351 295.1798 295.7262 295.8933
   296.4602 296.7625 296.8277 296.8310 297.2273 297.6581 297.6693 298.5607
   299.1427 299.4188 299.4536 300.2588 300.8299 300.8707 300.8987 301.0236
   301.0288 301.3277 301.4802 302.2999 302.4278 302.4515 302.4898 303.1156
   303.7638 303.8069 304.2111 304.2350 306.0202 307.8752 307.9505 307.9650
   308.0352 309.1276 309.2456 309.3997 309.4229 310.4531 310.6117 310.6518
   310.6891 310.7746 310.8498 310.8887 311.1738 313.9360 314.9608 316.3239
   316.3894 317.9304 318.2613 318.4041 318.6073 318.6854 318.7101 318.7627
   318.8135 318.9567 320.7140 320.9743 321.5305 321.8754 321.9301 322.2926
   322.3881 322.7008 322.7676 323.6655 324.0390 324.2092 324.8554 324.9839
   325.1762 325.4068 325.6085 325.7759 326.4712 327.2711 327.4099 329.5904
   329.7345 329.7827 329.9018 330.0304 330.1931 330.2949 330.5603 330.5753
   330.5795 330.6500 331.8093 332.7081 333.0907 334.0566 334.6229 335.1519
   337.2317 337.3069 337.3131 337.3937 337.8872 337.9120 340.0098 340.1842
   341.0222 341.4270 342.0069 342.2790 342.3261 342.6248 342.7003 343.1407
   343.1563 343.2943 343.5077 343.6963 343.7650 343.8033 345.7317 345.9036
   346.0744 346.1140 347.2382 347.4534 348.1941 348.2517 348.3498 348.3925
   348.9196 349.0902 349.1835 349.2707 350.0901 350.1016 352.0457 352.2290
   352.2497 352.7613 352.8927 352.8939 354.6428 354.7005 354.7187 354.7966
   354.8419 354.8822 356.1400 356.5125 357.7249 357.7537 357.9042 357.9415
   359.4886 359.6444 359.7255 359.7500 359.7533 359.8816 359.8902 360.9166
   360.9267 360.9744 361.0374 361.5934 361.7846 361.8723 363.8265 363.8812
   364.2475 364.4002 364.5389 364.7458 366.9704 367.1916 367.8166 367.8186
   367.9365 367.9890 369.5248 369.5823 370.6966 370.7096 370.8227 371.3756
   372.1780 372.1881 372.9217 372.9928 374.9154 374.9413 374.9617 375.0407
   375.0462 375.1358 376.0855 376.1425 376.1476 376.1763 376.2538 376.2616
   376.2857 376.3080 377.2636 377.3133 377.8454 377.8752 378.3463 378.3768
   379.0491 379.0978 380.8196 380.8293 382.0643 382.0959 384.1723 384.2561
   385.2419 385.4047 386.7984 386.8058 387.0919 387.1251 387.4425 387.4636
   389.1613 389.1772 389.4662 389.6062 390.4143 390.4336 392.1049 392.1202
   392.1935 392.3236 392.6588 392.9000 392.9005 392.9037 394.0259 394.2212
   394.2660 394.2808 394.3390 394.6331 394.7892 394.8153 394.9413 395.1622
   395.2679 395.3281 395.3601 395.4062 395.5551 395.6101 396.6405 396.9172
   397.7630 397.9464 398.1861 398.6037 400.1870 400.1926 402.0959 402.2159
   402.4791 402.7515 404.0967 404.1069 405.1905 405.2876 405.2901 405.4153
   405.4516 405.5115 406.2954 406.3355 406.5383 406.5453 406.5629 406.7719
   407.0492 407.2910 407.4668 407.4818 407.7979 407.8014 408.3017 408.3338
   410.6152 410.6217 410.6825 410.7588 412.0625 412.0687 412.0832 412.1388
   413.5051 413.5250 414.1247 414.2381 414.5907 414.6001 415.2845 415.2858
   415.3366 415.3969 416.8678 417.2976 418.3611 418.4253 418.8427 418.8514
   420.2085 420.2573 420.3014 420.3406 420.3591 420.4066 420.4122 420.4249
   422.3901 422.4036 422.4121 422.4353 422.9596 422.9957 423.0423 423.0535
   425.6498 426.3328 426.8800 426.9347 427.4951 427.7723 427.7781 427.9328
   427.9966 428.4992 430.0232 430.0678 430.7735 430.7767 430.8057 430.8073
   432.0259 432.0388 432.4576 432.4701 432.5088 432.5159 433.9270 434.9017
   434.9331 434.9886 435.0685 435.1441 436.2203 436.2730 436.3848 436.4311
   438.3047 438.3663 438.8814 438.9626 439.0119 439.0441 439.3161 439.3339
   439.6474 439.8640 440.8751 440.9804 441.2145 441.2951 442.2724 442.4105
   443.4187 443.4253 444.0305 445.2933 445.3062 446.9774 447.3095 447.3181
   447.3502 447.3515 447.8419 448.6290 448.7890 449.3466 449.3507 449.4914
   449.4968 449.7630 450.2588 450.7158 450.7423 450.7954 451.0701 451.0797
   451.0819 451.1094 452.7381 452.8934 452.9329 453.0539 453.0672 453.0929
   454.4830 454.5010 455.5975 455.5991 455.9777 456.4811 456.5048 456.9960
   457.0040 458.3987 458.4150 458.4471 458.4653 458.4654 458.4884 458.9269
   458.9388 460.2535 460.8074 462.0111 462.1159 462.3625 462.3967 462.5020
   462.6031 463.8596 463.8637 463.9477 463.9517 464.6395 464.7501 465.0207
   465.0213 465.1398 465.6232 466.7445 466.7824 468.2203 468.2406 468.2434
   469.0689 469.0708 469.0810 469.0834 469.3235 469.4022 469.4092 469.8748
   469.8765 473.9694 473.9754 475.0310 475.1124 475.1194 475.1267 475.7252
   475.8097 476.1350 476.1543 476.8040 476.9004 477.6118 477.6876 479.0371
   479.0418 479.0717 479.0723 480.1943 480.8285 480.9455 481.2600 482.2046
   482.3484 482.4084 482.4152 482.5540 482.6371 482.9051 482.9259 482.9741
   482.9937 483.2856 483.2937 484.0346 484.0359 484.8283 484.8601 485.0669
   485.0703 485.3922 485.3988 486.9890 487.0060 487.0829 487.2010 487.8993
   487.9359 487.9452 487.9629 488.7352 488.7397 488.9860 488.9918 490.3817
   490.3918 490.5367 490.5508 490.5611 490.7056 490.8796 490.8885 491.3487
   491.3509 493.9309 493.9350 494.1574 494.2200 496.5180 496.5180 497.0136
   497.1007 497.1010 497.1163 497.2019 497.2785 497.7053 497.7078 498.6108
   498.6108 499.4386 499.4516 499.9707 500.0154 500.0756 500.1521 500.3161
   500.3646 501.3089 501.3311 501.3466 501.4631 501.7563 501.8293 503.6249
   503.6327 503.7107 503.7117 504.6462 504.6555 504.7878 504.7917 506.8659
   506.8676 507.0033 507.0052 507.4015 507.4175 508.3486 508.3641 508.7781
   508.7833 508.7881 508.7952 511.8072 511.8077 513.7176 513.7225 513.7313
   513.7325 514.0950 514.1122 514.7810 514.8132 514.9268 515.0535 515.2530
   515.4444 515.5068 515.6392 516.4103 516.4621 517.2346 517.2574 517.2905
   517.3020 517.4612 517.4650 518.3219 518.3417 518.5713 518.5927 519.5905
   519.5913 519.5926 519.5990 520.5582 520.5620 520.7450 521.0993 521.1674
   521.1676 521.2169 521.2295 522.2154 522.8690 524.5602 524.5611 525.2288
   525.2297 525.8483 525.8754 526.3586 526.3822 527.3947 527.4096 527.5353
   527.5435 528.0754 528.0981 530.0489 530.0610 530.0847 530.0876 530.0894
   530.4698 531.0888 531.1057 531.6514 531.9652 532.0882 532.0884 533.0749
   533.1700 533.2337 533.2418 534.0982 534.1006 534.5046 534.5295 534.5629
   534.5987 535.2355 535.2369 536.2928 536.3108 536.9041 536.9050 536.9121
   536.9129 537.4867 537.4879 537.5208 537.5218 538.5491 538.5521 539.3133
   539.3399 540.1184 540.1312 542.0043 542.0070 542.7573 542.7583 543.2004
   543.2016 546.1948 546.2086 546.5098 546.5270 546.9933 546.9941 547.1546
   547.1601 549.8884 549.9138 550.0956 550.0974 550.2030 550.2290 550.2418
   550.2439 550.3975 550.3990 551.5022 551.5047 552.0723 552.0727 552.2147
   552.2191 552.2288 552.2292 552.6632 552.7303 552.7410 552.7421 555.9406
   555.9530 556.1079 556.1194 558.1646 558.1648 558.4270 558.4417 558.5353
   558.5578 559.3892 559.6032 559.7728 559.7729 560.4729 560.4878 560.7769
   560.7923 560.8259 560.8298 562.4076 562.4260 562.4266 562.4361 563.0146
   563.0173 563.0858 563.0935 563.2059 563.2267 563.2899 563.3109 563.6186
   563.6267 563.6363 563.6366 565.0145 565.0388 565.1971 565.2134 566.9759

          k = 0.0000-1.0000 0.0000 (  3812 PWs)   bands (ev):

   -18.8283  -5.4564  -4.7769  -4.7769   7.2495   8.9744  10.6671  15.2793
    15.2793  17.5963  18.3297  18.3297  18.4078  23.6409  24.8619  27.3833
    27.4743  28.7243  28.7243  29.3624  29.3624  30.4161  34.6445  34.6445
    34.9914  37.3496  41.3568  41.8546  43.2193  43.2193  44.1925  44.2600
    44.8718  46.7990  46.7990  49.4235  50.7786  51.6297  51.6297  52.0333
    53.6757  53.6757  54.9001  57.5489  57.5489  59.6067  60.6905  60.8493
    66.2215  67.7521  68.1351  68.1351  68.3942  68.6171  68.8094  68.8094
    69.5130  69.5333  70.4038  70.4038  71.0414  71.0414  71.8739  71.9319
    77.7554  79.9314  80.7295  80.9171  81.0569  81.0569  82.5211  82.5211
    83.2124  83.2124  83.9811  85.7238  85.7740  85.8417  85.8417  87.0293
    87.0794  87.1328  87.1328  87.8844  87.9593  90.7404  91.7979  91.7979
    91.8652  91.8652  94.3659  94.3692 100.2740 100.8585 101.8981 101.8981
   102.2223 102.2223 102.9798 102.9798 103.4241 103.5203 103.6968 104.3061
   107.7253 108.1838 108.1838 108.4993 112.4773 112.4773 112.5389 112.5389
   112.5920 112.8890 112.9943 113.1856 116.1705 116.1705 117.2763 118.3902
   119.0407 119.0407 120.0667 121.1592 124.2664 125.0349 126.7669 126.7669
   126.9369 128.8035 130.3210 130.3210 130.3334 130.6694 131.1936 131.1936
   131.2424 132.3220 132.4283 132.5419 133.3301 133.3301 133.5491 133.6293
   133.6293 133.7397 134.1286 134.1286 134.3651 134.5842 142.6006 142.6986
   142.6986 142.8791 143.5704 144.0282 144.5877 144.8375 145.3239 145.3239
   146.3193 146.3193 146.5709 146.6227 146.6227 146.6580 147.4209 147.4209
   147.4224 147.4302 147.4302 147.5549 149.4884 149.4890 151.6712 151.9734
   152.1444 152.1444 152.2806 152.5147 152.5147 152.7527 154.2214 155.3688
   155.3688 155.6314 155.7897 155.9029 155.9029 156.0178 157.5082 157.5739
   158.8329 158.8329 165.2361 165.2361 165.3291 165.9549 166.1507 166.1507
   166.2353 167.4885 169.5539 169.5539 169.6063 169.6072 171.8151 172.7673
   172.7673 172.8566 174.5501 174.6669 174.6669 174.7284 174.7917 174.8258
   174.8993 174.8993 175.5917 175.9505 176.0944 176.0944 182.3169 182.8693
   184.6956 184.7685 184.7685 186.5871 188.8356 188.8356 189.7915 190.0281
   190.7786 190.8491 190.8684 191.8028 191.8028 191.9759 191.9759 192.7184
   193.7078 193.8414 194.0437 194.0437 194.3697 194.4003 194.4003 194.7511
   194.8160 194.8160 194.8182 194.8182 198.4546 198.4584 199.3521 199.8432
   199.8432 200.0265 200.0436 202.1801 202.1801 204.8133 206.8844 206.9768
   207.3570 207.3570 207.5840 207.7966 208.4017 208.4017 209.4774 209.6351
   210.0904 210.0904 210.4646 210.6263 210.8535 210.8535 212.2083 212.2233
   212.2233 212.2893 212.7687 212.8233 212.8233 212.8511 214.8471 214.8750
   215.0204 215.0204 215.0442 215.0898 215.0898 215.0999 216.3526 216.3815
   216.5782 216.5782 216.6682 216.6682 216.7671 216.7989 223.8194 225.5127
   225.5127 226.1262 226.1262 227.1484 227.1883 228.1086 229.8395 229.9460
   230.1913 230.4066 230.4823 230.4823 230.6528 230.9213 230.9213 231.0701
   231.0701 231.1296 231.2945 231.2945 231.6330 231.6418 233.9494 234.3532
   235.5283 235.5283 235.5489 235.5489 236.6864 236.6901 239.0507 239.0704
   239.6515 239.6515 239.6518 239.6518 239.9597 239.9605 242.7495 243.4467
   246.4300 247.3435 247.3435 247.4640 247.4640 247.6956 248.2130 249.1432
   249.2380 249.2611 249.5865 249.5865 249.9181 250.6381 250.6381 250.8860
   250.9221 251.4253 251.4253 251.4804 252.0232 252.6177 252.6177 252.8561
   257.2192 257.2192 257.2636 257.3313 257.4709 257.5525 257.7028 257.7028
   258.9727 259.2552 259.2552 259.3344 259.3453 259.3840 259.3840 259.3841
   259.4282 259.4282 259.4610 259.4666 267.3390 267.5519 267.5639 268.3572
   268.3572 269.4249 269.4358 269.5781 269.7572 269.7572 270.6173 270.6173
   270.6911 270.8399 270.8399 271.2460 271.4023 271.4023 274.3585 274.4736
   274.4953 274.5981 274.6893 274.6893 274.8472 275.3005 275.4139 275.4139
   275.6045 275.6935 275.7451 275.9191 275.9191 276.1063 276.3418 276.4011
   276.4011 277.0636 277.0636 277.6736 279.8655 279.8876 279.9614 279.9614
   280.3808 280.3999 280.3999 280.4433 280.4710 280.5816 280.5816 280.5827
   280.6356 280.7308 280.7308 280.8109 292.6589 292.9236 292.9236 293.2621
   293.2646 293.3713 293.3899 293.6922 293.6922 293.8393 293.8393 293.8447
   293.8447 294.4837 294.4850 294.6815 297.4110 297.5838 297.6313 297.6370
   297.6370 297.7666 298.5610 298.5610 301.9806 302.1326 302.4711 302.4711
   303.0716 305.1673 305.1673 307.2120 309.2502 309.4764 309.6114 309.6114
   310.0821 310.1309 311.3326 311.3326 312.7972 312.8402 313.0684 313.0684
   313.0767 313.1831 313.1831 313.2562 318.4669 318.7662 318.7662 318.8884
   318.8884 319.0032 319.0934 319.2893 320.1770 320.3890 320.6537 320.6861
   320.7728 320.7728 320.8889 320.9016 320.9016 320.9449 320.9821 320.9821
   321.0606 321.1124 321.1124 321.1660 321.2430 321.2430 321.2866 321.2920
   321.3357 321.3900 321.3900 321.4494 328.5390 328.7040 328.7740 329.7693
   329.8449 329.8449 331.4676 331.4676 331.6361 332.3104 332.6499 332.9104
   332.9104 333.2501 333.4139 333.4325 333.7545 333.7545 334.0171 334.0171
   334.2206 334.2227 334.5032 334.5032 334.5815 334.5815 335.3636 335.3688
   336.4205 336.4953 337.3388 337.4065 337.4065 337.4687 339.7812 340.0483
   340.0483 340.0625 340.1543 340.1543 340.4167 340.5318 340.5783 340.5845
   340.8998 340.8998 340.9071 341.1261 341.1349 341.1349 341.4595 341.4595
   341.4776 341.4776 343.9569 343.9803 344.0123 344.0123 344.0379 344.0379
   344.0527 344.0881 344.7158 344.7169 351.0391 351.0391 351.0655 351.0699
   351.1188 351.1807 351.1807 352.2981 352.4031 352.6021 352.6991 352.7573
   352.7573 352.8581 353.5564 353.5564 355.8864 355.8891 356.2118 356.2118
   356.2332 356.2332 356.4653 356.4687 358.6872 358.6872 358.6922 358.7376
   358.9880 358.9926 358.9926 358.9970 361.9084 362.0342 362.0342 362.0735
   362.0748 362.1657 362.1657 362.1860 362.9126 362.9697 363.6584 363.6593
   363.6916 363.6944 363.7009 363.7009 363.7168 363.7168 364.2939 364.2939
   374.9987 374.9987 375.0642 375.1377 375.1429 375.2401 375.8689 375.8689
   376.3312 377.3135 377.3213 377.6731 377.6731 378.2370 378.5869 378.5869
   378.6500 378.6500 379.4554 379.6558 379.6558 379.6911 380.2196 380.3831
   380.3875 380.3875 380.5179 380.5262 380.9233 380.9233 381.0033 381.0033
   381.0637 381.1443 381.1486 381.2307 382.4653 382.4711 382.4711 382.4845
   384.2823 384.2860 385.0491 385.0602 385.0979 385.0979 385.4256 385.4256
   385.4275 385.4275 385.9602 385.9603 395.7227 395.7227 395.7293 395.7474
   395.7857 396.0657 396.1964 396.1964 397.2406 397.3601 397.7333 397.7333
   397.9048 397.9167 397.9167 397.9576 397.9922 398.0353 398.0691 398.0691
   398.3928 398.3969 398.3969 398.4148 399.6115 399.6467 399.6467 399.6550
   399.6632 399.6644 399.6644 399.6811 400.5088 400.7101 400.7101 400.7236
   401.1378 401.1841 401.1841 401.2168 403.2233 403.2457 403.2457 403.2652
   404.1527 404.1527 404.1668 404.1726 413.8720 414.5494 414.7887 414.8021
   414.8021 414.9160 415.0972 415.0972 415.4728 415.4728 415.4787 415.4796
   415.8836 416.1340 416.1340 416.1656 416.3362 416.3821 419.3357 419.3828
   419.3828 419.3926 419.5910 419.6038 419.6038 419.6050 419.6198 419.6829
   419.7480 419.7480 421.8432 421.8432 421.8491 421.8655 421.9343 421.9407
   421.9511 421.9511 425.1737 425.1737 425.2045 425.2181 425.2181 425.3709
   425.7066 425.7077 426.6400 426.6587 426.6587 426.6772 427.2550 427.2939
   427.8531 427.8531 428.3317 428.3317 428.4001 429.0171 435.7640 435.9003
   439.0518 439.0518 439.0536 439.0536 440.8559 440.9166 441.1027 441.1027
   441.1386 441.2274 441.2274 441.2453 441.7637 441.8028 443.4210 443.4584
   443.7564 443.7564 443.8620 443.8620 444.1121 444.2032 444.7074 444.8126
   444.8178 444.8178 444.8999 444.8999 445.0353 445.1215 445.9746 446.0147
   446.4706 446.4706 446.4891 446.4891 446.7808 446.8225 447.4854 447.4921
   447.4944 447.4944 447.8277 447.8374 447.8374 447.8484 455.9001 455.9165
   456.2047 456.2047 456.2484 456.2484 456.3118 456.3189 456.5586 456.7518
   456.7518 456.7717 456.8084 456.8084 456.9022 457.0851 457.2262 457.3064
   457.3064 457.6591 457.7620 457.7620 457.7676 457.9841 459.0577 459.0777
   459.4400 459.4400 459.5142 459.5142 459.7146 459.8175 460.7266 460.7703
   460.7947 460.7947 460.8164 460.8443 460.8443 460.8883 460.8995 460.9030
   461.1635 461.1635 461.1686 461.1686 461.6185 461.6224 464.9008 464.9401
   464.9401 464.9669 465.2102 465.2681 465.2681 465.3126 465.6996 465.7211
   465.8583 465.8583 465.9012 465.9012 465.9438 466.0144 466.5292 466.5758
   466.5758 466.6292 466.7813 466.8067 466.8419 466.8419 468.4156 468.4263
   468.4263 468.4548 468.4602 468.4602 468.4616 468.4784 469.5180 469.5183
   469.5676 469.5676 469.5679 469.5679 469.6137 469.6156 478.8707 478.8707
   478.8823 478.8927 478.9172 478.9194 478.9593 478.9593 479.3157 479.3266
   479.3407 479.3407 479.3580 479.3580 479.3580 479.3786 486.3060 486.3849
   486.3849 486.4164 486.6394 486.7226 486.7226 486.7787 487.0907 487.1133
   487.1133 487.1313 487.3071 487.3089 487.3089 487.3190 488.0508 488.1129
   488.1129 488.1172 488.1336 488.1336 488.1508 488.1827 488.4291 488.4441
   488.4698 488.4698 488.4730 488.4730 488.4966 488.4972 497.6497 497.6669
   497.7650 497.7650 498.5266 498.6048 499.6510 499.6510 499.6979 499.6979
   501.2674 501.4317 501.4413 501.4419 501.8051 501.8059 501.8059 502.0499
   502.0499 502.0758 503.5769 503.6730 504.0269 504.0355 504.0436 504.0436
   504.2586 504.2586 504.2664 504.2758 504.5289 504.5289 504.5740 504.5740
   505.0624 505.0726 508.1939 508.1941 508.2985 508.2985 508.2990 508.2990
   508.3888 508.3891 510.5756 510.5850 510.5952 510.5952 510.6002 510.6002
   510.6135 510.6166 517.0037 517.0124 517.0140 517.0140 517.4791 517.4860
   518.1754 518.2468 518.2468 518.2798 520.1907 520.2217 520.2217 520.3010
   521.0581 521.0591 521.0965 521.0965 522.2693 522.2693 522.2739 522.2739
   522.4401 522.4401 522.4409 522.4448 522.4698 522.4742 522.4742 522.4957
   522.9313 522.9320 523.8338 523.8362 524.8870 524.8882 524.9399 524.9408
   524.9408 524.9410 524.9449 524.9492 524.9492 524.9588 525.2175 525.2175
   525.2175 525.2175 525.3836 525.3836 525.8221 525.8251 525.8251 525.8285
   526.5569 526.5569 526.5697 526.5818 529.7875 529.7875 529.7876 529.7876
   530.7915 530.7944 530.8086 530.8086 531.3626 531.3633 531.3704 531.3704
   533.1009 533.1011 539.0967 539.1077 539.1077 539.1386 539.1877 539.2167
   539.2167 539.2402 540.2324 540.3127 540.3127 540.3761 540.6525 540.7080
   540.7080 540.7758 541.4992 541.5792 541.5792 541.7497 541.7682 541.9245
   541.9245 542.0031 546.7474 546.7683 546.7683 546.7878 547.1057 547.1235
   547.1235 547.1407 548.8939 548.8952 548.8952 548.9541 549.0108 549.0677
   549.0677 549.0723 550.9807 550.9869 550.9869 551.0025 551.0380 551.0436
   551.0436 551.0505 551.1659 551.1947 551.1947 551.2137 551.2744 551.2788
   551.2788 551.2829 560.5266 560.5426 560.5677 560.5677 560.8366 560.8470
   560.8736 560.8736 563.5474 563.5555 564.1010 564.1287 564.1300 564.1300
   564.1429 564.1429 564.1897 564.2261 564.3540 564.3540 564.3608 564.3827
   564.4134 564.4264 564.4264 564.4915 565.7893 565.7893 565.7923 565.7923
   568.3231 568.3390 568.4333 568.4333 568.4522 568.4852 568.4852 568.5336

          k =-0.5000-1.0000 0.0000 (  3828 PWs)   bands (ev):

   -18.8274  -5.1323  -5.1323  -4.8157   8.2712   9.8071   9.8071  11.9959
    16.7574  16.7574  18.1190  18.3603  21.3711  23.5484  24.9485  24.9485
    27.7344  27.9372  27.9372  28.8608  34.1214  34.8381  34.8381  34.9348
    35.5037  35.7147  37.7206  37.7206  41.1963  42.2566  42.2566  44.4283
    45.9147  45.9147  46.8399  50.8567  50.8718  54.2558  54.2558  54.3027
    55.8847  56.2269  57.2397  57.2397  58.4712  59.0200  59.0200  60.6372
    62.9528  64.7718  65.5760  65.6706  65.6706  67.6843  67.9067  67.9067
    69.6104  69.6104  71.4679  72.7288  73.4149  73.9722  73.9722  74.4394
    75.2988  76.1482  76.1482  78.1834  81.4710  81.8512  82.7435  82.7435
    83.9034  84.0111  84.0111  86.1991  86.1991  86.5316  86.6975  87.5787
    88.3115  88.4922  88.4922  88.7544  92.0052  92.1445  92.1445  92.9993
    94.2956  94.8965  94.9912  94.9912  98.5583  98.8684  98.8684  99.0502
    99.5033  99.5033 100.6227 100.7800 101.1371 101.4108 101.4108 102.7314
   103.8928 104.9994 109.0434 109.0434 112.4957 113.7984 114.5467 114.5467
   115.8937 116.7764 116.7764 117.2959 119.0773 119.9697 119.9697 120.0304
   121.8698 121.8698 123.3046 124.0018 124.9653 125.0679 125.0679 125.6391
   125.9043 125.9043 126.1344 128.2196 129.3096 129.8952 129.8952 130.1226
   130.2210 130.7053 130.7053 130.8194 132.0026 132.0026 132.0088 132.0651
   134.9240 134.9240 135.5372 136.2890 136.8240 137.4534 137.4534 137.7437
   137.8984 138.7398 138.7398 138.9774 139.3331 139.3331 139.8383 140.4207
   147.7726 147.7803 148.0752 148.0752 148.1965 148.4359 148.9210 148.9210
   149.8642 150.0897 150.0897 150.1789 150.2897 150.4711 151.1290 151.1290
   154.4563 154.8582 155.0956 155.0956 155.2971 155.3353 155.9307 156.3043
   156.3852 156.3852 159.5881 159.6887 159.8119 159.8119 160.8298 160.8298
   162.0802 162.0886 162.0886 162.1152 162.2597 162.2609 162.3196 162.3196
   166.9156 166.9156 167.4157 168.0354 168.0354 168.0606 168.0696 169.1295
   176.2196 176.2270 176.8036 176.8036 177.1738 177.9444 178.0382 178.0382
   178.0593 178.3806 178.4123 178.4248 178.4248 180.0428 180.0428 180.5105
   182.9570 182.9596 182.9972 182.9972 184.5010 184.7664 185.4716 185.4716
   189.4163 189.7980 190.3083 190.3083 190.7204 191.2608 191.2608 191.3298
   191.9586 192.2843 192.2843 192.3555 192.5688 192.6609 192.6609 192.7537
   192.7857 192.8238 192.8238 192.8558 197.9329 198.6320 198.6475 198.9350
   198.9350 199.9067 200.7921 200.9997 200.9997 201.5432 201.9414 201.9414
   203.4977 203.9455 203.9455 204.0150 208.3968 208.3968 208.4707 208.6840
   208.8626 209.9134 210.1522 210.1522 213.2378 213.4940 213.4976 213.5309
   213.5309 216.8546 218.1270 218.1270 218.8464 218.8464 218.9959 219.3102
   219.6611 220.0011 220.0051 220.0051 220.1856 220.3483 220.9251 220.9251
   221.0024 221.5017 221.7699 221.9979 222.1695 222.1695 223.3811 224.0249
   224.0249 224.7915 224.7915 224.7972 224.8183 225.4213 225.4213 225.4615
   231.1386 231.1643 231.1643 231.1811 231.3913 231.5271 232.3305 232.3305
   232.4442 232.5141 232.6378 232.6378 232.6807 232.9406 233.2207 233.2207
   238.1322 238.2143 238.4123 238.4204 238.4204 238.5037 238.5721 239.3653
   239.3653 239.7625 239.7625 240.2417 240.2417 240.6388 241.1055 241.1268
   243.4251 243.4621 243.7848 243.7848 245.2083 245.2974 245.4441 245.4441
   245.5322 245.5322 245.5848 245.5876 245.9286 245.9608 245.9608 245.9869
   247.4265 247.6559 248.1254 248.1254 250.4716 250.8051 251.0709 251.0709
   251.6867 251.7175 251.7987 251.7987 255.7331 255.8225 255.8225 255.8253
   257.4792 257.4918 257.4963 257.4963 259.2428 259.9121 260.3186 260.3186
   260.7907 260.8408 261.8727 261.8727 262.4947 262.9452 262.9452 263.5293
   263.9939 264.0144 264.0144 264.1340 272.1219 272.1219 272.2764 272.4098
   272.5944 272.9535 272.9816 273.0731 273.0731 273.6591 273.6591 273.7529
   273.9584 274.4312 274.8436 274.8436 275.3873 275.9401 275.9401 277.1673
   279.7178 279.7469 279.7804 279.8581 279.8581 280.3755 280.3755 281.4449
   283.3708 283.5268 283.6600 283.6600 284.6377 284.6486 284.9576 284.9576
   285.0490 285.1221 285.3247 285.3247 286.1515 286.4487 287.4539 287.4539
   287.5684 287.5684 287.6147 287.6153 289.8912 290.4416 292.3132 292.3559
   292.3559 292.3633 292.5368 292.6071 292.6339 292.6488 292.6488 293.5432
   293.9069 293.9069 295.4865 295.5083 295.5465 295.5465 296.5354 296.5354
   299.8953 300.1768 300.1768 300.7690 302.5941 302.6000 303.6367 303.6367
   303.6680 303.6751 304.8232 304.8232 305.5263 305.8695 305.9836 305.9836
   306.1312 306.4475 306.4475 306.5355 307.8351 307.8818 307.9351 307.9351
   309.7085 309.7085 309.7497 309.7614 312.1432 312.6636 312.6636 312.9478
   314.6499 314.7671 314.8272 314.8272 315.1124 315.2778 315.2778 315.4908
   315.5541 315.8127 316.0116 316.0116 317.9310 317.9882 317.9882 317.9912
   318.3015 318.3015 318.5395 318.5406 324.3806 324.4300 324.4300 324.4543
   325.8560 326.0189 326.4601 326.4601 328.0159 328.5734 329.4450 329.4450
   330.7209 331.2252 331.2938 331.2938 331.7265 331.8216 331.8216 332.0510
   332.5321 333.6237 333.6237 333.8980 335.2734 335.3587 335.3587 335.7777
   335.8114 335.9002 335.9002 336.3814 336.7720 336.8634 337.0061 337.0061
   339.2000 339.2406 339.2406 339.2528 339.7035 339.7035 339.7222 339.7310
   339.9635 339.9664 340.0141 340.0141 343.7392 343.7583 343.7583 343.8050
   343.9490 344.0189 344.0998 344.0998 344.3635 344.4186 344.4419 344.4551
   344.4627 344.4627 344.8735 344.8735 345.3032 345.4527 345.4527 346.0021
   348.5981 348.5981 348.5995 348.6058 349.4148 349.4416 349.4479 349.4479
   349.8384 349.8553 349.8553 349.8753 350.4442 350.4734 350.4734 350.4943
   350.5189 350.5367 350.5367 350.5472 357.2743 357.7314 357.9476 357.9476
   358.0129 358.1120 358.1120 358.1925 358.2374 358.2374 358.4385 358.4397
   363.8791 363.8950 363.8950 363.9488 363.9962 364.0015 364.1585 364.1585
   364.1909 364.9289 365.3405 365.3405 365.9367 366.0595 366.0595 366.1363
   366.6973 366.7071 366.7180 366.7180 368.2164 368.2542 368.2946 368.2946
   368.5873 368.5971 368.6262 368.6262 370.4692 370.4877 370.4877 370.4886
   371.5959 372.1507 375.8291 375.8291 376.4522 376.5461 376.9487 376.9487
   377.0844 377.1186 377.1757 377.1757 377.2906 377.2971 377.3911 377.3911
   377.4036 377.4519 377.5390 377.5973 377.6404 377.6404 379.2386 379.3226
   379.3226 379.3438 379.3786 379.4529 379.4529 379.4650 381.1651 381.1651
   381.5545 381.5545 381.5691 381.5695 389.0398 389.0540 389.1343 389.1343
   389.4792 389.4873 389.4919 389.4919 389.7573 389.7607 389.7607 389.7667
   389.7764 389.8312 389.8312 389.8345 392.9533 393.4966 393.4966 394.3466
   395.7211 395.7861 396.1458 396.1458 396.4108 396.4284 396.4284 396.4762
   396.5361 396.5458 396.8520 396.8520 397.9671 397.9673 398.1157 398.1157
   401.7336 401.7336 402.0613 402.0642 402.2370 402.2399 402.2399 402.2475
   409.5970 409.5976 409.7423 409.7423 410.2770 410.3063 410.3179 410.3179
   411.0223 411.0351 411.0351 411.0457 412.1067 412.1265 412.1265 412.1666
   415.9163 415.9255 415.9255 416.5920 416.7566 416.7661 416.8332 416.8332
   416.9853 416.9959 417.1746 417.1746 419.2718 419.3843 419.4135 419.4135
   419.9329 419.9329 419.9433 420.0892 420.5319 420.5376 420.9182 420.9182
   421.0288 421.0288 421.1603 421.2040 427.2963 427.3331 427.4789 427.4789
   427.7523 427.8022 428.2082 428.2082 429.2612 429.2666 429.2974 429.2974
   430.1733 430.1846 430.1846 430.2133 431.0570 431.0596 431.0596 431.0713
   431.0762 431.1356 431.1507 431.1507 435.1976 435.3415 435.3415 435.4595
   435.8846 436.1781 436.1781 436.2686 438.4930 438.5664 438.5664 438.6557
   439.4460 439.4460 439.5156 439.5177 439.5335 439.6008 439.6008 439.6054
   439.8948 439.9282 439.9282 439.9675 440.0614 440.1671 440.1671 440.2372
   441.3444 441.3722 441.6566 441.6566 442.0154 442.0154 442.1110 442.1113
   443.6368 443.6715 443.6715 443.7035 444.2688 444.2729 444.2729 444.2809
   444.4343 444.4563 444.4563 444.4667 444.5869 444.5869 444.5871 444.5875
   449.5073 449.5073 449.5231 449.5324 450.8789 450.9167 450.9167 450.9649
   451.2102 451.2496 451.3381 451.3381 452.0890 452.1639 452.1639 452.2827
   452.3884 452.3922 452.4016 452.4020 452.4020 452.4095 452.4136 452.4136
   452.4152 452.4908 452.4908 452.5346 458.2910 458.3995 458.7827 458.7827
   461.4501 461.4507 461.4665 461.4665 461.8124 461.8299 461.8393 461.8393
   461.9955 462.0907 462.0907 462.1831 464.9206 464.9206 464.9238 464.9240
   466.5849 466.6329 468.2114 468.2278 468.2278 468.2886 468.5137 468.5914
   468.6178 468.6178 471.9120 471.9174 471.9174 471.9267 471.9763 471.9915
   471.9915 472.0146 472.5718 472.5915 472.5915 472.6094 472.8919 472.9003
   472.9003 472.9111 474.9165 474.9165 476.0104 476.0294 476.0294 476.0528
   476.0818 476.0890 476.0890 476.0900 478.4783 478.5079 478.5340 478.5340
   479.9342 479.9401 479.9448 479.9448 480.0766 480.0766 480.1225 480.1457
   483.1248 483.1366 483.1366 483.1491 483.4119 483.4151 483.4182 483.4182
   487.6212 487.6212 487.6220 487.6240 489.3721 489.4213 489.7569 489.7569
   491.1939 491.1983 491.1983 491.1992 491.2485 491.2499 491.2785 491.2785
   491.8094 491.8145 491.8145 491.8163 493.7560 493.7560 493.7844 493.7874
   493.8003 493.8111 493.8167 493.8167 495.4825 495.4825 495.9251 495.9260
   496.0792 496.0999 496.0999 496.1041 497.9221 497.9221 497.9266 497.9323
   498.7684 498.8089 498.9601 498.9601 499.0371 499.0371 499.1602 499.1689
   501.8426 501.8810 501.8829 501.8829 502.2404 502.2646 502.2646 502.2847
   503.5011 503.5023 503.5319 503.5319 503.9547 503.9568 503.9568 503.9660
   504.4112 504.4264 504.4264 504.4367 504.5744 504.5744 504.5771 504.5883
   504.6215 504.6358 504.6358 504.6745 507.0246 507.0246 507.0477 507.0534
   507.2347 507.2351 507.2659 507.2659 513.4243 513.4285 513.4719 513.4719
   514.7177 514.7252 514.7252 514.7268 515.0219 515.0274 515.0274 515.0312
   517.7364 517.7450 517.7450 517.7471 519.8819 519.8819 519.8947 519.8986
   519.9427 519.9517 519.9561 519.9561 521.4217 521.4277 521.4277 521.4311
   521.7891 521.8230 521.8230 521.8320 523.8069 523.8156 523.8156 523.8241
   527.0377 527.0526 527.0526 527.0671 527.7929 527.7929 527.8033 527.8083
   528.0783 528.0787 528.0787 528.0789 532.5662 532.5682 532.5682 532.5716
   533.1471 533.1471 533.2131 533.2161 533.3156 533.3296 533.5536 533.5536
   533.7291 533.7291 533.9217 533.9425 534.6009 534.6062 534.7809 534.7809
   534.8387 534.8493 534.9407 534.9407 535.4050 535.4050 535.5632 535.5633
   535.8931 535.8931 536.0150 536.0261 536.1189 536.1325 536.3601 536.3601
   536.4502 536.4502 536.4901 536.4981 538.3688 538.3884 538.3884 538.4073
   545.6472 545.6472 545.6611 545.6642 545.6648 545.6670 545.6670 545.6857
   546.4558 546.4574 546.4574 546.4597 546.8640 546.8651 546.8651 546.8664
   551.0477 551.0500 551.0500 551.0561 552.3145 552.3162 552.4512 552.4512
   553.9600 553.9624 553.9624 553.9652 556.1014 556.1028 556.1037 556.1037
   556.3801 556.3801 556.3914 556.3943 556.3996 556.4035 556.4172 556.4172
   558.2319 558.2361 558.2361 558.2383 558.9054 558.9054 558.9226 558.9229
   560.6203 560.6493 560.6592 560.6592 561.0339 561.1028 561.1028 561.2109
   561.2974 561.4126 561.4126 561.4673 564.9264 564.9412 564.9412 564.9636
   565.2458 565.2831 565.2831 565.3691 565.3874 565.4632 565.4632 565.4874

     the Fermi energy is    -0.7186 ev
     (compare with:    -1.8885 eV, computed in scf)

     Writing all to output data dir out/mp-23155.save/
 
     init_run     :      0.06s CPU      0.09s WALL (       1 calls)
     electrons    :   1063.66s CPU   1146.31s WALL (       1 calls)

     Called by init_run:
     wfcinit      :      0.00s CPU      0.00s WALL (       1 calls)
     potinit      :      0.01s CPU      0.02s WALL (       1 calls)
     hinit0       :      0.01s CPU      0.03s WALL (       1 calls)

     Called by electrons:
     c_bands      :   1063.66s CPU   1146.31s WALL (       1 calls)
     v_of_rho     :      0.01s CPU      0.01s WALL (       1 calls)

     Called by c_bands:
     init_us_2    :      0.00s CPU      0.00s WALL (       8 calls)
     init_us_2:cp :      0.00s CPU      0.00s WALL (       8 calls)
     cegterg      :   1043.03s CPU   1124.43s WALL (       8 calls)

     Called by *egterg:
     cdiaghg      :    987.51s CPU   1067.77s WALL (      67 calls)
     h_psi        :     16.55s CPU     17.06s WALL (      75 calls)
     g_psi        :      0.11s CPU      0.11s WALL (      59 calls)

     Called by h_psi:
     h_psi:calbec :      0.14s CPU      0.14s WALL (      75 calls)
     vloc_psi     :     16.22s CPU     16.72s WALL (      75 calls)
     add_vuspsi   :      0.09s CPU      0.09s WALL (      75 calls)

     General routines
     calbec       :      0.14s CPU      0.14s WALL (      75 calls)
     fft          :      0.01s CPU      0.03s WALL (      10 calls)
     fftw         :     14.70s CPU     15.14s WALL (  115872 calls)
 
     Parallel routines
 
     PWSCF        :  17m44.58s CPU  19m 7.89s WALL

 
   This run was terminated on:  21:22:14  18Nov2023            

=------------------------------------------------------------------------------=
   JOB DONE.
=------------------------------------------------------------------------------=
