
     Program PWSCF v.7.1 starts on  5Dec2023 at  1:43:27 

     This program is part of the open-source Quantum ESPRESSO suite
     for quantum simulation of materials; please cite
         "P. Giannozzi et al., J. Phys.:Condens. Matter 21 395502 (2009);
         "P. Giannozzi et al., J. Phys.:Condens. Matter 29 465901 (2017);
         "P. Giannozzi et al., J. Chem. Phys. 152 154105 (2020);
          URL http://www.quantum-espresso.org", 
     in publications or presentations arising from this work. More details at
     http://www.quantum-espresso.org/quote

     Parallel version (MPI), running on     8 processors

     MPI processes distributed on     1 nodes
     121661 MiB available memory on the printing compute node when the environment starts
 
     Reading input from pw_mp-2534_nscf_k60_E62.in
Warning: card &IONS ignored
Warning: card / ignored
Warning: card &CELL ignored
Warning: card / ignored

     Current dimensions of program PWSCF are:
     Max number of different atomic species (ntypx) = 10
     Max number of k-points (npk) =  40000
     Max angular momentum in pseudopotentials (lmaxx) =  4

     Atomic positions and unit cell read from directory:
     out/mp-2534.save/
     Atomic positions from file used, from input discarded
 
 
     R & G space division:  proc/nbgrp/npool/nimage =       8
     Subspace diagonalization in iterative solution of the eigenvalue problem:
     one sub-group per band group will be used
     scalapack distributed-memory algorithm (size of sub-group:  2*  2 procs)

 
     Parallelization info
     --------------------
     sticks:   dense  smooth     PW     G-vecs:    dense   smooth      PW
     Min         126     126     37                 2648     2648     422
     Max         128     128     38                 2649     2649     423
     Sum        1015    1015    301                21187    21187    3383
 
     Using Slab Decomposition
 


     bravais-lattice index     =            2
     lattice parameter (alat)  =      10.8663  a.u.
     unit-cell volume          =     320.7608 (a.u.)^3
     number of atoms/cell      =            2
     number of atomic types    =            2
     number of electrons       =        18.00
     number of Kohn-Sham states=         1200
     kinetic-energy cutoff     =      62.0000  Ry
     charge density cutoff     =     248.0000  Ry
     Exchange-correlation= PBE
                           (   1   4   3   4   0   0   0)

     celldm(1)=  10.866269  celldm(2)=   0.000000  celldm(3)=   0.000000
     celldm(4)=   0.000000  celldm(5)=   0.000000  celldm(6)=   0.000000

     crystal axes: (cart. coord. in units of alat)
               a(1) = (  -0.500000   0.000000   0.500000 )  
               a(2) = (   0.000000   0.500000   0.500000 )  
               a(3) = (  -0.500000   0.500000   0.000000 )  

     reciprocal axes: (cart. coord. in units 2 pi/alat)
               b(1) = ( -1.000000 -1.000000  1.000000 )  
               b(2) = (  1.000000  1.000000  1.000000 )  
               b(3) = ( -1.000000  1.000000 -1.000000 )  


     PseudoPot. # 1 for As read from file:
     /usr/scratch4/magr4985/MG/HTDF/pseudo/SG15/As.upf
     MD5 check sum: a2ff92a4799c87c945fff9e6739df4dd
     Pseudo is Norm-conserving, Zval =  5.0
     Generated using ONCVPSP code by D. R. Hamann
     Using radial grid of  602 points,  6 beta functions with: 
                l(1) =   0
                l(2) =   0
                l(3) =   1
                l(4) =   1
                l(5) =   2
                l(6) =   2

     PseudoPot. # 2 for Ga read from file:
     /usr/scratch4/magr4985/MG/HTDF/pseudo/SG15/Ga.upf
     MD5 check sum: 9961a622ff199abf6dfec9a0a10b8555
     Pseudo is Norm-conserving, Zval = 13.0
     Generated using ONCVPSP code by D. R. Hamann
     Using radial grid of  602 points,  6 beta functions with: 
                l(1) =   0
                l(2) =   0
                l(3) =   1
                l(4) =   1
                l(5) =   2
                l(6) =   2

     atomic species   valence    mass     pseudopotential
        As             5.00    74.92160     As( 1.00)
        Ga            13.00    69.72300     Ga( 1.00)

     24 Sym. Ops. (no inversion) found



   Cartesian axes

     site n.     atom                  positions (alat units)
         1           Ga  tau(   1) = (   0.0000000   0.0000000   0.0000000  )
         2           As  tau(   2) = (  -0.2500000   0.2500000   0.2500001  )

     number of k points=     8  Gaussian smearing, width (Ry)=  0.0005
                       cart. coord. in units 2pi/alat
        k(    1) = (   0.0000000   0.0000000   0.0000000), wk =   0.0312500
        k(    2) = (  -0.2500000   0.2500000  -0.2500000), wk =   0.2500000
        k(    3) = (   0.5000000  -0.5000000   0.5000000), wk =   0.1250000
        k(    4) = (   0.0000000   0.5000000   0.0000000), wk =   0.1875000
        k(    5) = (   0.7500000  -0.2500000   0.7500000), wk =   0.7500000
        k(    6) = (   0.5000000   0.0000000   0.5000000), wk =   0.3750000
        k(    7) = (   0.0000000  -1.0000000   0.0000000), wk =   0.0937500
        k(    8) = (  -0.5000000  -1.0000000   0.0000000), wk =   0.1875000

     Dense  grid:    21187 G-vectors     FFT dimensions: (  40,  40,  40)

     Estimated max dynamical RAM per process >     148.82 MB

     Estimated total dynamical RAM >       1.16 GB

     The potential is recalculated from file :
     out/mp-2534.save/charge-density

     Starting wfcs are random

     Band Structure Calculation
     Davidson diagonalization with overlap

     ethr =  5.00E-06,  avg # of iterations =  4.1

     total cpu time spent up to now is      642.2 secs

     End of band structure calculation

          k = 0.0000 0.0000 0.0000 (  2685 PWs)   bands (ev):

    -8.1237  -8.1237  -8.1237  -8.0563  -8.0563  -5.7871   6.5787   6.5787
     6.5787   6.7138  10.2990  10.2990  10.2990  14.0207  16.6138  16.6138
    18.0340  18.0340  18.0340  20.8971  31.2609  31.2609  31.2609  32.4938
    32.4938  32.4938  33.1369  33.1369  33.1369  33.7384  33.7384  40.3952
    45.2061  45.2061  45.2061  45.8957  45.8957  45.9246  45.9750  45.9750
    45.9750  46.2630  46.2630  46.2630  47.2746  47.2746  47.2746  47.9778
    47.9778  47.9778  48.7008  48.7008  48.7008  48.7897  48.7897  51.7524
    54.3633  54.3633  54.3633  54.4824  54.4824  54.4824  56.3493  59.3757
    69.6853  69.6853  69.6853  70.4444  70.4444  71.7691  75.0830  75.0830
    75.0830  78.6641  78.6641  78.6641  79.4191  79.4191  81.1371  81.1371
    81.1371  81.4626  81.4626  81.4626  82.9647  83.2957  83.2957  83.2957
    83.5810  83.5810  85.0543  85.0543  85.0543  86.5540  86.5540  86.5540
    87.4299  87.4299  87.5240  87.5240  87.5240  88.4395  88.8151  88.8151
    88.8151  90.2206  90.6372  90.6372  90.6372  91.2048  91.2048  91.2048
    91.4967  91.4967  91.8936  91.8936  91.8936  96.3245  99.2882 101.7241
   101.7241 101.7241 103.5666 103.5666 103.5666 103.9649 103.9649 103.9649
   104.5402 104.5402 104.5402 106.1545 106.1545 106.2775 106.2775 106.2775
   106.6277 106.6277 109.7324 109.7324 109.7324 110.3574 113.9501 116.7421
   116.7421 116.7421 117.5162 117.5162 118.0371 118.4615 118.4615 118.4615
   119.1831 119.9812 119.9812 119.9812 120.0965 120.0965 120.0965 120.1117
   120.1117 120.1117 121.2777 121.2777 121.2777 121.3151 121.3151 122.1106
   122.1106 122.1106 122.7330 122.7330 122.7330 130.6329 133.5561 134.0058
   134.0058 134.0058 136.8130 136.8130 137.5210 137.5210 137.5210 142.3521
   142.3521 142.3521 145.3730 145.3730 145.3730 146.2238 149.0082 149.0082
   149.0082 149.1522 149.1522 149.7747 150.1416 150.1416 150.1416 151.3130
   151.3130 151.3130 151.3883 151.3883 151.3883 152.7681 152.7681 153.9716
   153.9716 153.9716 154.0520 154.0520 154.0520 154.5136 154.5136 154.5136
   155.1460 155.1460 155.8613 155.8613 155.8613 156.5487 156.5774 156.5774
   156.5774 156.6680 156.8809 156.8809 156.8809 156.9687 156.9687 157.2339
   157.2339 157.2339 157.6207 157.9597 159.3686 159.3686 159.3686 159.8942
   159.9187 159.9187 160.4530 160.4530 160.4530 161.9320 161.9320 161.9320
   162.3906 162.3906 162.3906 162.6600 162.6600 162.6600 162.7805 162.7805
   162.9633 162.9633 162.9633 163.1088 163.1088 163.1088 163.4591 163.4591
   172.0357 173.4674 173.4674 173.4674 175.7387 175.7387 177.3412 177.3412
   177.3412 177.3747 177.3747 177.3747 177.8130 177.8130 177.8130 178.3016
   178.3016 178.3016 180.4144 180.4144 180.4144 180.4245 180.4245 180.4635
   181.1369 182.6789 183.2372 183.2372 183.2372 187.8308 187.8308 187.8308
   188.0205 188.0205 188.0205 188.1892 188.1892 188.1892 188.4118 188.4118
   188.4118 189.1841 189.1841 189.9142 189.9142 189.9142 191.9123 191.9123
   193.3155 195.1537 195.1537 195.1537 196.2616 196.2616 196.2616 196.6580
   196.9649 196.9649 196.9649 197.0176 197.0176 197.0176 197.4797 197.4797
   197.8313 197.8313 197.8313 198.2605 198.2605 198.2605 199.1657 199.1657
   211.8195 211.9732 211.9732 211.9732 212.0315 212.9683 212.9683 212.9683
   215.8463 215.8463 215.8463 216.1231 216.1231 216.9973 216.9973 216.9973
   217.4173 217.7760 217.7760 217.7760 221.4324 221.4324 221.4324 221.4352
   221.4352 221.9768 222.7594 222.7594 222.7594 223.2610 223.2610 223.2610
   223.7466 224.0311 224.0311 224.9965 224.9965 224.9965 225.3121 227.4850
   227.4850 227.4850 227.9120 227.9120 227.9120 228.1787 228.1787 228.1787
   228.4926 228.4926 228.4926 230.2338 230.2338 230.2338 231.7342 231.7342
   232.2349 232.2349 232.2349 232.2443 232.2900 232.2900 232.2900 232.4021
   232.4021 232.4021 233.8909 233.8909 234.3820 234.6711 234.6711 234.6711
   235.0267 235.0267 235.0267 235.8168 235.8168 235.8168 235.9194 235.9194
   240.3755 240.3755 240.3755 240.6020 241.4777 243.9430 243.9430 243.9430
   244.0544 244.0544 244.0544 244.2740 244.2740 244.2740 244.5578 244.5578
   244.5578 245.6398 245.6398 247.8116 247.8116 247.8116 248.6548 248.6548
   249.7261 249.7261 249.7447 249.7447 249.7447 249.7588 249.7588 249.7588
   250.0732 250.0732 250.0732 250.9145 250.9145 250.9145 251.3393 251.6179
   251.6179 252.2552 252.2552 252.2552 252.6995 252.6995 252.6995 253.0021
   256.5119 257.0744 257.0744 257.0744 258.1784 259.9648 259.9648 259.9648
   260.4856 260.4856 261.1011 261.1011 261.1011 261.2130 261.2130 261.2130
   261.3545 261.3545 261.3545 262.2391 262.5848 262.5848 262.5848 263.1200
   263.1200 263.1200 263.5625 264.1752 264.1752 264.1752 264.5686 264.5686
   264.7989 264.7989 264.7989 264.9801 264.9801 264.9801 265.0042 265.0042
   265.0042 265.1723 265.1723 265.3390 265.5634 265.5634 265.5634 265.8090
   265.8090 265.8090 266.0552 266.2561 266.2561 266.2561 266.2767 266.2767
   266.5012 266.5012 266.5012 266.5573 266.5573 266.5573 266.7218 266.7218
   266.7618 266.7618 266.7618 271.9099 271.9099 271.9099 272.2688 272.2688
   284.6973 284.6973 284.6973 284.7989 285.8783 285.8783 292.2666 292.2666
   292.2666 292.3047 292.9724 294.1951 294.1951 294.1951 295.1478 295.1478
   295.1892 295.1892 295.1892 295.3272 295.3272 295.3272 295.4212 295.4212
   295.4212 296.7208 296.7208 296.7208 297.7127 298.7571 298.7571 299.4593
   299.4593 299.4593 301.8074 301.8074 301.8074 302.1340 302.6560 303.8714
   303.8714 303.8714 303.9278 303.9278 304.6438 304.6438 304.6438 304.6612
   304.6612 304.6612 304.7445 304.7445 304.7445 306.5952 306.5952 306.5952
   307.0327 307.0327 307.0327 307.0684 307.0684 307.0877 307.0877 307.0877
   307.1318 307.1318 307.1318 307.4106 307.4106 307.4155 307.4155 307.4155
   307.4432 308.2171 308.2171 308.2171 309.1951 309.1951 314.5044 314.5044
   314.5044 315.1985 315.1985 315.1985 315.4660 316.0863 316.0863 317.7056
   317.7056 317.7056 320.0309 320.0309 320.0309 320.5536 321.5749 321.5749
   321.5749 321.8563 321.8563 321.8563 321.9255 321.9255 321.9255 322.3424
   322.3424 322.3424 322.9110 322.9110 323.4942 323.5567 323.5567 323.5567
   323.5633 323.5633 325.7848 325.7848 325.7848 326.8053 326.8053 326.8053
   326.9797 331.2962 331.2962 331.2962 332.5987 332.9387 332.9387 332.9387
   333.4152 333.4152 333.6915 333.6915 333.6915 333.9405 333.9405 333.9405
   334.3063 334.7165 334.7165 335.2611 335.2611 335.2611 335.4241 335.5824
   335.6212 335.6212 335.6212 335.6574 335.6574 335.6574 335.7133 335.7133
   335.7133 335.7607 335.7607 337.2632 337.2632 337.2632 337.2817 337.2817
   337.2817 337.3205 337.3205 337.3205 337.3797 340.0062 340.0062 340.5210
   340.5210 340.5210 341.9369 341.9369 341.9369 342.2760 342.2760 342.2760
   342.4110 343.3330 343.3330 343.3330 343.3669 343.3669 343.4968 343.4968
   343.4968 343.6342 343.6342 343.6342 343.6941 345.9982 345.9982 349.8696
   349.8696 349.8696 357.7029 357.9162 357.9162 357.9162 358.3055 358.3055
   358.3513 358.3513 358.3513 358.3994 358.3994 358.3994 358.6151 358.6151
   358.6151 358.9037 358.9399 358.9399 358.9399 359.0538 359.0538 359.5310
   359.5310 359.5310 362.0157 362.6985 362.6985 362.6985 363.2321 364.5975
   364.5975 364.5975 365.0979 365.0979 365.0979 365.3556 365.3556 365.3556
   365.6080 365.6080 365.6080 365.8650 365.8650 366.9798 367.7807 367.7807
   367.7807 367.8555 367.8555 368.4036 368.4036 369.9409 369.9409 369.9409
   370.3252 370.4177 370.4177 370.4177 371.2841 371.2841 371.2841 371.3771
   371.3771 371.3771 371.5448 371.5448 371.8851 371.8851 371.8851 371.9638
   371.9638 371.9649 371.9649 371.9649 373.3676 373.6181 373.6181 373.6181
   373.6271 373.6271 373.6271 373.9148 373.9148 373.9148 374.0711 374.0711
   374.0711 374.2339 374.2765 374.2765 374.2765 374.5195 374.5195 374.5195
   375.4102 375.8290 375.8290 376.0282 376.0282 376.0282 376.0375 377.1102
   377.1102 377.1102 377.2367 377.2367 377.2367 377.4476 377.4476 377.4476
   377.4550 377.4550 377.4550 377.4981 377.4981 379.3673 379.3673 379.5324
   379.5324 379.5324 379.8969 379.8969 379.8969 379.9029 380.1015 380.1015
   380.1015 380.1671 380.1671 380.1671 380.4453 380.4453 380.4453 380.5234
   380.5234 380.7595 380.7595 380.7595 380.9086 385.8294 385.8294 385.8294
   390.0340 390.1628 390.3352 390.3352 390.3352 393.0092 393.0092 396.8722
   396.8722 396.8722 397.1473 397.1473 397.1514 397.1514 397.1514 397.1616
   397.1616 397.1616 397.1667 397.1667 397.1667 398.0301 398.0301 401.6235
   401.6235 401.6235 404.6104 404.6837 404.6837 405.2806 405.2806 405.2806
   405.7042 405.7042 405.7042 405.7157 405.7157 405.7157 405.7364 405.7364
   405.7364 406.9178 406.9744 406.9744 406.9744 408.9513 408.9513 408.9513
   410.2003 410.2003 410.2117 410.2117 410.2117 410.2372 410.5776 410.5776
   410.5776 410.5901 410.5901 410.5901 410.5982 410.5982 410.5982 411.0484
   411.0484 411.0878 411.0890 411.0890 411.0890 414.7502 414.7502 414.7502
   421.1674 421.1674 426.5078 426.7603 427.4325 427.4325 427.4325 427.7967
   427.7967 427.7967 427.8806 427.8806 427.8921 427.8921 427.8921 428.0590
   428.0590 428.0590 428.2520 428.2520 428.2520 429.4246 429.4246 429.4246
   430.9619 430.9619 433.6087 433.6087 433.6087 433.8899 435.0087 435.0087
   435.0087 436.0109 436.0109 436.0109 436.0457 436.0457 438.9058 439.6521
   439.6944 439.6944 439.6944 439.9200 439.9200 439.9200 440.8029 440.8029
   440.8029 441.3890 441.5769 441.5769 441.5769 442.3363 442.3363 443.7308
   443.7308 443.8686 443.8686 443.8686 444.0376 444.0376 444.0376 444.1544
   444.1544 444.1544 444.2455 444.2455 444.2455 444.7646 445.2414 445.2414
   445.2414 445.4598 445.4598 445.4598 445.4976 447.3767 447.3767 447.4747
   447.4747 447.5800 447.5800 447.5800 447.7004 447.7004 447.7004 447.7124
   447.7124 447.7124 447.7382 447.7382 447.7382 448.3963 448.3963 448.7005
   448.8199 448.8199 448.8199 450.0018 450.1245 450.1245 450.1245 450.1422
   450.1422 450.2349 450.2349 450.2349 450.3313 450.3313 450.3313 452.5043
   452.5043 452.5043 452.6170 452.6170 453.0233 453.0233 453.0233 453.1039
   453.1258 453.1258 453.1258 455.4744 455.4744 458.2309 458.2309 458.2309
   461.0298 461.5555 461.5555 461.5555 462.2595 462.2595 462.2694 462.2694
   462.2694 462.9479 463.1512 463.1512 463.1512 463.9226 463.9226 463.9226
   463.9457 463.9457 463.9457 463.9515 463.9515 464.1666 464.1666 464.1666
   464.2390 466.0103 466.0103 466.0103 466.1729 466.1729 466.1729 466.3793
   466.4033 466.4033 466.4033 466.4584 466.4584 467.8696 467.8696 467.8696
   468.2604 468.2604 468.2604 468.3041 468.3041 468.3041 468.5239 468.5239
   468.5239 469.0554 469.0554 469.0588 469.0588 469.0588 469.1218 469.1218
   469.1218 469.1666 469.1666 469.1666 469.2080 471.1010 471.1010 471.1481
   471.1481 471.1481 471.2189 472.9833 472.9833 472.9833 473.5194 473.5194
   478.5498 479.2538 479.5561 479.5561 479.5561 479.6380 479.6380 479.6380
   479.8664 479.8664 479.8664 480.1334 480.1334 480.1611 480.1611 480.1611
   480.3080 480.3080 480.3080 480.4576 480.4576 480.4576 480.6053 480.6053
   480.7284 480.7284 480.7284 481.0324 481.0324 481.0324 481.3587 481.3798
   481.9088 481.9088 481.9088 482.0467 482.0467 482.3161 482.3161 482.3161
   482.4811 482.4811 482.4811 482.5428 482.5428 482.5428 482.6184 482.6184
   482.6184 482.6719 482.9631 483.2329 483.2329 483.2565 483.2565 483.2565

          k =-0.2500 0.2500-0.2500 (  2650 PWs)   bands (ev):

    -8.1579  -8.1144  -8.1144  -8.0561  -8.0561  -5.1476   2.5349   5.9498
     5.9498   7.8603  11.1252  11.1252  12.2901  15.4552  15.5563  15.5563
    18.2421  22.0596  22.0596  24.7185  25.0163  25.0163  25.3132  32.5006
    32.5006  33.6338  33.6338  33.7410  35.4117  36.8506  37.0535  37.0535
    41.0344  41.0344  41.4320  41.4993  41.4993  42.3769  42.5709  42.5709
    42.7727  45.7630  46.2724  46.2724  46.5838  48.0116  48.0116  48.3846
    52.1283  52.1283  53.0170  53.0170  53.1705  54.7557  54.7557  55.5060
    55.9473  58.8682  59.0446  59.0446  60.4315  60.4315  62.1772  62.2752
    62.2752  63.0713  65.2192  65.2192  68.4075  69.8299  70.8124  70.8124
    73.6945  73.9753  74.0900  74.0900  77.2601  77.5093  77.7195  77.7195
    78.3533  78.3533  79.8369  79.8369  80.3108  81.1109  81.1109  82.1815
    83.1358  84.1428  84.1428  84.5846  84.5846  84.9681  86.5783  86.5783
    87.4004  87.4653  87.4653  87.6952  88.5647  88.5647  89.6344  91.2928
    91.2928  92.3292  94.3070  94.3070  94.5185  94.8845  94.8845  96.1433
    96.3008  96.3008  96.3345  97.6997  97.6997  97.9608  98.5043  98.5043
   100.3132 101.2051 101.2051 101.3829 102.7827 103.4646 104.0591 104.0591
   104.3980 105.3250 105.3250 105.6312 105.6312 105.7217 107.3013 107.3013
   108.2319 108.8159 108.8159 109.7692 110.5726 110.5726 111.0119 112.3879
   113.0615 113.0615 113.4297 114.0375 115.0473 115.0473 115.4150 115.4150
   116.9524 116.9524 118.8407 120.4170 120.4170 120.7999 123.6516 123.6516
   124.0624 126.2079 126.2797 126.2797 128.4326 128.5689 128.5689 130.5636
   130.5636 130.8887 130.8887 131.5164 131.7286 132.7803 132.7803 132.8230
   134.1428 134.4671 134.4671 135.3797 136.1479 136.1479 136.8309 136.8309
   137.2642 137.7668 138.2592 138.2592 138.9246 139.1974 140.0765 140.0765
   141.1090 141.1090 141.3559 142.3225 142.3225 142.6853 144.5410 145.4049
   146.2673 146.2673 147.7691 147.7691 147.8295 148.3902 148.3902 149.0298
   149.5078 149.5078 150.8323 151.3049 151.3049 151.8626 152.7524 152.7524
   152.8409 153.9013 153.9013 155.4641 155.4641 155.7750 156.1956 156.1956
   156.3446 157.5040 158.2118 158.2118 158.9173 158.9173 158.9904 159.0147
   159.7251 160.2183 160.2183 160.9648 161.1776 161.1776 161.6520 161.6520
   161.6871 162.2673 162.2673 162.4018 164.8733 165.2769 165.2769 165.9951
   165.9951 167.3867 167.3867 167.5447 167.7760 167.9301 167.9301 168.5347
   168.9999 168.9999 170.4562 170.5210 170.5210 171.1165 171.3433 171.3433
   171.8766 172.6056 172.8870 172.8870 174.0910 174.0910 174.1019 174.8314
   175.0336 175.0336 175.8726 175.8726 176.6629 176.6629 176.7238 177.0126
   177.8562 177.8562 178.2336 178.6073 178.6073 181.5642 182.7030 183.4995
   183.4995 183.7923 184.8648 184.8648 185.2467 185.5362 185.5362 186.3186
   186.3186 186.3997 187.4629 187.9759 187.9759 188.4270 188.5263 188.5263
   188.6553 189.6117 189.6117 193.6082 194.2296 194.2296 194.6640 194.6640
   194.9754 195.6747 195.6747 196.4884 197.9862 197.9862 197.9892 199.1605
   199.7730 199.7730 200.3400 201.0791 201.0791 201.1641 201.7718 201.7718
   202.3800 203.5615 203.5615 204.9191 204.9884 204.9884 205.8278 205.9366
   205.9366 208.7233 208.8219 209.4213 209.4213 209.8838 209.8966 210.6196
   210.6817 210.6817 210.8198 210.8198 212.2274 212.2274 213.0051 213.0051
   213.3230 213.3656 213.9603 213.9603 214.3198 214.3198 215.2077 215.9838
   216.1416 216.1416 216.4601 216.9839 216.9839 217.7608 217.7608 218.0312
   219.7063 219.7770 219.7770 221.6554 221.6554 222.3469 222.3469 222.5176
   223.4813 223.7147 223.7147 224.3480 224.3480 225.6835 226.2936 227.0659
   227.2739 227.2739 229.8214 229.8214 230.8081 231.0647 231.0970 231.0970
   231.4459 231.4459 231.5054 231.9383 231.9383 232.7846 235.5337 235.6322
   235.6322 236.2999 236.2999 237.7359 237.7359 237.7698 237.9352 238.0960
   238.1698 238.1698 238.6780 238.6781 238.9503 239.0027 239.0027 239.5036
   239.7778 239.7778 240.1296 240.6999 240.6999 241.0136 241.3694 241.4649
   241.4649 241.9151 242.3449 242.3449 242.9552 243.2469 243.2469 243.9496
   244.0524 244.0524 244.2785 245.0875 245.5320 245.5320 245.7983 245.7983
   246.2250 246.5227 246.5227 247.9153 247.9153 248.0544 248.2440 249.1470
   249.1470 250.2413 250.5320 250.5783 250.5783 250.9038 250.9963 250.9963
   252.3100 252.3100 253.4720 253.4720 253.5931 253.8199 254.3847 254.3847
   254.9992 255.4509 255.5990 255.5990 256.6403 256.6403 256.8594 256.9448
   256.9448 256.9682 257.9006 257.9006 258.3240 259.1310 259.4193 259.4193
   259.7390 259.7390 260.1332 260.2044 260.2044 260.2348 261.9708 261.9708
   264.0694 265.4764 265.4764 265.5528 266.5850 266.5850 267.5132 268.1569
   268.2624 268.2624 268.6654 268.6654 268.7827 269.0233 270.2427 270.2427
   270.8532 270.8532 270.8655 272.5687 272.8069 272.8069 273.1200 273.1200
   273.1797 273.6729 273.6729 274.7983 275.7568 275.7568 275.8963 276.2427
   276.2427 276.2506 276.6363 276.6363 277.7612 278.0542 278.0542 280.0276
   280.0276 280.1795 280.2433 280.7904 280.8535 280.8771 280.8771 282.1789
   282.1789 283.1820 283.1820 284.2705 284.2705 284.4302 285.1319 285.2516
   285.2516 285.2800 285.6637 285.6637 287.1897 287.8869 287.8869 287.9308
   288.8415 289.0888 289.0888 290.4511 290.4511 290.5015 291.1448 291.1448
   291.5721 292.3305 292.6507 292.6507 293.4592 293.5741 293.5741 293.9693
   294.2088 294.2088 295.3483 295.4985 295.4985 295.5702 295.7234 295.7234
   296.2691 296.2691 297.0761 298.1649 298.1649 300.3400 301.6449 301.6449
   303.4450 303.7761 303.7761 303.8714 304.1630 304.5174 304.5770 304.5770
   305.0427 305.0427 305.5860 306.5651 306.5651 307.6932 307.9177 307.9607
   307.9607 308.0157 308.0157 308.9396 309.5633 309.5633 311.1490 311.7877
   312.0625 312.0625 312.4851 312.4852 312.5005 312.6843 312.6843 313.3019
   313.9298 313.9298 314.3762 314.4292 314.4292 315.0110 315.1201 315.6439
   315.6439 316.6863 316.6863 317.1660 318.6345 318.6345 319.5464 319.5464
   319.7385 319.7965 320.2446 320.4526 320.4526 321.9694 321.9694 322.0863
   322.3815 322.3815 323.7214 324.1168 324.1168 324.7110 324.7829 325.6092
   325.6092 326.2987 326.2987 326.3991 327.9449 328.3136 328.3136 329.6120
   329.6120 329.7783 330.4281 330.4281 330.8241 331.4174 331.4174 331.6920
   332.1602 332.1602 332.3268 332.5557 332.5557 332.6894 332.7855 333.0049
   333.0049 333.2034 334.6044 334.6044 335.2604 335.2604 335.3717 335.4582
   335.4751 335.4751 337.0829 337.0829 338.2761 338.9412 338.9412 339.4730
   339.4730 339.8253 339.9300 339.9300 340.1733 340.4193 340.4193 340.9884
   341.0045 341.1423 341.5008 341.5008 341.7598 341.7598 342.0460 342.1489
   342.2827 342.2827 343.0892 343.0892 343.2735 343.4759 343.4759 344.8555
   345.2674 345.2674 345.3324 345.7484 345.7484 346.6936 346.6969 346.6969
   347.4315 347.9912 347.9912 348.1668 348.4333 348.4655 348.4655 348.9461
   348.9461 349.2187 349.2752 349.5009 349.5009 349.8421 349.8421 349.9202
   350.3271 350.3271 350.7948 350.9542 350.9542 351.1055 351.3822 351.3822
   351.8840 353.9225 353.9225 354.5685 354.6824 354.9597 354.9597 355.9268
   355.9268 356.0555 356.5772 357.5143 357.5143 357.8286 357.8348 357.8348
   357.8360 358.8434 358.8434 358.8959 360.8898 361.1059 361.1059 361.5531
   361.5531 362.0976 362.1395 362.1395 362.4868 362.4868 363.1460 363.5933
   363.5933 364.5538 365.1816 365.1816 366.0752 366.3346 366.3346 366.4335
   366.7488 366.7488 366.9467 367.0249 367.0249 367.1877 367.5250 367.8529
   367.8529 368.3646 368.3646 368.3732 368.9439 370.7061 370.7061 371.4487
   371.4487 372.0286 372.2532 372.2532 372.4194 372.7976 372.7976 372.8413
   374.8866 374.8866 375.1266 375.6240 375.6240 375.6707 376.9064 377.4368
   377.4368 377.9720 378.3057 378.3057 378.8624 378.9497 378.9497 380.6445
   380.9825 380.9825 381.2077 381.6598 381.6598 381.7325 382.0119 382.0119
   382.9231 383.0311 383.0311 383.7184 384.1359 384.3791 384.3791 384.5076
   385.0125 385.0125 385.3513 385.3513 385.8044 386.4215 386.4215 386.7518
   386.8812 386.9227 386.9227 388.1970 388.1989 388.1989 388.7895 388.7895
   389.0345 389.2587 389.2587 389.9149 390.1766 390.1766 390.3286 391.1117
   392.0396 392.0396 392.1805 392.5626 392.5627 393.1879 393.2380 393.2380
   393.6089 393.6089 393.8100 393.8100 393.8182 393.8899 393.9763 394.5210
   394.5210 395.3937 395.3937 395.7599 395.9784 395.9784 396.0351 397.7020
   397.7020 398.1566 399.4826 400.0837 400.0837 400.1625 400.2931 400.2931
   400.8841 401.6658 401.6659 401.9983 401.9983 402.0335 402.1629 402.1629
   402.3177 403.3633 404.9905 404.9905 405.9449 405.9450 406.4782 406.5907
   406.5907 407.1444 407.8311 407.8311 407.9780 409.1220 409.1220 409.2257
   410.5652 410.5652 410.6649 410.6812 410.9183 410.9183 411.7803 411.7803
   411.9669 413.2113 413.2113 413.8261 413.8261 413.9245 414.6484 414.6484
   414.8318 416.7810 418.7029 418.7029 418.9249 418.9249 418.9841 420.0400
   420.2084 420.2084 422.3516 422.5013 422.5013 422.5335 422.5593 422.5593
   423.8858 424.3491 424.3491 424.4855 424.6466 424.7167 424.7167 425.0629
   425.6900 425.6900 425.8370 426.4801 426.4801 427.0465 427.3121 427.3121
   427.6326 427.6326 427.7603 428.1663 429.0317 429.0317 429.1679 430.5042
   430.5042 431.6505 431.7924 431.7924 432.1411 432.3083 432.3083 432.4138
   432.9482 432.9482 433.4745 434.0473 434.0473 434.4062 434.4062 434.4126
   434.4593 434.4593 434.6350 434.9471 434.9471 435.6255 435.7310 435.7310
   436.8036 436.8036 436.8867 437.2921 437.6933 437.6933 438.0289 439.6347
   439.6347 439.6825 440.3609 440.3609 440.3941 440.9373 440.9373 441.0093
   441.0694 441.2731 441.3883 441.3883 441.8173 442.0324 442.0324 442.6253
   442.6253 443.0812 443.1171 443.1171 444.6532 444.6532 445.6914 446.2167
   446.2167 446.2993 447.0760 447.3526 447.3526 447.9599 448.2026 448.2026
   448.6597 448.7212 448.7371 448.7371 449.2267 449.2267 449.4450 449.4450
   449.4716 449.5116 450.0675 450.0675 450.7399 451.3407 451.3407 451.9190
   452.2255 452.2255 452.3386 452.3609 452.3609 452.4875 452.9603 452.9603
   453.4635 454.5490 454.6367 454.6367 455.0477 455.0477 455.3409 455.6156
   455.7208 455.7208 456.9261 456.9261 457.0732 457.3852 457.3852 457.6910
   457.9652 457.9652 458.0676 459.2001 459.2001 460.1249 460.5444 460.7503
   460.7503 462.5467 462.5467 463.2633 463.3429 463.3429 463.3438 463.3453
   464.2382 464.2382 464.4558 464.4558 464.7981 464.9390 464.9390 465.5500
   465.6278 465.6278 465.7266 465.9421 465.9421 466.0785 466.1333 466.3184
   466.3184 466.6454 466.7084 466.7084 466.8049 466.9532 466.9532 468.5512
   469.0979 469.0979 469.8042 469.8042 470.9527 471.3787 471.3787 471.3943
   471.7088 471.8933 471.8933 471.9646 471.9646 471.9795 472.5827 472.5956
   472.5956 472.7348 472.7348 473.1454 474.8804 474.8804 475.1476 475.1832
   475.1832 475.4099 476.4726 476.4726 476.5448 476.5920 476.8416 476.8416
   477.1758 477.2056 477.2056 477.4789 477.7144 477.7217 477.7217 478.4325
   478.4325 478.8281 478.8281 479.7204 479.8986 480.8773 480.8773 481.2433
   482.5015 482.7157 482.9129 482.9129 482.9638 482.9638 484.4606 484.4606
   485.8245 485.9807 485.9807 486.1276 486.1276 486.7556 486.7556 487.0367
   487.0367 487.3032 487.6184 487.6271 487.6271 488.0095 488.2953 488.6445
   488.6445 488.6885 489.0062 489.1152 489.1152 489.3534 489.3770 489.3771

          k = 0.5000-0.5000 0.5000 (  2638 PWs)   bands (ev):

    -8.1881  -8.1075  -8.1075  -8.0533  -8.0533  -4.1781   0.2120   5.5139
     5.5139   7.4360  11.1984  11.1984  14.2799  16.5963  18.2508  18.2508
    18.6144  19.5142  19.5142  25.5238  27.6018  28.3786  28.3786  29.0009
    29.0009  32.1526  32.6934  33.5264  33.5264  34.5836  34.5836  34.6340
    38.6653  38.6653  38.8818  39.0928  39.0928  39.8315  40.4839  45.1767
    46.4266  46.4266  46.8237  46.8237  48.4474  52.7075  52.7075  53.3854
    53.3854  54.2245  54.6667  56.0205  56.0205  56.1308  56.2580  56.2580
    60.3626  60.4860  60.4860  61.5449  61.5449  62.1641  63.7167  63.7167
    63.9203  63.9203  64.2809  64.9974  65.7516  67.9500  67.9500  68.2252
    68.2252  68.4429  68.9968  72.4131  72.4131  72.8903  73.2759  73.2759
    75.0447  75.1811  78.2690  78.2690  80.2474  80.2474  81.5932  82.8878
    83.2247  83.7134  83.7134  84.4173  84.4764  84.4764  87.4529  88.2387
    88.2387  88.5820  89.1612  90.1534  90.1534  90.8490  90.8490  90.9076
    91.1800  91.3507  91.3507  92.1637  92.1637  92.4287  94.2406  94.2406
    96.3372  98.9064  99.8104  99.8104 100.2218 100.2218 101.0668 101.4766
   101.4766 101.4878 101.8874 102.2576 102.2576 103.5310 103.6697 103.6697
   104.9537 105.5368 105.5368 106.2935 106.2935 107.5553 109.9990 109.9990
   110.3278 111.0056 111.2255 111.2255 111.9191 111.9191 113.0302 114.2973
   114.2973 114.5809 114.5809 115.9026 117.1007 117.1007 117.5256 117.5256
   118.3597 119.4787 119.4994 119.6647 122.3434 122.3434 122.4557 122.4557
   123.5857 124.2478 124.2478 124.9442 125.3129 125.3129 125.3151 125.7448
   127.1431 127.1431 128.1119 128.1119 130.6267 132.2772 134.1282 134.7140
   134.7140 134.8824 135.3702 135.6861 135.6861 136.7358 136.7358 137.2312
   138.5372 138.5372 138.6485 138.6485 139.7638 139.7638 140.0786 140.6109
   142.9090 143.1914 143.1914 143.4862 143.6471 143.6471 144.1330 144.4439
   144.4439 145.2646 145.2646 145.7721 146.1084 146.4259 146.4259 146.8453
   146.8453 146.8932 147.4050 147.4050 147.7367 147.7367 148.6144 149.5051
   150.8739 150.8739 151.7699 152.4668 152.4668 152.9511 154.0030 154.0030
   154.7547 154.9641 154.9641 155.0184 155.0184 155.3367 155.4649 155.4649
   155.5585 160.3104 161.6641 162.2924 162.2924 162.3769 162.4643 162.4643
   163.8728 164.0247 164.2763 164.2763 164.9651 164.9651 165.1009 165.2194
   166.4414 166.5040 166.5040 166.7305 166.7305 167.1348 167.6208 169.2025
   169.2025 170.3235 170.3235 172.3073 172.9747 173.5057 173.5057 173.8850
   173.8850 174.3238 174.3238 174.5284 175.3010 175.3010 175.5160 175.5652
   175.7769 175.7769 176.4069 176.4069 177.9601 182.0608 182.0608 182.9803
   184.4409 185.2518 185.2518 186.0665 186.5864 186.5864 186.7943 187.3987
   187.3987 187.8408 187.8408 188.4984 188.7027 188.7027 188.9192 190.0436
   190.0558 190.3344 190.3344 190.5128 191.6197 191.6197 193.0841 193.2157
   193.4940 193.4940 193.9465 193.9465 194.0640 194.4201 194.4201 195.8968
   195.8968 196.1427 196.2567 196.2680 196.2680 197.9056 198.3781 198.3781
   199.1004 199.1004 199.1856 199.1856 199.2251 199.8354 199.9323 199.9323
   199.9522 200.1775 200.1775 200.3711 200.3711 201.3341 201.3460 201.3613
   201.3613 204.2036 206.3260 207.3039 207.3061 207.3061 208.9289 208.9289
   209.1348 210.1464 210.1464 210.4798 210.4798 211.3651 211.3651 211.5013
   211.5616 213.1055 213.1055 213.1185 214.4289 214.4289 214.7851 214.7948
   214.7948 215.3453 215.5592 215.5592 215.6746 216.3410 216.3410 217.1323
   218.1585 218.3832 218.3832 218.6504 218.6504 219.1066 219.2022 219.2189
   219.2189 219.2756 219.2756 224.1916 224.1916 224.5178 225.0791 225.4210
   225.4643 225.4643 225.6969 225.6969 226.1168 226.1169 226.2693 226.5488
   226.7186 228.4281 228.4281 229.4978 229.4978 231.8100 231.8100 231.9457
   232.3874 232.8032 233.4957 233.4957 233.9483 233.9483 233.9634 234.9220
   234.9383 235.1687 235.1687 236.0749 236.0749 236.2103 237.9004 237.9004
   238.6820 239.0524 239.0524 240.6098 240.6098 241.8205 242.7225 242.7225
   243.8361 243.8361 244.3066 244.5391 244.7359 245.0889 245.1389 245.1389
   245.1938 245.3248 245.3248 246.1665 246.1665 246.1985 247.9551 247.9551
   248.0906 248.0906 248.8840 248.8840 250.2211 251.5957 251.6394 251.6394
   251.7877 251.8377 251.8377 251.9257 252.0280 252.2280 252.2280 252.5954
   252.5954 254.3622 254.5404 254.5404 256.2081 256.6501 256.6501 257.2242
   257.5599 257.5599 257.6697 257.8536 257.8536 258.2688 258.5697 258.5697
   258.7276 261.2108 261.2108 261.9577 261.9577 263.1107 263.2356 263.2942
   263.5743 263.5743 263.7404 263.8244 263.8244 265.1390 265.1390 267.3366
   267.5274 267.5274 267.5869 268.2661 268.2661 268.3760 268.4235 269.1942
   269.4288 269.4288 270.2993 270.2993 270.6444 270.7106 270.7106 270.9870
   271.2594 272.0458 272.0458 272.4157 272.4157 273.2489 275.9488 275.9488
   276.3553 276.7887 277.2108 277.2108 277.7834 277.9306 277.9306 278.2432
   279.6560 279.6560 280.6853 280.6877 280.7622 280.7622 281.4503 281.4503
   281.7826 282.0295 282.0295 282.2419 282.3108 282.3108 282.3501 282.6738
   282.6932 282.6932 282.7404 282.8100 282.8100 284.0749 284.0749 284.4362
   284.5381 284.5381 284.5882 284.5882 285.0187 285.7122 285.7122 285.7634
   287.1361 288.1829 288.1829 288.3623 288.3680 288.3680 288.3808 289.1588
   289.2841 289.2841 289.8664 289.8685 289.8685 290.5470 290.5470 290.7026
   290.7450 291.9060 291.9060 294.2644 294.2644 295.3195 295.5176 295.5176
   295.8487 297.6630 297.6630 298.1796 299.3925 299.3925 299.4320 299.4875
   300.8671 300.8671 301.5297 301.5297 303.3544 304.4933 304.4933 306.8298
   306.8298 306.8797 306.8797 307.3915 307.4296 307.4296 307.5830 307.5901
   307.8518 307.9436 307.9589 307.9589 308.4145 308.4145 308.6798 308.6798
   308.7468 309.3195 309.3195 310.1378 310.1393 310.4889 310.4889 313.6918
   314.6737 314.7635 314.7635 314.9045 314.9186 314.9460 314.9460 315.2150
   315.2150 315.9446 316.1794 316.1794 317.4587 317.4587 318.5049 318.5049
   319.0090 319.0090 319.2073 319.2475 319.2518 320.2027 320.2027 321.7883
   322.9063 323.1767 323.9986 323.9986 324.3603 324.3603 324.4014 324.5158
   324.8946 324.8946 327.0396 327.0396 327.5248 327.8468 327.8468 327.8799
   328.0581 328.0581 328.1111 328.1111 329.0248 329.1500 329.1500 329.7945
   330.6624 330.9387 330.9387 331.1427 331.5774 331.5774 331.7668 331.7668
   331.7862 332.3537 332.5070 332.5070 333.6058 333.6058 334.5955 334.6085
   334.6267 334.6267 334.6938 334.6938 335.8940 335.8940 336.0176 336.4428
   336.4428 336.5841 336.6486 336.8898 337.1594 337.1594 337.4372 337.4372
   337.6127 339.0220 339.0557 339.0557 339.0808 339.8185 339.8185 342.0625
   342.3394 342.3394 342.4523 342.4523 343.7868 343.9957 344.0589 344.0589
   344.8207 344.8207 345.1605 345.4859 345.7205 345.7205 345.9489 345.9489
   346.0253 346.9949 346.9949 348.9016 348.9436 348.9436 349.1485 349.1485
   349.2167 349.3910 349.4260 349.4260 349.7528 350.0718 350.0718 350.2106
   351.2566 351.2566 351.8008 353.6991 353.6991 354.8607 354.8607 354.8701
   354.8701 354.8981 354.8996 355.2572 355.3490 355.3490 355.6398 355.9291
   356.0528 356.0528 356.0542 356.8880 356.8880 357.1059 358.7429 358.7429
   359.0192 359.0192 360.0594 360.0594 360.3115 360.9516 361.0918 361.0918
   361.3432 361.3432 361.4137 361.5772 361.5772 361.6127 361.6264 361.6380
   361.7014 361.7014 362.1535 363.7356 363.7356 365.3581 365.4475 365.4475
   365.8677 366.9824 367.0760 367.0760 370.9939 371.0155 371.0155 371.6318
   371.6369 371.6369 371.6932 371.8018 371.8018 372.5480 372.9581 372.9581
   373.1405 373.1405 373.7427 373.7427 374.6304 374.6304 375.6022 378.2494
   378.4901 378.4901 379.3208 379.3208 379.3405 379.9089 379.9089 380.0112
   380.0112 380.1036 380.1441 380.2347 380.2347 380.2368 380.3014 380.3014
   380.3188 380.3556 380.5061 380.5061 380.7448 380.9966 380.9966 381.4853
   382.2907 382.2907 382.4909 382.4954 382.4954 382.5063 384.4294 384.4294
   386.2974 387.2589 387.3361 387.3361 388.8647 388.8647 389.5813 389.5813
   389.6856 389.6890 389.8148 389.8148 390.8312 391.2923 391.2923 391.4093
   391.4601 391.4764 391.4764 392.5617 392.5617 392.9724 393.0908 393.0908
   393.5090 393.5090 393.6832 394.5172 394.5172 394.6782 394.9831 394.9831
   394.9836 395.0145 395.1080 395.1284 395.1284 395.3042 395.3042 395.3620
   398.2492 398.2492 398.8068 398.8068 398.8748 398.8787 399.6977 400.7536
   400.7536 401.8691 401.8691 404.6054 405.3968 405.7922 405.7922 405.8732
   406.3921 406.3921 407.1623 407.1623 407.2993 407.4043 407.4150 407.5170
   407.7997 407.7997 407.9693 407.9693 408.4309 408.4309 409.2090 409.2090
   409.3387 409.7330 409.9183 409.9183 410.7792 410.9738 411.3255 411.3255
   412.6456 412.8556 412.8556 413.1954 413.3452 413.3452 413.3571 414.1053
   414.1053 414.1766 415.2797 415.2908 415.6516 415.6516 415.8152 415.8152
   416.2665 416.2665 416.3440 416.8900 416.8900 417.1615 417.1615 417.2772
   417.4072 417.4072 417.5494 417.5558 418.5828 418.5828 418.7524 418.7524
   418.8038 418.8045 418.8045 418.8094 418.9142 418.9142 418.9167 418.9413
   420.6813 421.4205 421.4205 423.2073 423.2073 424.9698 424.9698 425.1665
   425.6464 426.2139 426.2139 426.2741 426.2741 426.5464 426.6141 426.8025
   426.8118 427.0502 427.0502 427.0880 427.0880 427.9964 428.5687 428.5687
   428.7929 430.0606 430.0606 431.8418 431.8418 432.6575 432.6789 432.7197
   432.7197 432.9313 433.2929 433.7434 433.7434 433.7713 434.1698 434.1698
   434.8731 434.8731 435.1349 435.1349 435.3971 435.4232 435.4232 435.4790
   435.8957 435.8957 436.6154 436.6609 436.6609 436.7272 437.1822 437.1822
   437.7089 437.8189 438.0542 438.0542 439.0530 439.0530 439.3146 440.4800
   440.4800 441.5098 441.5098 441.6839 441.6839 441.7419 442.5274 442.5274
   442.7296 442.9658 442.9658 443.0429 443.1305 443.1418 443.1444 443.1444
   443.1950 443.1950 443.3027 443.3306 443.3712 443.8441 445.4740 445.4740
   445.9915 445.9915 448.5900 448.5900 448.6253 448.6253 449.3887 449.3888
   449.5709 449.5713 450.1621 450.5335 450.6694 450.6694 451.8827 451.8827
   452.6121 452.6121 452.6164 452.6899 454.3641 454.3641 456.6333 457.0905
   457.0905 459.6232 459.8955 459.8955 460.3805 460.9491 460.9523 460.9523
   461.1514 461.1514 461.6067 461.6067 461.6139 461.6254 461.6254 461.7199
   461.7617 461.7813 461.7813 461.8216 461.8344 461.8344 461.8469 462.2886
   462.2886 462.3501 463.2205 463.2732 463.2732 463.3362 463.4562 463.4562
   463.6400 464.5241 464.5241 465.1070 465.1070 465.9283 466.5671 466.8570
   467.0277 467.0277 467.1320 467.1320 467.2044 467.3494 467.5043 467.5043
   467.5710 467.6871 467.6871 467.7018 467.7460 467.7460 467.8323 467.9638
   467.9638 468.0740 468.3368 468.4033 468.4033 468.5656 468.5656 468.7499
   472.7151 472.7151 473.0303 473.0303 473.1464 473.1519 473.2057 473.2057
   473.2572 473.2572 473.6919 473.6919 473.9440 474.2231 474.2549 474.2549
   474.3412 474.4007 474.4007 474.4152 474.4152 474.5043 476.4509 476.4509
   478.4417 478.6125 478.6208 478.6208 481.6538 481.6538 482.4316 482.4367
   482.4367 482.4497 484.0913 484.0913 485.1821 485.1821 485.6234 486.7341
   486.7527 486.7527 486.7684 486.7773 486.9908 486.9908 488.1692 488.1692
   488.7523 488.7523 488.9763 489.3751 489.3751 489.4489 489.4489 489.4606
   489.5043 489.5316 491.8209 493.2301 493.2301 494.7788 494.7788 496.5614

          k = 0.0000 0.5000 0.0000 (  2650 PWs)   bands (ev):

    -8.1755  -8.1039  -8.1039  -8.0657  -8.0510  -4.9281   2.5195   5.0083
     5.0083   8.5845   9.7032  13.0098  13.0098  13.8559  17.6090  17.7082
    20.1179  20.1179  20.7052  24.4652  24.4652  25.9939  26.1419  27.5411
    33.2912  33.2912  33.3297  34.3777  35.3039  35.3039  36.4197  37.1645
    41.0537  41.4360  41.4360  42.2354  42.2354  42.2463  43.7524  43.7524
    43.9133  44.3300  45.1720  45.4199  47.4233  47.6587  47.6587  49.6316
    52.5389  52.5488  52.5488  52.7556  53.4287  53.4287  54.0917  54.1923
    55.4696  59.0787  59.7417  59.7417  62.3787  64.6759  65.0266  65.0266
    65.1442  65.7251  65.7251  66.5639  70.3084  70.4282  70.4282  70.6746
    71.2996  71.2996  71.4135  71.6484  72.7601  73.5888  73.5888  74.6971
    75.3487  77.2738  77.2738  77.9993  79.4698  80.9336  81.1907  81.1907
    82.5662  85.4274  85.4274  85.9680  86.1835  87.5392  87.5392  88.3774
    88.7620  88.8860  88.8860  88.9815  89.5053  90.9387  91.4758  91.4758
    91.6550  92.0987  92.7250  94.2756  94.2756  95.3068  95.7474  95.7474
    95.8928  95.8989  97.0484  97.1367  97.1367  97.5065  98.5131  98.8169
    98.8447  98.8447  99.3850 100.0998 100.0998 100.1240 100.7598 100.7598
   101.4785 103.3007 106.6262 107.5348 107.5348 108.2702 108.2702 108.7852
   109.1892 109.4294 112.7644 113.0410 113.0410 113.9358 113.9776 115.1118
   115.4105 115.4439 115.6873 115.6873 116.0251 116.0251 117.2748 117.5855
   117.5855 119.7839 120.1363 120.8870 121.6371 121.6371 122.8703 122.8703
   124.1599 124.6456 124.8197 125.0937 125.0937 126.2352 126.9743 126.9743
   127.0651 128.0154 130.4053 130.5255 130.5255 131.4498 132.3649 133.6553
   133.7720 133.7720 134.8103 135.0184 135.1032 135.1208 135.1208 135.8281
   137.3465 138.0461 138.0461 138.8990 139.3926 139.3926 140.1857 140.4436
   140.5523 141.1949 141.1949 142.5594 143.9229 143.9229 144.2727 144.5745
   145.2938 145.6673 145.6673 145.9505 146.3889 146.3889 146.6764 147.5995
   147.5995 148.5341 148.9992 149.9309 151.5734 151.5734 151.5945 151.7821
   152.0016 152.0016 153.1533 154.4579 154.4660 154.9636 155.3586 155.3586
   156.1811 156.1811 157.0954 157.3406 157.6755 157.6755 158.6943 158.7162
   159.4279 159.4279 159.8522 160.9956 160.9956 161.0097 161.6596 164.3374
   164.7742 164.7742 164.8903 165.3382 166.8636 166.8636 167.0865 167.4645
   168.0377 168.6158 168.6158 169.0752 169.0752 169.3477 169.6788 170.5722
   170.6460 170.9400 170.9400 171.3224 172.1182 172.4652 172.4652 173.0069
   173.5024 173.5024 174.2393 175.8340 176.0497 176.0497 176.3785 176.4734
   177.0979 177.0979 177.1312 177.3758 177.3758 177.5048 178.1555 178.5479
   178.6881 178.6881 178.9145 179.2847 179.2847 179.7383 179.9837 180.7564
   181.3914 181.3914 181.5193 182.3905 182.8750 182.8750 183.3441 186.5716
   187.3740 187.3740 187.7459 187.9129 188.2682 188.2682 188.2815 188.4420
   188.5132 188.5132 188.8955 189.9335 191.6670 194.0616 194.0616 194.4610
   194.8587 195.7129 196.0975 196.9115 196.9417 196.9417 197.5836 198.0398
   198.0398 199.4650 199.4650 199.6839 200.5227 200.9529 200.9529 201.6393
   201.6854 202.7285 204.1102 204.1102 204.7936 206.1257 206.1257 206.5645
   207.6131 207.8212 207.8212 208.7213 208.7496 208.7496 208.8980 208.9886
   209.3918 209.6890 209.6890 210.2259 212.2724 212.8538 212.8538 213.1374
   214.2523 215.3586 215.3586 215.5654 215.9158 215.9158 215.9274 216.6094
   217.6665 219.0096 219.0277 219.0277 220.5451 220.5451 220.7176 221.6037
   222.0869 222.5255 222.5255 222.8690 223.6942 223.6942 224.2434 224.2434
   224.4592 224.7092 224.8686 224.8686 225.0255 226.3775 226.7354 227.0283
   228.6845 228.6845 229.1261 229.8075 229.9068 230.0716 230.0716 230.6524
   231.0881 231.2802 231.3869 231.3869 231.6542 231.7385 231.7385 232.2381
   232.3882 232.5274 232.5274 233.2873 233.2873 233.2924 233.9386 234.1590
   234.1634 234.1634 234.8909 235.4280 235.4280 235.5306 235.8118 236.7966
   237.1711 237.1711 237.2813 237.4041 238.1352 238.2606 238.2606 239.0684
   239.6377 239.7242 239.7242 240.2529 241.1737 241.6860 241.6860 242.2727
   242.3180 242.3180 242.7339 244.0751 244.1537 244.1537 244.3699 244.5128
   247.1360 248.1906 249.3851 249.3851 249.7620 250.0502 250.1036 250.1036
   250.2177 251.2788 251.5945 251.5945 252.3521 252.4497 252.4497 252.5398
   252.7007 253.7242 253.9820 253.9820 254.5127 254.5332 255.1744 255.7392
   255.7392 257.3245 257.5717 257.5717 257.7080 259.1078 259.2634 260.2233
   260.2233 260.5847 260.6427 260.6427 260.7629 260.7866 260.7866 261.1314
   261.4644 261.7949 262.5400 262.5400 262.8456 263.7164 264.9676 264.9676
   265.5512 266.5889 266.5889 266.7744 266.8695 266.9310 267.0240 267.6957
   267.6957 268.2889 269.1334 269.1334 269.2169 269.6376 269.6376 270.0682
   270.0682 270.3187 271.1373 272.0952 272.4543 272.9301 272.9301 273.6140
   273.8540 275.4149 276.2273 276.2273 277.3855 277.4559 277.7161 278.0768
   278.0768 278.4530 278.6761 278.9434 278.9434 279.2592 279.2592 279.7560
   279.8002 279.8400 280.2903 280.4344 280.4344 281.2952 281.3381 281.3381
   281.8960 282.9886 282.9886 284.0471 284.2662 285.8207 286.0425 286.0425
   286.2488 286.3163 286.3163 286.6180 287.1865 287.5919 287.5919 288.2311
   288.5254 288.9145 289.3233 289.5383 289.5383 289.6029 289.6333 289.6333
   290.1361 290.2694 291.1051 291.1820 291.1820 291.5909 291.7748 291.7748
   292.0476 293.3298 294.4019 294.4019 294.8883 294.9197 294.9197 297.4396
   297.6010 298.0680 298.4036 298.4036 298.8312 300.6595 301.7588 302.9270
   302.9270 304.3842 304.3842 304.6857 304.9567 305.1001 305.1001 305.3111
   305.5148 305.6055 305.6055 306.1880 306.3600 309.9721 310.0805 310.0805
   310.1050 310.4930 310.6175 310.6175 310.7901 310.9701 311.1193 311.1193
   311.2650 311.5174 311.5398 311.5398 312.3298 312.9651 313.4546 313.4546
   313.4587 314.1198 314.1198 314.3016 314.4974 314.9547 315.1222 315.1222
   315.2477 315.2556 315.6069 315.6069 316.5663 316.5663 316.6810 317.1734
   317.5604 317.9483 317.9483 318.1980 318.4986 318.6185 318.6185 318.8566
   319.9815 321.1395 322.1900 322.2108 322.6430 322.8766 322.8766 324.2066
   324.2482 324.2482 324.8719 324.8719 325.6424 325.7037 325.8651 325.8651
   326.9545 327.1476 327.4312 328.3937 328.3937 329.3229 331.1240 331.3219
   331.3219 331.5135 332.1675 332.5622 332.5622 333.0958 333.1182 333.2876
   333.5807 333.5871 333.5871 333.6583 333.6583 333.9707 334.6168 335.1702
   335.1847 335.1847 335.4851 336.2211 336.2426 336.2426 336.6565 337.0136
   337.2695 337.2695 337.7474 338.1765 338.1765 339.2234 340.0109 340.0347
   340.0347 340.5488 341.0450 341.5443 341.5443 341.5566 341.8531 341.8531
   342.0158 342.0803 342.0803 342.3767 342.3936 342.7089 342.7089 343.3923
   343.6104 344.3441 344.9109 344.9354 344.9354 345.5121 345.8861 345.8861
   346.1107 346.1799 348.1265 348.1265 348.4021 348.8444 348.8444 349.0175
   349.2912 349.5509 351.5838 351.5838 351.9869 353.5361 354.1258 354.9832
   355.5897 355.5897 355.9428 356.5907 356.5907 356.7661 357.9158 358.0703
   358.0869 358.0869 358.1403 358.6961 358.7656 358.7656 358.9034 358.9034
   359.0702 359.6176 359.6689 359.7167 359.7167 359.9712 360.0168 360.1039
   360.1039 360.1766 360.3785 360.3785 360.9637 361.0573 361.2810 361.2810
   361.5753 362.3717 363.5079 363.5079 363.6709 363.9071 365.1565 365.2758
   365.3368 365.3368 365.7184 365.7678 366.1492 366.1878 366.1878 366.2442
   366.2593 366.2593 366.4060 366.4060 366.4075 366.5827 367.8431 368.3396
   368.3396 368.7519 369.6868 369.7689 369.7689 369.9686 369.9686 370.0604
   370.3927 370.3927 370.4490 370.5019 371.0068 371.0068 371.0319 371.1980
   371.2520 371.2716 371.2716 371.3821 371.4083 372.5677 372.7174 372.7623
   372.7623 374.4814 374.5177 375.4695 375.4695 375.6581 376.1094 376.3282
   376.3282 377.0082 378.6471 378.6471 378.7317 378.9792 379.2570 379.2570
   379.3756 379.4990 379.4990 379.5913 379.9044 381.3373 381.6491 381.6491
   381.7397 383.9173 383.9173 384.1550 385.8881 387.7752 389.3176 389.3869
   389.3869 390.9638 390.9748 390.9748 391.0174 391.1346 391.8921 391.8921
   392.0602 392.3192 392.5495 392.5495 392.5683 392.9888 393.3383 393.9762
   394.1497 394.1497 394.2243 394.6114 394.6114 395.2010 395.5164 395.6687
   395.6687 396.1372 396.9633 396.9633 397.9617 398.3002 398.3593 398.3593
   398.4908 399.3795 399.6965 399.6965 399.7327 401.5319 401.5512 401.5512
   401.5821 401.8103 403.2790 403.3379 404.0173 404.1262 404.1262 405.1928
   405.2018 405.2018 405.2278 405.4584 405.4584 405.7051 405.7051 405.8259
   406.0868 406.2783 406.2783 406.2844 406.3394 406.4625 407.0541 409.0563
   409.2836 409.5379 409.5379 409.6924 410.8605 410.8605 410.9740 411.4269
   411.5162 411.6125 411.6125 412.0316 412.3167 412.3227 413.0840 413.0840
   413.1327 413.2858 413.4807 413.4807 413.5449 413.5449 413.6698 413.6698
   413.6790 413.8534 414.0786 414.4497 416.1058 416.3631 416.5886 416.5886
   417.0269 417.0269 417.5526 417.5556 417.6455 417.7066 417.7066 419.8939
   420.8205 420.8205 421.2420 422.0173 422.3958 422.4374 422.4374 422.5333
   423.0281 423.0420 423.0593 423.0593 423.3689 423.3689 423.8663 423.8663
   424.0403 424.1240 424.3291 424.3291 424.4661 425.4884 425.5204 425.5204
   425.5261 425.5465 425.7643 425.7643 425.8970 426.4674 426.6537 427.3272
   428.1341 428.1341 428.5707 430.2817 430.3942 430.8905 430.8905 431.0803
   431.1536 431.7820 431.7820 432.0611 432.2508 432.2508 432.7405 433.5112
   433.8937 433.8937 434.4220 435.4173 436.2206 436.2206 437.1326 438.4486
   439.1012 439.1012 440.1388 440.1452 440.6931 440.8198 440.8198 441.9608
   442.0512 442.2133 442.2133 442.3033 442.5639 442.5639 443.1622 443.1622
   443.3265 443.6893 443.7728 444.9105 444.9105 445.8329 446.0782 446.8229
   446.8893 446.8893 447.0682 447.2132 447.4396 447.4396 448.0503 449.0637
   449.0637 449.1886 449.5897 449.5897 449.9103 450.6871 451.0472 451.1373
   451.1466 451.1466 451.3225 451.3418 451.3418 451.3719 452.1897 452.4461
   452.4461 452.9500 453.1571 453.3471 454.2454 454.5395 454.5395 455.0065
   455.0756 455.3752 455.3752 456.2607 456.2607 456.3638 457.1319 457.1319
   457.5274 458.4254 458.5179 458.7545 459.0818 459.0818 459.1249 459.4419
   459.4419 459.4885 459.7211 459.8307 459.9364 459.9364 460.1263 460.2572
   460.2572 460.2742 460.8945 460.8945 461.1243 461.1359 462.3469 462.3469
   462.9406 463.3882 463.9639 464.6168 464.6168 465.3037 465.8636 466.6415
   466.6415 466.6928 466.7498 467.6826 467.9585 467.9585 467.9998 468.9345
   468.9345 469.0028 469.1126 469.2541 469.5550 469.5550 469.9702 469.9702
   470.4208 470.4560 471.0740 471.0740 471.0812 471.1690 471.5465 472.3749
   472.3749 472.4024 472.9103 473.5204 473.5204 473.9520 474.4221 474.9872
   475.9395 475.9395 476.0818 476.5252 476.6685 476.8215 476.8215 477.0313
   477.0313 477.1664 477.5866 477.6129 477.6129 477.7293 478.2126 478.2126
   478.2594 478.3398 478.3416 478.6380 478.6380 478.6613 478.7627 479.0174
   479.2056 479.2056 479.2753 479.2753 479.3627 479.5400 479.6546 479.7320
   479.7320 479.7420 481.0468 481.2403 481.2797 481.2797 482.4644 482.4644
   482.5381 483.9448 485.1668 485.8223 486.0206 486.3542 486.3542 486.4891
   487.1634 487.2488 487.2488 487.6740 487.6740 487.7251 488.0058 488.0058
   488.0095 488.0235 488.0756 488.1677 488.1677 488.3808 489.1355 489.2225

          k = 0.7500-0.2500 0.7500 (  2645 PWs)   bands (ev):

    -8.1989  -8.0986  -8.0944  -8.0652  -8.0504  -3.9082   0.5069   3.5471
     4.6780   8.7686  11.1195  12.6989  13.3881  16.6376  18.4127  18.8071
    19.3966  20.4004  23.8252  24.8130  25.3104  26.6001  26.6579  27.0855
    28.6694  31.0150  31.4723  32.4070  33.7892  34.2690  35.0160  35.5392
    36.6067  37.7158  39.4328  40.4558  42.2778  42.4090  43.5078  43.8441
    45.5032  47.1684  48.8072  48.8693  49.3007  49.3940  50.5034  52.2420
    52.7756  52.8534  53.3228  54.2649  54.4318  56.1344  57.2135  59.0223
    59.2191  60.2185  60.9989  61.4468  62.5909  63.2713  64.1344  64.3510
    65.0423  65.5031  65.6458  65.9746  67.0937  67.4000  68.0203  68.8759
    69.7383  70.8363  71.7024  72.0987  72.4943  72.9224  73.1666  74.6047
    75.0901  75.8987  76.2039  76.7360  78.0586  79.0829  79.6231  79.8592
    81.0703  82.0379  82.1597  82.7342  83.0129  83.8773  85.3617  86.1517
    86.2746  87.3413  87.6876  88.5531  89.5207  89.7867  90.3161  90.3599
    91.0830  91.1511  92.1557  92.5753  93.3731  94.6823  95.4670  96.8924
    97.2706  97.6484  98.2901  98.5666  99.6144  99.8669 100.4345 101.6886
   102.2961 102.6302 102.7617 103.2491 104.0353 104.7166 104.9685 105.5643
   106.1066 106.4132 107.2317 107.6263 108.0652 108.2352 108.7974 109.7069
   110.4276 112.0291 112.3089 113.6739 114.4856 114.6229 115.0622 115.1039
   116.2253 116.3191 116.7783 116.9844 117.6557 118.0155 118.3843 118.8765
   119.5668 120.1497 120.8085 120.8209 122.0142 122.4097 122.5371 122.8510
   123.8767 123.9059 124.7177 124.7807 125.5792 126.2554 126.5192 126.8442
   127.0030 127.0735 127.3520 128.9502 129.0446 129.8901 129.9052 130.6855
   131.5147 131.9390 132.6311 133.1798 133.5823 133.8062 134.2893 134.3265
   134.7088 135.9476 136.5965 137.0744 137.1610 137.8282 138.4373 138.5612
   139.4073 139.8420 140.7679 142.3348 142.6652 142.7636 143.4487 143.7641
   144.0654 144.6980 145.0677 145.4997 145.8090 146.3317 146.6075 146.8306
   147.2198 148.0769 148.2552 148.6610 149.5682 150.2698 150.6052 150.6248
   151.0754 152.6762 152.7467 153.3211 153.5991 153.8499 154.1974 154.5840
   154.7354 155.6990 156.2683 156.3223 156.5806 157.0766 157.1671 157.3942
   158.2477 158.9682 159.1282 159.4097 160.6431 161.6255 161.9271 162.5461
   162.7239 163.7704 164.3341 164.5000 165.4109 165.9775 166.4359 167.0271
   167.5785 167.8508 167.9130 168.7665 169.1747 169.6648 171.0615 171.3433
   171.9800 172.0352 172.7167 173.2685 173.6374 174.0527 174.1815 174.7582
   174.9397 175.5024 175.9928 176.2557 176.3531 176.7985 177.2941 177.4540
   177.8801 177.9802 179.1831 179.9162 180.0129 180.2614 180.7586 181.1971
   181.5610 181.7608 182.3046 182.6094 183.3688 183.4775 184.0448 185.1748
   185.2356 185.8870 186.9377 187.5368 187.9263 188.3086 188.5096 188.5658
   188.9139 189.3789 189.5358 189.9133 190.1338 190.5039 190.7544 191.2135
   191.4554 192.1337 193.0307 193.1941 193.5353 194.2184 194.5860 194.8839
   195.1364 195.4197 195.4350 195.6745 196.1678 197.3193 198.1527 198.4667
   198.6120 199.1119 199.2825 199.4577 199.8856 200.0253 200.8060 201.7395
   202.0393 202.8086 202.8317 203.3911 203.9297 204.2678 204.3274 204.5672
   205.5720 205.9904 206.1910 206.5282 206.5918 207.3464 208.0198 208.3517
   208.4464 209.3050 209.3115 209.5671 209.8261 210.3418 210.9167 211.1398
   212.1154 212.5165 212.7727 213.1256 213.2793 214.0978 214.4736 214.6710
   214.9612 215.1248 215.5280 216.0593 216.0750 216.8836 217.0711 217.3340
   217.6720 218.1604 218.3740 219.0165 219.0443 219.4587 221.4517 222.0290
   222.4407 222.6114 222.9432 223.5288 223.8825 223.9529 224.2286 224.4314
   224.9484 225.0154 225.4980 225.7256 226.0173 226.3911 226.4116 227.0299
   227.5433 227.7655 227.9569 228.5761 229.2860 229.5335 230.2377 230.8334
   231.1429 231.6026 232.4112 232.9325 233.2394 233.8199 233.9045 234.6645
   235.2366 235.4651 235.6843 236.0331 236.4090 236.9063 237.1131 237.2390
   237.6257 238.0871 238.3170 238.5634 239.1142 239.2522 239.7254 239.7916
   240.3344 240.3741 241.2301 241.3444 241.5191 241.8367 242.1391 242.3759
   243.3602 243.7446 243.9198 244.8269 245.6163 247.1555 248.0168 248.2286
   248.4956 248.7050 249.4263 249.7927 250.1884 250.2066 250.4695 250.9888
   251.1722 251.4459 251.8634 252.3807 252.8319 252.9626 253.5078 253.6821
   253.8332 254.5764 255.0214 255.2917 255.4887 256.7864 257.4288 257.9888
   258.1233 258.5575 259.1891 259.4403 259.6177 260.0198 260.2651 260.5371
   261.6137 261.9856 262.1832 262.3977 262.9395 263.1422 263.2660 263.6667
   263.7867 264.0901 264.3173 264.4147 265.1728 265.4311 265.6953 265.9058
   266.5692 266.9461 267.6590 267.9324 268.0268 268.4775 268.7382 268.9990
   269.1572 269.6905 269.9798 270.0060 270.3565 270.3792 270.8253 270.9625
   271.7078 271.8953 272.1694 272.3803 272.5928 273.9483 274.6783 274.7448
   275.4597 276.0182 276.1438 276.6604 277.3181 277.9635 278.1030 279.0693
   279.1635 279.4504 280.0060 280.0226 280.6913 280.8625 280.9628 281.6046
   281.6553 281.9878 282.3406 282.4986 282.7878 283.0337 283.2586 283.4709
   283.5843 283.8450 284.4186 285.0477 285.1016 285.3721 285.7371 286.0403
   286.0837 286.7093 286.9936 287.3939 287.8390 288.1610 288.1784 288.4929
   288.5927 289.2267 289.6341 289.7386 290.2942 290.6861 291.0104 291.7471
   292.3136 292.3409 293.3926 293.5370 295.0323 295.4245 295.6543 295.8025
   295.9094 296.1999 296.5071 296.7112 296.8622 297.1256 297.1297 297.7052
   297.7186 298.1808 298.7114 298.9418 299.3261 299.8917 300.2630 300.7821
   301.1755 301.2648 301.9855 302.2684 302.9608 303.3879 303.5347 304.0999
   304.5047 304.5502 304.9000 305.2678 305.3246 305.5677 306.0615 306.4087
   306.7783 306.8035 306.9809 307.3513 307.5766 307.7023 308.2211 308.4797
   308.6781 309.0785 309.2898 309.5959 309.7054 309.7947 310.4033 310.6295
   311.1101 311.3807 311.9085 312.7586 313.0647 313.6974 313.8309 314.6318
   314.9418 315.1527 315.4270 315.6769 316.0726 316.1022 316.4138 316.5969
   316.7337 316.9304 317.2953 317.7624 317.8246 318.4203 318.4743 318.9703
   318.9933 319.3362 319.4319 319.4554 320.3225 320.5572 320.7967 321.0511
   321.2533 322.0300 322.7698 323.4072 324.1173 324.4815 324.6549 324.6727
   325.1285 325.2768 325.5616 325.7950 326.2958 326.5825 326.8609 327.3727
   327.4251 327.5585 328.0249 328.2185 328.8991 328.9571 329.4196 329.5595
   329.8094 329.8795 330.8768 330.8995 331.2888 331.5871 331.9858 332.4811
   333.0149 334.0659 334.5045 334.5924 335.0117 335.2216 335.5834 336.3349
   336.3465 337.0690 337.8046 337.8832 338.2512 339.0379 339.0865 339.2127
   339.4189 339.4854 339.6155 339.7770 339.9994 340.1703 340.3631 341.7482
   341.7980 342.2564 342.5778 342.7836 343.1680 343.4625 343.8202 344.4965
   344.6385 344.8431 344.9921 345.0333 345.2396 345.5520 345.9113 347.2708
   347.5646 347.7007 348.0505 348.4045 348.6152 348.8165 348.9017 349.5916
   350.2187 350.2715 351.5553 351.9206 352.0097 352.1588 352.5347 352.6068
   352.7302 353.0633 353.2888 353.4273 354.8469 355.1691 355.4682 355.8024
   356.2380 356.6834 356.9309 357.4702 357.7624 358.3092 358.4473 358.6693
   358.7517 358.8324 359.0767 359.1127 359.2563 359.5874 359.6321 359.9982
   360.1990 360.6704 360.8868 361.3513 361.4647 361.6268 362.2351 362.7024
   362.7071 363.0633 363.1772 363.4273 364.3202 364.6553 365.0210 365.5638
   365.5737 365.9581 367.1047 367.2218 367.7799 368.2979 368.8941 369.0091
   369.4511 370.0276 370.3464 370.8930 371.0522 371.2406 371.3384 371.5736
   371.5889 371.8123 371.9731 371.9903 372.5139 372.6072 372.8939 373.0894
   373.2991 373.4687 373.8273 373.8769 374.1793 374.4263 374.8035 375.0480
   375.4759 375.6357 376.1513 376.2458 376.9116 377.4207 377.6201 377.8162
   377.8752 378.6463 378.7545 379.0298 379.4252 379.4301 380.7217 380.7240
   380.9597 381.0054 381.1611 381.4107 381.7884 381.9324 382.8754 383.1685
   383.8423 384.3259 385.3425 385.5057 385.8169 386.4890 386.5177 387.4518
   387.7919 388.0013 388.4371 388.4848 388.6622 388.8926 389.3024 389.3246
   389.5704 389.7946 389.8406 390.5951 390.7920 390.8878 391.0209 391.1529
   391.6335 391.7245 391.8880 391.9904 392.3952 392.8140 392.8464 393.7254
   394.0921 394.1749 394.5311 394.5627 395.0737 395.1347 395.7624 395.8109
   396.3780 396.4745 397.0978 397.5715 397.6425 398.0599 398.2366 398.2506
   398.8410 399.0103 399.4074 399.6350 399.9673 400.0700 400.1750 400.6600
   400.7695 401.5165 401.6451 401.7793 402.3262 402.6251 403.3312 403.6597
   403.7721 404.3246 404.4767 404.6179 404.7384 404.8740 405.0181 405.0366
   405.1008 405.3537 405.6412 406.2853 406.3638 406.9144 407.4739 407.9704
   408.0135 408.4061 408.4234 408.7436 408.8906 409.2987 409.4333 409.7156
   409.8430 410.0835 411.2217 411.6207 412.0679 412.3761 412.4384 412.9706
   413.0137 413.2923 413.3101 413.6552 413.7740 414.1361 414.3068 414.4367
   414.5710 414.7762 415.1524 415.3156 415.4110 415.8333 415.9989 416.0912
   417.2028 417.8178 418.2432 418.2537 418.4843 418.6897 419.0438 419.1823
   419.5470 419.9282 420.4873 420.4878 420.6677 421.1742 421.1917 421.8231
   422.4428 422.6736 422.7274 423.2077 423.5664 423.8973 424.0133 424.1959
   424.9183 425.0733 425.5394 425.9434 426.2287 426.2429 426.6327 426.9446
   427.2644 427.3337 427.4498 427.6584 427.6611 428.3189 428.5800 428.7837
   429.0145 429.1038 429.2877 429.6103 429.7060 430.4297 430.5527 430.7542
   430.8701 431.3829 431.8601 431.9116 432.1785 432.2974 432.3550 432.6285
   432.6905 433.1011 433.1946 433.4798 433.5594 433.6798 433.7671 433.9766
   434.0888 434.1509 434.5224 434.8262 436.0795 436.5241 437.7018 438.1973
   438.5159 438.9007 439.0231 439.5281 439.5557 440.0258 440.2233 440.6908
   441.0260 441.2118 441.2422 441.3612 441.9831 442.3441 442.3529 442.9516
   443.1265 443.1283 443.7843 444.2284 444.3093 444.6275 444.8215 445.2461
   445.3031 445.5817 446.5133 446.6535 446.7752 447.1786 447.3119 447.6453
   447.7903 448.0391 448.4920 448.4989 449.3443 449.3855 449.7567 450.0595
   450.1090 450.2658 450.5294 450.6857 450.8626 450.9006 451.0974 451.3197
   451.7353 451.7800 452.0523 452.2318 452.7315 453.2120 453.3913 454.1198
   454.1223 454.6480 454.7158 455.4251 455.9897 456.2058 456.6663 457.0597
   457.3287 458.0694 458.5003 458.6145 458.9077 459.5820 459.7399 459.8960
   460.1340 460.4342 460.5247 460.8132 460.8261 461.3104 461.6049 461.9319
   461.9593 462.0952 462.3987 463.2765 463.7445 463.7710 463.8809 464.4831
   464.8208 465.1332 465.4507 465.5019 465.8172 465.8972 466.1373 466.3159
   466.4799 466.7391 466.9626 467.2837 467.8666 468.1651 468.2338 468.3390
   469.0809 469.3165 469.4172 470.1305 470.2173 470.3688 471.0012 471.6976
   471.8184 472.4867 472.5098 472.9005 473.4161 473.6029 473.7469 474.2503
   474.2580 474.4666 474.5878 474.9366 475.1807 475.2252 475.3459 475.4072
   475.6400 475.6992 476.1072 476.4981 476.7849 477.1865 477.4223 477.5374
   477.6880 477.7975 477.9362 478.3489 478.7474 479.3611 480.4075 480.8648
   480.9110 481.3501 481.4730 481.5821 482.1738 482.6432 483.2423 483.4399
   484.0802 484.1679 484.2838 484.3053 484.4341 484.6298 484.7383 485.0692
   485.1114 485.2129 485.6516 485.7471 486.3455 486.4900 486.6883 486.7981
   487.2189 487.2993 487.6470 487.6723 488.0379 488.3515 488.3977 488.6199
   488.8125 489.3853 489.4974 489.5434 489.7580 491.1316 491.3183 491.6017

          k = 0.5000 0.0000 0.5000 (  2642 PWs)   bands (ev):

    -8.1861  -8.1043  -8.1029  -8.0578  -8.0560  -4.2808   1.0862   3.4361
     5.4430   9.1842  12.0526  12.1362  12.2659  14.9401  16.6767  18.9421
    19.6904  20.6263  23.7048  24.5589  25.4827  26.2510  27.7078  28.1782
    29.9386  31.2394  31.8251  32.6764  33.0759  33.9274  35.4573  36.7142
    37.0734  40.7495  40.8854  41.4584  41.8008  42.0383  42.5747  42.9762
    42.9851  43.6372  47.0594  49.3967  49.5357  49.6684  50.5201  52.6009
    53.8577  53.8862  54.6072  54.9305  55.0766  55.1316  56.0933  57.8450
    58.8555  59.1546  59.4998  59.8464  60.5730  62.2101  62.6522  63.7238
    64.5867  65.3955  66.0514  66.6923  67.2464  67.5025  68.0759  69.4988
    71.4514  71.6342  72.2336  72.4770  73.3308  74.0917  74.3208  75.1280
    75.2796  76.2805  76.7819  77.2414  78.3697  78.3799  79.9327  80.6260
    80.8169  81.8484  83.1285  83.2549  83.6267  84.1901  85.6758  85.8119
    86.3994  87.0356  88.4169  88.9096  89.1928  90.6201  90.8154  91.3740
    93.3183  94.0304  94.1350  94.8196  95.0605  95.4582  96.0079  96.5551
    96.7149  97.2503  98.0976  98.1157  98.8064  98.8372  99.3965 100.7097
   100.8684 100.9337 102.5937 102.6955 103.1480 103.3392 103.6189 104.0131
   105.2291 105.6572 106.5873 106.7176 107.0942 107.3471 107.4982 109.1239
   109.4491 109.5446 109.9114 110.8079 112.3006 112.3744 113.2444 114.3164
   114.5642 116.8359 117.0276 117.4024 118.4077 119.2036 119.3896 119.3994
   119.7352 120.2364 120.6479 121.5547 121.6748 121.9424 122.2515 122.6729
   122.9426 123.3079 123.4880 123.8709 123.9423 125.8347 127.3091 127.6929
   127.9438 128.7278 129.3686 129.7468 130.8280 131.6189 132.2331 132.9106
   132.9155 132.9536 133.6002 133.7756 134.0230 134.4694 135.4276 136.1944
   136.2904 136.7785 137.7892 138.3584 138.4875 138.8914 138.8974 139.1281
   139.7840 140.3465 140.8873 140.9731 141.6776 141.9500 142.2003 143.7777
   143.9544 144.1831 145.5346 145.9047 146.7922 146.9031 147.6361 148.2123
   148.6530 148.7674 148.9582 149.1723 149.5441 149.6335 150.8315 151.4101
   152.2387 152.9872 153.1886 153.3534 153.4490 153.5038 153.9857 154.5904
   154.9470 155.2226 155.5059 156.3276 157.0709 157.3269 157.9106 158.8859
   159.2792 159.4514 160.1352 160.7190 161.4019 161.8252 162.1040 163.0424
   163.0997 163.1746 163.4620 164.0815 164.3609 164.7112 164.8767 165.2338
   166.3498 166.7969 166.8940 167.4247 168.4626 168.8705 169.7632 170.1240
   170.1908 170.5518 170.7517 171.1609 172.1050 172.1968 172.3878 173.1179
   174.9509 174.9855 175.2427 176.0582 176.3285 176.5978 176.7693 176.7995
   177.1575 177.3493 178.1129 178.8310 179.1147 179.7684 180.1290 180.7022
   180.8753 181.6692 182.2650 183.0286 183.7163 184.3530 184.9066 185.3615
   186.2387 186.8853 187.7716 187.9134 187.9617 188.0884 188.7215 188.9621
   189.4853 189.8038 190.1192 190.4974 190.8114 190.8232 191.0081 191.4601
   191.7803 191.8882 191.9061 192.8069 192.8624 193.1643 193.6138 194.3583
   194.7980 194.8301 195.4893 195.6240 195.7912 197.5185 198.0465 198.0871
   198.6156 198.9789 199.5224 200.0267 200.4494 200.4812 200.7751 200.9022
   201.3546 201.5391 201.7611 201.9946 202.6603 203.2694 204.4975 204.5553
   204.9790 205.2644 205.7265 206.4735 206.7995 207.1725 207.3904 208.3911
   210.3105 210.5584 210.6150 211.0403 211.3334 212.0217 212.3747 213.3001
   213.7300 214.0191 214.1574 214.6546 214.8339 215.2501 215.5434 216.1863
   216.1912 216.3386 216.4912 216.6435 216.7769 217.2054 217.3285 217.6090
   217.9298 217.9842 218.2520 218.7015 219.0499 219.7229 219.7984 220.3529
   220.8002 221.2702 221.6899 221.6958 222.6836 223.0394 224.1665 225.0463
   225.0487 225.1086 225.5784 226.0529 226.7501 227.3612 227.9347 228.4487
   228.9474 229.1339 229.2144 229.4000 230.2845 230.3982 230.4970 230.6178
   230.6535 230.8815 231.1140 231.3626 232.1828 232.5041 232.6022 232.7611
   234.4452 235.2540 235.6348 236.2335 237.2429 237.3322 237.7969 238.3681
   238.3754 238.8202 239.2701 239.7368 239.9386 240.1368 240.3901 240.5185
   240.8321 241.1012 241.2007 241.8144 242.4729 243.2840 244.2148 244.4547
   245.4586 246.2724 247.3634 247.8843 248.4873 248.5166 248.8799 249.1307
   249.2082 249.4871 249.5525 250.2401 250.5345 250.7959 250.8350 251.7216
   251.7810 252.4842 252.8916 253.1936 253.3775 253.6619 254.1737 254.5566
   255.2760 255.2939 255.4346 255.7557 256.1884 256.6450 256.6995 256.7353
   257.0738 257.6688 257.9024 258.1539 258.1567 258.4802 258.6946 259.6090
   259.7482 259.8370 259.8922 260.7621 260.9882 260.9994 261.2878 262.1069
   262.4765 262.9169 263.4790 263.5316 263.8703 264.2245 264.2726 264.5854
   265.0871 266.0740 266.3607 266.4167 266.7096 267.0845 267.5425 267.6508
   267.7811 267.8597 268.4252 268.5189 268.6635 269.2264 269.6850 270.3245
   270.7368 271.4755 272.0292 272.7386 273.0099 274.7663 274.9859 275.1252
   275.4272 276.0524 276.2603 276.7087 276.7141 277.0303 277.1992 277.2339
   278.3948 278.7159 279.0066 279.2065 279.2802 279.3482 279.6171 280.2152
   280.2794 280.7049 281.5984 281.6570 281.8642 282.0527 282.3272 282.6478
   282.7137 283.1369 283.8314 284.2405 284.2797 284.9128 285.0743 285.3108
   285.9058 286.3978 286.5560 287.2432 287.3513 287.5969 288.2805 288.8096
   289.0563 289.2739 290.0196 290.2911 291.0651 292.3205 292.8170 292.8724
   293.1875 293.2389 293.3580 293.5621 294.0513 294.2580 294.3528 294.4197
   295.3463 296.4310 296.4471 296.8801 297.2037 297.2306 297.4902 297.8122
   298.0000 298.2809 298.6294 298.6440 298.6810 299.1178 299.7879 299.8563
   300.0895 300.7885 300.8484 301.9312 302.2587 302.9488 303.8451 304.0780
   304.4807 304.7662 305.0019 305.0957 305.6912 305.8498 306.2061 306.6674
   306.9624 306.9683 307.4083 307.5681 308.1150 308.7077 308.7920 309.1939
   309.6688 309.8801 310.2990 310.3552 311.0753 311.2556 311.7186 311.9895
   312.2824 312.4278 312.5577 312.7236 312.9404 313.2173 313.3642 313.6534
   313.7813 313.8319 315.1082 315.7366 316.3028 316.6321 316.8288 317.3792
   317.4737 317.6446 318.1585 318.1985 318.4919 319.1234 319.7443 320.8506
   321.3609 321.4106 322.0074 323.0594 323.6198 323.7143 323.7881 323.9264
   324.0427 324.1878 324.3616 324.3639 324.4885 325.3583 325.4906 325.8569
   325.9993 326.1261 326.1741 326.2365 326.4918 326.7229 326.9019 327.1913
   327.6865 327.7834 327.9686 328.2710 329.2360 329.4256 330.2980 330.2981
   330.6554 330.8095 330.9010 332.1188 332.9349 334.0156 334.8839 335.1796
   335.8745 336.1619 336.3727 336.4026 336.6462 337.2321 337.2825 337.5576
   338.5210 338.8335 339.0116 339.2316 339.4499 339.5479 340.1299 340.4392
   340.6668 340.6957 340.7285 341.0792 341.2920 341.6298 341.7808 341.9504
   342.7220 342.8695 343.0800 343.1536 343.5660 343.6841 344.0117 344.0904
   344.3840 344.4945 344.5601 344.8996 345.1049 345.4362 345.7318 345.8430
   346.6203 346.9883 347.3258 347.8218 348.1400 348.9662 349.4567 349.5691
   349.7372 350.3871 351.1521 351.4592 351.5126 351.7205 351.9666 352.0712
   352.1276 352.2363 352.3529 352.7061 353.2295 353.2598 353.8848 354.2532
   354.6323 354.6699 354.8050 354.8053 354.8840 355.0778 355.2024 355.3811
   356.5321 356.5910 357.0026 357.9649 358.4463 359.3719 359.3828 359.5227
   359.6998 359.9128 360.3257 360.8400 361.3274 361.6301 361.9184 362.0929
   362.8605 362.9322 363.4917 363.8087 363.9126 364.2575 364.7415 364.9926
   365.5375 365.8363 365.9572 366.2310 366.5727 366.5959 367.1255 367.1783
   367.3609 367.9376 368.3695 368.7064 369.1191 369.5426 370.0743 370.2239
   370.4065 370.7140 370.8518 371.3162 371.9455 372.0319 372.1891 372.6155
   372.7721 372.8924 373.0839 373.1381 373.7202 374.2590 374.8265 375.6243
   375.8859 376.0396 376.1200 376.2818 376.8043 377.3866 377.4494 378.1921
   378.9408 378.9511 379.1727 379.3436 379.7731 379.7783 380.1314 380.3666
   380.9235 381.1235 381.3477 381.4778 381.6243 381.8468 382.5634 382.5708
   382.8298 383.3354 383.3881 383.4186 383.6667 383.9043 384.0862 384.6782
   385.9411 386.3468 386.5886 386.7504 387.0006 387.6195 388.8515 389.2855
   389.3229 389.4087 389.5532 389.6287 390.4775 391.0227 391.3196 391.6155
   391.7476 391.7681 391.9786 392.2058 392.3210 392.3232 392.6545 393.2737
   393.6385 393.7035 394.2734 394.2991 394.5877 394.8756 395.4036 395.4119
   395.5611 395.9761 396.4145 396.4374 396.9574 397.4803 397.7422 397.8400
   398.1952 398.4357 398.9796 399.0999 399.2077 399.4383 399.9393 400.1403
   400.5776 400.6185 400.9750 401.5016 401.9471 402.5330 402.8273 402.8487
   403.5705 403.6694 403.7256 404.4419 405.0891 405.1184 405.5778 405.7455
   406.0840 406.1130 406.3388 406.5792 406.6061 407.0379 407.2902 407.6466
   407.8074 407.9782 408.1364 408.8046 409.1788 409.2091 409.7986 410.3449
   410.6326 410.8599 411.4563 411.5770 411.8159 412.2500 412.3989 412.6269
   412.9685 413.5725 414.3670 414.6855 415.4844 415.6689 416.2305 416.4769
   417.2210 418.0380 418.2006 418.8069 418.8589 419.0735 419.2802 419.3440
   419.5615 419.6243 419.7676 419.7815 419.8697 419.9376 420.1978 420.2310
   420.3428 420.3622 420.6268 420.8576 421.2711 421.6055 421.7276 422.0971
   422.1504 422.3000 422.4852 423.2156 423.2300 423.6382 424.2105 424.3672
   424.7005 424.8442 425.0298 425.1420 425.3290 425.3320 425.8568 426.0918
   426.3504 426.5818 426.5977 427.4717 427.8858 428.1114 428.8208 428.8800
   429.3442 429.6984 429.9025 430.3979 431.0351 431.1169 431.2034 431.2968
   431.3002 431.4151 431.7623 432.5852 432.9253 433.3367 433.4449 433.6487
   433.8322 433.8560 434.0485 434.5899 435.1576 435.1851 435.8096 435.8147
   436.0729 436.2977 436.4336 436.5735 436.8132 437.1317 437.9507 438.2146
   438.3439 438.5958 438.6944 439.2500 439.5194 439.6716 439.7790 440.1171
   440.5393 440.5843 440.6105 440.7561 442.4019 442.5979 443.1872 444.3116
   444.8569 445.0545 445.4012 445.7129 445.7578 445.9801 446.4450 446.7361
   447.0686 447.1751 447.2120 447.7779 447.9218 448.0186 448.0240 448.2084
   448.2580 448.5712 448.7497 448.9343 449.2320 449.4354 449.4420 449.7312
   450.1982 450.4567 450.7233 450.8402 451.0218 451.0798 451.1163 451.2963
   451.6626 452.1621 452.3099 452.4422 452.4914 453.5133 453.8806 453.9232
   454.8148 455.1885 455.6411 455.8897 456.1510 456.5024 456.6041 457.0332
   457.4469 457.5109 457.8700 457.9216 458.0183 458.4959 458.5386 458.5949
   459.3673 460.3604 460.6978 461.3327 461.7065 461.9512 462.1258 462.5191
   462.5619 462.6226 462.8274 462.9874 463.4068 463.4584 463.6107 464.1825
   464.4266 464.6231 464.6333 464.9040 464.9843 465.2492 465.4238 465.4870
   465.5808 465.7368 465.8573 466.4592 466.5222 466.7550 466.8840 467.0658
   467.1221 467.4877 467.5928 468.1594 468.5897 469.7119 469.8506 469.8674
   470.3781 471.5060 471.6725 471.8146 472.0738 473.2749 473.6716 473.7871
   473.9127 474.0850 474.1495 474.7173 475.0299 475.3779 475.7901 476.1880
   476.7169 476.8433 477.1877 477.2225 477.4423 478.2908 478.4240 478.6280
   478.7362 479.1516 479.2761 479.3789 479.4831 480.4610 480.6766 480.8856
   481.3213 481.3289 482.2270 482.5163 482.9086 482.9353 483.1132 483.6907
   483.7438 483.9497 484.3013 484.4245 484.8228 485.2213 485.3046 485.9826
   486.1503 486.3041 486.4169 486.8000 486.8305 487.0691 487.0892 487.2247
   487.3322 487.3816 487.4619 487.4859 487.7123 488.0872 488.1702 488.6018
   489.0156 489.0486 489.2766 489.3112 489.9014 489.9202 490.0401 490.1978

          k = 0.0000-1.0000 0.0000 (  2650 PWs)   bands (ev):

    -8.2163  -8.0831  -8.0831  -8.0769  -8.0455  -3.5053  -0.0039   4.0780
     4.0780   8.1342   8.2516  16.3461  16.3461  17.0998  19.3751  19.7571
    19.7571  19.9227  21.7099  25.6522  25.9895  25.9895  26.0291  26.1440
    26.4079  26.4079  27.7432  34.7132  35.0772  35.0772  36.5490  38.5571
    38.5571  39.6861  39.7248  40.4416  41.6695  42.2243  42.4946  42.4946
    44.1310  45.5012  45.5012  45.6294  46.4712  53.0014  53.0014  53.3683
    53.5728  53.5728  53.7087  56.4440  58.5065  59.2152  59.5667  60.1725
    60.4659  60.4659  60.6599  60.6599  60.7508  61.2659  61.2659  62.3906
    62.8277  62.8277  62.8847  64.9634  66.2537  71.3547  71.6113  71.7072
    71.7072  73.1582  73.1582  74.3599  74.3851  74.3851  74.9344  75.0996
    75.0996  75.6572  75.7939  76.0595  76.0789  77.8871  77.8871  78.1758
    78.4461  79.5669  80.7476  80.7476  80.8125  80.8719  80.8719  82.7098
    84.2012  88.9740  88.9740  89.8031  89.9920  90.8941  90.8941  91.2704
    91.3137  92.2087  92.2087  92.5351  92.7196  92.8952  92.8952  93.3138
    95.3397  97.8703  98.4585  98.6937  98.9847  98.9847  99.1246  99.1246
   102.1061 103.0982 103.8996 104.1666 106.5211 106.5211 107.1938 107.1938
   109.6502 110.1280 111.3148 111.3148 112.1433 112.8236 112.9353 113.2724
   113.2724 113.3765 113.5098 113.8526 114.4099 114.8472 114.9213 114.9213
   115.2155 115.2155 115.9926 116.1288 116.1288 116.5156 116.6677 116.6677
   116.9713 117.1284 119.3159 121.4363 124.2331 124.2331 124.5840 125.5349
   125.5624 125.5624 125.8882 126.1659 126.9021 127.4171 127.4171 127.5501
   128.3063 128.6873 128.6873 129.0717 129.0717 129.9286 130.0991 130.0991
   130.9145 130.9668 131.0270 132.4766 133.2590 133.2590 133.2731 133.3231
   133.6125 133.9300 133.9300 134.1043 134.4782 134.4782 134.4855 135.0380
   135.0380 135.8859 137.7109 137.7641 139.7597 140.0771 140.0771 142.1140
   142.1140 142.8400 144.1963 144.5345 144.6162 144.6162 145.7126 146.2343
   146.2343 146.5991 148.9162 150.1690 150.3811 150.3811 150.4049 150.8300
   151.5569 151.5569 151.6726 152.0634 152.6168 152.6168 152.7815 153.7409
   153.7409 153.7746 153.9454 160.6945 160.9117 162.4050 162.4050 163.2352
   163.6481 163.7617 163.7617 163.7719 164.2212 164.5451 164.6890 164.6890
   164.8428 166.2981 166.2981 166.8394 166.8816 166.9703 167.2767 167.2767
   167.7347 167.8418 168.3081 168.4067 168.4067 169.2630 169.5716 169.5716
   169.7004 169.7004 170.7280 173.6971 174.1343 174.2957 174.2957 174.5773
   175.8165 175.8165 176.8482 179.0339 179.7508 180.0500 180.1007 180.1007
   180.4580 181.0537 181.0537 181.2612 181.3706 181.3706 181.4095 181.6701
   181.9992 182.0534 182.0787 182.0787 182.4801 182.5158 182.5159 182.8541
   183.4355 183.4355 183.4856 183.7625 183.7625 184.4520 185.3062 185.8842
   187.3955 187.3955 187.5767 187.8247 187.8247 187.8478 187.8920 187.9012
   188.5088 188.5088 189.4063 193.4759 193.6843 193.7431 193.7431 194.8278
   196.0764 196.0764 196.9107 199.0293 199.1005 199.1005 199.1396 199.1910
   199.3730 199.3730 200.2154 200.8440 200.9011 201.5371 201.5371 201.7123
   201.7123 201.9668 202.4570 202.4904 202.6722 203.5283 203.5283 204.3968
   206.1027 206.1027 206.7844 206.9374 207.0327 207.2425 207.2425 207.3368
   207.3368 207.6982 207.7892 210.8549 211.3578 211.9983 211.9983 212.4157
   212.9306 213.1752 213.1752 214.0419 214.0734 214.0734 215.1635 215.4185
   215.4185 215.4729 216.6948 217.0936 217.3238 217.3238 217.6531 218.2788
   218.3631 219.9982 219.9982 220.0255 220.6810 220.6997 221.5590 221.6089
   221.6089 221.7706 222.1885 222.1885 223.5858 223.9667 224.4840 224.4992
   224.4992 225.3537 225.3960 225.4152 225.4152 225.4905 226.1973 226.1973
   227.4228 227.4228 227.9116 227.9137 229.3368 232.7468 232.8981 234.1382
   234.1383 234.8111 234.9434 234.9434 234.9565 234.9805 234.9805 235.2643
   235.9138 236.0467 236.0467 237.3306 237.3489 237.3489 237.6323 238.0427
   238.2316 238.6490 238.6680 238.6680 238.7296 238.7752 238.7752 239.3228
   239.3319 239.3593 239.3593 239.5653 240.0324 240.1085 240.1085 240.2913
   240.4866 240.5369 240.5369 241.4376 241.5508 242.2305 242.2305 242.4155
   242.8272 242.8272 243.0365 243.3021 243.9663 243.9663 244.4817 245.8845
   246.6904 251.5010 251.7460 251.7460 252.1348 252.7709 253.1461 253.7418
   253.7418 254.7994 254.7994 255.7719 256.0068 256.1553 256.3281 256.3281
   256.4272 258.7808 258.7808 258.7951 258.8508 258.8508 259.1877 260.2291
   260.2705 262.5893 262.9886 263.2058 263.2058 263.5027 263.5027 263.5898
   264.2652 266.4228 266.4228 266.7353 266.7871 267.4579 267.6241 267.6241
   268.5704 269.1213 269.1213 269.7325 269.9501 270.6654 270.6654 271.1723
   272.5781 272.6678 272.6678 272.6790 272.9408 273.9285 275.0264 275.6100
   275.6100 277.1312 277.3602 277.5065 277.5065 277.5443 277.6592 277.6592
   278.2844 278.2844 278.3361 278.3939 278.3939 278.4905 278.5032 278.5648
   279.2243 279.3047 279.3047 279.3646 279.6312 280.9675 280.9675 281.3330
   281.7665 286.1141 286.4960 286.7193 286.8206 286.8206 287.0634 287.2245
   287.2245 287.5867 287.5867 288.0168 288.1098 288.1628 288.4599 288.4599
   288.7057 288.7151 288.8921 288.9340 289.0178 289.9914 289.9914 290.5040
   290.5040 290.6337 291.7102 291.7102 291.8200 291.8200 291.8700 292.0394
   292.1741 293.3836 293.5355 293.5355 293.5500 293.6776 293.7560 294.0061
   294.1640 295.5950 295.5950 295.9505 296.0138 296.0138 296.2828 296.3847
   296.4323 296.4323 296.5368 296.5368 297.1754 297.2718 297.3575 297.4811
   297.4959 297.4959 297.5666 297.5666 297.9778 299.1549 299.9536 299.9536
   301.1744 302.4268 302.5244 302.5244 303.0220 303.1580 305.2498 306.0796
   306.0796 306.7267 306.7292 307.2913 307.2913 307.9298 307.9462 307.9489
   307.9489 307.9664 308.1550 308.1550 308.1938 308.8571 308.8571 309.3984
   309.3984 309.4264 309.4767 309.4767 309.5311 309.5572 310.6240 310.8071
   312.4910 312.5612 312.5612 313.0115 313.0862 314.8248 315.0432 315.5772
   315.5772 316.0116 316.0335 316.0423 316.0423 316.1267 316.1267 316.2269
   316.9018 317.1451 318.4700 319.2760 319.2760 322.6239 322.6239 324.5683
   325.8418 325.8418 325.9804 326.0885 326.2910 326.3418 326.4941 326.6146
   326.6146 327.9461 328.0925 328.0929 328.2746 328.2992 328.2992 328.4772
   328.4772 328.9707 328.9707 329.0419 329.0690 329.1472 329.1472 329.3130
   329.3130 329.3527 329.4598 330.0568 331.0510 331.9114 331.9114 331.9248
   332.0621 332.0621 333.0087 333.1234 333.1260 333.4631 333.4631 333.8254
   333.9317 334.5560 334.5560 334.6114 334.9538 334.9538 335.8901 336.2700
   338.8565 340.5986 340.7717 340.9627 340.9627 341.0772 342.3616 343.0405
   343.0405 343.0430 343.9103 343.9103 344.4340 344.4340 344.4401 344.6528
   344.6918 344.9754 345.0805 345.0805 346.1382 346.1727 346.4189 346.4189
   346.7588 346.7914 347.0392 347.0392 347.2571 347.4109 347.4109 347.4525
   347.6452 347.6452 347.6668 347.6950 349.0606 349.2385 349.2688 349.2688
   350.3498 351.1713 351.1713 351.1931 351.2104 351.4285 351.4285 354.0801
   355.7938 358.7873 358.8718 358.9312 358.9312 359.2619 360.5369 360.9048
   360.9048 361.5046 361.7046 361.8503 361.8503 362.0536 362.2365 362.2760
   362.5669 362.5669 362.9910 363.1202 363.1202 364.0255 364.0597 364.0597
   364.0909 364.1322 364.9854 364.9854 365.1215 365.3765 365.5726 365.5726
   365.8466 366.3782 366.5090 366.5542 366.5542 366.5823 367.9614 367.9614
   368.0635 368.1597 368.4912 368.4912 368.6041 368.7738 369.9146 369.9146
   370.5262 371.7061 372.0790 372.1908 372.1908 372.6191 373.5715 373.8450
   374.2647 374.2647 375.0589 375.8061 380.0487 380.3365 380.6186 380.6186
   381.1619 381.7324 381.7324 381.7541 381.7541 382.6517 382.6951 382.9945
   382.9945 383.5821 383.7252 383.7921 383.7921 383.8587 383.9298 384.3895
   384.3929 384.3929 384.6478 384.7271 385.0253 385.0253 385.1525 385.1547
   385.1547 385.1900 386.2886 386.2886 386.4505 386.4652 387.0311 387.2220
   387.3456 387.3457 387.3615 387.3615 387.4616 387.4616 389.2778 389.8712
   392.1428 392.1428 392.7028 394.2793 394.5313 394.7743 394.7743 394.9179
   395.0057 395.0178 395.0178 395.1402 395.3471 395.3471 395.4157 395.6263
   395.8627 395.8627 396.2293 396.2293 396.3839 396.3873 396.4747 397.0047
   397.0211 397.0789 397.0790 397.1187 397.1187 397.2834 397.3815 397.5382
   397.8008 397.8008 398.6863 398.6863 399.7448 400.4231 400.5646 400.6141
   400.8828 400.8828 401.2435 401.2538 401.2855 401.2855 401.3726 402.6607
   402.6607 403.1095 403.3206 403.3900 403.5529 403.5673 403.5673 404.2188
   404.2686 404.3008 404.3008 404.3121 404.6039 404.6039 404.7047 404.9821
   405.0273 405.0273 405.3841 405.3841 405.4759 405.5779 406.0131 406.1077
   406.1778 406.1872 406.1872 406.2754 406.2754 406.3579 406.4454 407.1103
   407.1438 407.1438 407.2052 407.2243 407.2243 407.2614 410.7129 411.8172
   411.8172 413.1509 414.0986 414.1772 414.2315 414.2421 414.2421 415.1643
   415.6374 415.6374 415.7975 415.8040 415.8095 415.8095 416.3623 416.9336
   417.2555 419.1928 419.1928 420.4806 420.6897 420.6897 421.0234 421.0234
   421.9277 422.0083 422.1528 422.2468 422.2468 422.3640 422.7889 422.7889
   423.0180 423.2294 423.3419 423.5883 423.5883 423.6738 423.8492 423.8922
   423.9049 423.9049 424.2031 424.2031 424.2129 424.2696 426.3211 426.5717
   429.4412 429.4412 432.5964 432.7625 433.0545 433.0545 433.2616 433.2616
   433.2693 433.7388 434.3046 434.3438 434.3438 434.7611 434.7662 434.9077
   434.9077 434.9244 435.0444 435.6078 436.0072 436.0072 436.0150 436.6463
   436.6463 436.9411 437.0115 437.9977 439.5739 439.6960 439.7136 439.7783
   439.7783 439.8686 439.8686 439.8988 439.9596 440.3382 440.3382 441.0415
   441.0478 441.1674 441.1700 441.1851 441.1851 441.3045 441.3045 441.3658
   441.3658 441.5864 441.5914 441.6019 444.3496 444.3496 446.3039 446.3922
   446.3922 447.9922 448.3947 450.0682 450.0682 450.3362 450.9025 451.5309
   451.5439 451.8081 451.8081 451.8113 451.9078 451.9439 451.9439 452.3352
   452.6181 452.9273 453.3697 453.3697 453.5759 453.6287 453.6287 453.6646
   453.7431 453.7431 453.9077 453.9077 454.4264 454.4430 454.6767 454.9504
   454.9825 455.1474 455.1856 455.4066 455.4066 455.4196 455.5251 455.5251
   455.5918 455.5918 455.6477 455.7441 456.6973 456.7035 456.7206 457.0824
   457.0824 457.1408 457.1408 457.2677 457.4657 457.5163 457.5648 459.5724
   459.7663 459.7663 460.6446 460.6446 460.7325 460.7325 461.3327 461.3362
   461.3362 461.4866 461.6432 464.5523 464.5523 464.7212 466.2554 467.2030
   467.2712 467.3575 467.3575 467.3906 467.4690 467.5425 467.5425 467.6263
   467.6263 467.6364 470.2847 470.3152 470.4249 470.4363 470.4363 470.4669
   471.4297 471.4297 471.6837 471.7126 471.7126 471.7363 472.0775 472.8592
   472.8592 472.9370 474.9794 475.4159 475.4159 476.2807 476.4113 477.2003
   477.2119 477.2119 477.4332 477.4332 477.5595 477.6011 477.7943 477.9326
   477.9326 478.0121 478.0727 478.1271 478.1271 478.1440 478.2143 478.2417
   478.2538 478.2539 482.4626 482.6271 482.6271 482.9540 485.1544 485.3845
   485.7120 485.7120 486.5413 486.5413 487.4129 487.5819 488.7586 488.7586
   488.7588 488.8259 489.4216 489.7834 489.7869 489.7869 489.8223 490.5077
   490.5077 490.5146 490.5215 490.5883 490.6153 490.7261 490.7261 491.0643
   491.1614 491.2090 491.2090 491.2792 491.7576 491.7579 491.7732 491.7770

          k =-0.5000-1.0000 0.0000 (  2656 PWs)   bands (ev):

    -8.2052  -8.0982  -8.0864  -8.0655  -8.0528  -3.4586   0.1626   3.2795
     3.4707  10.9562  11.2702  11.8285  12.6030  17.2350  18.5059  19.5698
    19.9959  23.1080  24.0014  24.0130  24.5203  25.6684  27.0107  27.5081
    28.9747  30.5008  30.8142  32.2786  32.4470  32.9198  33.1955  33.3185
    34.2020  40.2307  40.5370  40.6265  40.9535  44.0312  44.4746  44.7009
    46.2291  48.5698  48.8615  49.5979  50.2740  50.4953  50.8216  50.9957
    51.2006  53.2319  53.7498  54.4981  55.2337  57.6294  58.5294  58.5438
    58.9730  59.6328  59.7011  60.3500  61.2747  64.5551  64.7124  64.7873
    65.3081  65.3410  65.4830  65.7008  65.7301  66.5969  67.2959  68.8908
    69.1816  73.6786  73.9952  74.1532  74.2805  74.7285  74.8777  75.5670
    75.7020  76.0397  76.7922  76.8364  76.9365  77.4099  77.5651  79.1513
    79.8197  80.3439  80.7761  81.2920  82.1230  83.4791  83.6787  83.8792
    85.0045  86.6631  86.8567  86.9276  87.0487  87.6635  87.8625  88.5311
    88.6550  91.2022  91.6668  91.9766  92.6082  93.8414  94.0012  94.5994
    96.1456  99.6558 101.2505 101.3075 101.9234 102.0209 102.6435 102.9961
   103.9045 104.8283 105.4667 105.9699 106.2522 107.0806 107.3461 107.8489
   108.2873 108.2918 109.4919 109.8499 109.9494 110.2944 110.9119 111.0854
   111.2975 112.3561 112.9589 113.5454 113.5727 113.6056 113.9851 114.2448
   114.5123 114.8208 114.8851 115.5065 116.0055 116.2099 119.1406 119.3221
   119.6832 119.7953 120.1141 120.3782 120.4947 120.6018 120.8907 120.9099
   121.9015 122.3486 125.0844 125.1262 125.1883 127.5876 127.9130 128.2357
   128.8920 129.0383 129.0669 129.7956 129.9817 130.0427 130.8361 131.1656
   131.3917 131.4607 131.8761 132.3343 133.0462 133.6169 133.8266 134.0402
   134.7370 134.7619 136.2356 136.7225 138.0522 138.1350 138.3549 138.6192
   139.1230 139.3962 139.5486 139.6052 139.6754 139.7327 140.3691 140.9685
   141.2082 141.2768 142.0244 142.1889 143.9684 144.4825 145.2447 145.7025
   145.7666 145.7985 145.9576 147.4453 147.6434 152.0800 153.2697 153.3657
   153.7616 154.1100 154.2376 154.3031 154.4713 154.7982 155.7636 155.8222
   156.0911 156.6546 156.7869 157.4688 157.4757 157.5385 157.6983 158.5811
   160.6709 161.7281 162.1065 162.5854 162.7209 162.9409 163.0903 163.8965
   164.0128 164.1922 164.4307 164.7141 165.2481 165.5508 165.5932 165.5988
   166.6662 167.1881 167.5328 167.5968 167.9168 168.2730 168.3420 168.3520
   168.4056 172.4117 172.9245 173.4890 173.5291 173.9548 174.3260 174.4694
   174.6148 174.9685 175.0005 175.0985 175.1802 175.5306 175.6049 175.8901
   176.6904 179.4754 179.7046 179.8162 180.4713 180.5111 180.7968 180.9196
   182.3370 182.4528 182.7235 183.0535 185.4179 185.4520 187.8850 188.2359
   188.2814 189.0892 189.1125 189.6442 189.6978 189.9885 190.0327 190.3809
   191.1096 191.1837 191.2162 191.5660 191.6883 191.7493 191.8815 191.9095
   192.3725 192.4927 192.6025 192.6328 192.9233 193.3597 193.5910 193.9318
   194.0274 194.4640 195.1116 195.4138 195.5957 199.0158 199.0209 199.1778
   199.8527 200.0458 200.9225 201.2655 201.3482 201.6511 201.8848 202.0953
   202.1047 202.1892 202.3835 202.7692 203.0479 203.6236 204.8675 205.3040
   205.3627 205.7872 206.1262 206.1972 206.5361 207.0207 207.0636 207.6400
   208.1343 208.5763 208.6009 208.6736 209.9405 210.0272 210.7741 210.7747
   210.8934 211.0809 211.2823 211.5203 212.0263 212.1501 212.4126 212.5175
   212.7784 213.5992 213.9023 214.3864 215.4910 215.8422 215.9599 215.9687
   216.0759 216.8047 217.0692 217.1728 217.3346 218.2923 218.4103 218.6261
   219.0833 221.3845 221.7874 221.9596 222.1278 222.8820 222.9580 223.0266
   223.1422 223.6927 224.0293 224.4007 225.0940 225.2208 225.9835 226.2069
   226.5864 227.6744 227.7423 227.8409 228.6139 228.7231 228.9337 229.4011
   230.6624 234.9283 235.0746 235.0891 235.4402 235.5636 235.5731 236.1048
   236.1774 236.4337 236.8519 236.9999 237.0915 237.3980 237.5058 237.5524
   238.4477 238.6745 239.4969 239.7061 240.0679 240.6296 240.9586 241.6296
   241.6403 242.2208 242.5775 243.4997 243.8577 245.0596 245.0745 246.0459
   246.3078 246.5328 246.6818 246.7251 246.7650 246.7764 246.8232 246.9473
   247.4388 247.7478 247.7920 248.8376 248.9742 249.0074 249.0537 249.2037
   249.3525 250.7315 251.5144 251.7295 251.8769 252.4945 252.7076 253.1524
   253.1823 253.2397 253.4141 253.9088 254.9074 255.0452 255.4466 255.5239
   255.5354 256.8208 256.8279 256.9562 257.9874 260.8121 260.8606 261.2023
   261.3845 261.7868 261.8401 261.8672 262.0376 262.9195 262.9815 263.5781
   264.2168 264.2997 264.3619 264.5920 265.2850 265.5207 265.5366 265.6929
   265.8619 267.1090 267.2081 267.7959 267.9224 268.1550 268.2617 268.9708
   269.2207 271.3700 271.4010 271.7708 271.7950 271.9064 272.0826 272.4342
   272.4985 272.5856 272.9147 272.9895 273.0806 273.2966 273.3088 273.7041
   273.7348 273.8804 274.1872 274.2215 274.4952 277.0688 277.2449 278.2974
   278.3964 280.1623 280.1744 281.6807 282.2977 282.3973 282.5301 282.5861
   283.6007 284.3300 284.5657 284.7266 285.7845 286.1617 286.3752 286.7028
   286.8637 288.5091 288.5456 288.6463 288.9045 289.0500 289.3451 289.6085
   289.7221 290.6153 290.9591 291.2483 291.3741 291.4958 291.7507 291.8675
   291.8927 292.0559 292.3308 292.6912 292.8560 293.1611 293.2608 293.4457
   293.7238 293.8098 293.8541 294.1223 294.1879 294.2855 294.6013 294.9506
   295.4888 296.8945 296.9276 297.0622 297.1564 297.2690 297.3110 297.3471
   297.4723 297.6403 297.9221 298.1486 298.3235 298.3284 298.8826 298.9148
   299.5539 299.8422 299.8768 300.0969 300.1374 300.1976 300.7010 300.7986
   301.3052 302.0653 302.8035 302.8854 303.5647 303.5723 303.6784 303.7575
   303.8478 304.0461 304.0547 304.1386 305.2294 305.5964 305.7927 307.0946
   307.9288 308.8691 309.5785 309.8995 310.4042 310.5445 310.5803 310.6393
   310.8330 311.1034 311.5890 312.2910 312.7451 313.8626 314.1404 314.2134
   314.3078 314.5496 315.4406 316.0590 316.1950 316.2723 316.9600 317.0525
   317.2891 317.4013 317.4541 317.5018 317.5600 317.6340 317.6706 317.8356
   317.9206 318.4942 318.6170 318.8118 318.9058 318.9152 318.9504 318.9808
   320.9713 322.8321 323.5657 323.6243 323.6281 324.9018 325.0559 325.4358
   325.9525 326.1340 326.3014 326.9583 326.9760 327.4336 327.4919 327.6185
   327.8962 327.9398 328.0280 328.1247 328.1801 328.1965 328.2476 328.2630
   328.2736 328.3431 328.3796 328.5037 328.6221 328.6299 328.6839 328.7958
   329.6222 329.7996 330.0339 330.1689 331.3877 332.4505 332.8694 333.3629
   333.6840 336.3449 336.3808 336.3980 336.8791 336.9435 337.9413 338.0164
   338.1358 338.1540 338.1664 338.1835 339.1332 339.2574 339.2578 339.4227
   340.3447 341.8031 342.0959 342.2347 342.3404 342.7338 342.7903 343.1487
   343.8556 343.8933 344.0255 344.9973 345.4942 345.7354 345.9754 346.1242
   346.1247 346.1302 346.1724 346.2666 346.3688 347.0888 347.1082 347.1485
   347.2053 348.1991 348.5830 349.6819 349.7515 353.1918 353.3629 353.6945
   353.9496 354.8380 354.8853 355.2867 356.4932 356.4944 356.5071 357.0984
   358.3930 358.4021 358.4640 358.7168 359.2894 359.6607 359.9059 359.9324
   359.9721 361.2890 361.6130 362.0746 362.2031 362.8237 362.8987 362.9442
   362.9666 363.2179 363.4985 363.6072 364.5600 364.7039 364.7439 365.0041
   365.0093 365.1275 365.3095 365.4877 365.6269 366.2916 367.5660 367.9673
   367.9756 369.9596 370.8350 370.9299 371.0502 371.3756 371.7864 371.8279
   372.0722 372.1116 372.1257 372.1509 372.2310 372.3377 372.5569 372.9740
   373.2010 373.2500 373.3484 373.5316 374.1730 374.5224 374.8534 375.5595
   375.8525 376.4664 376.6096 376.6473 377.8666 378.0495 378.5277 378.8673
   379.1996 379.6341 379.7137 380.3337 380.4291 380.8691 380.8827 380.9828
   381.0622 381.0912 381.5043 381.5361 381.5438 381.5530 381.7582 381.8468
   382.1203 382.4927 382.5649 382.6678 382.7516 382.8088 382.8113 382.8839
   383.3290 383.3373 383.3791 383.5035 383.8284 383.9648 384.0554 384.2863
   384.6887 384.8976 385.1278 385.3353 385.5441 385.6991 385.7206 385.7262
   387.7602 388.5476 388.7929 389.0263 389.0737 389.2038 389.3299 389.3328
   390.4650 390.5046 390.5637 391.3597 391.3663 391.4799 391.5309 391.7690
   391.7775 391.9089 391.9138 392.1202 392.1361 392.1364 392.1820 392.1911
   392.2288 392.3374 392.3469 392.4497 396.2504 396.5138 396.5342 397.2486
   399.0826 400.0423 400.2055 400.3226 400.3603 400.6080 400.6588 400.8415
   401.5088 401.5511 401.7353 401.7647 401.7863 401.9220 401.9335 401.9805
   402.8932 403.3228 403.6854 404.0010 404.0804 405.1380 405.2608 405.3522
   405.8846 405.9597 406.0590 406.5854 406.7803 407.5779 407.8038 407.9320
   407.9457 407.9524 408.2348 408.4406 408.5319 408.5481 408.8197 409.7180
   409.8895 409.9140 410.0161 410.0612 410.1114 410.1306 410.2805 411.6646
   412.6351 412.7250 412.7925 412.8372 413.2448 413.2940 413.2990 413.3702
   413.8955 414.2183 414.6203 414.6382 414.6743 414.7619 414.8690 414.9836
   418.2801 418.4289 418.6900 418.8637 418.9136 419.1913 419.2098 419.3079
   420.2708 421.8696 422.1878 422.4774 423.1512 424.0267 424.0795 424.8397
   424.8766 425.1989 425.2009 425.3330 425.6793 425.6959 425.9397 426.0358
   426.0896 426.0996 426.2270 426.2537 426.2822 426.4996 426.5447 426.7243
   426.8501 426.9453 427.0846 427.2908 427.3787 427.6265 428.0597 428.3924
   429.0366 429.6243 430.0363 430.3356 430.7729 431.0048 431.2027 431.4855
   431.5098 431.5608 431.8258 431.8473 432.2722 432.4309 432.5389 432.6137
   432.9622 434.0988 434.2961 434.7793 435.1096 436.3039 436.3900 436.4611
   436.5246 436.5511 436.7841 436.8467 436.8621 437.0783 437.0796 437.2591
   437.3088 437.5505 437.5960 437.6401 437.7908 437.8288 437.8544 437.8854
   438.1647 438.2005 438.2301 438.2883 439.2477 439.2767 439.4763 439.9059
   440.0177 440.0669 440.0949 440.2277 443.2004 444.4808 444.6745 445.2729
   445.3050 446.2935 446.3471 446.3567 446.4331 446.5299 446.5446 446.6225
   446.6600 447.2150 447.7944 448.7957 448.9476 449.8841 449.9335 449.9409
   450.4758 450.5025 450.9271 450.9529 451.3240 451.6888 451.7119 451.7465
   452.0783 452.4474 452.4973 452.6054 452.6653 453.7046 453.7814 454.1392
   454.9642 455.0145 455.1638 455.1802 455.5756 455.9477 456.3619 456.7231
   457.1957 457.7491 457.9647 458.0436 458.9391 459.2397 459.9711 459.9897
   460.5190 461.7836 462.0882 462.2401 462.2645 462.3174 462.3797 462.4242
   462.5060 462.5204 462.5718 462.6845 463.0324 463.0730 463.1575 463.2892
   463.7795 463.7887 463.8128 463.8635 463.9531 464.0866 464.0875 464.1350
   464.7048 464.7071 464.7550 464.7806 464.7853 465.1668 465.3005 465.3460
   465.4329 465.5447 465.6230 465.6324 465.7481 465.7757 465.8018 465.9675
   470.2686 470.9792 471.3358 471.9108 472.8176 473.1306 473.2457 473.3953
   473.5345 473.7216 473.8986 474.0474 474.1886 474.1922 474.4736 474.9440
   475.2072 475.2081 475.2208 475.2302 478.1098 478.8516 479.3873 480.0942
   480.1905 480.5140 480.8015 481.0300 481.3166 481.6350 481.7699 481.7699
   481.9401 482.0181 482.2207 482.3750 482.4668 482.5126 482.5707 482.7946
   482.9785 483.0390 483.0485 483.1163 483.1269 483.1958 483.2094 483.2117
   484.0240 485.3474 485.5723 485.7375 485.7608 485.8137 485.9647 486.0311
   487.5650 487.6603 487.8161 487.8251 488.4776 488.6909 488.8074 488.8749
   490.4172 491.0079 491.2391 491.5087 491.5540 491.6924 491.7031 491.7495

     the Fermi energy is     6.6365 ev
     (compare with:     6.6837 eV, computed in scf)

     Writing all to output data dir out/mp-2534.save/
 
     init_run     :      0.03s CPU      0.04s WALL (       1 calls)
     electrons    :    594.56s CPU    641.88s WALL (       1 calls)

     Called by init_run:
     wfcinit      :      0.00s CPU      0.00s WALL (       1 calls)
     potinit      :      0.01s CPU      0.01s WALL (       1 calls)
     hinit0       :      0.01s CPU      0.01s WALL (       1 calls)

     Called by electrons:
     c_bands      :    594.56s CPU    641.88s WALL (       1 calls)
     v_of_rho     :      0.01s CPU      0.01s WALL (       1 calls)

     Called by c_bands:
     init_us_2    :      0.00s CPU      0.00s WALL (       8 calls)
     init_us_2:cp :      0.00s CPU      0.00s WALL (       8 calls)
     cegterg      :    576.11s CPU    622.29s WALL (       8 calls)

     Called by *egterg:
     cdiaghg      :    549.47s CPU    595.25s WALL (      41 calls)
     h_psi        :      8.16s CPU      8.52s WALL (      49 calls)
     g_psi        :      0.07s CPU      0.07s WALL (      33 calls)

     Called by h_psi:
     h_psi:calbec :      0.20s CPU      0.22s WALL (      49 calls)
     vloc_psi     :      7.74s CPU      8.08s WALL (      49 calls)
     add_vuspsi   :      0.16s CPU      0.16s WALL (      49 calls)

     General routines
     calbec       :      0.20s CPU      0.22s WALL (      49 calls)
     fft          :      0.00s CPU      0.01s WALL (      10 calls)
     fftw         :      6.91s CPU      7.21s WALL (  102622 calls)
 
     Parallel routines
 
     PWSCF        :   9m55.23s CPU  10m42.91s WALL

 
   This run was terminated on:   1:54:10   5Dec2023            

=------------------------------------------------------------------------------=
   JOB DONE.
=------------------------------------------------------------------------------=
