
     Program PWSCF v.7.1 starts on  5Dec2023 at  2:13:58 

     This program is part of the open-source Quantum ESPRESSO suite
     for quantum simulation of materials; please cite
         "P. Giannozzi et al., J. Phys.:Condens. Matter 21 395502 (2009);
         "P. Giannozzi et al., J. Phys.:Condens. Matter 29 465901 (2017);
         "P. Giannozzi et al., J. Chem. Phys. 152 154105 (2020);
          URL http://www.quantum-espresso.org", 
     in publications or presentations arising from this work. More details at
     http://www.quantum-espresso.org/quote

     Parallel version (MPI), running on    24 processors

     MPI processes distributed on     1 nodes
     121271 MiB available memory on the printing compute node when the environment starts
 
     Reading input from pw_mp-2534_nscf_k690_E62.in
Warning: card &IONS ignored
Warning: card / ignored
Warning: card &CELL ignored
Warning: card / ignored

     Current dimensions of program PWSCF are:
     Max number of different atomic species (ntypx) = 10
     Max number of k-points (npk) =  40000
     Max angular momentum in pseudopotentials (lmaxx) =  4

     Atomic positions and unit cell read from directory:
     out/mp-2534.save/
     Atomic positions from file used, from input discarded
 
 
     K-points division:     npool     =       2
     R & G space division:  proc/nbgrp/npool/nimage =      12
     Subspace diagonalization in iterative solution of the eigenvalue problem:
     one sub-group per band group will be used
     scalapack distributed-memory algorithm (size of sub-group:  3*  3 procs)

 
     Parallelization info
     --------------------
     sticks:   dense  smooth     PW     G-vecs:    dense   smooth      PW
     Min          84      84     25                 1765     1765     289
     Max          85      85     26                 1767     1767     292
     Sum        1015    1015    301                21187    21187    3479
 
     Using Slab Decomposition
 


     bravais-lattice index     =            2
     lattice parameter (alat)  =      10.8663  a.u.
     unit-cell volume          =     320.7608 (a.u.)^3
     number of atoms/cell      =            2
     number of atomic types    =            2
     number of electrons       =        18.00
     number of Kohn-Sham states=         1200
     kinetic-energy cutoff     =      62.0000  Ry
     charge density cutoff     =     248.0000  Ry
     Exchange-correlation= PBE
                           (   1   4   3   4   0   0   0)

     celldm(1)=  10.866269  celldm(2)=   0.000000  celldm(3)=   0.000000
     celldm(4)=   0.000000  celldm(5)=   0.000000  celldm(6)=   0.000000

     crystal axes: (cart. coord. in units of alat)
               a(1) = (  -0.500000   0.000000   0.500000 )  
               a(2) = (   0.000000   0.500000   0.500000 )  
               a(3) = (  -0.500000   0.500000   0.000000 )  

     reciprocal axes: (cart. coord. in units 2 pi/alat)
               b(1) = ( -1.000000 -1.000000  1.000000 )  
               b(2) = (  1.000000  1.000000  1.000000 )  
               b(3) = ( -1.000000  1.000000 -1.000000 )  


     PseudoPot. # 1 for As read from file:
     /usr/scratch4/magr4985/MG/HTDF/pseudo/SG15/As.upf
     MD5 check sum: a2ff92a4799c87c945fff9e6739df4dd
     Pseudo is Norm-conserving, Zval =  5.0
     Generated using ONCVPSP code by D. R. Hamann
     Using radial grid of  602 points,  6 beta functions with: 
                l(1) =   0
                l(2) =   0
                l(3) =   1
                l(4) =   1
                l(5) =   2
                l(6) =   2

     PseudoPot. # 2 for Ga read from file:
     /usr/scratch4/magr4985/MG/HTDF/pseudo/SG15/Ga.upf
     MD5 check sum: 9961a622ff199abf6dfec9a0a10b8555
     Pseudo is Norm-conserving, Zval = 13.0
     Generated using ONCVPSP code by D. R. Hamann
     Using radial grid of  602 points,  6 beta functions with: 
                l(1) =   0
                l(2) =   0
                l(3) =   1
                l(4) =   1
                l(5) =   2
                l(6) =   2

     atomic species   valence    mass     pseudopotential
        As             5.00    74.92160     As( 1.00)
        Ga            13.00    69.72300     Ga( 1.00)

     24 Sym. Ops. (no inversion) found



   Cartesian axes

     site n.     atom                  positions (alat units)
         1           Ga  tau(   1) = (   0.0000000   0.0000000   0.0000000  )
         2           As  tau(   2) = (  -0.2500000   0.2500000   0.2500001  )

     number of k points=    29  Gaussian smearing, width (Ry)=  0.0005
                       cart. coord. in units 2pi/alat
        k(    1) = (   0.0000000   0.0000000   0.0000000), wk =   0.0039062
        k(    2) = (  -0.1250000   0.1250000  -0.1250000), wk =   0.0312500
        k(    3) = (  -0.2500000   0.2500000  -0.2500000), wk =   0.0312500
        k(    4) = (  -0.3750000   0.3750000  -0.3750000), wk =   0.0312500
        k(    5) = (   0.5000000  -0.5000000   0.5000000), wk =   0.0156250
        k(    6) = (   0.0000000   0.2500000   0.0000000), wk =   0.0234375
        k(    7) = (  -0.1250000   0.3750000  -0.1250000), wk =   0.0937500
        k(    8) = (  -0.2500000   0.5000000  -0.2500000), wk =   0.0937500
        k(    9) = (   0.6250000  -0.3750000   0.6250000), wk =   0.0937500
        k(   10) = (   0.5000000  -0.2500000   0.5000000), wk =   0.0937500
        k(   11) = (   0.3750000  -0.1250000   0.3750000), wk =   0.0937500
        k(   12) = (   0.2500000   0.0000000   0.2500000), wk =   0.0468750
        k(   13) = (   0.0000000   0.5000000   0.0000000), wk =   0.0234375
        k(   14) = (  -0.1250000   0.6250000  -0.1250000), wk =   0.0937500
        k(   15) = (   0.7500000  -0.2500000   0.7500000), wk =   0.0937500
        k(   16) = (   0.6250000  -0.1250000   0.6250000), wk =   0.0937500
        k(   17) = (   0.5000000   0.0000000   0.5000000), wk =   0.0468750
        k(   18) = (   0.0000000   0.7500000   0.0000000), wk =   0.0234375
        k(   19) = (   0.8750000  -0.1250000   0.8750000), wk =   0.0937500
        k(   20) = (   0.7500000   0.0000000   0.7500000), wk =   0.0468750
        k(   21) = (   0.0000000  -1.0000000   0.0000000), wk =   0.0117188
        k(   22) = (  -0.2500000   0.5000000   0.0000000), wk =   0.0937500
        k(   23) = (   0.6250000  -0.3750000   0.8750000), wk =   0.1875000
        k(   24) = (   0.5000000  -0.2500000   0.7500000), wk =   0.0937500
        k(   25) = (   0.7500000  -0.2500000   1.0000000), wk =   0.0937500
        k(   26) = (   0.6250000  -0.1250000   0.8750000), wk =   0.1875000
        k(   27) = (   0.5000000   0.0000000   0.7500000), wk =   0.0937500
        k(   28) = (  -0.2500000  -1.0000000   0.0000000), wk =   0.0468750
        k(   29) = (  -0.5000000  -1.0000000   0.0000000), wk =   0.0234375

     Dense  grid:    21187 G-vectors     FFT dimensions: (  40,  40,  40)

     Estimated max dynamical RAM per process >     113.89 MB

     Estimated total dynamical RAM >       2.67 GB

     The potential is recalculated from file :
     out/mp-2534.save/charge-density

     Starting wfcs are random

     Band Structure Calculation
     Davidson diagonalization with overlap

     ethr =  5.00E-06,  avg # of iterations =  4.1

     total cpu time spent up to now is      759.6 secs

     End of band structure calculation

          k = 0.0000 0.0000 0.0000 (  2685 PWs)   bands (ev):

    -8.1237  -8.1237  -8.1237  -8.0563  -8.0563  -5.7871   6.5787   6.5787
     6.5787   6.7138  10.2990  10.2990  10.2990  14.0207  16.6138  16.6138
    18.0340  18.0340  18.0340  20.8971  31.2609  31.2609  31.2609  32.4938
    32.4938  32.4938  33.1369  33.1369  33.1369  33.7384  33.7384  40.3952
    45.2061  45.2061  45.2061  45.8957  45.8957  45.9246  45.9750  45.9750
    45.9750  46.2630  46.2630  46.2630  47.2746  47.2746  47.2746  47.9778
    47.9778  47.9778  48.7008  48.7008  48.7008  48.7897  48.7897  51.7524
    54.3633  54.3633  54.3633  54.4824  54.4824  54.4824  56.3492  59.3757
    69.6853  69.6853  69.6853  70.4444  70.4444  71.7691  75.0830  75.0830
    75.0830  78.6641  78.6641  78.6641  79.4191  79.4191  81.1371  81.1371
    81.1371  81.4626  81.4626  81.4626  82.9647  83.2957  83.2957  83.2957
    83.5810  83.5810  85.0543  85.0543  85.0543  86.5540  86.5540  86.5540
    87.4299  87.4299  87.5240  87.5240  87.5240  88.4395  88.8151  88.8151
    88.8151  90.2206  90.6372  90.6372  90.6372  91.2048  91.2048  91.2048
    91.4967  91.4967  91.8936  91.8936  91.8936  96.3245  99.2882 101.7241
   101.7241 101.7241 103.5666 103.5666 103.5666 103.9649 103.9649 103.9649
   104.5402 104.5402 104.5402 106.1545 106.1545 106.2775 106.2775 106.2775
   106.6277 106.6277 109.7324 109.7324 109.7324 110.3574 113.9501 116.7421
   116.7421 116.7421 117.5162 117.5162 118.0371 118.4615 118.4615 118.4615
   119.1831 119.9812 119.9812 119.9812 120.0965 120.0965 120.0965 120.1117
   120.1117 120.1117 121.2777 121.2777 121.2777 121.3151 121.3151 122.1106
   122.1106 122.1106 122.7330 122.7330 122.7330 130.6329 133.5561 134.0058
   134.0058 134.0058 136.8130 136.8130 137.5210 137.5210 137.5210 142.3521
   142.3521 142.3521 145.3730 145.3730 145.3730 146.2238 149.0082 149.0082
   149.0082 149.1522 149.1522 149.7747 150.1416 150.1416 150.1416 151.3130
   151.3130 151.3130 151.3883 151.3883 151.3883 152.7681 152.7681 153.9716
   153.9716 153.9716 154.0520 154.0520 154.0520 154.5136 154.5136 154.5136
   155.1460 155.1460 155.8613 155.8613 155.8613 156.5487 156.5774 156.5774
   156.5774 156.6680 156.8809 156.8809 156.8809 156.9687 156.9687 157.2339
   157.2339 157.2339 157.6207 157.9597 159.3686 159.3686 159.3686 159.8942
   159.9187 159.9187 160.4530 160.4530 160.4530 161.9320 161.9320 161.9320
   162.3906 162.3906 162.3906 162.6600 162.6600 162.6600 162.7805 162.7805
   162.9633 162.9633 162.9633 163.1088 163.1088 163.1088 163.4591 163.4591
   172.0357 173.4674 173.4674 173.4674 175.7387 175.7387 177.3412 177.3412
   177.3412 177.3747 177.3747 177.3747 177.8130 177.8130 177.8130 178.3016
   178.3016 178.3016 180.4144 180.4144 180.4144 180.4245 180.4245 180.4635
   181.1369 182.6789 183.2372 183.2372 183.2372 187.8308 187.8308 187.8308
   188.0205 188.0205 188.0205 188.1892 188.1892 188.1892 188.4118 188.4118
   188.4118 189.1841 189.1841 189.9142 189.9142 189.9142 191.9123 191.9123
   193.3155 195.1537 195.1537 195.1537 196.2616 196.2616 196.2616 196.6580
   196.9649 196.9649 196.9649 197.0176 197.0176 197.0176 197.4797 197.4797
   197.8313 197.8313 197.8313 198.2605 198.2605 198.2605 199.1657 199.1657
   211.8195 211.9732 211.9732 211.9732 212.0315 212.9683 212.9683 212.9683
   215.8463 215.8463 215.8463 216.1231 216.1231 216.9973 216.9973 216.9973
   217.4173 217.7760 217.7760 217.7760 221.4324 221.4324 221.4324 221.4352
   221.4352 221.9768 222.7594 222.7594 222.7594 223.2610 223.2610 223.2610
   223.7466 224.0311 224.0311 224.9965 224.9965 224.9965 225.3121 227.4850
   227.4850 227.4850 227.9120 227.9120 227.9120 228.1787 228.1787 228.1787
   228.4926 228.4926 228.4926 230.2338 230.2338 230.2338 231.7342 231.7342
   232.2349 232.2349 232.2349 232.2443 232.2900 232.2900 232.2900 232.4021
   232.4021 232.4021 233.8909 233.8909 234.3820 234.6711 234.6711 234.6711
   235.0267 235.0267 235.0267 235.8168 235.8168 235.8168 235.9194 235.9194
   240.3755 240.3755 240.3755 240.6020 241.4777 243.9430 243.9430 243.9430
   244.0544 244.0544 244.0544 244.2740 244.2740 244.2740 244.5578 244.5578
   244.5578 245.6398 245.6398 247.8116 247.8116 247.8116 248.6548 248.6548
   249.7261 249.7261 249.7447 249.7447 249.7447 249.7588 249.7588 249.7588
   250.0732 250.0732 250.0732 250.9145 250.9145 250.9145 251.3393 251.6179
   251.6179 252.2552 252.2552 252.2552 252.6995 252.6995 252.6995 253.0021
   256.5119 257.0744 257.0744 257.0744 258.1784 259.9648 259.9648 259.9648
   260.4856 260.4856 261.1011 261.1011 261.1011 261.2130 261.2130 261.2130
   261.3545 261.3545 261.3545 262.2391 262.5848 262.5848 262.5848 263.1200
   263.1200 263.1200 263.5625 264.1752 264.1752 264.1752 264.5686 264.5686
   264.7989 264.7989 264.7989 264.9801 264.9801 264.9801 265.0042 265.0042
   265.0042 265.1723 265.1723 265.3390 265.5634 265.5634 265.5634 265.8090
   265.8090 265.8090 266.0552 266.2561 266.2561 266.2561 266.2767 266.2767
   266.5012 266.5012 266.5012 266.5573 266.5573 266.5573 266.7218 266.7218
   266.7618 266.7618 266.7618 271.9099 271.9099 271.9099 272.2688 272.2688
   284.6973 284.6973 284.6973 284.7989 285.8783 285.8783 292.2666 292.2666
   292.2666 292.3047 292.9724 294.1951 294.1951 294.1951 295.1478 295.1478
   295.1892 295.1892 295.1892 295.3272 295.3272 295.3272 295.4212 295.4212
   295.4212 296.7208 296.7208 296.7208 297.7127 298.7571 298.7571 299.4593
   299.4593 299.4593 301.8074 301.8074 301.8074 302.1340 302.6560 303.8714
   303.8714 303.8714 303.9278 303.9278 304.6438 304.6438 304.6438 304.6612
   304.6612 304.6612 304.7445 304.7445 304.7445 306.5952 306.5952 306.5952
   307.0327 307.0327 307.0327 307.0684 307.0684 307.0877 307.0877 307.0877
   307.1318 307.1318 307.1318 307.4106 307.4106 307.4155 307.4155 307.4155
   307.4432 308.2171 308.2171 308.2171 309.1951 309.1951 314.5044 314.5044
   314.5045 315.1985 315.1985 315.1985 315.4660 316.0863 316.0863 317.7056
   317.7056 317.7056 320.0309 320.0309 320.0309 320.5536 321.5749 321.5749
   321.5749 321.8563 321.8563 321.8563 321.9255 321.9255 321.9255 322.3424
   322.3424 322.3424 322.9110 322.9110 323.4942 323.5567 323.5567 323.5567
   323.5633 323.5633 325.7848 325.7848 325.7848 326.8053 326.8053 326.8053
   326.9797 331.2962 331.2962 331.2962 332.5987 332.9387 332.9387 332.9387
   333.4152 333.4152 333.6915 333.6915 333.6915 333.9405 333.9405 333.9405
   334.3063 334.7165 334.7165 335.2611 335.2611 335.2611 335.4241 335.5824
   335.6212 335.6212 335.6212 335.6574 335.6574 335.6574 335.7133 335.7133
   335.7133 335.7607 335.7607 337.2632 337.2632 337.2632 337.2817 337.2817
   337.2817 337.3205 337.3205 337.3205 337.3797 340.0062 340.0062 340.5210
   340.5210 340.5210 341.9369 341.9369 341.9369 342.2760 342.2760 342.2760
   342.4110 343.3330 343.3330 343.3330 343.3669 343.3669 343.4968 343.4968
   343.4968 343.6342 343.6342 343.6342 343.6941 345.9982 345.9982 349.8696
   349.8696 349.8696 357.7029 357.9162 357.9162 357.9162 358.3055 358.3055
   358.3513 358.3513 358.3513 358.3994 358.3994 358.3994 358.6151 358.6151
   358.6151 358.9037 358.9399 358.9399 358.9399 359.0538 359.0538 359.5310
   359.5310 359.5310 362.0157 362.6985 362.6985 362.6985 363.2321 364.5975
   364.5975 364.5975 365.0979 365.0979 365.0979 365.3556 365.3556 365.3556
   365.6080 365.6080 365.6080 365.8650 365.8650 366.9798 367.7807 367.7807
   367.7807 367.8555 367.8555 368.4036 368.4036 369.9409 369.9409 369.9409
   370.3252 370.4177 370.4177 370.4177 371.2841 371.2841 371.2841 371.3771
   371.3771 371.3771 371.5448 371.5448 371.8851 371.8851 371.8851 371.9638
   371.9638 371.9649 371.9649 371.9649 373.3676 373.6181 373.6181 373.6181
   373.6271 373.6271 373.6271 373.9148 373.9148 373.9148 374.0711 374.0711
   374.0711 374.2339 374.2765 374.2765 374.2765 374.5195 374.5195 374.5195
   375.4102 375.8290 375.8290 376.0282 376.0282 376.0282 376.0375 377.1102
   377.1102 377.1102 377.2367 377.2367 377.2367 377.4476 377.4476 377.4476
   377.4550 377.4550 377.4550 377.4981 377.4981 379.3673 379.3673 379.5324
   379.5324 379.5324 379.8969 379.8969 379.8969 379.9029 380.1015 380.1015
   380.1015 380.1671 380.1671 380.1671 380.4453 380.4453 380.4453 380.5234
   380.5234 380.7595 380.7595 380.7595 380.9086 385.8294 385.8294 385.8294
   390.0340 390.1628 390.3352 390.3352 390.3352 393.0092 393.0092 396.8722
   396.8722 396.8722 397.1473 397.1473 397.1514 397.1514 397.1514 397.1616
   397.1616 397.1616 397.1667 397.1667 397.1667 398.0301 398.0301 401.6235
   401.6235 401.6235 404.6104 404.6837 404.6837 405.2806 405.2806 405.2806
   405.7042 405.7042 405.7042 405.7157 405.7157 405.7157 405.7364 405.7364
   405.7364 406.9178 406.9744 406.9744 406.9744 408.9513 408.9513 408.9513
   410.2003 410.2003 410.2117 410.2117 410.2117 410.2372 410.5776 410.5776
   410.5776 410.5901 410.5901 410.5901 410.5982 410.5982 410.5982 411.0484
   411.0484 411.0878 411.0890 411.0890 411.0890 414.7502 414.7502 414.7502
   421.1674 421.1674 426.5078 426.7603 427.4325 427.4325 427.4325 427.7967
   427.7967 427.7967 427.8806 427.8806 427.8921 427.8921 427.8921 428.0590
   428.0590 428.0590 428.2520 428.2520 428.2520 429.4246 429.4246 429.4246
   430.9619 430.9619 433.6087 433.6087 433.6087 433.8899 435.0087 435.0087
   435.0087 436.0109 436.0109 436.0109 436.0457 436.0457 438.9058 439.6521
   439.6944 439.6944 439.6944 439.9200 439.9200 439.9200 440.8029 440.8029
   440.8029 441.3890 441.5769 441.5769 441.5769 442.3363 442.3363 443.7308
   443.7308 443.8686 443.8686 443.8686 444.0376 444.0376 444.0376 444.1544
   444.1544 444.1544 444.2455 444.2455 444.2455 444.7646 445.2414 445.2414
   445.2414 445.4598 445.4598 445.4598 445.4976 447.3767 447.3767 447.4747
   447.4747 447.5800 447.5800 447.5800 447.7004 447.7004 447.7004 447.7124
   447.7124 447.7124 447.7382 447.7382 447.7382 448.3963 448.3963 448.7005
   448.8199 448.8199 448.8199 450.0018 450.1245 450.1245 450.1245 450.1422
   450.1422 450.2349 450.2349 450.2349 450.3313 450.3313 450.3313 452.5043
   452.5043 452.5043 452.6170 452.6170 453.0233 453.0233 453.0233 453.1039
   453.1258 453.1258 453.1258 455.4744 455.4744 458.2309 458.2309 458.2309
   461.0298 461.5555 461.5555 461.5555 462.2595 462.2595 462.2694 462.2694
   462.2694 462.9479 463.1512 463.1512 463.1512 463.9226 463.9226 463.9226
   463.9457 463.9457 463.9457 463.9515 463.9515 464.1666 464.1666 464.1666
   464.2390 466.0103 466.0103 466.0103 466.1729 466.1729 466.1729 466.3793
   466.4033 466.4033 466.4033 466.4584 466.4584 467.8696 467.8696 467.8696
   468.2604 468.2604 468.2604 468.3041 468.3041 468.3041 468.5239 468.5239
   468.5239 469.0554 469.0554 469.0588 469.0588 469.0588 469.1218 469.1218
   469.1218 469.1666 469.1666 469.1666 469.2080 471.1010 471.1010 471.1481
   471.1481 471.1481 471.2189 472.9833 472.9833 472.9833 473.5194 473.5194
   478.5498 479.2538 479.5561 479.5561 479.5561 479.6380 479.6380 479.6380
   479.8664 479.8664 479.8664 480.1334 480.1334 480.1611 480.1611 480.1611
   480.3080 480.3080 480.3080 480.4576 480.4576 480.4576 480.6053 480.6053
   480.7284 480.7284 480.7284 481.0324 481.0324 481.0324 481.3587 481.3798
   481.9088 481.9088 481.9088 482.0467 482.0467 482.3161 482.3161 482.3161
   482.4811 482.4811 482.4811 482.5428 482.5428 482.5428 482.6183 482.6184
   482.6184 482.6719 482.9631 483.2329 483.2329 483.2565 483.2565 483.2565

          k =-0.1250 0.1250-0.1250 (  2679 PWs)   bands (ev):

    -8.1342  -8.1208  -8.1208  -8.0565  -8.0565  -5.6182   4.5813   6.3615
     6.3615   7.9264  10.6247  10.6247  10.6795  14.9281  15.7983  15.7983
    17.3798  19.5388  19.5388  22.2803  28.3443  28.5907  28.5907  32.0454
    32.0454  33.2512  33.2512  33.2965  34.7984  37.4252  37.4252  40.2232
    41.6220  41.6220  41.9436  43.3964  43.3964  44.3107  44.3107  44.4433
    44.8606  46.2752  46.5835  46.5835  47.4551  47.8499  47.8499  49.1564
    49.5582  49.5582  50.5342  50.5342  50.6697  51.5839  52.6287  52.6287
    53.2661  53.6290  53.6290  56.1745  56.9913  56.9913  59.4766  61.9734
    65.9573  65.9573  66.4753  71.0375  71.0375  74.5139  74.5139  74.7784
    74.8423  75.4996  76.2615  76.2615  78.6421  78.6421  78.8822  79.3575
    79.3575  80.9765  81.0861  81.0861  81.3777  82.4946  83.6037  83.6037
    83.9958  83.9958  84.0001  84.7618  84.7618  85.4580  85.4580  86.3447
    87.1382  87.1382  87.2700  88.0844  88.0844  88.2645  88.3803  89.8183
    89.8183  91.9603  91.9603  92.0117  92.0340  92.8399  92.8399  94.0717
    94.2093  94.2093  96.0183  96.1019  96.1019  96.1948  98.1209  98.1209
    98.5053 100.0166 100.0355 100.0355 100.7971 101.7819 101.7819 104.8481
   104.8857 104.8857 106.5049 106.5049 107.1018 108.2439 108.2439 108.9383
   108.9610 109.8835 110.8455 110.9229 110.9229 111.9246 111.9246 113.8973
   114.1779 114.1779 114.6620 114.6620 114.6904 115.6198 115.6198 115.7430
   116.5541 116.7984 116.7984 118.2887 118.2887 120.2299 120.5666 122.2187
   122.2187 122.9697 124.3362 124.3362 125.4209 125.4209 125.7981 126.6292
   126.6292 126.7345 127.5834 127.5834 128.4648 128.4648 128.8136 131.9464
   134.0592 134.0612 135.3301 137.1720 137.1720 139.2581 139.2581 140.0422
   140.0422 140.6882 143.2376 143.2376 143.6928 143.7417 144.9938 144.9938
   145.8724 145.8724 146.8112 147.1780 147.1780 147.3566 148.3903 148.4849
   149.9124 149.9124 150.0220 150.1640 150.1640 150.7404 151.3874 151.3874
   151.7475 151.7475 152.2777 152.2777 152.6517 153.2252 153.3218 153.3218
   153.4532 154.3969 154.6454 154.6454 155.2798 155.2798 155.5499 155.9679
   156.0200 156.0200 156.7790 156.7790 156.9857 157.6941 157.6941 159.1459
   159.2818 159.2818 160.0739 160.0739 160.1705 160.9297 161.0950 161.0998
   161.0998 161.7005 161.7163 161.7163 163.3738 163.3738 163.4925 164.2850
   164.2850 164.9360 164.9844 164.9844 165.3207 165.3207 165.5641 166.5494
   166.7084 166.7084 167.4555 168.1111 168.1111 169.1174 169.3527 169.3527
   169.6648 170.2419 170.3272 170.3272 172.2332 172.6873 172.6873 173.8812
   173.9055 173.9055 175.0842 175.1946 175.1946 177.0729 177.0729 177.7938
   179.4005 179.8680 179.8680 180.6599 180.6599 182.4536 183.0887 183.3839
   183.3839 183.9197 183.9197 184.4693 185.2062 185.2062 185.4135 185.8206
   185.8206 186.5206 187.1612 187.6791 187.6791 188.5664 188.5664 188.6430
   188.8047 188.8047 190.3058 190.8695 191.0205 191.0205 191.2323 191.2323
   191.5167 192.9243 192.9243 194.5131 195.7557 195.7557 195.7621 196.7705
   196.7705 196.7975 198.1213 198.8459 198.8459 200.0090 201.2095 201.2095
   202.6967 203.2837 203.2837 203.5960 204.0455 204.0455 205.2478 205.2478
   206.4514 207.6390 208.1306 208.9637 208.9637 209.3044 209.3044 213.0691
   213.0691 213.1989 213.9371 213.9371 214.0765 215.7061 215.8082 215.8082
   216.1246 216.7101 216.7101 216.7673 218.3551 218.3551 218.6296 219.5358
   219.5358 219.7940 220.6799 220.6799 221.4973 221.4973 221.6051 221.8698
   222.1869 222.1869 223.2889 223.4949 223.4949 223.5566 224.1273 224.1273
   224.8818 226.0762 227.1396 227.1396 227.8117 227.8117 227.8128 229.0719
   229.2132 229.2132 230.9504 231.3276 231.3276 231.6125 231.6494 231.6494
   231.7739 232.1259 232.1259 232.5600 233.9542 233.9542 234.1932 234.9291
   234.9291 235.1936 235.7062 235.7062 236.1354 236.2842 236.2842 236.7435
   236.7435 237.0038 237.0784 237.2393 237.2393 237.5890 237.5890 237.7048
   238.2750 239.4105 239.4105 239.4854 240.6663 240.6663 242.2973 242.3725
   242.3725 243.0125 243.6571 243.8109 243.8109 244.4244 244.7207 244.7207
   245.4261 245.4261 245.5671 246.3843 246.5489 246.5489 246.8331 246.8331
   248.4740 248.5435 248.6569 248.6569 249.5373 249.5373 249.7982 250.1151
   250.1151 250.5606 250.6146 251.2585 251.2718 251.2718 251.3441 251.3441
   252.6321 252.7953 252.7953 252.8591 253.2274 253.2274 253.6669 254.1195
   254.1195 254.9298 255.2597 255.2597 255.9022 255.9022 256.4391 257.0058
   257.2535 257.2535 258.2337 258.2337 258.3374 258.7283 258.7283 258.7709
   259.4030 259.4030 259.6811 259.8883 260.0757 260.0757 260.1680 260.1681
   261.7674 261.8008 261.8008 262.5004 262.6300 262.6300 262.8022 263.1352
   263.1352 264.0803 264.0803 264.2297 265.5985 265.5985 265.8267 266.0648
   267.4717 267.4717 267.5305 268.7213 268.7213 269.0731 269.2016 269.6372
   269.6372 270.2172 270.2172 270.3302 272.0110 272.0110 272.1635 273.3524
   273.3524 273.4234 274.0703 274.0703 274.7663 275.1111 275.1111 275.2483
   275.7699 275.7699 275.9690 276.8009 277.5693 277.5693 278.2909 278.2909
   278.4073 281.0206 281.0206 281.2788 281.9675 281.9675 285.9165 287.6585
   287.7887 288.0375 288.0375 288.5378 288.5378 289.8723 290.7642 290.7642
   291.9325 291.9325 293.3687 293.7533 293.7533 294.1628 294.1972 294.1972
   294.6505 294.8629 294.8629 295.2972 296.2800 296.2800 297.2017 297.2017
   297.2399 298.0492 298.7861 298.7861 299.8069 299.8513 299.8513 300.3090
   300.5035 300.5035 300.9341 301.3451 301.3451 302.6998 303.1458 303.4927
   303.4927 304.3667 304.3667 304.8021 305.3258 305.3258 306.1661 307.4762
   307.4762 307.6443 308.1864 308.1864 308.3790 309.5758 309.5905 309.5905
   310.7329 310.7329 311.9509 311.9509 312.2253 312.3890 312.5805 312.5805
   312.6540 312.7677 312.8305 312.8305 313.6824 313.6824 314.1765 314.2202
   314.4069 314.5561 314.5561 314.9402 314.9402 315.2411 315.4963 315.4963
   316.2718 317.3914 317.3914 317.6165 317.8352 317.8352 317.9872 318.1180
   318.5133 318.5133 319.6450 319.6450 320.4224 321.2578 321.2578 321.7461
   321.8739 321.8739 322.0413 323.2785 323.2785 324.4547 324.6321 324.6321
   325.4578 325.9041 325.9442 325.9442 326.2624 326.2624 327.3923 327.4981
   327.4981 328.0136 328.3379 328.3379 328.6840 329.9250 329.9251 330.8260
   331.1167 331.1167 331.4376 331.7111 331.7252 331.7252 332.6811 332.6811
   332.9029 333.0541 333.0541 333.3409 334.0591 334.0591 334.6220 335.1100
   335.1100 335.8096 335.8096 335.8199 335.8788 336.0985 336.0985 336.7123
   337.1667 337.1667 338.3313 338.3748 338.3748 338.3871 339.0698 339.0698
   340.1773 340.5395 340.5395 341.2437 341.3095 341.3615 341.3615 342.8285
   342.8285 342.8939 344.6452 344.6452 345.1158 345.1158 345.2156 345.2807
   345.3280 345.4768 345.4768 345.8500 346.0820 346.0820 347.5974 347.7922
   347.7922 348.7668 348.7668 348.8453 349.1435 349.1435 349.6957 350.7875
   350.7875 351.7255 351.9865 351.9865 352.9840 353.5168 353.5168 354.3238
   354.3366 354.3863 354.3863 354.7433 354.8384 354.8384 355.2408 355.2408
   355.7507 356.7805 357.1600 357.7064 357.7151 357.7151 358.1627 358.1627
   358.7418 358.7418 359.1482 359.2796 359.2796 360.1312 361.2088 361.2088
   361.2283 362.3057 362.3057 362.7276 362.7666 362.7666 363.2902 363.3838
   363.3838 363.4459 363.4459 363.9079 363.9206 364.1259 364.1259 364.4087
   364.5701 364.5701 365.0791 365.0791 365.1158 365.5798 365.9017 365.9017
   365.9411 366.8377 366.8377 367.0210 367.5072 367.5072 367.8175 368.7832
   368.7832 368.8661 369.4388 369.4388 370.9589 371.2454 371.2454 371.3256
   371.3342 371.5225 371.5225 372.3836 372.3836 372.4291 372.4927 372.5708
   372.5708 372.7013 373.0516 373.0516 373.3289 373.3662 373.3662 374.3347
   375.0240 375.0240 375.1504 375.8804 375.8804 376.1725 376.8908 377.4455
   377.4455 378.2556 378.2556 378.9988 378.9988 379.0172 379.1934 379.3035
   379.3035 379.8986 379.8986 380.1562 380.5408 380.7715 380.7715 381.7318
   381.8078 381.8078 382.2604 382.2604 382.2847 382.8444 382.8444 383.5289
   383.5987 383.5987 384.2239 384.4549 384.5919 384.5919 385.2458 385.2938
   385.2938 385.6632 385.6663 385.6663 387.9600 388.2044 388.2044 388.9168
   388.9168 389.6534 389.6534 390.0128 390.1534 390.5404 390.5404 390.7335
   390.7335 390.8301 391.1617 391.4316 392.1265 392.1265 392.6209 392.6209
   392.8279 393.3063 393.3063 394.1409 394.1409 394.7084 394.9049 394.9652
   394.9652 395.4221 396.2158 396.2158 396.2576 396.3802 396.3802 396.9250
   398.8358 398.8358 399.2924 400.4550 400.9189 400.9189 401.4704 401.4704
   401.5096 401.9064 401.9064 401.9271 403.6721 404.2608 404.2608 405.2008
   405.2011 405.2011 405.5085 407.3017 407.3017 408.2465 408.2465 408.8473
   410.8884 410.8884 411.0991 412.6903 412.6903 413.6025 415.0479 415.3418
   415.3418 415.5773 415.5773 415.8057 416.6817 416.8702 416.8702 417.3244
   417.3244 418.1906 418.1906 418.4036 419.1580 419.7739 419.9388 419.9388
   420.7341 421.3472 421.3472 421.7410 421.7410 421.8860 421.9212 422.2354
   422.2354 423.7087 424.2137 424.2137 425.6274 425.6274 425.6341 426.5550
   426.5550 426.9459 427.6062 427.8163 427.8163 428.2875 428.8352 428.8352
   429.1044 429.1044 430.0363 431.0755 431.0755 432.9717 433.3198 433.8148
   433.8148 433.8719 434.3412 434.3412 434.6105 434.6105 434.8694 434.8694
   435.1580 435.2626 435.4262 435.4262 435.8341 436.1607 436.1607 437.0907
   437.2678 437.2678 437.3445 437.4145 437.4145 437.4809 438.1145 438.7078
   438.7078 439.7104 439.8980 439.8980 441.1632 441.1632 441.1687 441.6318
   441.6318 441.6630 442.2411 442.2411 442.7285 442.8488 442.8488 443.8043
   445.2706 445.2706 445.7458 445.7458 445.7817 446.0653 446.8137 446.8137
   448.0330 448.2573 448.2573 448.9219 448.9219 449.0604 449.5951 449.6427
   449.6485 449.6485 449.6678 449.8232 449.8232 449.9089 449.9089 449.9193
   450.1064 450.1064 450.1834 452.4720 452.4720 452.5972 452.6144 452.6144
   453.4648 453.5036 453.8632 453.8632 454.2036 454.2036 454.4218 454.4704
   454.5656 454.5656 454.6939 454.7046 454.7046 455.5862 455.5862 455.6353
   455.8876 455.9698 455.9698 456.4007 456.4007 456.4809 456.9863 456.9863
   457.3204 457.9693 458.5346 458.5346 459.4621 459.4621 459.7895 459.9083
   460.0196 460.4524 460.4524 460.5289 461.2176 461.2176 461.3119 461.3892
   461.3892 461.8813 461.8813 463.0115 463.3391 463.3391 464.0257 464.0257
   464.3499 464.7839 464.8989 464.9189 464.9279 464.9279 465.1173 465.1173
   465.7589 465.7589 465.9974 466.0972 466.0973 466.1826 466.2738 466.3733
   466.3832 466.3832 466.4682 466.4682 466.6137 466.9300 466.9300 467.1832
   467.1832 467.5168 468.9018 468.9018 469.1018 469.2468 469.2468 469.5583
   470.0296 470.0296 470.4427 470.4427 470.5152 471.0997 471.0997 471.1040
   471.3621 471.6649 471.6649 472.2497 472.4644 472.4644 472.6788 473.0877
   473.0877 473.6162 474.7517 474.7517 475.1318 476.3241 476.3241 476.5673
   476.5673 476.5906 476.8237 477.0821 477.0821 477.1370 477.5594 477.5594
   477.6533 478.1377 478.2290 478.2290 478.9121 478.9209 478.9209 479.1250
   479.1250 479.4067 479.6256 479.6256 479.7545 480.1967 480.2641 480.2641
   480.3838 480.3838 480.4606 481.2303 481.3262 481.3262 481.4189 481.7552
   481.7552 483.2746 483.2746 483.7664 483.9200 483.9200 483.9700 484.2361
   484.2361 484.9814 485.0017 485.2557 485.2557 485.5075 485.5075 485.6622

          k =-0.2500 0.2500-0.2500 (  2650 PWs)   bands (ev):

    -8.1579  -8.1144  -8.1144  -8.0561  -8.0561  -5.1476   2.5349   5.9498
     5.9498   7.8603  11.1252  11.1252  12.2901  15.4552  15.5563  15.5563
    18.2421  22.0596  22.0596  24.7185  25.0163  25.0163  25.3132  32.5006
    32.5006  33.6338  33.6338  33.7410  35.4117  36.8506  37.0535  37.0535
    41.0344  41.0344  41.4320  41.4993  41.4993  42.3769  42.5709  42.5709
    42.7727  45.7630  46.2724  46.2724  46.5838  48.0116  48.0116  48.3846
    52.1283  52.1283  53.0170  53.0170  53.1705  54.7557  54.7557  55.5060
    55.9473  58.8682  59.0446  59.0446  60.4315  60.4315  62.1772  62.2752
    62.2752  63.0713  65.2192  65.2192  68.4075  69.8299  70.8124  70.8124
    73.6945  73.9753  74.0900  74.0900  77.2601  77.5093  77.7195  77.7195
    78.3533  78.3533  79.8369  79.8369  80.3108  81.1109  81.1109  82.1815
    83.1358  84.1428  84.1429  84.5846  84.5846  84.9681  86.5783  86.5783
    87.4004  87.4653  87.4653  87.6952  88.5647  88.5647  89.6344  91.2928
    91.2928  92.3292  94.3070  94.3070  94.5185  94.8845  94.8845  96.1433
    96.3008  96.3008  96.3345  97.6997  97.6997  97.9608  98.5043  98.5043
   100.3132 101.2051 101.2051 101.3829 102.7827 103.4646 104.0591 104.0591
   104.3980 105.3250 105.3250 105.6312 105.6312 105.7217 107.3013 107.3013
   108.2319 108.8159 108.8159 109.7692 110.5726 110.5726 111.0119 112.3879
   113.0615 113.0615 113.4297 114.0375 115.0473 115.0473 115.4150 115.4150
   116.9524 116.9524 118.8407 120.4170 120.4170 120.7999 123.6516 123.6516
   124.0624 126.2079 126.2797 126.2797 128.4326 128.5689 128.5689 130.5636
   130.5636 130.8887 130.8887 131.5164 131.7286 132.7803 132.7803 132.8230
   134.1428 134.4671 134.4671 135.3797 136.1479 136.1479 136.8309 136.8309
   137.2642 137.7668 138.2592 138.2592 138.9246 139.1974 140.0765 140.0765
   141.1090 141.1090 141.3559 142.3225 142.3225 142.6853 144.5410 145.4049
   146.2673 146.2673 147.7691 147.7691 147.8295 148.3902 148.3902 149.0298
   149.5078 149.5078 150.8323 151.3049 151.3049 151.8626 152.7524 152.7524
   152.8409 153.9013 153.9013 155.4641 155.4641 155.7750 156.1956 156.1956
   156.3446 157.5040 158.2118 158.2118 158.9173 158.9173 158.9904 159.0147
   159.7251 160.2183 160.2183 160.9648 161.1776 161.1776 161.6520 161.6520
   161.6871 162.2673 162.2673 162.4018 164.8733 165.2769 165.2769 165.9951
   165.9951 167.3867 167.3867 167.5447 167.7760 167.9301 167.9301 168.5347
   168.9999 168.9999 170.4562 170.5210 170.5210 171.1165 171.3433 171.3433
   171.8766 172.6056 172.8870 172.8870 174.0910 174.0910 174.1019 174.8314
   175.0336 175.0336 175.8726 175.8726 176.6629 176.6629 176.7238 177.0126
   177.8562 177.8562 178.2336 178.6073 178.6073 181.5642 182.7030 183.4995
   183.4995 183.7923 184.8648 184.8648 185.2467 185.5362 185.5362 186.3186
   186.3186 186.3997 187.4629 187.9759 187.9759 188.4270 188.5263 188.5263
   188.6553 189.6117 189.6117 193.6082 194.2296 194.2296 194.6640 194.6640
   194.9754 195.6747 195.6747 196.4884 197.9862 197.9862 197.9892 199.1605
   199.7730 199.7730 200.3400 201.0791 201.0791 201.1641 201.7718 201.7718
   202.3800 203.5615 203.5615 204.9191 204.9884 204.9884 205.8278 205.9366
   205.9366 208.7233 208.8219 209.4213 209.4213 209.8838 209.8966 210.6196
   210.6817 210.6817 210.8198 210.8198 212.2274 212.2274 213.0051 213.0051
   213.3230 213.3656 213.9603 213.9603 214.3198 214.3198 215.2077 215.9838
   216.1416 216.1416 216.4601 216.9839 216.9839 217.7608 217.7608 218.0312
   219.7063 219.7770 219.7770 221.6554 221.6554 222.3469 222.3469 222.5176
   223.4813 223.7147 223.7147 224.3480 224.3480 225.6835 226.2936 227.0659
   227.2739 227.2739 229.8214 229.8214 230.8081 231.0647 231.0970 231.0970
   231.4459 231.4459 231.5054 231.9383 231.9383 232.7846 235.5337 235.6322
   235.6322 236.2999 236.2999 237.7359 237.7359 237.7698 237.9352 238.0960
   238.1698 238.1698 238.6781 238.6781 238.9503 239.0027 239.0027 239.5036
   239.7778 239.7778 240.1296 240.6999 240.6999 241.0136 241.3694 241.4649
   241.4649 241.9151 242.3449 242.3449 242.9552 243.2469 243.2469 243.9496
   244.0524 244.0524 244.2785 245.0875 245.5320 245.5320 245.7983 245.7983
   246.2250 246.5227 246.5227 247.9153 247.9153 248.0544 248.2440 249.1470
   249.1470 250.2413 250.5320 250.5783 250.5783 250.9038 250.9963 250.9963
   252.3100 252.3100 253.4720 253.4720 253.5931 253.8199 254.3847 254.3847
   254.9992 255.4509 255.5990 255.5990 256.6403 256.6403 256.8594 256.9448
   256.9448 256.9682 257.9006 257.9006 258.3240 259.1310 259.4193 259.4193
   259.7390 259.7390 260.1332 260.2044 260.2044 260.2348 261.9708 261.9708
   264.0694 265.4764 265.4764 265.5528 266.5850 266.5850 267.5132 268.1569
   268.2624 268.2624 268.6654 268.6654 268.7827 269.0233 270.2427 270.2427
   270.8532 270.8532 270.8655 272.5687 272.8069 272.8069 273.1200 273.1200
   273.1797 273.6729 273.6729 274.7983 275.7568 275.7568 275.8963 276.2427
   276.2427 276.2506 276.6363 276.6363 277.7612 278.0542 278.0542 280.0276
   280.0276 280.1795 280.2433 280.7904 280.8535 280.8771 280.8771 282.1789
   282.1789 283.1820 283.1820 284.2705 284.2705 284.4302 285.1319 285.2516
   285.2516 285.2800 285.6637 285.6637 287.1897 287.8869 287.8869 287.9308
   288.8415 289.0888 289.0888 290.4511 290.4511 290.5015 291.1448 291.1448
   291.5721 292.3305 292.6507 292.6507 293.4592 293.5741 293.5741 293.9693
   294.2088 294.2088 295.3483 295.4985 295.4985 295.5702 295.7234 295.7234
   296.2691 296.2691 297.0761 298.1649 298.1649 300.3400 301.6449 301.6449
   303.4450 303.7761 303.7761 303.8714 304.1630 304.5174 304.5770 304.5770
   305.0427 305.0427 305.5860 306.5651 306.5651 307.6932 307.9177 307.9607
   307.9607 308.0157 308.0157 308.9396 309.5633 309.5633 311.1490 311.7878
   312.0625 312.0625 312.4851 312.4852 312.5005 312.6843 312.6843 313.3019
   313.9298 313.9298 314.3762 314.4292 314.4292 315.0110 315.1201 315.6439
   315.6439 316.6863 316.6863 317.1660 318.6345 318.6345 319.5464 319.5464
   319.7385 319.7965 320.2446 320.4526 320.4526 321.9694 321.9694 322.0863
   322.3815 322.3815 323.7214 324.1168 324.1168 324.7110 324.7829 325.6092
   325.6092 326.2987 326.2987 326.3991 327.9449 328.3136 328.3136 329.6120
   329.6120 329.7783 330.4281 330.4281 330.8241 331.4174 331.4174 331.6920
   332.1602 332.1602 332.3268 332.5557 332.5557 332.6894 332.7855 333.0049
   333.0049 333.2034 334.6044 334.6044 335.2604 335.2604 335.3717 335.4582
   335.4751 335.4751 337.0829 337.0829 338.2761 338.9412 338.9412 339.4730
   339.4730 339.8253 339.9300 339.9300 340.1733 340.4193 340.4193 340.9884
   341.0045 341.1423 341.5008 341.5008 341.7598 341.7598 342.0460 342.1489
   342.2827 342.2827 343.0892 343.0892 343.2735 343.4759 343.4759 344.8555
   345.2674 345.2674 345.3324 345.7484 345.7484 346.6936 346.6969 346.6969
   347.4315 347.9912 347.9912 348.1668 348.4333 348.4655 348.4655 348.9461
   348.9461 349.2187 349.2752 349.5009 349.5009 349.8421 349.8421 349.9202
   350.3271 350.3271 350.7948 350.9542 350.9542 351.1055 351.3822 351.3822
   351.8840 353.9225 353.9225 354.5685 354.6824 354.9597 354.9597 355.9268
   355.9268 356.0555 356.5772 357.5143 357.5143 357.8286 357.8348 357.8348
   357.8360 358.8434 358.8434 358.8959 360.8898 361.1059 361.1059 361.5531
   361.5531 362.0976 362.1395 362.1395 362.4868 362.4868 363.1460 363.5933
   363.5933 364.5538 365.1816 365.1816 366.0752 366.3346 366.3346 366.4335
   366.7488 366.7488 366.9467 367.0249 367.0249 367.1877 367.5250 367.8529
   367.8529 368.3646 368.3646 368.3732 368.9439 370.7061 370.7061 371.4487
   371.4487 372.0286 372.2532 372.2532 372.4194 372.7976 372.7976 372.8413
   374.8866 374.8866 375.1266 375.6240 375.6240 375.6707 376.9064 377.4368
   377.4368 377.9720 378.3057 378.3057 378.8624 378.9497 378.9497 380.6445
   380.9825 380.9825 381.2077 381.6598 381.6598 381.7325 382.0119 382.0119
   382.9231 383.0311 383.0311 383.7184 384.1359 384.3791 384.3791 384.5076
   385.0125 385.0125 385.3513 385.3513 385.8044 386.4215 386.4215 386.7518
   386.8812 386.9227 386.9227 388.1970 388.1989 388.1989 388.7895 388.7895
   389.0345 389.2587 389.2587 389.9149 390.1766 390.1766 390.3286 391.1117
   392.0396 392.0396 392.1805 392.5626 392.5627 393.1879 393.2380 393.2380
   393.6089 393.6089 393.8100 393.8100 393.8182 393.8899 393.9763 394.5210
   394.5210 395.3937 395.3937 395.7599 395.9784 395.9784 396.0351 397.7020
   397.7020 398.1566 399.4826 400.0837 400.0837 400.1625 400.2931 400.2931
   400.8841 401.6658 401.6659 401.9983 401.9983 402.0335 402.1629 402.1629
   402.3177 403.3633 404.9905 404.9905 405.9449 405.9450 406.4782 406.5907
   406.5907 407.1444 407.8311 407.8311 407.9780 409.1220 409.1220 409.2257
   410.5652 410.5652 410.6649 410.6812 410.9183 410.9183 411.7803 411.7803
   411.9669 413.2113 413.2113 413.8261 413.8261 413.9245 414.6484 414.6484
   414.8318 416.7810 418.7029 418.7029 418.9249 418.9249 418.9841 420.0400
   420.2084 420.2084 422.3516 422.5013 422.5013 422.5335 422.5593 422.5593
   423.8858 424.3491 424.3491 424.4855 424.6466 424.7167 424.7167 425.0629
   425.6900 425.6900 425.8370 426.4801 426.4801 427.0465 427.3121 427.3121
   427.6326 427.6326 427.7603 428.1663 429.0317 429.0317 429.1679 430.5042
   430.5042 431.6505 431.7924 431.7924 432.1411 432.3083 432.3083 432.4138
   432.9482 432.9482 433.4745 434.0473 434.0473 434.4062 434.4062 434.4126
   434.4593 434.4593 434.6350 434.9471 434.9471 435.6255 435.7310 435.7310
   436.8036 436.8036 436.8867 437.2921 437.6933 437.6933 438.0289 439.6347
   439.6347 439.6825 440.3609 440.3609 440.3941 440.9373 440.9373 441.0093
   441.0694 441.2731 441.3883 441.3883 441.8173 442.0324 442.0324 442.6253
   442.6253 443.0812 443.1171 443.1171 444.6532 444.6532 445.6914 446.2167
   446.2167 446.2993 447.0760 447.3526 447.3526 447.9599 448.2026 448.2026
   448.6597 448.7212 448.7371 448.7371 449.2267 449.2267 449.4450 449.4450
   449.4716 449.5116 450.0675 450.0675 450.7399 451.3407 451.3407 451.9190
   452.2255 452.2255 452.3386 452.3609 452.3609 452.4875 452.9603 452.9603
   453.4635 454.5490 454.6367 454.6367 455.0477 455.0477 455.3409 455.6156
   455.7208 455.7208 456.9261 456.9261 457.0732 457.3852 457.3852 457.6910
   457.9652 457.9652 458.0676 459.2001 459.2001 460.1249 460.5444 460.7503
   460.7503 462.5467 462.5467 463.2633 463.3429 463.3429 463.3438 463.3453
   464.2382 464.2382 464.4558 464.4558 464.7981 464.9390 464.9390 465.5500
   465.6278 465.6278 465.7266 465.9421 465.9421 466.0785 466.1333 466.3184
   466.3184 466.6454 466.7084 466.7084 466.8049 466.9532 466.9532 468.5512
   469.0979 469.0979 469.8042 469.8042 470.9527 471.3787 471.3787 471.3943
   471.7088 471.8933 471.8933 471.9646 471.9646 471.9795 472.5827 472.5956
   472.5956 472.7348 472.7348 473.1454 474.8804 474.8804 475.1476 475.1832
   475.1832 475.4099 476.4726 476.4726 476.5448 476.5920 476.8416 476.8416
   477.1758 477.2056 477.2056 477.4789 477.7144 477.7217 477.7217 478.4325
   478.4325 478.8281 478.8281 479.7204 479.8986 480.8773 480.8773 481.2433
   482.5015 482.7157 482.9129 482.9129 482.9638 482.9638 484.4606 484.4606
   485.8245 485.9807 485.9807 486.1276 486.1276 486.7556 486.7556 487.0367
   487.0367 487.3032 487.6184 487.6271 487.6271 488.0095 488.2953 488.6445
   488.6445 488.6885 489.0062 489.1152 489.1152 489.3534 489.3770 489.3770

          k =-0.3750 0.3750-0.3750 (  2638 PWs)   bands (ev):

    -8.1795  -8.1092  -8.1092  -8.0544  -8.0544  -4.5248   0.9037   5.6295
     5.6295   7.5558  11.2359  11.2359  14.0393  15.3577  16.6537  16.6537
    19.8207  21.7214  21.7214  23.4312  25.1980  25.1980  28.3127  31.1604
    32.4816  32.4816  33.2332  33.2332  34.3210  34.3663  34.3663  36.4026
    38.5173  39.3551  39.3551  39.8369  39.8369  40.5586  41.3655  45.3473
    46.1436  46.1436  47.2372  47.2372  47.7758  47.7758  48.3558  50.2272
    53.6492  53.6492  54.7177  56.7118  56.7118  57.9396  58.4575  58.4575
    59.1379  59.1379  59.4891  59.4891  59.8683  60.0596  62.9423  63.4707
    63.6214  63.6214  65.8570  65.8570  66.1383  66.1383  68.2824  68.8233
    68.8233  69.6520  70.0054  72.8647  72.8647  73.0640  75.4494  75.7629
    78.1908  78.1908  79.4724  79.4724  79.8346  80.9383  80.9383  82.7251
    82.7627  83.9168  83.9168  84.5080  84.5080  85.1472  85.1472  85.5194
    86.7934  88.1748  88.1972  88.1972  89.1035  89.2359  89.2359  92.3411
    93.0172  93.0172  93.0239  94.6520  94.6520  94.8389  96.3969  96.3969
    97.0758  97.7303  98.0022  98.0022  98.1988  98.1988  98.6578  99.0093
    99.0093 101.3453 103.5617 104.0614 104.0614 104.3703 104.6159 104.6159
   105.3013 105.3360 105.3360 106.5604 106.5604 107.0676 108.1078 108.1078
   108.8593 109.2772 109.2772 110.8182 111.2545 112.0397 112.0397 112.8506
   113.3705 113.3705 113.6567 113.8295 113.8295 114.0274 114.0274 118.7710
   119.1829 119.1829 119.5188 120.9791 121.6878 121.6878 122.5031 122.5031
   125.1293 125.7402 125.7402 127.1958 128.1171 129.4352 130.0303 130.0303
   130.9267 130.9267 131.0988 131.7414 131.7728 131.7728 132.6005 132.6005
   132.7862 133.0519 133.0519 134.2894 134.2894 135.1692 135.5757 137.0750
   137.0750 137.1292 137.8462 137.8462 138.5361 139.0338 139.3798 139.3798
   139.9443 140.7279 140.7279 142.1804 142.1804 143.3627 143.3627 143.9814
   144.0396 145.0497 145.0497 145.8025 146.6988 146.6988 147.6022 147.8003
   147.8003 149.6581 150.5289 150.9424 150.9424 151.1263 151.1263 151.7596
   152.2950 152.3827 153.3190 153.3409 153.3409 153.5418 153.5418 154.0023
   154.4231 154.4231 155.3424 155.3424 155.5045 155.5045 155.8452 159.1882
   160.1851 160.1851 161.0446 161.7479 161.7479 161.9779 162.9280 162.9280
   163.2075 163.8861 163.8861 163.9053 164.7146 164.7146 164.8473 165.4329
   165.4329 166.3813 166.3813 167.0833 167.6195 167.9527 167.9527 168.5503
   169.4039 169.4039 169.9681 171.2233 171.2233 171.4506 171.9883 172.1695
   172.1695 173.6642 173.6642 174.1231 175.3936 175.3936 175.8551 177.6763
   178.9283 178.9283 179.3009 179.3009 180.1356 180.3026 180.3026 180.3458
   180.7202 181.2436 181.9377 181.9377 183.5684 183.5684 184.2267 184.2267
   184.5465 185.7538 185.7538 185.8701 186.3369 186.7648 186.7648 187.0400
   187.5997 187.5997 188.7305 188.7305 189.4393 190.3110 191.3832 191.3832
   192.4924 193.5845 193.5845 193.9670 194.0986 194.5700 194.5700 195.9290
   195.9290 196.1480 197.1475 197.1475 197.2902 197.8574 197.8574 199.8085
   199.9529 200.4643 200.4643 201.5889 201.5889 201.6987 203.1338 203.1338
   203.2225 203.5946 203.5946 203.8495 204.2182 204.2182 204.5408 205.0960
   205.4894 205.4894 205.7675 205.7675 206.4205 206.4579 206.8925 206.8925
   207.0275 207.5726 207.5726 208.9295 208.9295 209.0034 209.4090 209.4090
   211.3526 211.3526 211.5363 212.6773 212.6773 213.2346 215.2999 216.2409
   216.2409 216.4454 216.7278 216.7278 217.4131 217.7846 218.1393 218.1393
   218.5487 218.5896 218.5896 219.3343 221.1694 221.1694 221.6428 222.2592
   223.1563 223.1564 223.4858 223.4858 224.4555 224.4555 224.9080 226.0816
   226.0816 226.2090 226.5670 226.5670 227.3436 228.1551 228.1551 229.0073
   229.6987 229.6987 230.0030 230.2340 230.2340 231.8200 231.8919 232.1225
   232.1225 232.4493 232.4493 233.1509 234.2251 234.4120 234.4120 234.6943
   234.6943 234.8382 235.6360 235.6360 236.5065 236.7478 237.0416 237.0416
   237.8034 237.8034 240.1193 240.2503 240.2503 241.1175 241.1175 241.2539
   241.3313 242.6702 242.6702 243.6679 244.3692 244.3692 244.9378 246.0421
   246.0421 246.6246 246.6246 246.6691 248.5722 248.7755 248.7755 248.9555
   249.1083 249.4043 249.4043 249.9917 249.9917 250.0616 251.1543 251.2892
   251.2892 251.7491 251.7491 251.9154 251.9157 252.2621 252.2621 253.1570
   253.1570 254.0538 254.0923 254.5151 254.5151 254.9292 255.4132 255.4132
   256.5019 257.1524 257.1524 257.9526 258.0946 258.0946 258.3153 258.3153
   258.3670 258.5826 259.3413 259.3421 259.3421 259.9136 260.8363 260.8363
   261.5273 261.7049 261.7049 262.2028 262.2028 262.4240 263.4840 263.4840
   264.1327 264.1327 265.5049 268.0096 268.0421 268.0484 268.0484 270.3347
   270.3347 271.1513 271.2335 271.2335 271.8590 271.8590 272.3069 272.3232
   273.0483 273.0587 273.0587 274.0047 274.0047 274.3304 274.4639 274.4639
   275.4243 275.4657 275.4657 275.6869 276.2775 276.2776 276.8080 277.2727
   277.3747 277.3747 277.6667 277.9700 277.9700 278.9356 279.3399 279.3399
   279.6583 279.6583 281.9681 282.2131 282.2131 282.5078 282.5078 282.5456
   282.5787 282.9541 283.0729 283.0729 283.3989 283.9371 283.9371 284.0147
   286.0199 286.0199 286.1042 286.7997 286.7997 287.6474 287.7177 287.7177
   288.0691 288.7676 288.7676 289.4846 289.4846 289.8750 291.1540 292.3370
   292.3370 292.8561 292.8561 293.7963 294.1193 294.1193 294.5343 295.1078
   295.3557 295.3557 295.8149 295.8149 295.9360 296.3198 296.3198 296.3627
   296.4668 296.4668 296.6009 296.6274 296.6442 296.8731 296.8731 297.3471
   298.3362 298.3362 298.8089 299.1086 299.1086 300.0064 300.0064 301.1541
   301.1652 301.1652 302.7939 304.3202 304.3202 305.1894 305.3454 305.3454
   305.6515 306.6581 306.6581 307.2761 309.4470 309.7129 309.7129 310.1025
   310.9308 310.9308 311.9431 311.9431 312.0612 312.9062 312.9062 313.9577
   314.4231 314.4231 314.7063 315.2545 315.5489 315.5489 316.0708 316.0708
   317.1578 317.1578 317.6766 319.2436 319.4558 319.4558 319.6620 319.6620
   319.7837 319.9897 320.0741 320.1028 320.1028 321.0066 321.9430 321.9430
   322.4954 322.4954 322.9443 323.2720 323.2720 324.2112 324.2664 324.2664
   325.3848 325.6074 325.6074 326.7939 327.6582 327.6582 327.9932 328.1825
   328.4944 328.4944 329.8900 329.8900 330.2253 330.9764 330.9764 331.1667
   331.4801 331.4801 332.5184 332.6887 332.6887 333.4379 333.4379 333.7223
   333.7223 334.0005 334.0005 334.7323 334.8147 334.8147 334.8930 335.1512
   335.1512 335.2029 335.5356 335.5356 336.6733 336.9667 336.9667 337.0614
   337.7043 337.7043 337.7690 338.5422 339.8477 339.9067 339.9067 340.1365
   340.3824 340.3824 342.0338 342.0338 342.1059 342.2664 342.2664 342.3469
   342.5464 342.7383 342.7383 343.0216 343.0216 343.6390 343.9579 343.9579
   344.2340 344.3093 344.3093 344.7188 344.7188 345.1699 345.1699 345.2872
   345.5989 346.0259 346.0259 346.4257 347.7661 347.7761 347.7761 347.7831
   347.9407 347.9407 348.4361 348.4361 348.5162 349.1419 349.1419 350.0820
   350.4837 350.4881 350.5258 350.5258 351.4503 351.4541 351.4541 352.2967
   352.2967 352.5400 352.5699 352.5699 352.8909 353.5476 353.5476 353.6724
   353.9235 353.9235 354.5154 355.3441 355.3441 355.9431 356.5192 356.5192
   358.0621 358.0621 358.9003 358.9003 358.9708 360.8037 360.9662 360.9662
   361.2400 362.5723 362.5723 363.8590 364.0722 364.0722 364.9993 364.9993
   365.0453 365.3092 365.3092 365.3371 366.4112 367.9232 367.9232 368.1400
   368.2005 368.2005 368.4777 369.3746 369.3746 370.7554 371.1362 371.1362
   371.3131 371.6301 371.6301 372.0370 372.2457 372.2457 372.4642 372.5649
   373.3149 373.3149 374.1224 374.1230 374.1230 374.4694 375.1100 375.1100
   375.3556 375.3556 375.5672 375.7095 375.8132 375.8133 377.0961 377.5356
   377.5356 378.2599 378.2599 379.1442 379.1442 379.4623 380.0721 380.1475
   380.1475 380.3265 381.5677 381.5677 382.0869 382.6532 382.9098 382.9098
   383.9621 383.9621 384.3847 385.0644 385.0644 385.2116 385.6026 385.9709
   385.9709 386.5307 386.6351 386.6351 386.8192 386.9629 386.9629 387.3467
   387.4388 387.6072 387.6072 387.7357 388.1349 388.1349 388.3870 389.1235
   389.1235 390.3315 390.3315 390.6237 391.1517 391.1517 391.7333 391.7333
   392.0490 394.0642 394.3977 394.3977 395.5781 395.5889 395.5889 395.8107
   395.8173 395.8173 396.2217 397.0238 397.0238 397.6092 397.6092 398.6355
   399.0808 399.1646 399.1646 399.9047 400.1294 400.1294 401.0556 401.2975
   401.4584 401.4584 401.7441 401.8487 401.8487 402.1630 402.1630 402.5052
   402.5868 402.7146 402.7146 404.2006 404.2006 404.2771 404.9534 404.9534
   405.0466 405.4300 405.6813 405.6813 406.8864 406.8864 406.9617 407.5239
   407.5239 407.5899 408.4472 408.7208 408.7208 410.5201 410.5201 411.2122
   411.7767 411.7767 412.7048 412.8085 412.8086 412.9983 413.1296 413.1296
   413.9081 414.2474 414.2474 414.2503 414.5355 414.5355 414.8889 415.2236
   415.2236 415.3026 416.1655 416.4596 416.4596 416.4792 417.1718 417.1718
   417.9797 417.9797 418.4837 419.9599 419.9599 420.0237 422.8979 422.8979
   423.5702 423.5702 423.7410 424.4706 424.4706 424.5093 424.8380 424.8380
   424.8569 425.1095 425.1924 425.2474 425.2792 425.2792 425.4580 425.8531
   425.8531 426.6616 426.6616 427.5794 427.8296 427.8296 427.9674 428.2812
   428.6176 428.6176 429.1405 429.1421 429.1421 429.3334 429.3334 429.3387
   430.1671 430.1671 430.3879 430.3879 430.5126 430.6656 430.6656 430.9662
   431.2265 431.2265 431.4736 432.7891 432.8184 432.8184 432.8207 432.9190
   433.2126 433.2126 433.7878 433.7878 433.8406 434.0402 434.3405 434.3405
   436.2060 436.2060 436.9103 437.1695 437.1695 438.0072 438.1790 438.1790
   438.6840 438.8274 438.8274 439.6239 439.6239 439.6820 439.8899 440.2026
   440.4847 440.4847 440.7123 440.7123 440.8158 441.6033 442.3677 442.3677
   444.2979 444.2979 444.3411 445.0831 445.1873 445.1873 446.4832 446.8933
   446.8933 447.6545 447.6546 447.8401 447.9463 448.8581 448.8581 449.0318
   449.2661 449.2661 449.7251 450.0422 450.0422 450.1113 451.2072 451.2072
   452.1999 452.7109 452.7109 453.0106 453.0528 453.0632 453.0632 453.2422
   453.2422 453.4024 453.5382 453.5383 453.8782 453.8782 454.0681 454.2662
   454.2662 454.3146 456.1116 456.1116 456.1406 456.5158 456.5158 456.6427
   457.0852 457.0852 457.4717 457.6093 457.6093 457.9662 458.9910 458.9911
   459.2037 459.3747 459.4553 459.4553 459.8233 459.8233 460.5133 461.4169
   462.4389 462.4389 463.6345 463.6345 464.0528 464.9035 464.9035 465.2803
   465.4423 465.4423 465.4647 465.7442 465.7442 466.1431 466.4216 466.4216
   466.6296 466.7614 467.1203 467.1203 467.2972 467.2972 467.8420 467.8420
   468.1705 468.1904 468.2738 468.2738 468.4588 468.5036 468.5036 469.1144
   471.7048 471.7048 472.7627 472.8057 472.8057 473.7919 473.7920 473.9805
   474.5428 474.8675 474.8675 474.8878 474.9595 474.9595 475.1330 475.1330
   475.1343 475.6842 475.7078 475.7078 475.8907 476.7278 476.7278 476.7602
   476.7602 477.1045 477.2731 478.0558 478.0558 478.2073 478.7235 478.7236
   479.0604 479.1605 480.7998 480.7998 481.1919 481.1919 481.7023 481.8343
   482.2564 482.2564 482.5446 482.5688 482.5689 484.1245 484.1245 484.2281
   484.8288 484.8288 485.1243 485.5351 486.4706 486.4706 488.4595 489.0567
   489.0567 489.4297 489.7645 489.7645 489.8057 490.0370 490.0370 491.9224
   492.0811 492.0812 492.1353 492.4416 492.4417 492.8787 493.1784 493.1785

          k = 0.5000-0.5000 0.5000 (  2638 PWs)   bands (ev):

    -8.1881  -8.1075  -8.1075  -8.0533  -8.0533  -4.1781   0.2120   5.5139
     5.5139   7.4360  11.1984  11.1984  14.2799  16.5963  18.2508  18.2508
    18.6144  19.5142  19.5142  25.5238  27.6018  28.3786  28.3786  29.0009
    29.0009  32.1526  32.6934  33.5264  33.5264  34.5836  34.5836  34.6340
    38.6653  38.6653  38.8818  39.0928  39.0928  39.8315  40.4839  45.1767
    46.4266  46.4266  46.8237  46.8237  48.4474  52.7075  52.7075  53.3854
    53.3854  54.2245  54.6667  56.0205  56.0205  56.1308  56.2580  56.2580
    60.3626  60.4860  60.4860  61.5449  61.5449  62.1641  63.7167  63.7167
    63.9203  63.9203  64.2809  64.9974  65.7516  67.9500  67.9500  68.2252
    68.2252  68.4429  68.9968  72.4131  72.4131  72.8903  73.2759  73.2759
    75.0447  75.1811  78.2690  78.2691  80.2474  80.2474  81.5932  82.8878
    83.2247  83.7134  83.7134  84.4173  84.4764  84.4764  87.4529  88.2387
    88.2387  88.5820  89.1612  90.1534  90.1534  90.8490  90.8490  90.9076
    91.1800  91.3507  91.3507  92.1637  92.1637  92.4287  94.2406  94.2406
    96.3372  98.9064  99.8104  99.8104 100.2218 100.2218 101.0668 101.4766
   101.4766 101.4878 101.8874 102.2576 102.2576 103.5310 103.6697 103.6697
   104.9537 105.5368 105.5368 106.2935 106.2935 107.5553 109.9990 109.9990
   110.3278 111.0056 111.2255 111.2255 111.9191 111.9191 113.0302 114.2973
   114.2973 114.5809 114.5809 115.9026 117.1007 117.1007 117.5256 117.5256
   118.3597 119.4787 119.4994 119.6647 122.3434 122.3434 122.4557 122.4557
   123.5857 124.2478 124.2478 124.9442 125.3129 125.3129 125.3151 125.7448
   127.1431 127.1431 128.1119 128.1119 130.6267 132.2772 134.1282 134.7140
   134.7140 134.8824 135.3702 135.6861 135.6861 136.7358 136.7358 137.2312
   138.5372 138.5372 138.6485 138.6485 139.7638 139.7638 140.0786 140.6109
   142.9090 143.1914 143.1914 143.4862 143.6471 143.6471 144.1330 144.4439
   144.4439 145.2646 145.2646 145.7721 146.1084 146.4259 146.4259 146.8453
   146.8453 146.8932 147.4050 147.4050 147.7367 147.7367 148.6144 149.5051
   150.8739 150.8739 151.7699 152.4668 152.4668 152.9511 154.0030 154.0030
   154.7547 154.9641 154.9641 155.0184 155.0184 155.3367 155.4649 155.4649
   155.5585 160.3104 161.6641 162.2924 162.2924 162.3769 162.4643 162.4643
   163.8728 164.0247 164.2763 164.2763 164.9651 164.9651 165.1009 165.2194
   166.4414 166.5040 166.5040 166.7305 166.7305 167.1348 167.6208 169.2025
   169.2025 170.3235 170.3235 172.3073 172.9747 173.5057 173.5057 173.8850
   173.8850 174.3238 174.3238 174.5284 175.3010 175.3010 175.5160 175.5652
   175.7769 175.7769 176.4069 176.4069 177.9601 182.0608 182.0608 182.9803
   184.4409 185.2518 185.2518 186.0665 186.5864 186.5864 186.7943 187.3987
   187.3987 187.8408 187.8408 188.4984 188.7027 188.7027 188.9192 190.0436
   190.0558 190.3344 190.3344 190.5128 191.6197 191.6197 193.0841 193.2157
   193.4940 193.4940 193.9465 193.9465 194.0640 194.4201 194.4201 195.8968
   195.8968 196.1427 196.2567 196.2680 196.2680 197.9056 198.3781 198.3781
   199.1004 199.1004 199.1856 199.1856 199.2251 199.8354 199.9323 199.9323
   199.9522 200.1775 200.1775 200.3711 200.3711 201.3341 201.3460 201.3613
   201.3613 204.2036 206.3260 207.3039 207.3061 207.3061 208.9289 208.9289
   209.1348 210.1464 210.1464 210.4798 210.4798 211.3651 211.3651 211.5013
   211.5616 213.1055 213.1055 213.1185 214.4289 214.4289 214.7851 214.7948
   214.7948 215.3453 215.5592 215.5592 215.6746 216.3410 216.3410 217.1323
   218.1585 218.3832 218.3832 218.6504 218.6504 219.1066 219.2022 219.2189
   219.2189 219.2756 219.2756 224.1916 224.1916 224.5178 225.0791 225.4210
   225.4643 225.4643 225.6969 225.6969 226.1168 226.1169 226.2693 226.5488
   226.7186 228.4281 228.4281 229.4978 229.4978 231.8100 231.8100 231.9457
   232.3874 232.8032 233.4957 233.4957 233.9483 233.9483 233.9634 234.9220
   234.9383 235.1687 235.1687 236.0749 236.0749 236.2103 237.9004 237.9004
   238.6820 239.0524 239.0524 240.6098 240.6098 241.8205 242.7225 242.7225
   243.8361 243.8361 244.3066 244.5391 244.7359 245.0889 245.1389 245.1389
   245.1938 245.3248 245.3248 246.1665 246.1665 246.1985 247.9551 247.9551
   248.0906 248.0906 248.8840 248.8840 250.2211 251.5957 251.6394 251.6394
   251.7877 251.8377 251.8377 251.9257 252.0280 252.2280 252.2280 252.5954
   252.5954 254.3622 254.5404 254.5404 256.2081 256.6501 256.6501 257.2242
   257.5599 257.5599 257.6697 257.8536 257.8536 258.2688 258.5697 258.5697
   258.7276 261.2108 261.2108 261.9577 261.9577 263.1107 263.2356 263.2942
   263.5743 263.5743 263.7404 263.8244 263.8244 265.1390 265.1390 267.3366
   267.5274 267.5274 267.5869 268.2661 268.2661 268.3760 268.4235 269.1942
   269.4288 269.4288 270.2993 270.2993 270.6444 270.7106 270.7106 270.9870
   271.2594 272.0458 272.0458 272.4157 272.4157 273.2489 275.9488 275.9488
   276.3553 276.7887 277.2108 277.2108 277.7834 277.9306 277.9306 278.2432
   279.6560 279.6560 280.6853 280.6877 280.7622 280.7622 281.4503 281.4503
   281.7826 282.0295 282.0295 282.2419 282.3108 282.3108 282.3501 282.6738
   282.6932 282.6932 282.7404 282.8100 282.8100 284.0749 284.0749 284.4362
   284.5381 284.5381 284.5882 284.5882 285.0187 285.7122 285.7122 285.7634
   287.1361 288.1829 288.1829 288.3623 288.3680 288.3680 288.3808 289.1588
   289.2841 289.2841 289.8664 289.8685 289.8685 290.5470 290.5470 290.7026
   290.7450 291.9060 291.9060 294.2644 294.2644 295.3195 295.5176 295.5176
   295.8487 297.6630 297.6630 298.1796 299.3925 299.3925 299.4320 299.4875
   300.8671 300.8671 301.5297 301.5297 303.3544 304.4933 304.4933 306.8298
   306.8298 306.8797 306.8797 307.3915 307.4296 307.4296 307.5830 307.5901
   307.8518 307.9436 307.9589 307.9589 308.4145 308.4145 308.6798 308.6798
   308.7468 309.3195 309.3195 310.1378 310.1393 310.4889 310.4889 313.6918
   314.6737 314.7635 314.7635 314.9045 314.9186 314.9460 314.9460 315.2150
   315.2150 315.9446 316.1794 316.1794 317.4587 317.4587 318.5049 318.5049
   319.0090 319.0090 319.2073 319.2475 319.2518 320.2027 320.2027 321.7883
   322.9063 323.1767 323.9986 323.9986 324.3603 324.3603 324.4014 324.5158
   324.8946 324.8946 327.0396 327.0396 327.5248 327.8468 327.8468 327.8799
   328.0581 328.0581 328.1111 328.1111 329.0248 329.1500 329.1500 329.7945
   330.6624 330.9387 330.9387 331.1427 331.5774 331.5774 331.7668 331.7668
   331.7862 332.3537 332.5070 332.5070 333.6058 333.6058 334.5955 334.6085
   334.6267 334.6267 334.6938 334.6938 335.8940 335.8940 336.0176 336.4428
   336.4428 336.5841 336.6486 336.8898 337.1594 337.1594 337.4372 337.4372
   337.6127 339.0220 339.0557 339.0557 339.0808 339.8185 339.8185 342.0625
   342.3394 342.3394 342.4523 342.4523 343.7868 343.9957 344.0589 344.0589
   344.8207 344.8207 345.1605 345.4859 345.7205 345.7205 345.9489 345.9489
   346.0253 346.9949 346.9949 348.9016 348.9436 348.9436 349.1485 349.1485
   349.2167 349.3910 349.4260 349.4260 349.7528 350.0718 350.0718 350.2106
   351.2566 351.2566 351.8008 353.6991 353.6991 354.8607 354.8607 354.8701
   354.8701 354.8981 354.8996 355.2572 355.3490 355.3490 355.6398 355.9291
   356.0528 356.0528 356.0542 356.8880 356.8880 357.1059 358.7429 358.7429
   359.0192 359.0192 360.0594 360.0594 360.3115 360.9516 361.0918 361.0918
   361.3432 361.3432 361.4137 361.5772 361.5772 361.6127 361.6264 361.6380
   361.7014 361.7014 362.1535 363.7356 363.7356 365.3581 365.4475 365.4475
   365.8677 366.9824 367.0760 367.0760 370.9939 371.0155 371.0155 371.6318
   371.6369 371.6369 371.6932 371.8018 371.8018 372.5480 372.9581 372.9581
   373.1405 373.1405 373.7427 373.7427 374.6304 374.6304 375.6022 378.2494
   378.4901 378.4901 379.3208 379.3208 379.3405 379.9089 379.9089 380.0112
   380.0112 380.1036 380.1441 380.2347 380.2347 380.2368 380.3014 380.3014
   380.3188 380.3556 380.5061 380.5061 380.7448 380.9966 380.9966 381.4853
   382.2907 382.2907 382.4909 382.4954 382.4954 382.5063 384.4294 384.4294
   386.2974 387.2589 387.3361 387.3361 388.8647 388.8647 389.5813 389.5813
   389.6856 389.6890 389.8148 389.8148 390.8312 391.2923 391.2923 391.4093
   391.4601 391.4764 391.4764 392.5617 392.5617 392.9724 393.0908 393.0908
   393.5090 393.5090 393.6832 394.5172 394.5172 394.6782 394.9831 394.9831
   394.9836 395.0145 395.1080 395.1284 395.1284 395.3042 395.3042 395.3620
   398.2492 398.2492 398.8068 398.8068 398.8748 398.8787 399.6977 400.7536
   400.7536 401.8691 401.8691 404.6054 405.3968 405.7922 405.7922 405.8732
   406.3921 406.3921 407.1623 407.1623 407.2993 407.4043 407.4150 407.5170
   407.7997 407.7997 407.9693 407.9693 408.4309 408.4309 409.2090 409.2090
   409.3387 409.7330 409.9183 409.9183 410.7792 410.9738 411.3255 411.3255
   412.6456 412.8556 412.8556 413.1954 413.3452 413.3452 413.3571 414.1053
   414.1053 414.1766 415.2797 415.2908 415.6516 415.6516 415.8152 415.8152
   416.2665 416.2665 416.3440 416.8900 416.8900 417.1615 417.1615 417.2772
   417.4072 417.4072 417.5494 417.5558 418.5828 418.5828 418.7524 418.7524
   418.8038 418.8045 418.8045 418.8094 418.9142 418.9142 418.9167 418.9413
   420.6813 421.4205 421.4205 423.2073 423.2073 424.9698 424.9698 425.1665
   425.6464 426.2139 426.2139 426.2741 426.2741 426.5464 426.6141 426.8025
   426.8118 427.0502 427.0502 427.0880 427.0880 427.9964 428.5687 428.5687
   428.7929 430.0606 430.0606 431.8418 431.8418 432.6575 432.6789 432.7197
   432.7197 432.9313 433.2929 433.7434 433.7434 433.7713 434.1698 434.1698
   434.8731 434.8731 435.1349 435.1349 435.3971 435.4232 435.4232 435.4790
   435.8957 435.8957 436.6154 436.6609 436.6609 436.7272 437.1822 437.1822
   437.7089 437.8189 438.0542 438.0542 439.0530 439.0530 439.3146 440.4800
   440.4800 441.5098 441.5098 441.6839 441.6839 441.7419 442.5274 442.5274
   442.7296 442.9658 442.9658 443.0429 443.1305 443.1418 443.1444 443.1444
   443.1950 443.1950 443.3027 443.3306 443.3712 443.8441 445.4740 445.4740
   445.9915 445.9915 448.5900 448.5900 448.6253 448.6253 449.3887 449.3888
   449.5709 449.5713 450.1621 450.5335 450.6694 450.6694 451.8827 451.8827
   452.6121 452.6121 452.6164 452.6899 454.3641 454.3641 456.6333 457.0905
   457.0905 459.6232 459.8955 459.8955 460.3805 460.9491 460.9523 460.9523
   461.1514 461.1514 461.6067 461.6067 461.6139 461.6254 461.6254 461.7199
   461.7617 461.7813 461.7813 461.8216 461.8344 461.8344 461.8469 462.2886
   462.2886 462.3501 463.2205 463.2732 463.2732 463.3362 463.4562 463.4562
   463.6400 464.5241 464.5241 465.1070 465.1070 465.9283 466.5671 466.8570
   467.0277 467.0277 467.1320 467.1320 467.2044 467.3494 467.5043 467.5043
   467.5710 467.6871 467.6871 467.7018 467.7460 467.7460 467.8323 467.9638
   467.9638 468.0740 468.3368 468.4033 468.4033 468.5656 468.5656 468.7499
   472.7151 472.7151 473.0303 473.0303 473.1464 473.1519 473.2057 473.2057
   473.2572 473.2572 473.6919 473.6919 473.9440 474.2231 474.2549 474.2549
   474.3412 474.4007 474.4007 474.4152 474.4152 474.5043 476.4509 476.4509
   478.4417 478.6125 478.6208 478.6208 481.6538 481.6538 482.4316 482.4367
   482.4367 482.4497 484.0913 484.0913 485.1821 485.1821 485.6234 486.7341
   486.7527 486.7527 486.7684 486.7773 486.9908 486.9908 488.1692 488.1692
   488.7523 488.7523 488.9763 489.3751 489.3751 489.4489 489.4489 489.4606
   489.5043 489.5316 491.8210 493.2301 493.2301 494.7788 494.7788 496.5610

          k = 0.0000 0.2500 0.0000 (  2673 PWs)   bands (ev):

    -8.1405  -8.1180  -8.1180  -8.0587  -8.0547  -5.5618   4.5141   5.9741
     5.9741   8.6557   9.6753  11.1948  11.1948  14.5887  15.2821  16.8638
    18.5534  18.5534  19.2747  23.0677  28.0496  28.0496  29.0201  29.5176
    32.5734  32.5734  32.6855  35.1918  36.9693  36.9693  37.8323  39.8635
    40.6489  40.6489  41.3047  42.8795  43.7098  43.9735  43.9735  44.7465
    45.3197  45.3197  45.6982  46.4307  48.1179  48.9654  48.9654  49.5733
    49.6355  49.8783  49.8783  50.9052  50.9052  51.0213  51.5967  53.1663
    53.5770  53.5770  53.8151  56.2751  59.2760  59.2760  59.6593  61.3207
    62.3229  69.7601  69.7601  70.3847  71.2255  71.3773  71.6346  71.6346
    76.0385  76.1226  76.4731  76.4731  77.7773  78.2068  78.2068  78.2314
    79.5249  80.1632  80.1632  80.2041  81.2469  81.7580  83.4873  83.4873
    83.5167  83.9507  84.7863  84.7863  85.4840  85.5954  87.0627  87.0627
    87.4066  87.5610  87.5959  87.5959  88.7045  88.7390  89.7017  90.2535
    90.2535  91.1314  92.2195  92.2582  92.2582  92.8516  93.7148  94.0761
    94.0761  95.0900  95.4958  95.4958  95.8337  98.3639  98.5710  98.5710
    98.8232  99.6276  99.6276  99.8800 100.1320 101.1038 101.2712 102.4774
   102.4774 103.8013 106.5093 107.9909 108.2818 108.2818 109.4723 109.4723
   109.7884 109.9628 110.1714 110.8679 111.8638 111.8638 112.7058 112.9223
   112.9223 113.8119 113.8119 114.1622 114.3695 115.7529 116.4445 117.3815
   117.3815 117.5650 118.7343 119.0368 119.0368 120.8023 121.6491 121.6709
   121.6709 121.8966 123.0785 123.3061 123.3061 124.8229 125.7156 126.8646
   127.2802 127.6724 127.6724 128.5447 129.2299 129.2299 131.8888 131.8888
   132.5497 134.7417 135.5060 137.3766 138.2201 138.2201 139.5302 139.7957
   139.7957 140.1240 142.1435 142.6616 142.6616 143.7812 144.0037 144.9340
   144.9340 145.0672 145.5143 146.1640 146.5412 146.5412 146.7368 147.5988
   148.3164 148.3164 149.1513 149.6283 150.1539 150.1539 151.3856 151.5447
   152.4495 152.6122 152.6122 152.7577 152.8288 152.8458 152.8458 153.5924
   154.0389 154.1834 154.1834 154.4443 154.4443 154.5220 154.6138 155.2339
   156.4772 156.4772 157.8408 158.1202 158.2487 158.2487 158.4096 158.5650
   158.9104 159.1501 159.1501 159.4621 160.2965 160.7088 160.7617 160.7617
   161.5295 161.8195 161.8195 162.2299 162.4053 162.8518 162.8518 164.5895
   164.5895 165.0258 165.6567 165.9084 165.9084 166.0609 166.5466 167.0571
   167.0571 167.1371 167.2390 169.5667 170.0899 170.5825 170.5825 171.5872
   171.7531 171.7663 171.7663 172.2824 172.2824 172.4992 173.4830 173.4987
   174.4618 175.9405 176.1718 176.1718 177.4014 177.4808 177.4808 177.5112
   177.8491 178.1615 178.1615 178.5523 180.5433 180.5433 180.7529 181.2388
   182.7032 182.8089 182.8089 183.1914 183.2475 183.4295 183.4295 183.7627
   184.8219 184.9409 184.9409 185.3636 187.3798 189.9538 191.0015 191.0015
   191.1052 191.3742 191.3742 191.9888 192.0805 192.0805 192.1958 192.7411
   193.2285 193.2285 193.9891 194.2395 195.1341 195.1341 195.1637 196.8105
   198.8442 198.8442 199.0024 200.2390 201.5495 202.1110 202.1110 202.6953
   202.7527 202.9998 202.9998 203.1701 203.4534 203.8091 203.8091 204.9282
   205.3576 205.4080 206.9029 206.9029 207.7608 208.5721 209.9157 209.9157
   211.0030 211.8187 212.9969 213.0184 213.0184 213.4706 215.2243 215.2243
   216.1886 216.1886 216.3685 216.5720 219.7921 219.8157 219.8157 220.0114
   221.1850 221.2570 221.2599 221.2599 221.6882 221.7839 221.7839 222.5463
   223.3478 223.3478 224.0956 224.2676 224.2676 224.9597 225.1307 225.4705
   225.4705 226.2402 226.5721 227.5152 227.6666 227.6666 228.0730 228.3686
   229.4791 229.4791 229.6404 229.6791 229.8807 229.8807 229.9517 231.0109
   231.2072 231.2072 231.3265 232.6056 232.6480 232.7579 232.7579 232.7695
   234.4493 234.9438 234.9438 235.1745 235.1955 235.1955 235.3338 235.7646
   235.9929 236.2575 236.2575 236.9790 237.3037 237.5794 239.0800 239.0800
   239.5130 239.7000 239.7000 239.9757 241.4603 242.3586 242.6654 242.6654
   243.0798 243.0798 243.1929 243.3724 243.6711 243.9407 244.4923 244.4923
   245.0415 246.1266 246.1266 246.1645 246.2071 246.2071 246.7883 246.8757
   247.3350 247.6130 247.6754 247.6754 248.6562 248.6562 248.7464 249.2166
   249.6875 249.9022 249.9022 250.4445 250.9329 251.5152 251.5152 252.2242
   252.7099 252.9076 252.9076 253.9861 254.0466 254.0466 254.3169 255.3237
   255.3478 255.8634 255.8634 255.9005 256.3705 256.6618 256.6618 256.7120
   257.4709 257.8158 257.9605 257.9605 258.2353 258.2353 258.2791 258.7809
   258.8579 259.0830 259.0830 260.3286 260.3626 260.3626 260.6031 261.5357
   262.1660 262.1995 262.1995 262.4931 262.4931 262.5637 262.6229 262.8611
   263.5678 264.6433 264.6433 265.3453 265.5097 265.5134 265.5134 265.7971
   266.2795 266.2795 267.5319 268.8602 269.2228 269.5483 270.5667 270.5667
   270.9684 271.1659 271.1783 271.1783 271.8074 272.7105 272.7105 272.9274
   274.0320 274.5293 275.2242 275.3002 275.3002 277.2276 277.3896 277.4118
   277.4118 277.6835 278.1877 278.2294 278.2294 279.9516 280.9759 280.9759
   281.4673 281.7210 282.2123 282.2241 282.2241 283.6493 284.8029 284.8029
   285.3061 285.5547 286.3926 286.3926 286.9389 287.6773 287.6773 288.6103
   288.7583 288.7583 289.5343 289.6427 291.2502 291.3553 292.8863 293.0243
   293.0243 296.0889 296.2984 296.2984 297.2210 297.4620 297.4620 298.0267
   298.7252 298.8491 298.8491 298.9427 300.1070 300.8425 300.9119 300.9119
   301.8317 301.9344 301.9344 301.9417 302.2141 303.1842 303.5752 304.1024
   304.1214 304.1214 304.4300 304.4300 304.8776 304.8776 304.9792 305.0343
   305.2626 305.5628 305.5628 305.6517 305.9027 307.3715 308.8961 309.4965
   309.4965 310.0477 310.2866 310.2866 310.3021 311.2118 312.6285 312.6285
   312.6981 313.0979 313.3825 313.7311 314.7827 314.7827 315.9544 315.9544
   316.0657 316.2072 316.2072 316.2214 316.4660 316.7842 317.5139 318.0385
   318.0385 318.1824 318.7174 318.7174 318.7301 318.9149 319.5918 319.7193
   319.7193 319.8958 320.7108 320.7108 320.7128 321.3348 321.8293 322.3403
   322.9340 322.9340 323.1982 323.1982 323.2533 323.6542 323.9318 323.9443
   323.9443 324.2688 324.4570 324.8823 324.8823 325.6206 325.7889 325.8977
   325.8977 327.3258 327.3258 327.5155 327.5424 327.7072 327.7072 328.2056
   328.5878 328.8387 329.0886 329.0886 329.3340 330.4343 330.4343 330.4364
   330.5628 332.4547 332.5749 332.6228 332.6228 333.9195 334.4088 334.4121
   334.4121 335.0550 335.1996 335.1996 335.3190 337.1239 338.9103 339.1103
   339.1233 339.1233 339.1499 339.3824 339.3824 339.7165 339.9281 339.9534
   339.9534 340.6924 340.6924 341.2174 341.4633 341.9624 342.6673 343.1030
   343.1030 344.1053 344.7145 346.0304 346.0304 346.9179 347.0755 347.1286
   347.1286 347.3350 347.8110 347.9050 347.9050 348.0513 348.3340 349.0250
   349.3729 349.3729 349.6987 350.0529 350.2125 350.2125 350.3132 350.3444
   351.1664 351.2427 351.2427 351.4477 351.8618 352.4186 352.4186 354.0076
   354.0623 354.0623 354.6330 354.8544 354.8544 355.3079 355.8522 355.9058
   355.9058 356.3026 357.1194 357.3209 357.4509 357.4509 357.5678 357.5678
   357.6410 357.6415 357.9736 358.2394 358.4815 358.4815 358.9490 358.9490
   359.0406 359.2300 359.4347 359.4347 359.8820 360.3693 362.1769 362.2994
   362.4925 362.4925 362.8033 363.0290 363.0290 363.2351 363.4743 364.5493
   364.5493 364.6863 365.4893 365.4893 365.7934 365.8521 366.3218 366.5308
   366.5775 366.5775 367.6569 367.6569 368.3087 368.6232 368.6232 368.7308
   368.8621 369.0645 369.3201 369.4356 369.9822 369.9822 370.5979 370.5979
   370.9198 372.0796 372.9497 372.9497 373.0369 373.2350 373.4872 373.4872
   373.5045 374.4025 374.4731 374.4731 374.5973 374.8973 375.0764 375.0764
   375.1781 375.5082 375.5082 375.7999 375.9549 376.1236 376.1236 376.2126
   376.3930 377.1778 377.1778 377.2055 377.6290 378.1507 379.1145 379.1145
   380.1966 380.5707 380.6639 381.2013 381.2203 381.2203 381.6870 381.9022
   381.9022 382.6563 383.0188 383.2687 383.2687 383.7839 383.8371 383.8371
   383.8559 383.9235 384.1674 384.1674 384.2520 384.2547 385.0072 385.3059
   385.3059 386.9599 387.2579 387.2579 387.3607 387.4032 387.4364 387.6584
   387.6584 388.1316 388.1316 388.2467 388.6927 389.2789 389.4113 389.8119
   390.0313 390.0313 390.0816 390.2658 390.2658 390.2786 390.8895 392.1616
   392.1616 393.7693 393.9078 394.3014 395.0673 395.0673 396.3252 397.4728
   397.7962 397.7962 398.5296 398.5296 398.7651 399.3971 399.8273 400.1701
   400.1701 400.2989 401.5356 401.5356 401.7971 405.1419 405.2861 405.5503
   405.9206 405.9206 407.0346 407.0730 407.0730 407.1886 407.1886 407.2004
   407.2779 407.6076 408.8110 409.0089 409.0089 409.0159 409.5944 409.7008
   409.8405 409.8405 410.1117 410.1773 410.1773 411.0298 411.0298 411.0466
   411.0792 412.6779 412.6779 413.5944 415.2793 415.7144 415.8556 415.8556
   415.8637 415.9436 416.9455 417.0633 417.0633 417.2184 417.8137 417.9829
   417.9829 418.8397 419.0034 419.0034 419.3754 419.6629 421.1330 421.8122
   421.8122 423.9027 424.0055 424.6597 424.6597 425.1907 425.9214 426.1665
   426.2744 426.2744 426.4632 426.8687 426.8687 427.5088 428.9931 430.6652
   430.9201 431.0825 431.0825 431.4449 431.8999 433.0086 433.0086 433.4167
   433.6695 433.7507 433.7507 433.9071 434.0288 434.0589 434.0589 434.3202
   434.8457 434.9428 434.9428 435.4914 435.7518 435.7518 436.1267 437.1819
   437.1819 437.2288 437.4307 437.8201 437.8201 437.8520 437.9392 438.2312
   438.4442 438.6352 438.6352 438.6912 438.6929 438.7809 438.7809 439.5426
   440.6972 441.1716 441.1716 441.9620 441.9620 443.0045 444.8271 445.2515
   445.2515 445.6466 446.1168 446.2383 446.2383 446.5092 447.2563 447.2563
   447.4438 447.6564 447.8146 447.9443 447.9443 448.5580 448.5580 448.6920
   448.7989 449.0601 449.5769 449.7948 450.0924 450.0924 450.1647 450.7628
   450.8227 450.8227 450.9225 451.7687 451.7687 451.8428 451.9285 452.3011
   452.3011 452.4289 452.4971 453.2223 453.2922 453.2922 453.6200 453.6200
   453.6376 453.7625 454.1255 454.1850 454.1850 454.2094 455.0972 455.1844
   455.3382 455.3382 457.2015 457.6278 457.9585 458.9571 458.9571 459.0073
   459.0525 459.0967 459.1555 459.1555 459.5570 459.5570 459.9768 460.3848
   460.3848 461.0789 461.3409 461.6406 461.6406 461.9400 461.9732 462.0614
   462.0614 462.2981 463.2771 463.4243 463.4846 463.5422 463.5422 463.8226
   463.8226 463.9679 464.5587 464.7214 464.7214 464.8734 465.2486 465.2486
   465.3070 465.3617 465.7279 465.9006 466.2143 466.2143 466.3295 466.3325
   466.3370 466.3370 466.5402 467.0058 467.1309 467.2282 467.2282 467.8567
   467.8567 468.1166 468.1888 468.5247 468.5247 468.5566 469.4501 469.6414
   469.6414 469.8239 469.9808 470.0714 470.2011 470.2011 470.4360 470.8999
   470.8999 471.0646 471.2037 471.2926 471.5214 471.5214 471.6349 472.5544
   472.6606 472.6606 472.7443 473.3085 473.4572 473.4572 473.4811 474.5218
   474.7832 475.4240 475.4240 475.5821 476.5857 476.5857 477.4212 477.9681
   478.2094 478.4357 478.9087 478.9087 479.0843 479.3496 479.3496 479.3522
   479.5455 479.5995 479.5995 480.8788 480.8950 481.2322 481.2322 481.2564
   482.2191 482.2753 482.3370 482.3370 482.9571 482.9571 482.9813 483.5535
   483.7025 483.9293 483.9293 484.0678 484.6743 484.6743 484.6820 484.7108
   485.7921 485.7921 485.9596 485.9767 487.0979 487.0979 487.4386 488.1655

          k =-0.1250 0.3750-0.1250 (  2651 PWs)   bands (ev):

    -8.1594  -8.1126  -8.1113  -8.0606  -8.0534  -5.1897   2.9838   5.4820
     5.5170   8.9340   9.9352  11.9019  12.0101  14.3515  16.4751  16.6953
    18.3225  20.3182  21.5193  24.8817  24.8960  25.4445  28.1884  29.3042
    30.1456  32.9696  34.4015  35.7935  37.3543  37.5909  38.1328  38.1360
    39.0641  39.8382  40.1567  40.7354  41.9890  42.6069  42.7204  43.8463
    44.7908  45.4674  45.6195  47.2407  47.3550  48.0167  48.7279  49.4777
    49.8232  50.1133  50.9381  53.0891  53.5279  53.5645  54.4574  55.9823
    56.3338  56.9635  57.7688  58.2770  59.0109  60.5502  62.3020  63.3962
    65.3683  66.1181  66.5669  66.7002  67.5961  70.3651  70.8234  71.8958
    72.3899  73.3130  74.5707  74.9328  75.3635  75.7980  76.8784  77.4836
    78.0568  78.1747  78.9533  79.3641  80.1457  80.3822  81.7894  81.8461
    83.3922  84.0768  84.2094  84.9197  85.3071  85.6893  87.2623  87.2745
    87.9139  88.0529  88.3375  89.5049  89.9431  90.8582  91.2973  91.5429
    91.8662  92.0619  92.5515  93.0418  93.4184  93.4435  94.1213  94.3323
    94.9235  95.3953  96.3522  97.1404  97.7368  97.7758  98.3771  99.5132
   100.4211 100.6827 100.8215 101.0854 101.5880 102.3484 102.5724 103.1011
   104.4776 104.7062 104.8564 105.4561 105.7136 106.3885 106.4807 106.5883
   109.1335 109.2857 109.6412 110.2459 110.6053 111.6750 111.7839 112.6948
   112.9582 113.6272 115.4359 116.0424 116.5907 116.9868 117.7885 117.9330
   118.4135 119.0465 119.4097 119.8995 120.1401 120.8072 121.6688 122.0454
   122.8260 122.9998 123.7387 124.8167 125.9304 127.4924 127.6270 129.1974
   129.2388 130.0866 130.2125 131.0994 131.5964 131.7000 132.3512 132.4829
   134.1246 134.7021 134.7784 136.0768 136.3370 136.5617 137.3970 137.6674
   138.2377 138.3922 138.8783 139.2963 139.6465 140.3341 140.5911 140.9432
   141.1716 141.7941 143.1306 143.3733 143.4258 143.9623 144.5257 145.1994
   145.9884 146.4936 146.6688 147.2988 147.3564 147.7471 148.4147 148.8554
   149.2445 149.4985 149.9382 150.7762 151.9259 152.2497 152.5276 153.0342
   153.5181 153.7131 153.7658 154.6715 154.7342 154.8307 155.7717 156.4392
   156.5668 156.9179 156.9625 157.2487 157.5479 158.0292 158.2265 158.8377
   159.7531 159.9365 160.0532 160.8201 161.0807 161.5077 162.2934 162.3861
   163.3901 163.5360 163.7772 165.0455 165.0848 165.7991 165.9533 166.3458
   166.6205 167.1800 167.3661 167.4606 168.0587 168.5150 168.8964 168.9246
   169.3945 169.6466 169.9451 170.5464 170.7628 171.5395 171.7258 171.7359
   172.2789 172.7548 173.1396 173.6223 173.8415 173.8551 174.0460 174.4958
   174.5023 175.4300 176.1288 176.5701 177.2396 177.5145 177.5810 177.7866
   178.5060 178.7351 179.1137 179.1570 179.3074 179.8622 180.1095 181.2429
   181.4766 181.5985 182.1656 182.3171 182.9048 183.2226 183.3325 183.8774
   185.9968 186.1562 186.3991 186.9089 187.6602 188.5393 188.9730 190.2132
   191.0421 192.4684 192.6536 192.6984 193.2565 193.5704 194.1938 194.5092
   195.0887 195.3770 195.8262 197.1831 197.3725 198.0565 198.7229 198.7788
   198.8600 199.3619 199.7446 200.2853 200.5445 200.5684 202.0552 202.3906
   202.6930 202.8226 203.3455 203.9483 204.7444 204.7873 205.1668 205.8153
   205.9423 206.8323 206.9973 207.4894 207.8210 209.0269 209.4410 209.5058
   209.5933 209.8427 211.1327 211.8892 212.1880 212.6032 213.5344 214.1791
   214.2228 214.5953 214.6850 215.3729 215.5481 216.0266 216.2416 216.8990
   217.3811 217.6100 218.3806 218.6221 219.2512 219.7691 220.0616 220.9172
   222.0541 222.2554 222.3972 222.8276 223.2659 223.2992 223.7154 224.0122
   224.3129 224.7588 225.4453 225.8057 226.0034 226.4692 226.4799 227.0974
   227.2574 227.9775 228.7886 228.9135 229.0426 229.2136 229.8000 230.0334
   230.3846 230.8572 231.6281 232.0095 232.4468 232.6264 232.8272 233.0557
   233.7692 233.8650 235.1676 235.5869 235.8906 236.1429 236.5833 236.7833
   237.0477 237.4264 237.4398 237.9293 238.0806 238.0957 238.4983 239.1584
   239.2592 239.8008 239.9882 240.1629 240.3158 240.6810 240.7931 241.6908
   241.7567 242.3036 242.4805 242.5924 243.2473 243.3510 243.7425 243.8896
   244.0401 244.1512 244.6033 244.6680 245.0508 245.2460 245.2909 245.5574
   246.0136 246.1400 247.3143 247.4185 247.6531 247.7953 248.6008 249.2033
   249.8460 250.0088 250.1952 250.2602 250.5678 251.1953 251.2084 251.8445
   252.3572 252.3951 253.2010 253.5642 253.9460 253.9985 254.7256 254.9498
   255.1406 255.2791 255.5148 255.7255 256.2859 256.4501 257.0095 257.2017
   257.8228 257.8247 258.5124 258.5247 258.9284 259.0979 259.5968 259.7944
   260.0576 260.5181 260.6878 262.2921 262.7056 263.2966 263.7164 263.7803
   264.3792 264.6146 264.9839 265.7657 265.9093 265.9568 266.2195 266.2514
[...]
   263.5127 263.6313 263.8803 263.8890 264.0838 265.1708 265.1793 265.9526
   266.1649 266.7667 267.0179 267.0205 267.2983 270.2504 270.7396 270.8137
   271.6268 271.7773 271.8380 271.9637 271.9841 274.1244 274.3905 274.5639
   274.7329 274.7462 275.0872 275.4463 276.1506 276.3314 276.7871 276.8533
   277.1648 278.2467 278.5193 279.0598 279.0742 279.4004 279.7569 280.2924
   280.6711 281.6768 281.8361 282.1885 282.4140 282.5750 282.7489 282.8204
   282.9627 283.5053 283.6608 284.2163 284.4679 284.5729 284.9712 285.3092
   285.6735 285.8037 286.3835 286.7286 287.2630 287.6206 287.7259 288.2835
   288.7292 288.8452 289.0523 289.6309 290.0876 290.2710 290.4357 290.4826
   290.6713 291.0530 291.0779 291.0893 291.8826 292.2418 292.3400 292.6039
   293.1391 293.1616 293.3001 293.3782 293.5411 293.8095 294.0566 294.2182
   294.2300 294.5804 294.6697 294.8700 295.1306 296.4464 296.4650 296.9202
   297.5040 297.5463 298.0129 298.3167 299.6693 299.7755 299.8507 300.3302
   300.6784 300.7343 300.9078 301.7632 301.9266 301.9407 301.9971 302.3679
   302.5740 302.6410 303.1577 303.2033 303.3230 303.4065 303.8335 304.1419
   304.3017 304.6389 304.8042 305.0516 305.9989 306.0062 306.7776 307.1828
   307.6291 307.7514 308.4846 308.6010 308.8830 308.9624 309.0358 309.1070
   309.5704 309.6424 310.1689 310.8038 311.5737 311.8894 312.1935 312.2498
   312.4822 312.9720 313.0865 313.2050 313.2220 313.5172 314.2457 315.4279
   315.9458 316.2453 316.5571 317.4558 317.4819 317.7939 317.9352 318.1097
   318.6184 320.5384 320.5431 320.8940 320.8948 322.0275 322.2068 322.2600
   322.7229 323.0992 323.2461 323.2866 324.4568 324.6897 325.0743 325.8907
   325.9965 326.0084 326.2305 326.2431 326.3737 326.8518 326.8902 327.2359
   327.3047 327.4592 327.5390 328.1035 328.2114 328.6215 329.6482 329.7312
   329.7685 329.9110 329.9824 330.0511 330.2775 330.7301 330.9625 331.9717
   332.0145 332.3554 332.8671 332.8751 332.9538 333.1316 334.0008 334.4308
   335.0968 335.8909 336.0031 336.0831 336.1549 336.4118 336.6962 336.8844
   337.3921 337.6648 338.2926 338.7706 338.8628 338.9282 339.3693 340.0816
   340.3484 340.7812 341.0126 341.1380 342.1743 342.2378 343.2980 343.6937
   344.3125 344.6337 344.9328 345.0642 345.0792 345.5318 346.3125 346.3817
   346.4300 347.2225 347.5906 347.6297 349.0664 349.4341 349.5175 349.6847
   349.9303 350.2107 350.4128 350.4690 350.5867 350.7736 351.1970 351.4711
   351.9510 352.6025 352.8070 353.8750 354.3619 354.4355 354.4852 355.0891
   356.3062 356.6002 356.7903 357.7781 358.5424 359.1414 359.1669 359.3786
   359.3954 359.6877 359.8810 360.4690 360.8489 361.6304 361.8839 361.9919
   362.5153 362.8550 362.9106 363.2635 363.2861 363.6421 363.9017 364.3308
   364.6714 364.7932 364.9024 365.1867 365.7040 365.9094 366.4172 366.5259
   366.8032 367.2975 367.7202 368.1715 368.3462 368.7366 369.8618 370.3343
   371.3111 371.9351 372.1600 372.2475 372.5498 372.5545 372.7932 372.8394
   373.1887 373.6723 373.7461 373.8217 374.5151 375.4387 375.4533 375.9890
   376.2412 376.8285 376.9656 377.3802 377.6034 377.7025 377.8158 377.8171
   377.8850 378.4662 379.7974 379.9502 380.3918 380.5238 381.2486 381.2843
   381.3666 381.5420 381.5641 381.6460 381.9807 382.0175 382.2499 382.2984
   382.4240 382.9809 383.3395 383.3405 384.1094 384.1708 384.3934 384.5645
   384.5727 385.4948 385.6314 385.6398 386.0384 386.1204 386.5797 386.6259
   386.8871 386.8883 386.9512 387.3929 387.5778 387.7334 387.8981 387.9057
   388.3223 388.3433 388.6304 388.7757 389.0391 389.1878 390.0124 390.2221
   391.6784 392.4274 392.6627 392.7106 393.2870 393.4617 393.6087 393.7502
   394.0583 394.4174 394.7521 395.1003 395.3429 395.3509 395.4739 395.5035
   395.6113 395.6443 395.7852 395.8693 396.9033 397.0216 397.6970 397.7112
   398.0311 398.3740 398.6441 398.8706 399.2650 399.5085 399.8559 400.0062
   400.9459 401.2792 401.6625 401.9110 402.0463 402.2730 402.3617 402.3812
   402.5211 402.6916 402.7661 402.9031 403.0606 403.2533 403.5511 403.7895
   404.3075 404.3571 404.5549 404.6542 404.8655 404.8701 405.7804 405.8974
   406.8660 406.9976 407.3302 407.4650 408.4370 408.4888 408.7735 408.9231
   409.0518 409.1660 409.3966 409.5911 409.9350 410.0864 410.1960 410.7357
   411.1160 411.1466 411.3761 411.7883 411.9752 412.1715 412.6291 413.2336
   414.1583 414.8376 415.1737 415.2382 415.9471 415.9723 416.5008 416.8508
   416.9567 417.1010 417.2451 417.2528 417.5980 417.6898 418.4203 418.6231
   418.6821 419.1807 419.5232 419.5815 419.6874 419.7357 419.9150 420.0061
   420.1665 420.5789 420.7593 421.0820 421.2443 421.3355 421.5182 422.3455
   422.3789 422.4804 422.5909 423.7895 423.8519 423.9169 424.4166 424.7361
   425.4397 426.2740 427.0229 427.2764 427.7326 427.8172 428.1704 429.0068
   429.4256 429.5005 429.7544 430.0955 430.6237 430.6290 431.0199 431.7023
   432.2169 432.4309 432.7059 432.7745 433.0405 433.1329 434.0529 434.8150
   434.8475 435.5641 435.7219 436.0636 436.0890 436.4240 436.8301 436.8457
   437.5461 438.2799 438.3267 438.5302 438.6441 438.8785 438.9100 439.3388
   439.4103 439.7280 439.9279 439.9300 440.3214 441.1665 441.4402 442.0911
   442.3790 442.6169 442.7797 442.9524 443.2160 443.2959 443.3690 443.4960
   443.7556 443.8709 443.9011 444.3572 444.7091 445.0868 445.1072 445.1575
   445.4975 445.6880 445.8348 445.9601 446.1813 446.2302 446.5424 446.7235
   446.8442 447.3976 447.4247 448.0719 448.3232 448.5397 448.7464 449.2325
   449.8378 449.9409 450.2231 450.5216 450.5924 450.6599 450.8738 450.8926
   450.9942 451.1470 451.5164 451.6531 451.7293 451.7741 452.1636 453.3670
   453.6577 453.7306 454.1568 454.1775 455.8467 455.8663 456.3741 456.8497
   457.3743 457.6581 457.7108 457.8824 458.2288 458.4582 458.6013 458.6527
   458.7471 459.0791 459.4206 459.6051 460.5004 460.5455 460.9971 461.0513
   461.4436 461.6609 461.8326 462.0276 462.6172 462.8500 463.1250 463.3454
   463.9661 464.1379 464.4119 464.6182 465.1583 465.1900 465.6212 466.3067
   466.9576 466.9886 467.1980 467.3109 467.7268 467.8284 467.9020 468.0068
   468.5125 468.6668 468.7946 468.8610 468.9450 468.9695 469.5793 470.1752
   470.2855 470.4611 470.5141 470.8302 471.2844 471.6746 472.6688 472.8819
   472.8896 473.4027 473.8063 474.4155 474.6546 474.7720 474.9676 475.1335
   475.3709 476.1370 476.4807 476.7683 476.9079 477.0091 477.2847 477.3125
   477.5819 477.6388 477.7458 477.8397 478.2770 478.3641 478.5221 478.5280
   480.2661 480.9233 482.0397 482.7781 483.3294 483.5584 483.6340 484.3770
   484.5573 484.8575 484.8771 485.0516 485.2145 485.2498 485.4962 485.8260
   485.9716 485.9746 486.1306 486.1679 486.2077 486.3887 486.4590 486.5476
   486.5959 487.1101 488.8312 488.8367 489.0788 489.5074 489.9376 490.8223
   490.8775 491.2820 491.5643 491.6480 492.7472 492.9367 493.1655 493.2370

          k =-0.5000-1.0000 0.0000 (  2656 PWs)   bands (ev):

    -8.2052  -8.0982  -8.0864  -8.0654  -8.0528  -3.4586   0.1626   3.2795
     3.4707  10.9562  11.2702  11.8285  12.6030  17.2350  18.5059  19.5698
    19.9959  23.1080  24.0014  24.0130  24.5203  25.6684  27.0107  27.5081
    28.9747  30.5008  30.8142  32.2786  32.4470  32.9198  33.1955  33.3185
    34.2020  40.2307  40.5370  40.6265  40.9535  44.0312  44.4746  44.7009
    46.2291  48.5698  48.8615  49.5979  50.2740  50.4953  50.8216  50.9957
    51.2006  53.2319  53.7498  54.4981  55.2337  57.6294  58.5294  58.5438
    58.9730  59.6328  59.7011  60.3500  61.2747  64.5551  64.7124  64.7873
    65.3081  65.3410  65.4830  65.7008  65.7301  66.5969  67.2959  68.8908
    69.1816  73.6786  73.9952  74.1532  74.2805  74.7285  74.8777  75.5670
    75.7020  76.0397  76.7922  76.8364  76.9365  77.4099  77.5651  79.1513
    79.8197  80.3439  80.7761  81.2920  82.1230  83.4791  83.6787  83.8792
    85.0045  86.6631  86.8567  86.9276  87.0487  87.6635  87.8625  88.5311
    88.6550  91.2022  91.6668  91.9766  92.6082  93.8414  94.0012  94.5994
    96.1456  99.6558 101.2505 101.3075 101.9234 102.0209 102.6435 102.9961
   103.9045 104.8283 105.4667 105.9699 106.2522 107.0806 107.3461 107.8489
   108.2873 108.2918 109.4919 109.8499 109.9494 110.2944 110.9119 111.0854
   111.2975 112.3561 112.9589 113.5454 113.5727 113.6056 113.9851 114.2448
   114.5123 114.8208 114.8851 115.5065 116.0055 116.2099 119.1406 119.3221
   119.6832 119.7953 120.1141 120.3782 120.4947 120.6018 120.8907 120.9099
   121.9015 122.3486 125.0844 125.1262 125.1883 127.5876 127.9130 128.2357
   128.8920 129.0383 129.0669 129.7956 129.9817 130.0427 130.8361 131.1656
   131.3917 131.4607 131.8761 132.3343 133.0462 133.6169 133.8266 134.0402
   134.7370 134.7619 136.2356 136.7225 138.0522 138.1350 138.3549 138.6192
   139.1230 139.3962 139.5486 139.6052 139.6754 139.7327 140.3691 140.9685
   141.2082 141.2768 142.0244 142.1889 143.9684 144.4825 145.2447 145.7025
   145.7666 145.7985 145.9576 147.4453 147.6435 152.0800 153.2697 153.3657
   153.7616 154.1100 154.2376 154.3031 154.4713 154.7982 155.7636 155.8222
   156.0911 156.6546 156.7869 157.4688 157.4757 157.5385 157.6983 158.5811
   160.6709 161.7281 162.1065 162.5854 162.7209 162.9409 163.0903 163.8965
   164.0128 164.1922 164.4307 164.7141 165.2481 165.5508 165.5932 165.5988
   166.6662 167.1881 167.5328 167.5968 167.9168 168.2730 168.3420 168.3520
   168.4056 172.4117 172.9245 173.4890 173.5291 173.9548 174.3260 174.4694
   174.6148 174.9685 175.0005 175.0985 175.1802 175.5306 175.6049 175.8901
   176.6904 179.4754 179.7046 179.8162 180.4713 180.5111 180.7968 180.9196
   182.3370 182.4528 182.7235 183.0535 185.4179 185.4520 187.8850 188.2359
   188.2814 189.0892 189.1125 189.6442 189.6978 189.9885 190.0327 190.3809
   191.1096 191.1837 191.2162 191.5660 191.6883 191.7493 191.8815 191.9095
   192.3725 192.4927 192.6025 192.6328 192.9233 193.3597 193.5910 193.9318
   194.0274 194.4640 195.1116 195.4138 195.5957 199.0158 199.0209 199.1778
   199.8527 200.0458 200.9225 201.2655 201.3482 201.6511 201.8848 202.0953
   202.1047 202.1892 202.3835 202.7692 203.0479 203.6236 204.8675 205.3040
   205.3627 205.7872 206.1262 206.1972 206.5361 207.0207 207.0636 207.6400
   208.1343 208.5763 208.6009 208.6736 209.9405 210.0272 210.7741 210.7747
   210.8934 211.0809 211.2823 211.5203 212.0263 212.1501 212.4126 212.5175
   212.7784 213.5992 213.9023 214.3864 215.4910 215.8422 215.9599 215.9687
   216.0759 216.8047 217.0692 217.1728 217.3346 218.2923 218.4103 218.6261
   219.0833 221.3845 221.7874 221.9596 222.1278 222.8820 222.9580 223.0266
   223.1422 223.6927 224.0293 224.4007 225.0940 225.2208 225.9835 226.2069
   226.5864 227.6744 227.7423 227.8409 228.6139 228.7231 228.9337 229.4011
   230.6624 234.9283 235.0746 235.0891 235.4402 235.5636 235.5731 236.1048
   236.1774 236.4337 236.8519 236.9999 237.0915 237.3980 237.5058 237.5524
   238.4477 238.6745 239.4969 239.7061 240.0679 240.6296 240.9586 241.6296
   241.6403 242.2208 242.5775 243.4997 243.8577 245.0596 245.0745 246.0459
   246.3078 246.5328 246.6818 246.7251 246.7650 246.7764 246.8232 246.9473
   247.4388 247.7478 247.7920 248.8376 248.9742 249.0074 249.0537 249.2037
   249.3525 250.7315 251.5144 251.7295 251.8769 252.4945 252.7076 253.1524
   253.1823 253.2397 253.4141 253.9088 254.9074 255.0452 255.4466 255.5239
   255.5354 256.8208 256.8279 256.9562 257.9874 260.8121 260.8606 261.2023
   261.3845 261.7868 261.8401 261.8672 262.0376 262.9195 262.9815 263.5781
   264.2168 264.2997 264.3619 264.5920 265.2850 265.5207 265.5366 265.6929
   265.8619 267.1090 267.2081 267.7959 267.9224 268.1550 268.2617 268.9708
   269.2207 271.3700 271.4010 271.7708 271.7950 271.9064 272.0826 272.4342
   272.4985 272.5856 272.9147 272.9895 273.0806 273.2966 273.3088 273.7041
   273.7348 273.8804 274.1872 274.2215 274.4952 277.0688 277.2449 278.2974
   278.3964 280.1623 280.1744 281.6807 282.2977 282.3973 282.5301 282.5861
   283.6007 284.3300 284.5657 284.7266 285.7845 286.1617 286.3752 286.7028
   286.8637 288.5091 288.5456 288.6463 288.9045 289.0500 289.3451 289.6085
   289.7221 290.6153 290.9591 291.2483 291.3741 291.4958 291.7507 291.8675
   291.8927 292.0559 292.3308 292.6912 292.8560 293.1611 293.2608 293.4457
   293.7238 293.8098 293.8541 294.1223 294.1879 294.2855 294.6013 294.9507
   295.4888 296.8945 296.9276 297.0622 297.1564 297.2690 297.3110 297.3471
   297.4723 297.6403 297.9221 298.1486 298.3235 298.3284 298.8826 298.9148
   299.5539 299.8422 299.8768 300.0969 300.1374 300.1976 300.7010 300.7986
   301.3052 302.0653 302.8035 302.8854 303.5647 303.5723 303.6784 303.7575
   303.8478 304.0461 304.0547 304.1386 305.2294 305.5964 305.7927 307.0946
   307.9288 308.8691 309.5785 309.8995 310.4042 310.5445 310.5803 310.6393
   310.8330 311.1034 311.5890 312.2910 312.7451 313.8626 314.1404 314.2134
   314.3078 314.5496 315.4406 316.0590 316.1950 316.2723 316.9600 317.0525
   317.2891 317.4013 317.4541 317.5018 317.5600 317.6340 317.6706 317.8356
   317.9206 318.4942 318.6170 318.8118 318.9058 318.9152 318.9504 318.9808
   320.9713 322.8321 323.5657 323.6243 323.6281 324.9018 325.0559 325.4358
   325.9525 326.1340 326.3014 326.9583 326.9760 327.4336 327.4919 327.6185
   327.8962 327.9398 328.0280 328.1247 328.1801 328.1965 328.2476 328.2630
   328.2736 328.3431 328.3796 328.5037 328.6221 328.6299 328.6839 328.7958
   329.6222 329.7996 330.0339 330.1689 331.3877 332.4505 332.8694 333.3629
   333.6840 336.3449 336.3808 336.3980 336.8791 336.9435 337.9413 338.0164
   338.1358 338.1540 338.1664 338.1835 339.1332 339.2574 339.2578 339.4227
   340.3447 341.8031 342.0959 342.2347 342.3404 342.7338 342.7903 343.1487
   343.8556 343.8933 344.0255 344.9973 345.4942 345.7354 345.9754 346.1242
   346.1247 346.1302 346.1724 346.2666 346.3688 347.0888 347.1082 347.1485
   347.2053 348.1991 348.5830 349.6819 349.7515 353.1918 353.3629 353.6945
   353.9496 354.8380 354.8853 355.2867 356.4932 356.4944 356.5071 357.0984
   358.3930 358.4021 358.4640 358.7168 359.2894 359.6607 359.9059 359.9324
   359.9721 361.2890 361.6130 362.0746 362.2031 362.8237 362.8987 362.9442
   362.9666 363.2179 363.4985 363.6072 364.5600 364.7039 364.7439 365.0041
   365.0093 365.1275 365.3095 365.4877 365.6269 366.2916 367.5660 367.9673
   367.9756 369.9596 370.8350 370.9299 371.0502 371.3756 371.7864 371.8279
   372.0722 372.1116 372.1257 372.1509 372.2310 372.3377 372.5569 372.9740
   373.2010 373.2500 373.3484 373.5316 374.1730 374.5224 374.8534 375.5595
   375.8525 376.4664 376.6096 376.6473 377.8666 378.0495 378.5277 378.8673
   379.1996 379.6341 379.7137 380.3337 380.4291 380.8691 380.8827 380.9828
   381.0622 381.0912 381.5043 381.5361 381.5438 381.5530 381.7582 381.8468
   382.1203 382.4927 382.5649 382.6678 382.7516 382.8088 382.8113 382.8839
   383.3290 383.3373 383.3791 383.5035 383.8284 383.9648 384.0554 384.2863
   384.6887 384.8976 385.1278 385.3353 385.5441 385.6991 385.7206 385.7262
   387.7602 388.5476 388.7929 389.0263 389.0737 389.2038 389.3299 389.3328
   390.4650 390.5046 390.5637 391.3597 391.3663 391.4799 391.5309 391.7690
   391.7775 391.9089 391.9138 392.1202 392.1361 392.1364 392.1820 392.1911
   392.2288 392.3374 392.3469 392.4497 396.2504 396.5138 396.5342 397.2486
   399.0826 400.0423 400.2055 400.3226 400.3603 400.6080 400.6588 400.8415
   401.5088 401.5511 401.7353 401.7647 401.7863 401.9220 401.9335 401.9805
   402.8932 403.3228 403.6854 404.0010 404.0804 405.1380 405.2608 405.3522
   405.8846 405.9597 406.0590 406.5854 406.7803 407.5779 407.8038 407.9320
   407.9457 407.9524 408.2348 408.4406 408.5319 408.5481 408.8197 409.7180
   409.8895 409.9140 410.0161 410.0612 410.1114 410.1306 410.2805 411.6646
   412.6351 412.7250 412.7925 412.8372 413.2448 413.2940 413.2990 413.3702
   413.8955 414.2183 414.6203 414.6382 414.6743 414.7619 414.8690 414.9836
   418.2801 418.4289 418.6900 418.8637 418.9136 419.1913 419.2098 419.3079
   420.2708 421.8696 422.1878 422.4774 423.1512 424.0267 424.0795 424.8397
   424.8766 425.1989 425.2009 425.3330 425.6793 425.6959 425.9397 426.0358
   426.0896 426.0996 426.2270 426.2537 426.2822 426.4996 426.5447 426.7243
   426.8501 426.9453 427.0846 427.2908 427.3787 427.6265 428.0597 428.3924
   429.0366 429.6243 430.0363 430.3356 430.7729 431.0048 431.2027 431.4855
   431.5098 431.5608 431.8258 431.8473 432.2722 432.4309 432.5389 432.6137
   432.9622 434.0988 434.2961 434.7793 435.1096 436.3039 436.3900 436.4611
   436.5246 436.5511 436.7841 436.8467 436.8621 437.0783 437.0796 437.2591
   437.3088 437.5505 437.5960 437.6401 437.7908 437.8288 437.8544 437.8854
   438.1647 438.2005 438.2301 438.2883 439.2477 439.2767 439.4763 439.9059
   440.0177 440.0669 440.0949 440.2277 443.2004 444.4808 444.6745 445.2729
   445.3050 446.2935 446.3471 446.3567 446.4331 446.5299 446.5446 446.6225
   446.6600 447.2150 447.7944 448.7957 448.9476 449.8841 449.9335 449.9409
   450.4758 450.5025 450.9271 450.9529 451.3240 451.6888 451.7119 451.7465
   452.0783 452.4474 452.4973 452.6054 452.6653 453.7046 453.7814 454.1392
   454.9642 455.0145 455.1638 455.1802 455.5756 455.9477 456.3619 456.7231
   457.1957 457.7491 457.9647 458.0436 458.9391 459.2397 459.9711 459.9897
   460.5190 461.7836 462.0882 462.2401 462.2645 462.3174 462.3797 462.4242
   462.5060 462.5204 462.5718 462.6845 463.0324 463.0730 463.1575 463.2892
   463.7795 463.7887 463.8128 463.8635 463.9531 464.0866 464.0875 464.1350
   464.7048 464.7071 464.7550 464.7806 464.7853 465.1668 465.3005 465.3460
   465.4329 465.5447 465.6230 465.6324 465.7481 465.7757 465.8018 465.9675
   470.2686 470.9792 471.3358 471.9108 472.8176 473.1306 473.2457 473.3953
   473.5345 473.7216 473.8986 474.0474 474.1886 474.1922 474.4736 474.9440
   475.2072 475.2081 475.2208 475.2302 478.1098 478.8516 479.3873 480.0942
   480.1905 480.5140 480.8015 481.0300 481.3166 481.6350 481.7699 481.7699
   481.9401 482.0181 482.2207 482.3750 482.4668 482.5126 482.5707 482.7946
   482.9785 483.0390 483.0485 483.1163 483.1269 483.1958 483.2094 483.2117
   484.0240 485.3474 485.5723 485.7375 485.7608 485.8137 485.9647 486.0311
   487.5650 487.6603 487.8161 487.8251 488.4776 488.6909 488.8074 488.8749
   490.4172 491.0079 491.2391 491.5087 491.5540 491.6924 491.7031 491.7495

     the Fermi energy is     6.6365 ev
     (compare with:     6.6837 eV, computed in scf)

     Writing all to output data dir out/mp-2534.save/
 
     init_run     :      0.02s CPU      0.03s WALL (       1 calls)
     electrons    :    715.53s CPU    759.34s WALL (       1 calls)

     Called by init_run:
     wfcinit      :      0.00s CPU      0.00s WALL (       1 calls)
     potinit      :      0.01s CPU      0.01s WALL (       1 calls)
     hinit0       :      0.01s CPU      0.01s WALL (       1 calls)

     Called by electrons:
     c_bands      :    715.51s CPU    759.29s WALL (       1 calls)
     v_of_rho     :      0.00s CPU      0.00s WALL (       1 calls)

     Called by c_bands:
     init_us_2    :      0.00s CPU      0.00s WALL (      15 calls)
     init_us_2:cp :      0.00s CPU      0.00s WALL (      15 calls)
     cegterg      :    688.54s CPU    730.35s WALL (      15 calls)

     Called by *egterg:
     cdiaghg      :    648.62s CPU    688.91s WALL (      77 calls)
     h_psi        :     12.69s CPU     13.36s WALL (      92 calls)
     g_psi        :      0.09s CPU      0.09s WALL (      62 calls)

     Called by h_psi:
     h_psi:calbec :      0.31s CPU      0.32s WALL (      92 calls)
     vloc_psi     :     11.94s CPU     12.58s WALL (      92 calls)
     add_vuspsi   :      0.22s CPU      0.23s WALL (      92 calls)

     General routines
     calbec       :      0.31s CPU      0.32s WALL (      92 calls)
     fft          :      0.00s CPU      0.00s WALL (      10 calls)
     fftw         :     10.67s CPU     11.25s WALL (  192308 calls)
 
     Parallel routines
 
     PWSCF        :  11m56.66s CPU  12m42.55s WALL

 
   This run was terminated on:   2:26:41   5Dec2023            

=------------------------------------------------------------------------------=
   JOB DONE.
=------------------------------------------------------------------------------=
