
     Program PWSCF v.7.1 starts on  5Apr2024 at 13: 8:36 

     This program is part of the open-source Quantum ESPRESSO suite
     for quantum simulation of materials; please cite
         "P. Giannozzi et al., J. Phys.:Condens. Matter 21 395502 (2009);
         "P. Giannozzi et al., J. Phys.:Condens. Matter 29 465901 (2017);
         "P. Giannozzi et al., J. Chem. Phys. 152 154105 (2020);
          URL http://www.quantum-espresso.org", 
     in publications or presentations arising from this work. More details at
     http://www.quantum-espresso.org/quote

     Parallel version (MPI), running on     8 processors

     MPI processes distributed on     1 nodes
     228729 MiB available memory on the printing compute node when the environment starts
 
     Reading input from pw_mp-149_nscf_k60_E65.in
Warning: card &IONS ignored
Warning: card / ignored
Warning: card &CELL ignored
Warning: card / ignored

     Current dimensions of program PWSCF are:
     Max number of different atomic species (ntypx) = 10
     Max number of k-points (npk) =  40000
     Max angular momentum in pseudopotentials (lmaxx) =  4

     Atomic positions and unit cell read from directory:
     out/mp-149.save/
     Atomic positions from file used, from input discarded
 
 
     R & G space division:  proc/nbgrp/npool/nimage =       8
     Subspace diagonalization in iterative solution of the eigenvalue problem:
     one sub-group per band group will be used
     scalapack distributed-memory algorithm (size of sub-group:  2*  2 procs)

 
     Parallelization info
     --------------------
     sticks:   dense  smooth     PW     G-vecs:    dense   smooth      PW
     Min         119     119     35                 2416     2416     389
     Max         120     120     36                 2419     2419     391
     Sum         955     955    283                19339    19339    3119
 
     Using Slab Decomposition
 


     bravais-lattice index     =            2
     lattice parameter (alat)  =      10.2871  a.u.
     unit-cell volume          =     272.1571 (a.u.)^3
     number of atoms/cell      =            2
     number of atomic types    =            1
     number of electrons       =         8.00
     number of Kohn-Sham states=         1200
     kinetic-energy cutoff     =      65.0000  Ry
     charge density cutoff     =     260.0000  Ry
     Exchange-correlation= PBE
                           (   1   4   3   4   0   0   0)

     celldm(1)=  10.287106  celldm(2)=   0.000000  celldm(3)=   0.000000
     celldm(4)=   0.000000  celldm(5)=   0.000000  celldm(6)=   0.000000

     crystal axes: (cart. coord. in units of alat)
               a(1) = (  -0.500000   0.000000   0.500000 )  
               a(2) = (   0.000000   0.500000   0.500000 )  
               a(3) = (  -0.500000   0.500000   0.000000 )  

     reciprocal axes: (cart. coord. in units 2 pi/alat)
               b(1) = ( -1.000000 -1.000000  1.000000 )  
               b(2) = (  1.000000  1.000000  1.000000 )  
               b(3) = ( -1.000000  1.000000 -1.000000 )  


     PseudoPot. # 1 for Si read from file:
     /usr/scratch4/magr4985/FGWC/FGWC/pseudo/SG15/Si.upf
     MD5 check sum: 7f029a58b69e3aa87b46a36c608bf45e
     Pseudo is Norm-conserving, Zval =  4.0
     Generated using ONCVPSP code by D. R. Hamann
     Using radial grid of  602 points,  4 beta functions with: 
                l(1) =   0
                l(2) =   0
                l(3) =   1
                l(4) =   1

     atomic species   valence    mass     pseudopotential
        Si             4.00    28.08550     Si( 1.00)

     24 Sym. Ops. (no inversion) found



   Cartesian axes

     site n.     atom                  positions (alat units)
         1           Si  tau(   1) = (  -0.2500000   0.2500001   0.2500000  )
         2           Si  tau(   2) = (  -0.5000000   0.5000000   0.5000000  )

     number of k points=     8  Gaussian smearing, width (Ry)=  0.0005
                       cart. coord. in units 2pi/alat
        k(    1) = (   0.0000000   0.0000000   0.0000000), wk =   0.0312500
        k(    2) = (  -0.2500000   0.2500000  -0.2500000), wk =   0.2500000
        k(    3) = (   0.5000000  -0.5000000   0.5000000), wk =   0.1250000
        k(    4) = (   0.0000000   0.5000000   0.0000000), wk =   0.1875000
        k(    5) = (   0.7500000  -0.2500000   0.7500000), wk =   0.7500000
        k(    6) = (   0.5000000   0.0000000   0.5000000), wk =   0.3750000
        k(    7) = (   0.0000000  -1.0000000   0.0000000), wk =   0.0937500
        k(    8) = (  -0.5000000  -1.0000000   0.0000000), wk =   0.1875000

     Dense  grid:    19339 G-vectors     FFT dimensions: (  40,  40,  40)

     Estimated max dynamical RAM per process >      94.90 MB

     Estimated total dynamical RAM >     759.23 MB

     The potential is recalculated from file :
     out/mp-149.save/charge-density

     Starting wfcs are random

     Band Structure Calculation
     ParO style diagonalization

     ethr =  5.00E-06,  avg # of iterations =  5.7

     total cpu time spent up to now is      455.0 secs

     End of band structure calculation

          k = 0.0000 0.0000 0.0000 (  2421 PWs)   bands (ev):

    -5.7616   6.1464   6.1464   6.1464   8.7038   8.7038   8.7038   9.4000
    13.8122  13.8122  14.0582  17.3492  17.3492  17.3492  21.4893  28.9512
    28.9512  28.9512  29.9660  29.9660  31.6641  31.6641  31.6641  35.2759
    35.2759  35.2759  40.4029  40.4029  40.4029  44.1575  44.1575  44.2854
    46.3280  46.3280  48.1970  48.1970  48.1970  49.9471  49.9471  49.9471
    50.5204  50.9865  50.9865  50.9865  51.0029  51.0029  51.0029  52.3893
    52.3893  52.3893  56.3140  57.3207  57.3207  57.3207  57.6942  57.6942
    57.6942  62.5597  63.4035  71.4612  71.4612  75.0529  75.0529  75.0529
    75.7831  75.8132  75.8132  76.0581  76.0581  76.0581  76.2665  76.8552
    76.8552  76.8552  79.1928  83.0982  83.0982  83.0982  87.4605  87.4605
    87.4605  88.1554  88.1554  88.8552  88.8552  88.8552  88.9483  88.9483
    88.9483  91.9358  91.9358  92.0310  92.7939  92.7939  92.7939  96.0045
    96.0045  96.0045  97.0649  97.0649  97.0649  97.1858  97.1858  97.1858
    97.7935  97.7935  97.7935  98.6027  99.6753  99.6753  99.6753  99.7476
    99.7476  99.9455 104.9292 104.9292 104.9292 106.4459 106.4459 107.0042
   107.0042 107.0042 108.0704 112.3200 112.3200 112.3200 114.2512 114.2512
   114.2512 115.2255 115.2255 115.2255 115.8930 115.8930 115.8930 116.6529
   116.6529 118.9543 123.4518 123.4518 123.5111 123.5111 123.5111 124.8741
   124.8741 124.8741 125.6651 126.9708 126.9708 127.8305 127.8305 127.8305
   128.8932 128.8932 128.8932 129.4938 131.2044 132.0148 132.0148 132.0148
   132.1251 132.1251 132.1251 132.2669 132.2669 132.2669 132.5026 132.5026
   132.5026 144.5004 144.7046 144.7046 144.7046 144.9355 144.9355 144.9355
   146.1665 147.0542 147.0542 147.5863 147.5863 147.5863 147.8961 147.8961
   147.8961 149.3808 149.3808 149.3808 155.1601 155.1601 159.5247 159.5247
   159.5247 160.8101 163.9763 163.9763 164.4357 164.4357 164.4357 165.1676
   165.1676 165.1676 167.5973 167.5973 167.5973 169.0622 169.7137 169.7137
   169.8424 169.8424 169.8424 170.3782 170.3782 170.3782 170.5759 170.5759
   170.5759 170.6193 170.6193 170.6193 171.7037 171.7037 172.2169 172.2169
   172.2169 172.5159 172.5159 172.5159 172.9691 173.1119 173.1119 173.1119
   173.4691 173.4691 173.4691 173.5248 173.8322 175.3454 175.4838 175.4838
   175.4838 175.6867 175.6867 178.1700 178.1700 178.6297 178.6297 178.6297
   179.1722 179.1722 179.1722 179.3018 179.3018 179.3018 179.7493 179.7493
   179.7493 179.7823 179.7823 186.7578 186.7578 187.0923 187.0923 187.0923
   188.1115 193.1837 193.1837 193.1837 194.2249 194.2249 194.2249 195.8069
   195.8069 195.8069 196.2656 196.2656 196.2656 196.7800 198.3892 198.3892
   198.3892 199.2778 199.2778 199.3326 199.3326 199.3326 199.4264 199.4905
   199.4905 199.4905 200.5968 202.9056 202.9056 205.0611 205.0611 205.0611
   207.6857 207.6857 207.6857 208.6181 208.6181 208.6181 208.7105 208.7105
   208.7105 209.8401 209.8401 211.2652 212.9518 212.9518 212.9518 214.6535
   214.6535 214.6535 215.8318 215.8318 216.6007 216.6007 216.6007 216.9023
   217.6989 217.6989 217.6989 217.7656 217.7656 217.7656 218.6496 218.6496
   218.6496 218.8822 218.8822 230.2114 230.2114 230.2114 231.3246 231.3246
   231.3246 231.3620 233.2988 236.2204 236.2204 236.2204 237.1220 237.1220
   237.1220 237.3930 237.5315 237.5315 238.1844 238.1844 238.1844 239.2546
   239.2546 240.5698 240.5698 240.5698 241.8883 243.2965 243.2965 243.2965
   243.6027 243.6027 243.6027 245.6768 245.6768 246.0384 246.0384 246.0384
   247.3244 247.3244 247.3244 247.9147 247.9147 247.9874 248.9989 252.6871
   252.6871 252.6871 252.6877 252.6877 252.6877 252.8971 252.8971 252.8971
   252.9005 252.9005 252.9005 257.3788 257.3788 257.3788 257.3997 257.3997
   257.3997 257.4958 257.4958 257.5435 257.5435 257.5435 257.7261 258.1215
   258.7109 258.7109 258.7109 259.3045 259.3045 259.3045 260.1646 260.1646
   260.1646 260.2025 260.2025 262.9591 263.1463 263.1463 263.1463 263.8837
   263.8837 263.8837 265.4410 267.3287 267.3287 268.5569 268.5569 268.5569
   269.2796 269.2796 269.2796 271.1867 271.1867 271.1867 271.2544 271.2544
   271.2544 273.2603 273.2603 275.9820 275.9820 276.8476 276.8476 276.8476
   277.2103 277.2103 277.2103 277.4940 277.4940 277.4940 278.1938 278.1938
   278.1938 278.4795 278.4795 278.8856 279.6342 279.6342 279.6342 280.0304
   280.0304 280.0304 280.3132 280.7806 280.7806 280.7806 281.0428 281.0428
   281.0428 281.2444 281.7321 285.3720 285.3720 286.7958 286.7958 286.7958
   288.5818 288.5818 288.5818 288.6244 288.6244 288.6244 288.7872 288.7872
   289.3665 289.3665 289.3665 290.6420 290.8111 291.3193 291.3193 291.3193
   291.5322 291.5322 291.5322 293.3581 293.3581 293.3581 293.3624 293.3624
   293.3942 293.3942 293.3942 293.6706 293.6706 293.6706 293.9717 293.9717
   293.9717 293.9846 293.9846 294.4523 294.4523 294.4523 294.4846 294.4846
   294.4846 294.5970 294.8265 295.2658 295.2658 295.2658 295.2827 295.2827
   295.2827 295.3310 295.3310 295.4723 295.4723 295.4723 295.6180 295.6180
   295.6394 295.6394 295.6394 314.5016 314.5016 314.5459 314.5459 314.5459
   314.8017 318.7058 318.7058 318.7058 319.1288 319.6544 319.6544 319.6544
   320.8119 321.5592 321.5592 323.3915 323.3915 323.3915 326.2124 326.2124
   326.2124 326.7432 326.7432 326.7432 327.2492 327.2492 327.2492 327.6804
   327.6804 329.1288 330.9767 330.9767 330.9767 331.8302 331.8434 331.8434
   331.8434 332.4501 332.4501 333.4088 333.4088 333.4088 334.3932 337.9039
   337.9039 337.9039 337.9894 337.9894 337.9894 338.0104 338.0104 338.0104
   338.0845 338.0845 338.0845 340.0026 340.0026 340.2059 340.2059 340.2059
   340.3303 340.3303 340.3303 340.3367 340.3367 340.3367 340.5086 340.5086
   340.6028 340.6028 340.6028 341.1062 341.1062 341.1062 341.1105 341.1105
   341.1747 346.3792 346.3792 346.3792 346.5731 346.5811 346.5811 346.5811
   346.7330 346.7330 346.8701 346.8701 346.8701 352.6604 352.6604 352.8680
   352.8680 352.8680 355.0831 356.4213 356.4213 356.4213 357.3172 357.3172
   357.3172 357.3617 357.3617 357.3617 357.6665 357.6665 357.6665 357.6906
   357.6906 357.6906 357.7839 357.7839 357.7839 358.0123 358.0123 358.0752
   358.0752 358.0752 358.4335 358.8837 359.1790 359.1790 359.1790 359.3209
   359.3209 367.5422 368.3655 368.3655 368.3655 368.7886 368.7886 368.7886
   368.8481 370.6951 370.6951 370.6951 370.7241 370.7241 370.7241 370.8464
   370.8730 370.8730 370.8730 370.9627 370.9627 372.9814 372.9814 372.9814
   373.0177 373.0177 373.0177 373.0437 373.0437 373.2254 373.2254 373.2254
   373.4430 373.6510 373.6510 373.6510 373.6528 373.6528 374.0214 374.0214
   374.0214 374.3909 374.3909 374.3909 374.6964 379.0661 379.0661 379.0661
   379.1123 379.1123 379.1180 379.1180 379.1180 379.2039 379.2039 379.2039
   379.2596 381.1503 381.1951 381.1951 381.1951 381.2348 381.2348 381.2348
   381.2718 381.2718 381.2718 381.2794 381.2794 394.3761 394.4681 394.4681
   394.4681 394.6049 394.6049 395.6572 395.6572 395.6572 396.0672 396.2928
   396.2928 396.2928 396.9367 396.9367 396.9367 397.4074 397.4074 397.4074
   397.7334 397.7334 397.7334 398.2787 398.2787 398.4834 398.4834 398.7861
   398.7861 398.7861 399.0531 400.5301 400.5301 400.5301 401.2576 401.4169
   401.4169 401.4169 403.8108 403.8108 403.8108 404.5675 404.5675 404.5675
   405.3583 405.5524 405.5524 405.5524 406.6829 406.6829 408.7594 408.7594
   408.7594 409.1677 409.1677 409.2196 409.3385 409.3385 409.3385 409.4817
   409.4817 411.6524 411.6524 411.6524 412.2834 412.2834 412.2834 412.8036
   412.8036 412.8036 413.1168 413.1168 413.3064 413.3064 413.3064 413.5439
   413.5439 413.8281 413.8281 413.8281 414.5396 414.5396 414.5396 415.0769
   415.0970 415.1812 415.1812 415.1812 415.5027 415.5027 415.5027 415.7056
   415.7056 415.7056 415.8138 415.8957 415.8957 415.8957 415.9475 416.3144
   416.3144 416.3144 416.4810 416.4810 416.4810 418.1184 418.1184 418.1184
   418.2098 418.2098 418.6206 418.6206 418.6206 418.7178 418.7178 418.7178
   418.8298 418.8298 418.8298 419.3701 419.3701 421.2871 421.2871 421.5172
   421.5172 421.5172 421.9866 421.9866 421.9866 422.0149 422.1735 422.1735
   422.1735 422.2378 422.2378 422.2378 422.5568 422.5568 422.5568 422.6010
   422.6010 422.8621 422.8621 422.8621 423.0092 431.0208 431.1587 431.1587
   431.1587 431.2695 431.2695 431.2695 431.3091 440.8823 440.8823 440.8845
   440.8845 440.8845 440.9964 440.9964 440.9964 441.0961 441.0961 441.0961
   441.2034 441.2034 441.2034 441.2253 441.2253 447.5773 447.5773 447.6515
   447.6515 447.6515 447.7634 449.0354 449.0354 449.0741 449.0741 449.0741
   449.1253 450.0098 450.0098 450.0098 450.0272 450.0272 450.0272 450.0811
   450.0811 450.0811 450.1132 450.1132 450.1132 455.7288 455.7288 455.7288
   455.7376 455.7376 455.7376 455.8062 455.8062 455.8062 455.8170 455.8170
   455.8170 456.2226 456.2226 456.2574 456.2574 456.3281 456.3281 456.3281
   456.3661 456.3661 456.3661 456.4631 456.5062 470.2549 470.5297 470.5297
   470.5297 470.8552 470.8552 470.8552 471.4022 474.1629 474.1629 474.1681
   474.1681 474.1681 474.7608 474.7608 474.7608 474.8467 474.8467 474.8467
   474.9223 474.9223 474.9223 475.4445 475.4445 477.1509 477.6098 477.6098
   477.6098 478.2863 478.2863 478.2863 479.5909 479.5909 479.6184 479.6185
   479.6185 483.9633 485.7704 485.7704 485.7704 486.6926 486.6926 486.8119
   486.8119 486.8119 486.8195 486.8195 486.8195 488.0971 488.0971 488.0971
   488.2556 488.2556 488.2556 488.5570 488.6006 491.2380 491.2380 491.4516
   491.4516 491.4516 492.6006 492.6006 492.6006 492.6481 492.6481 493.0053
   493.0053 493.0054 493.1263 493.1263 493.1263 493.3781 494.7035 494.7035
   494.7035 494.8160 495.0599 495.0599 495.0599 497.3294 497.3294 497.4354
   497.4354 497.4354 497.4514 497.4514 497.4599 497.4599 497.4599 497.5132
   497.5132 497.5132 497.6205 497.6205 497.6205 498.5828 498.6883 498.6883
   498.6883 498.7286 498.7286 500.6193 500.6193 500.6193 500.6228 500.6228
   500.6228 500.6352 500.7547 500.7547 500.7547 500.8161 500.8161 503.2948
   503.2948 503.2948 503.3009 503.3009 503.3009 503.3226 503.3283 503.3283
   503.3283 503.3349 503.3349 508.9539 509.0974 509.0974 509.0974 509.1513
   509.1513 511.6643 511.6643 511.6643 511.7304 511.7304 511.7304 512.2105
   512.2105 512.4503 512.4503 512.4503 513.2709 515.2546 515.5300 515.5300
   515.5300 515.8506 515.8506 515.8506 515.9652 515.9652 515.9652 516.1751
   516.1751 517.5109 517.5109 517.5109 518.0597 518.0597 518.0597 518.3166
   518.3166 518.3166 519.1131 519.2328 519.2328 520.5455 520.5455 520.5455
   521.0612 521.0612 521.0612 521.0707 521.0707 521.0707 521.3578 521.3578
   521.3578 521.6393 521.6393 521.6676 521.6676 521.6676 521.8191 521.8191
   521.8191 521.9062 521.9062 521.9062 521.9864 523.8032 523.8032 523.8286
   523.8286 523.8286 523.8751 527.4596 527.9906 527.9906 527.9906 528.8569
   528.8569 528.8569 529.3427 529.3427 529.6376 530.7354 530.7354 530.7355
   531.2923 531.2923 531.2923 532.4222 532.4222 532.4222 532.7423 532.7423
   532.7423 533.2556 533.2556 533.6139 534.0732 534.0732 534.0732 534.1562
   534.1562 534.6878 534.6878 534.6878 534.7376 534.7376 534.7376 535.4684
   535.4684 535.4684 535.6699 536.0180 536.0180 536.0180 536.1039 536.1039
   536.2416 536.2416 536.2416 536.2906 536.2906 536.2906 536.4071 536.4071
   536.4071 536.5305 536.5649 537.3085 537.3085 537.3085 537.4610 537.4610

          k =-0.2500 0.2500-0.2500 (  2427 PWs)   bands (ev):

    -4.9676   2.2352   5.3966   5.3966   8.1322   9.6369   9.6369  12.9846
    13.2978  13.2978  15.0986  17.9176  20.6791  20.6791  23.8690  23.8690
    23.9817  26.1283  29.8240  29.8240  32.4924  32.4924  33.5728  35.3288
    35.9780  37.7635  37.7635  39.2193  39.2193  40.1916  40.1916  44.1217
    44.1217  44.3578  44.8545  45.3849  47.1447  47.1447  49.4259  49.7834
    49.7834  50.0734  50.5368  52.5860  52.5860  55.4714  55.4714  56.5696
    56.6844  56.6844  58.4368  60.1044  62.6732  62.6732  63.3717  63.3717
    63.4629  65.6147  65.6147  66.2575  67.1765  68.1965  68.1965  71.0466
    71.3693  71.6408  71.6408  74.8605  74.8605  75.7702  76.8537  77.2511
    79.9512  79.9512  81.1943  81.5747  81.5747  82.3149  83.7694  83.7694
    84.5814  85.2728  85.2728  85.6866  86.7077  86.7077  88.2160  89.8010
    89.8010  90.0345  90.4497  90.4497  91.0107  93.3959  94.4015  94.4015
    94.8917  94.8917  95.9556  96.5599  97.0058  97.0059  98.1967  98.1967
    98.7320  99.9165 101.3002 101.3002 102.0056 102.0056 103.4355 103.4355
   103.5499 104.3204 104.3204 105.8385 106.1683 108.9303 110.3090 110.3090
   110.5004 110.5004 110.9573 111.4548 111.6229 111.6229 111.9473 111.9473
   112.6459 113.5474 115.2068 115.2068 115.4627 115.8315 115.8315 118.5896
   118.5896 118.8797 119.5656 119.5656 120.5910 122.0161 122.4968 122.4968
   123.8623 123.9285 123.9285 124.1874 124.1874 125.6328 125.6682 126.1295
   128.5893 128.5893 129.3563 132.9456 133.9184 133.9184 134.0262 134.0262
   135.9688 135.9688 136.7081 136.7081 137.0264 139.2189 139.2189 139.8125
   142.5058 143.4899 143.4899 144.8554 144.8554 145.0909 145.3258 146.4216
   146.5489 146.5489 147.5493 147.5493 148.1285 148.4987 148.4987 148.5105
   148.5105 148.6256 150.0214 150.0214 151.4007 152.1659 152.9615 152.9615
   153.0087 153.5163 155.6495 155.6495 155.7753 155.7753 158.6528 159.8497
   160.6670 160.6670 160.8415 161.6371 161.6371 163.4134 163.6945 163.6945
   165.0875 165.9101 165.9101 166.6864 166.6864 166.9729 167.4384 168.3333
   168.3333 168.5165 168.9466 169.6902 169.6902 171.3298 171.3298 172.3834
   172.3834 172.4617 172.6446 172.7573 172.7573 173.8978 174.4118 174.4118
   175.5556 175.9407 177.3894 177.3894 177.4419 178.0897 178.0897 178.5872
   179.5959 180.0092 180.0092 180.2488 180.2488 181.5525 181.5525 184.6630
   184.6630 184.8055 185.0493 185.0493 185.1339 186.3705 186.7221 186.7221
   186.9505 187.5427 187.5427 188.5294 188.5294 188.9397 189.4676 189.4676
   189.9421 190.1740 190.9157 191.2134 191.2134 192.1428 192.1428 192.6314
   194.0977 194.0977 195.0887 195.0887 195.1874 195.1874 195.6633 196.9839
   197.1225 198.6732 198.6732 198.8043 201.0511 201.0511 201.1275 202.6559
   202.6559 203.2139 204.1787 204.6251 204.8044 204.8044 205.0716 205.0716
   206.8381 206.8381 207.3489 208.0774 208.0774 208.2528 212.0102 212.0102
   212.0847 212.6879 213.5034 213.5034 213.9826 214.4230 214.4230 216.2964
   216.5055 216.5055 218.1188 218.1188 218.4855 218.6078 218.6078 219.0908
   220.3575 220.3575 220.7018 222.3250 223.0863 223.0863 224.5117 224.7095
   224.7095 225.5103 225.7782 225.7782 226.7322 226.7322 227.8478 229.0296
   229.3488 229.3488 230.4170 231.6494 231.6494 232.3793 232.8257 233.1530
   233.3883 233.3883 234.8642 234.8642 235.2262 235.2262 235.9998 236.3241
   236.3241 236.3978 236.8638 236.8638 236.9726 238.1852 238.1852 238.4430
   239.8856 240.2154 240.2154 240.9200 241.2588 241.2588 241.6037 241.6037
   241.8214 243.0101 243.0101 244.8175 244.8175 244.8957 245.8371 247.1689
   247.1689 247.6530 247.6530 249.6975 250.0323 250.0894 250.0894 251.5995
   255.3631 255.4870 255.4870 255.6275 255.6275 255.8898 256.2946 256.2946
   256.5550 258.4023 259.1037 259.1037 259.7822 260.1322 260.1322 260.3552
   260.3552 260.8092 262.0701 262.0701 262.9298 262.9640 262.9640 263.5058
   263.5282 263.5282 263.7230 264.0070 264.0780 264.0780 264.6803 264.6803
   265.6052 265.6957 265.9094 265.9094 266.2575 266.2575 266.9914 267.5058
   267.5306 267.5306 267.8207 267.8207 268.6357 269.1812 269.1812 269.9899
   269.9899 270.2019 271.4890 271.6142 272.0722 272.0722 272.2624 272.9398
   272.9398 273.9084 273.9084 274.2935 274.4116 274.4116 275.1130 276.8905
   277.2508 277.2508 278.1107 278.1107 278.3093 278.6651 278.6651 278.8510
   280.5233 280.7670 280.7670 280.9571 280.9571 281.0815 283.3186 283.3186
   283.5080 283.7762 283.7871 283.7871 284.5391 284.5410 284.5410 284.5779
   284.8232 284.8232 285.9455 286.5933 286.5933 286.6475 287.8888 288.0883
   288.0883 288.4045 288.4045 288.5298 292.0585 292.7202 292.7202 293.5050
   293.5050 294.2240 294.6608 294.6608 295.5742 295.9896 296.4096 296.4096
   296.6775 296.6775 297.0239 297.5248 297.5248 298.4359 299.9126 301.7002
   301.7002 301.7484 301.8164 301.8164 302.7772 302.7772 302.9516 303.4490
   303.9605 303.9605 304.1023 304.4729 304.4729 305.3407 305.3407 305.6544
   306.0380 306.0380 306.7620 306.7620 308.5203 308.5203 309.8215 309.9784
   310.7042 310.8297 310.8770 310.8770 312.3073 312.3158 312.3158 314.6439
   314.6439 315.1956 315.1994 315.1994 315.3655 315.3655 315.5561 316.2161
   316.5203 316.5688 316.5688 317.6342 317.6342 318.9082 319.0228 319.0228
   319.5198 320.1940 320.1940 322.0402 322.9159 322.9159 323.4196 324.9159
   324.9159 325.2989 325.5298 325.5298 325.9723 326.1645 326.3467 326.5401
   326.5401 326.6579 326.6579 326.7828 326.7828 327.4872 328.2905 328.5079
   328.5079 329.0239 329.0239 333.4070 334.6179 334.6179 334.7372 335.0209
   335.0209 335.4565 336.6794 336.7732 336.7732 337.1557 337.1557 337.1948
   337.8467 337.8467 338.0043 341.5435 341.5435 341.8311 342.1015 342.1059
   342.1059 342.1512 342.1512 342.9587 343.5474 343.5474 343.6626 346.0979
   346.3803 346.3803 346.7941 346.7941 346.8465 346.8840 347.2378 347.2378
   347.7976 347.7976 348.0734 348.6301 349.5243 349.5243 349.6523 349.7604
   349.7604 353.0321 353.0321 353.0541 353.5449 353.7982 353.7982 354.3409
   355.0251 355.1454 355.1454 356.3826 356.3826 356.8466 357.0992 357.1336
   357.1336 357.8163 357.8163 358.1153 358.5741 358.5741 359.9018 360.2180
   360.2180 361.1279 362.3825 363.9490 363.9490 365.5127 365.5127 365.7850
   365.8711 365.8711 366.0506 366.0506 366.0826 366.8533 368.1140 368.3401
   368.3401 368.7486 368.8308 368.8308 369.0249 369.2283 369.2283 369.4401
   369.4401 369.4651 371.7439 372.0762 372.0762 372.6699 372.6699 372.9093
   374.1614 374.1614 375.1488 375.7896 375.7896 375.8855 375.9688 375.9688
   376.6758 376.9626 376.9626 377.0226 377.0226 377.1651 377.6295 377.6295
   378.0230 378.3044 378.4992 378.4992 378.8571 379.2853 379.2853 379.3870
   379.3870 379.7342 380.5395 380.9841 380.9842 381.3208 381.6772 381.6772
   382.0013 382.0013 382.0387 383.6562 383.6605 383.6605 384.7477 384.7477
   384.8762 385.8690 386.2522 386.2522 386.3092 386.9829 386.9829 387.0627
   387.0627 387.2719 387.7532 388.1478 388.1478 388.5284 388.5284 388.6708
   388.7853 388.7853 389.4669 389.6143 389.6329 389.6329 389.7245 389.7931
   389.7931 392.5849 392.7759 392.7759 393.9845 394.0197 394.6670 394.6670
   395.2291 395.4339 395.4339 396.6406 396.6406 397.0648 397.1110 397.2314
   397.2314 398.3769 398.5712 398.5712 401.5957 401.5957 401.8140 402.1946
   402.1946 402.3465 402.3954 402.5301 402.5301 402.7641 402.7641 404.0565
   404.0565 404.4537 406.0390 406.1660 406.4716 406.4716 406.6748 406.6748
   406.7880 406.8926 406.8926 407.1969 407.1969 407.6302 407.7159 408.6134
   408.6134 408.8110 408.8320 408.8991 408.8991 412.9829 413.1348 413.1348
   413.6591 413.6591 413.8266 414.0062 414.1816 414.1816 414.8341 414.8341
   414.8487 415.8738 415.8738 416.4852 417.0153 417.0189 417.0189 418.4242
   418.4242 419.0687 419.3913 420.2408 420.2408 421.2857 421.2857 421.9538
   422.6872 423.2133 423.2133 423.8648 423.8648 423.9321 423.9935 423.9935
   424.1700 425.4628 425.4628 425.5025 426.4593 426.4593 426.6406 426.9461
   426.9461 427.1535 428.0011 428.0551 428.0551 429.1589 429.1589 429.5865
   429.6064 429.6064 429.7897 431.2523 431.6336 431.9996 431.9996 432.0280
   432.0920 432.0920 432.5168 432.8883 432.8883 433.1247 433.1247 433.7838
   435.0530 435.5326 435.5326 435.7781 435.7781 436.4072 436.4917 436.4917
   437.3763 437.3882 437.3882 437.3884 437.6261 437.6261 437.7783 437.8428
   437.8436 437.8436 439.6353 439.6353 439.7546 439.9837 439.9837 440.8237
   442.0801 443.1138 443.1138 443.2438 444.3024 444.3024 444.3509 444.6906
   444.6906 444.7138 444.7138 446.3990 446.3990 446.4501 446.6129 446.9170
   446.9170 448.0830 449.6176 449.6176 450.4036 451.2616 451.2616 451.7398
   452.2502 452.2517 452.2517 453.6150 454.0321 454.0321 455.4642 455.5340
   455.5340 455.5689 455.5689 455.5708 455.8178 455.8178 457.3148 457.3148
   457.6746 459.0779 459.0779 459.8298 460.5251 460.5385 460.5385 461.9815
   461.9903 461.9903 465.4597 465.4597 465.6096 467.0083 467.2631 467.2631
   468.9860 468.9860 469.0475 469.1762 469.2543 469.2543 469.5311 469.5314
   469.5314 470.1856 470.1856 470.4906 470.7679 470.7679 471.4576 471.6008
   472.0411 472.7526 472.7526 472.8464 472.9728 472.9728 473.7566 474.2249
   474.2249 474.7576 474.7576 474.9646 476.2653 476.3710 476.3710 478.9919
   478.9919 479.5881 479.8127 479.9387 479.9387 480.2753 480.2753 480.7119
   480.7119 480.8147 480.9851 481.5892 481.5892 481.9426 482.5326 482.5326
   482.7661 482.7661 482.9396 482.9476 483.4480 483.5764 483.5764 483.6647
   483.6647 485.0190 485.0190 485.3541 486.3216 486.6322 486.6322 487.0004
   487.1874 487.1874 487.2162 488.5722 488.5722 488.6730 489.1519 489.1519
   489.4460 489.8842 489.8842 490.0277 490.1354 490.8250 490.8250 492.3049
   492.3049 492.7287 492.7532 492.7532 493.3018 493.3752 493.3752 495.9035
   496.6469 496.6964 496.6964 496.7716 496.7716 497.5015 497.8417 497.8417
   497.8922 498.6917 498.7412 498.7412 499.2056 499.3071 499.3071 499.5939
   499.5939 499.7836 500.2749 500.2893 500.2893 501.6892 501.9039 501.9039
   501.9232 501.9686 501.9686 502.7162 502.7205 502.7205 502.8521 502.8521
   503.6796 505.0511 505.5991 505.5991 506.2665 506.2665 506.2766 506.2844
   506.2844 506.2987 507.9676 508.0100 508.0100 508.1708 508.1708 508.2196
   508.7327 508.7427 508.7427 510.2232 510.2367 510.2367 512.1084 513.2089
   513.2089 513.2237 514.3784 514.4699 514.4699 514.6319 514.6319 514.8231
   515.1510 515.3612 515.3612 515.5344 515.5344 516.6760 516.6760 516.8877
   516.9510 516.9510 517.0152 517.0674 517.4817 517.4817 518.1936 518.1936
   518.2321 518.3595 518.4484 518.4484 518.8603 519.1282 519.1282 519.4677
   521.3016 521.3016 521.3040 522.7209 522.7209 522.9592 523.3647 523.4671
   523.4671 523.7320 523.7320 524.0109 524.1191 524.1191 524.4135 524.4135
   524.6153 525.3537 525.3537 525.5643 528.0053 528.0057 528.0057 528.2082
   528.2082 528.2422 529.5703 529.8796 529.8796 529.9102 530.2198 530.2198
   530.2297 530.4196 530.4196 530.4818 530.6179 530.6635 530.6635 531.6941
   531.8483 531.8483 532.0804 532.0804 533.6031 533.9122 534.6644 534.6644
   535.4679 536.6943 536.6943 536.9241 537.1973 537.1973 539.7482 539.7482
   539.9928 540.1424 540.2081 540.2081 540.4429 540.4429 541.2937 541.2937
   541.5024 541.5809 541.5809 541.6703 542.1725 542.1725 542.1939 542.2265
   542.2265 542.2517 542.4417 542.4417 542.8707 543.3417 543.8888 543.8888

          k = 0.5000-0.5000 0.5000 (  2392 PWs)   bands (ev):

    -3.4504  -0.7845   4.9624   4.9624   7.6367   9.4746   9.4746  13.8517
    16.6050  16.6050  17.4009  17.4121  17.4121  19.0475  25.3159  25.9761
    27.6111  27.6111  27.7210  27.7210  31.6329  32.3389  32.3389  33.2639
    33.2639  34.3816  37.0468  38.2610  38.2610  38.7636  38.7636  39.6633
    42.4622  42.7581  46.5988  46.5988  48.5023  48.5023  48.8656  49.5040
    51.8881  51.8881  53.9997  53.9997  54.7057  58.3458  58.3458  58.4978
    59.8387  59.8387  60.1369  61.6469  61.6469  64.2098  64.2098  64.8792
    64.8792  64.9962  67.0792  67.7443  68.2287  68.2287  70.0613  70.6649
    71.6180  71.6180  72.5261  72.5461  73.4643  73.4643  74.5924  74.9529
    77.0751  77.1877  77.1877  77.7245  77.7245  78.5230  79.6880  79.6880
    81.4287  81.4287  82.8620  86.3639  86.3639  87.0676  89.0278  89.6185
    89.6185  90.7475  91.6336  91.6336  91.6869  94.1782  94.1782  95.1123
    95.1123  95.3439  97.6194  97.7745  97.7745  97.7996  98.0255  98.9348
    98.9348  99.5433  99.5433  99.7547 100.0352 104.7615 104.7615 106.1921
   106.1921 106.5382 107.5827 107.7775 107.7775 109.4799 110.0555 110.0555
   110.6411 110.6411 110.7997 111.0886 111.3773 112.0383 112.5640 112.5640
   113.2695 113.3643 113.3643 113.4498 113.4498 114.3904 118.0901 118.0901
   118.4009 118.4009 119.1010 121.2057 121.6198 121.6198 122.2729 122.2729
   127.9192 127.9192 127.9415 127.9415 128.6570 129.1412 131.0477 131.3428
   131.4789 131.4801 132.0751 132.0751 132.2497 132.2497 133.8674 133.8674
   134.1085 134.1085 135.1309 135.1309 136.2414 136.2414 137.6754 138.8364
   140.6282 141.9977 141.9977 143.9222 143.9222 144.1550 145.0936 145.8807
   145.8807 145.9028 146.7742 146.9016 146.9016 146.9111 146.9111 148.1899
   148.3735 148.3735 149.1534 149.4801 153.1883 153.1883 154.1169 154.1169
   155.0129 155.3742 155.9461 155.9461 156.5040 156.5040 156.8570 157.5693
   158.4827 158.4827 158.5718 158.5718 160.5206 160.5206 160.7740 160.7740
   160.9006 161.2263 164.0545 164.5786 164.5786 164.7813 164.8383 164.8383
   165.5419 165.7933 168.3857 168.3857 168.5502 168.8314 168.8314 169.9026
   169.9026 171.2522 171.2522 171.7272 173.2609 173.2609 173.4283 174.3725
   174.3725 176.0226 176.5724 176.7082 179.5411 179.5411 179.8363 179.8363
   179.8772 180.3006 181.0264 181.4060 181.4060 182.1938 182.1938 182.3450
   182.7590 182.7590 184.0867 184.0867 184.2505 185.4935 186.1805 186.4605
   186.4605 186.8698 187.0597 187.0597 190.4517 191.8063 192.3109 192.3109
   192.6881 192.6881 193.3250 193.3250 193.5293 193.5293 193.6551 193.6695
   193.9187 193.9710 197.7573 197.7573 197.8323 197.8323 203.5259 203.5259
   203.5896 203.5896 203.9354 204.4349 206.1538 206.1538 206.4575 206.4575
   207.8232 208.0285 208.6888 208.6888 208.9744 208.9744 208.9871 209.8735
   210.4662 210.4757 210.4847 211.8115 211.8115 211.8604 212.1071 212.1071
   214.1631 214.1631 214.2751 214.2751 215.9583 215.9583 216.1958 216.1958
   216.2844 216.3149 217.1683 217.1683 217.4807 217.6747 217.6747 217.8571
   220.5237 220.5237 220.5573 220.5573 220.7040 221.3019 221.6804 221.6804
   221.7873 221.7873 222.7532 222.7661 223.0565 223.1083 226.7133 226.7133
   227.2918 227.4560 227.4560 228.2851 231.4245 231.4245 231.4782 231.4782
   232.2245 232.3912 232.3912 232.4656 232.4656 232.7679 234.8923 235.6001
   235.6001 236.0969 236.0969 236.6364 237.0223 237.0223 237.1722 237.1722
   237.4336 237.5218 238.2931 238.9138 238.9138 239.5880 239.5880 240.2505
   242.4142 242.4142 242.5462 242.5462 242.6464 242.8282 243.8514 244.0052
   244.0052 245.8094 245.8094 247.0190 247.1740 247.6937 247.6937 248.0235
   248.5552 248.5552 249.4856 249.4856 250.1691 250.1691 250.5351 250.9653
   254.9936 255.0639 255.2708 255.2708 255.5566 255.5853 255.5853 256.1575
   257.6042 258.1143 258.1143 259.0678 259.0678 259.8026 260.4771 260.9062
   260.9062 261.2753 261.2753 261.4348 264.0379 264.0379 264.0766 264.0766
   265.8897 266.9097 266.9097 268.4635 268.5718 268.5718 268.8614 269.8725
   269.8725 270.0168 270.2206 270.4000 270.4000 270.8829 271.1849 271.5549
   271.5549 271.7537 271.8071 271.8071 274.3208 274.3208 274.3568 274.3568
   277.0976 277.2922 277.2922 278.0402 278.0402 278.1355 278.6377 278.6377
   278.6810 279.3687 279.3687 279.7154 280.6363 280.6703 280.6703 280.7559
   280.7559 281.0708 283.3711 283.7542 283.7542 284.6735 284.6771 284.6771
   284.7530 285.0164 285.0164 285.5608 285.5608 285.6428 287.9571 288.2938
   288.6276 288.6276 288.6416 288.6416 289.6447 289.6447 289.9351 289.9351
   291.6382 291.7661 293.9704 294.5669 294.8293 294.8293 294.9645 294.9645
   295.4806 295.5576 296.5777 296.5777 296.6768 296.6768 296.9915 297.4187
   299.3907 299.3907 299.3931 299.3931 300.4212 300.4432 300.6320 300.6320
   300.7810 300.7810 301.6177 301.8146 304.6637 304.6637 304.6772 304.7232
   304.7232 304.9489 307.4800 307.6392 307.6392 307.7746 307.7746 307.8889
   311.1614 311.1614 311.2160 311.2160 311.2795 311.5020 312.6181 312.7660
   312.7660 313.1604 313.1604 313.1983 313.4181 313.4181 313.4940 313.4940
   313.5710 313.6083 314.6963 314.7544 315.3605 315.3605 315.3610 315.3610
   315.7693 315.9169 315.9169 316.0746 316.0746 316.2005 318.1141 318.1141
   318.2615 318.2615 318.9164 319.3702 319.5095 319.5574 320.3437 320.3437
   320.5249 320.5249 322.1311 322.1311 322.2351 322.2351 322.5394 322.6254
   326.5345 326.6564 326.6564 326.6654 326.6876 326.6876 326.8527 327.0773
   331.2173 331.2173 331.2666 331.2666 331.4430 331.4450 333.2847 333.2847
   333.3476 333.3476 338.7026 338.7026 338.7491 339.1679 339.1679 339.6080
   340.4099 340.4099 340.4997 340.4997 340.6984 340.6984 340.7104 340.7332
   340.7498 340.7498 341.4465 341.4527 342.4282 342.4282 342.4321 342.4321
   344.1668 344.1756 344.3645 344.4277 346.5973 346.5973 346.8074 346.9557
   346.9557 347.3724 347.7761 348.0303 348.0303 348.2078 348.2078 348.6940
   348.6940 349.7978 349.7978 350.0929 353.0542 353.5324 353.5324 353.7195
   353.7195 354.2593 354.6854 354.6854 354.7228 355.1989 355.4971 355.5046
   355.5046 356.4859 359.0548 359.1342 359.1342 359.4253 359.4253 359.5747
   360.9630 361.0290 361.0290 361.9308 361.9308 362.4482 363.3553 363.3553
   364.0685 364.0685 364.0859 364.0859 364.2105 364.2105 364.5431 365.7541
   366.0836 366.0984 367.8137 367.8137 367.9066 367.9066 368.7804 368.7868
   368.7868 368.9681 368.9974 368.9974 371.3965 371.5463 371.5463 371.6714
   371.6714 372.0209 372.2918 372.2918 372.3621 372.3621 372.6674 372.7214
   373.8290 373.8939 373.9710 373.9710 373.9945 373.9945 375.8113 375.8113
   375.9259 375.9259 375.9694 376.1405 377.7656 378.0615 378.0615 378.1549
   378.2182 378.2182 381.4612 381.7050 381.7050 382.2157 382.2157 382.5227
   383.3682 383.6656 383.6656 384.0475 384.0475 384.2010 386.0186 386.2389
   386.2908 386.2908 386.3747 386.5416 386.5416 386.6979 386.9780 386.9780
   387.0110 387.0110 387.7169 387.7629 387.8182 387.8182 387.8549 387.8549
   391.8396 391.9700 391.9700 392.2702 392.2702 392.4576 393.9118 393.9118
   393.9355 393.9355 393.9451 393.9482 394.1512 394.1586 394.5710 394.6033
   394.6033 394.9147 394.9147 395.1509 397.3384 397.3384 397.4274 397.4274
   398.9062 398.9784 399.5673 399.5673 399.6715 399.6715 399.8956 400.2430
   400.7755 400.7755 400.7822 400.7822 401.2007 401.2007 401.2690 401.2847
   401.2847 401.3759 404.0298 404.1422 404.6385 404.6385 404.7143 404.7143
   404.7222 404.8964 411.1892 411.1892 411.1994 411.1994 412.6063 412.6238
   412.7121 412.7637 412.7637 412.8717 412.8717 412.9296 414.7170 414.7170
   414.7197 414.7197 417.7408 417.8709 417.8709 418.1314 418.1314 418.3533
   419.0331 419.0331 419.0632 419.0632 419.7257 419.8161 420.9139 420.9139
   420.9310 420.9310 421.2476 421.5357 421.6349 421.6349 421.7192 421.8911
   421.8911 422.1624 422.2025 422.2025 422.3713 422.4328 422.4328 422.5268
   424.7487 424.7562 424.7562 424.9036 424.9036 425.0318 428.4846 428.4846
   428.4854 428.5629 428.5629 428.6746 432.9939 432.9939 432.9953 432.9953
   433.0235 433.0359 434.2760 434.2760 434.3393 434.4208 434.4208 434.6601
   435.1362 435.1994 435.4471 435.4471 435.4794 435.4794 436.6229 436.6428
   437.3220 437.3220 437.3309 437.3309 437.9823 437.9823 438.0329 438.0329
   438.0455 438.1288 438.5897 438.6588 438.6906 438.6906 438.7316 438.7316
   442.8670 442.8670 442.8888 442.8888 443.5587 443.5785 446.1342 446.1424
   448.2124 448.5754 448.5754 448.5917 448.8584 448.8584 450.3913 450.3913
   450.5764 450.5764 451.2911 451.6284 451.8179 451.9545 452.2189 452.2189
   452.2271 452.2271 453.3335 453.3335 453.3368 453.3368 453.8418 453.9088
   454.7766 454.7766 454.8011 454.8011 455.3196 455.3268 456.8839 456.8839
   456.9061 456.9061 457.5891 457.6505 459.0232 459.0232 459.0328 459.2443
   459.2443 459.5816 461.2905 461.3341 462.1042 462.1042 462.1070 462.1070
   462.6597 462.6963 462.7669 462.7669 462.7710 462.7710 463.7463 463.7463
   463.7666 463.7666 464.2043 464.2170 465.2925 465.3141 465.3141 465.3513
   465.3513 465.3881 465.3881 465.4240 465.4296 465.4296 465.4988 465.5244
   470.6070 470.6962 470.7475 470.7475 470.7884 470.7884 472.5945 472.7113
   472.7113 472.9501 472.9501 473.1068 473.1068 473.3184 473.3184 473.5137
   473.8819 473.9038 474.0238 474.0255 474.6705 474.6705 474.6742 474.6742
   477.9251 478.0656 478.4103 478.4595 478.4595 478.9284 478.9284 479.3019
   480.7641 480.7982 480.8165 480.8165 480.8195 480.8195 482.8480 482.8480
   482.9171 482.9172 483.2135 483.3071 483.3071 483.3904 483.3904 483.4234
   483.9673 484.4523 484.4523 485.1528 485.1528 485.3508 485.4901 485.8718
   485.8718 486.6377 486.6377 487.0362 487.9440 488.2213 488.2213 488.8854
   488.8854 489.2217 490.4732 490.5269 490.7286 490.7286 490.7561 490.7561
   491.2471 491.2471 491.2613 491.3061 491.3061 491.4337 492.0729 492.1574
   492.3265 492.3265 492.3837 492.3837 493.1317 493.1409 495.2335 495.2335
   495.2386 495.2386 498.5566 498.5566 498.5569 498.5569 499.5673 499.5674
   500.2196 500.2333 500.2333 500.2821 500.2821 500.3246 503.0828 503.0928
   503.0928 503.1300 503.1300 503.1393 507.6703 507.7014 507.7014 507.7956
   507.8002 507.8002 511.1224 511.1341 511.1341 511.4476 511.4476 511.7911
   511.9819 512.1706 512.1706 512.3201 512.3201 512.3674 512.5163 512.7982
   512.8715 512.8715 512.9639 512.9639 513.0518 513.0518 513.2360 513.5831
   513.5831 513.7266 514.9104 514.9421 514.9628 515.0786 515.0786 515.4283
   515.4283 515.5664 517.6004 517.6004 517.6674 517.6674 517.6936 517.7630
   517.9620 518.0693 518.0693 518.4929 518.4929 518.5923 518.7783 518.7783
   519.0933 519.0933 519.2142 519.2200 519.3829 519.3829 519.6242 519.6242
   519.9028 520.1671 520.3551 520.6216 520.6216 520.6528 520.8839 520.8839
   525.6006 525.6006 525.6037 525.6037 526.0297 526.0309 526.2030 526.2030
   526.2053 526.2053 526.7671 526.8067 526.8067 526.8803 526.8803 526.9380
   527.1962 527.2900 527.2900 527.4822 527.4822 527.5835 530.5633 530.6337
   530.6337 530.6707 530.6736 530.6736 536.1708 536.1802 536.1802 536.2177
   536.2177 536.2488 540.1860 540.1860 540.2045 540.2045 540.2090 540.2342
   540.4030 540.4162 540.4312 540.4312 540.4455 540.4455 543.2080 543.2666
   543.3469 543.3469 543.4050 543.4050 543.6534 543.6534 543.7166 543.7166
   543.8386 543.9116 550.2403 550.3508 550.3508 550.4664 550.4914 550.4914

          k = 0.0000 0.5000 0.0000 (  2413 PWs)   bands (ev):

    -4.6870   2.6266   4.2786   4.2786   7.2732   9.2595  11.8616  11.8616
    14.1031  15.0110  17.5213  19.0803  19.0803  19.7922  23.4332  23.4332
    24.3121  26.3036  26.9171  30.8090  32.0317  33.1136  33.1136  35.4175
    35.4801  35.4801  36.2610  40.3483  41.1196  41.1362  41.1362  42.6558
    43.3224  43.3224  46.6904  46.7793  46.7793  47.3167  47.3370  49.8696
    49.8696  50.1090  52.0442  53.0933  53.0933  54.7337  54.8689  56.6919
    56.9445  56.9445  57.2317  58.8992  61.7483  62.9611  62.9611  64.8421
    67.4792  67.4792  67.8345  68.2904  68.4185  68.4185  69.1336  71.3200
    71.7714  72.9307  72.9307  73.4471  74.8623  75.7532  76.9481  77.1042
    77.1042  77.3580  77.8090  79.3602  79.3602  80.1515  81.2195  83.2381
    83.3436  83.3436  84.1992  86.0605  86.0605  87.8181  88.2794  88.6424
    88.6424  91.6946  91.8621  91.8621  92.9902  94.3002  94.3880  94.3880
    95.4448  96.4809  96.4809  97.0597  98.0120  98.0819  98.1682  99.2382
    99.2382  99.9573 100.1679 101.4821 102.0194 102.0194 102.5555 103.0278
   103.0278 103.4117 105.2711 105.5120 105.6310 105.6310 107.0635 107.1829
   108.0823 108.0823 110.0308 110.0308 110.9202 110.9317 113.7743 113.8470
   114.5858 114.5858 115.3767 115.3767 115.8875 119.0002 119.0002 119.2265
   119.2583 120.0780 122.1659 123.0518 123.4050 123.4050 123.8318 123.8318
   123.9272 125.6477 126.1318 126.1318 126.4404 127.0939 128.6148 128.6148
   128.6940 129.0971 130.3722 132.1731 132.1731 132.9399 133.1464 133.1464
   134.6312 135.4447 135.4447 135.7358 136.6481 136.8974 136.8974 137.1677
   140.8201 141.3018 142.4672 142.8952 143.4712 143.6500 143.6500 144.0598
   145.9654 145.9654 146.5627 147.1509 147.1509 148.3694 148.6754 148.8603
   148.9390 148.9390 151.1977 151.9420 152.0631 152.6975 152.6975 153.0277
   155.9180 156.4160 156.4160 156.6790 157.0523 157.0572 157.0572 157.8041
   157.8041 158.5646 159.4989 160.7463 161.0219 161.0219 161.5277 164.7306
   164.7306 165.2554 165.7045 165.7366 166.1233 166.1722 166.1722 167.1931
   167.1931 167.2532 167.2532 168.1085 169.7667 169.8066 170.1561 170.2060
   170.2604 170.2604 170.3421 173.3301 173.3301 174.1219 174.6703 175.8013
   175.9318 175.9318 176.2818 177.7843 177.7843 177.9929 177.9929 178.1647
   178.9040 181.0541 181.6749 182.4150 182.4150 182.8060 183.7630 184.3929
   185.6854 185.6854 186.2646 186.5135 186.5135 186.7983 187.3159 187.6403
   187.6403 188.8679 189.0777 190.0374 190.9649 190.9649 191.9049 192.0161
   192.0161 192.9290 193.3234 194.8006 194.8006 194.8120 194.8905 195.5771
   195.5771 195.8000 196.1731 196.1731 196.3575 196.4378 197.0790 197.5211
   197.5633 197.5633 197.8584 197.8899 197.8899 198.8706 201.3305 201.9799
   201.9799 202.4422 203.0082 203.2371 203.2371 204.8921 204.9971 206.0646
   207.3871 207.3871 207.4411 207.6117 207.6117 207.6699 208.0655 208.4505
   208.6242 211.8530 211.8530 213.2224 213.2224 214.0256 214.3588 214.5577
   214.5577 214.5688 215.1172 215.6116 216.8551 218.0516 218.9054 218.9296
   218.9296 220.3536 220.9611 220.9611 221.5569 221.5569 222.1555 223.5796
   224.4993 225.3274 225.3274 227.4035 227.9060 227.9060 230.5995 230.8580
   230.9208 230.9208 231.0623 231.5091 231.5662 231.5662 231.7772 231.8729
   234.3496 234.3496 235.3168 235.4276 235.6027 235.6027 236.1642 236.5481
   236.5481 237.2074 237.3056 237.5233 239.0635 239.2288 239.2288 240.2270
   240.2270 240.6848 241.4465 242.4977 243.7739 244.2945 244.2945 244.8052
   246.0838 246.0838 246.5541 246.9925 246.9925 247.6435 248.1787 248.4044
   248.4044 248.5591 248.9057 250.2146 250.3118 250.9834 250.9834 253.3989
   253.3989 253.4850 253.5331 254.0698 254.0698 254.1876 254.6542 255.0309
   255.2856 255.5632 255.5632 256.2670 256.5920 256.5920 256.6348 257.3688
   257.3717 257.3717 257.4458 258.7756 259.1198 259.1198 259.3526 260.2865
   260.2911 260.2911 260.8191 261.3611 261.7504 261.7504 261.8374 262.9384
   263.0698 263.0698 263.1790 263.7951 263.7951 264.0980 264.2494 264.7133
   264.7875 264.7875 265.0358 268.3154 268.3579 268.3579 268.4675 268.6761
   269.2769 269.2769 269.8141 270.1210 270.2131 270.2131 270.5488 275.7828
   275.8454 275.8454 275.8831 276.2599 276.5680 276.9722 276.9722 277.2106
   277.7368 278.6223 278.8407 278.8407 279.0620 279.3013 279.4746 279.4746
   279.5965 281.3586 281.5321 281.5321 281.8750 283.1419 284.5934 284.8268
   284.8268 284.9441 285.6584 287.1828 287.1828 288.3588 288.3634 288.3634
   288.4007 288.4966 288.6786 288.6786 288.8200 289.7722 289.9838 290.8262
   290.8262 290.8376 290.8376 292.2354 292.4720 293.1458 293.1458 294.3957
   294.4265 294.5824 294.5824 294.5924 295.6339 296.0110 296.6138 296.6138
   296.9928 298.0357 298.0357 298.1289 298.1745 299.2887 299.2887 300.5635
   301.5608 301.5749 301.5749 301.7568 302.0015 302.0015 302.3248 303.5937
   305.5010 305.5770 305.5770 306.6323 307.6685 308.0395 308.2636 308.2636
   309.0893 309.3821 309.3821 309.5247 309.5752 309.7865 309.8852 309.8852
   310.0824 310.2377 310.2377 310.5660 310.9788 311.0353 311.0353 311.1257
   313.0343 315.5053 315.5053 315.8588 316.1074 316.2081 316.2081 316.5387
   316.5831 316.5831 316.8292 318.4788 318.6208 319.2401 319.2401 319.3159
   320.1622 320.9911 321.1409 321.1409 321.1832 321.1832 321.2895 322.0222
   322.7146 323.1048 323.1048 323.2605 323.6404 324.5437 324.5954 324.5954
   324.9065 325.2039 326.1149 326.1149 328.0824 328.2643 328.2643 329.1532
   330.7150 330.7150 331.0473 331.2047 335.0044 335.0941 335.0941 335.5649
   336.4263 337.4490 337.4490 338.1634 338.2645 338.6671 338.6671 339.1288
   341.1209 341.1209 341.1975 341.2277 342.2870 342.3518 342.3788 342.3788
   342.8289 343.2937 343.2937 343.3797 344.4684 344.6598 344.6598 344.8473
   344.9735 345.1428 345.1428 345.1876 346.5760 346.5760 346.9602 347.0047
   347.2507 347.7260 347.7260 348.7289 349.0333 349.5421 349.7354 349.7354
   350.0890 350.3068 350.3068 350.6999 351.7479 351.9613 351.9613 351.9964
   352.9617 353.1619 353.3003 353.3003 353.3986 353.3986 353.5012 353.5195
   355.7290 355.8696 356.7725 356.8196 356.8196 357.0546 358.3954 358.7378
   358.7378 359.9205 360.0798 360.8652 360.8749 360.8749 361.3076 361.8803
   361.8803 363.0068 365.5747 365.8246 365.8246 365.9489 366.1328 366.1328
   366.2516 368.6335 368.9880 369.0015 369.0634 369.0634 369.5638 370.0331
   370.2896 370.4027 370.4027 370.6216 371.0021 371.3722 371.3722 371.7136
   371.7136 373.0614 373.2158 373.2158 373.2233 373.2789 374.1839 374.2271
   374.2271 374.3063 375.9372 375.9372 376.1004 376.4116 377.0080 377.2378
   377.9426 377.9426 378.4417 378.4417 378.8049 378.9297 378.9297 379.1977
   379.4217 379.5731 379.7132 379.7132 379.8007 379.8007 379.8475 380.0280
   382.5327 382.6611 383.1342 383.1342 383.4922 383.9254 384.2025 384.2025
   384.9805 385.1622 386.2022 386.2022 386.8334 387.5483 387.6448 387.6457
   387.6457 388.7515 389.2016 389.2016 389.6859 393.1219 393.6786 394.2130
   394.2130 394.5036 394.9457 395.1352 395.1352 395.6327 396.2430 396.2430
   396.3995 396.5863 397.4844 397.6896 397.6896 397.7431 398.2196 398.2196
   398.5506 398.6217 398.6217 398.7960 398.8447 399.4806 399.4806 399.6418
   399.7558 399.8228 399.8503 399.8503 401.1047 401.1468 401.3317 401.3317
   401.6668 402.9203 403.8598 403.9812 403.9812 404.9848 405.1620 405.1620
   405.3651 405.4099 405.7405 406.2678 406.2829 406.2880 406.2880 406.3854
   406.5497 406.5497 406.5998 406.5998 406.6720 407.3901 407.4795 407.4795
   407.5470 409.8520 410.0743 410.0743 410.3573 410.9650 411.2316 411.2316
   411.4852 411.4865 411.4865 411.5447 411.5534 411.5534 411.5696 411.7528
   412.0401 412.3168 412.3168 412.3922 412.4235 413.4006 413.7085 413.7085
   413.9706 416.7775 416.7963 416.7963 416.8247 417.3688 417.3840 417.3840
   417.4453 420.1552 420.5202 420.5202 420.5275 420.5357 420.5692 420.5692
   421.0347 421.5543 421.6344 421.6344 421.6500 424.0645 424.2563 424.2563
   424.4201 429.7548 430.0029 430.0029 430.2554 433.2414 433.3221 433.5512
   433.5512 433.8736 433.8736 433.9662 434.1202 434.1441 434.1441 434.1601
   434.6039 434.8896 435.5214 435.5214 436.3647 436.6541 436.8758 436.8758
   436.9631 437.2491 437.4755 437.5318 437.5318 437.5948 438.2805 438.3795
   438.3795 440.2324 441.1336 441.1336 442.0674 442.2019 442.9081 443.1944
   443.4425 443.4425 443.5224 443.5224 443.7416 444.8266 444.8266 445.1759
   445.9038 447.5318 447.6053 448.7450 448.7450 448.8394 449.1983 449.6020
   449.6046 449.6046 449.7433 450.1370 450.1370 450.4369 450.6229 450.9647
   451.0389 451.0415 451.0415 451.2914 451.2914 451.6334 451.6809 452.7508
   453.6164 453.6164 454.2750 454.2750 454.9296 455.2839 455.7191 455.8090
   455.8690 457.0137 457.0137 457.1004 457.1004 457.2627 457.3661 458.0471
   458.6333 458.6333 458.7004 458.7147 458.7147 458.8012 458.8891 459.6458
   459.6458 459.6710 460.2784 460.6470 461.1383 462.3222 462.9077 462.9077
   463.4519 463.4519 463.9811 463.9951 464.1034 464.1034 464.3358 468.2303
   468.2552 468.2552 468.2864 468.6384 468.7197 468.7197 468.7409 469.8121
   470.0052 470.0052 470.2333 470.2609 470.2609 470.4730 470.5140 470.5140
   470.5257 470.6591 470.9683 470.9683 471.5212 472.5412 472.8942 472.9130
   472.9130 472.9366 473.1970 473.1970 473.5104 473.8671 475.5366 475.8505
   475.8505 476.2063 477.6591 477.6603 477.7159 477.7159 478.7767 478.8562
   478.8562 479.0784 479.2423 479.7529 479.7529 480.0866 481.5495 481.6680
   481.6680 481.7282 482.2535 486.2501 486.2501 486.4956 486.5526 486.6547
   486.6547 486.9101 487.0092 487.0727 487.0727 489.3276 489.8812 490.1861
   490.1861 491.0568 491.5499 492.2987 492.2987 492.5835 492.5850 492.9819
   492.9819 493.0879 493.9432 494.9252 494.9252 495.0362 495.1894 495.3566
   495.6176 495.6176 495.7037 495.8266 496.5634 496.5634 498.3003 498.3318
   498.3318 498.3892 498.9174 499.1588 499.1588 499.2852 501.2947 501.3830
   501.4642 501.4642 501.6695 501.6695 501.7929 501.8318 502.5573 502.5573
   503.1369 503.1746 504.6862 504.9102 504.9102 505.2792 505.4397 505.5884
   505.6281 505.6281 505.7552 505.9000 505.9000 506.0387 507.7485 508.2264
   508.2264 508.6118 508.6904 508.7050 508.7050 509.0755 509.5880 510.1993
   510.1993 510.3619 510.3913 510.3913 510.4313 510.4744 511.4367 511.6277
   511.6277 511.8123 512.3372 512.4509 512.4509 512.5602 513.2482 513.4350
   513.4350 513.6448 515.8813 515.8813 516.0207 516.6727 516.9124 518.2569
   518.2569 519.2080 519.3275 519.3775 519.4193 519.4193 521.0055 521.0883
   521.0883 521.3201 521.5366 521.5720 521.5720 521.5746 521.8191 521.8711
   521.8711 521.9654 522.4025 523.3412 523.3412 523.8141 524.3348 524.6982
   524.6982 525.0164 525.6013 525.6782 525.6782 525.7713 526.7860 527.0202
   527.0202 527.2895 529.1683 529.5018 529.5018 529.7980 529.8210 530.2403
   530.2403 530.6089 530.7169 530.8979 530.8979 531.0500 531.6409 531.6932
   531.6932 531.7531 531.8601 531.8612 531.8854 531.8854 531.9134 532.5078
   532.7303 532.7303 532.9146 532.9146 533.0870 533.2220 533.4815 533.4815
   533.5111 533.5934 534.8982 535.0708 535.0708 535.2275 535.2493 535.9880
   535.9880 536.3525 539.6361 540.1017 540.3608 540.3608 540.7450 540.8040
   540.8040 540.8346 541.5283 541.5469 541.5469 541.5754 542.1455 542.2998
   542.2998 542.5202 542.5271 542.8309 542.8309 542.9580 543.0630 543.5668

          k = 0.7500-0.2500 0.7500 (  2408 PWs)   bands (ev):

    -3.0640  -0.2146   2.6431   3.9665   7.6579  10.5663  11.8358  12.0281
    16.2837  16.5992  18.2060  18.7427  19.0973  22.8539  23.7173  24.5809
    25.3707  25.5558  25.9180  28.8995  29.5973  31.1149  31.5189  33.7790
    35.0139  35.1490  35.3214  37.0940  37.9258  40.1547  41.4017  41.9593
    42.9346  42.9850  44.6427  46.5238  48.8106  49.9908  50.1995  50.9399
    51.0390  51.4681  52.3959  54.2481  54.5420  56.1256  56.8650  57.6888
    58.4590  60.5199  61.0556  61.5333  61.7009  63.8114  64.7393  65.8092
    65.9601  66.7230  66.9530  68.1950  68.7529  69.1239  69.8810  70.7710
    71.6302  71.7669  71.9024  73.3496  74.0426  75.0817  75.2480  75.5024
    75.8463  76.8619  77.9429  78.5090  78.5292  79.7586  80.5556  81.0568
    82.3993  82.7704  83.1110  84.2106  84.3935  86.6056  86.7622  87.2780
    88.4693  89.3018  89.3964  90.2052  90.3973  92.3760  92.8945  93.7960
    94.2575  94.3948  95.2979  96.1666  96.4677  96.5893  97.3534  98.0934
    98.4334  99.6278 101.0285 101.2061 102.4121 103.7964 103.9464 104.3315
   105.1684 106.1136 106.7807 107.1807 108.0207 109.2543 109.6271 110.0038
   110.4121 110.7532 110.9780 111.6183 111.9814 113.5103 114.0082 114.1539
   114.9081 115.3968 115.5859 116.8334 118.0302 118.3093 118.3551 120.2787
   120.9242 122.1459 122.5018 122.8740 123.0530 124.0990 125.5530 126.0984
   126.4986 126.6138 127.3061 127.9163 128.3666 129.1497 129.2438 129.8573
   130.5406 131.1343 131.3926 131.5991 132.2409 132.8258 132.9932 133.1052
   133.6545 135.9301 136.1579 136.3134 136.5248 136.7949 137.2116 137.9442
   138.2305 138.7601 139.3632 140.2340 141.2501 141.9842 142.8251 143.2775
   143.8994 144.2487 146.0695 146.5296 146.5303 146.7830 147.1934 147.6917
   148.8487 149.3582 149.8233 150.7730 150.8290 151.1139 151.2197 152.3232
   152.7954 152.9853 153.4698 154.4623 156.3407 156.4297 156.7078 156.9097
   157.3638 158.5160 159.5729 160.0780 160.8086 160.8440 161.1779 161.6767
   161.9338 162.1911 163.5360 163.6676 163.8628 164.4526 165.6841 166.3362
   167.0522 167.2068 167.6811 167.9321 168.2312 169.0047 169.2042 170.1139
   170.2873 170.4409 170.9365 171.1581 172.4848 172.4851 173.5382 174.5567
   175.2153 175.6768 175.8915 177.2237 177.7131 178.3681 178.8565 179.5199
   179.6241 179.7359 180.4401 181.3573 182.8239 183.9769 185.3938 185.6479
   185.7563 186.1315 186.4482 186.7683 187.0077 187.8295 188.0277 188.3639
   188.9800 189.4411 189.7156 190.7432 190.8460 191.2487 191.2630 192.1839
   192.5395 192.7715 193.9141 194.7143 194.7506 194.9489 196.2401 196.6064
   196.8690 196.9298 197.2034 198.0038 198.4267 198.5172 199.6318 199.8341
   201.3291 201.5214 202.5385 203.2874 204.0076 204.3380 204.4597 204.7161
   205.5564 205.6427 206.8647 207.5027 207.6380 207.6870 208.3281 208.3473
   208.6799 208.8363 209.2970 209.9447 210.5634 211.0175 211.4516 211.7722
   212.5367 213.1739 213.4407 214.7048 214.9624 215.1866 215.2330 215.3218
   215.9636 217.1502 217.5847 217.6296 218.2953 218.3585 218.5340 219.2882
   219.3096 219.3354 220.2693 220.7134 221.9651 222.1198 222.1364 222.7502
   224.1894 224.2887 224.5353 225.5159 225.6538 226.1551 226.6635 227.6744
   227.9144 228.1351 228.2825 228.6560 229.3569 229.6293 229.7532 230.4462
   230.7527 231.7201 232.0040 233.3820 233.6981 233.8635 234.1470 234.5317
   234.6066 235.2685 235.3623 236.1475 236.9157 237.1555 237.3449 237.5270
   238.5204 238.7697 238.8471 239.7884 240.0012 240.1508 240.6345 241.9617
   242.2671 242.7134 243.6644 244.1382 244.2937 245.0998 245.2239 245.3551
   245.7670 245.7765 246.2862 246.8867 247.2574 248.0955 248.1340 248.5718
   249.1199 249.4516 250.0274 250.1221 250.3900 250.4086 251.3624 251.7804
   252.3892 253.3409 253.3568 253.4841 254.1216 255.7781 255.8831 256.2226
   257.8705 258.4719 258.4837 259.1221 259.2388 259.9435 260.1461 260.2308
   260.4738 261.0885 261.1666 261.2916 261.9175 262.2773 262.3675 262.6763
   262.9636 263.3269 263.7057 264.3579 264.4658 264.6015 265.4995 265.7372
   266.6125 266.6979 267.5241 267.8387 268.2718 268.3774 268.7008 268.9679
   270.0152 271.5548 272.9781 273.0206 273.6718 273.9503 274.3831 274.7913
   274.8156 275.2366 276.5240 276.6531 276.8964 277.7151 278.0466 278.1614
   278.9853 279.2136 279.3298 280.1962 280.6058 280.6393 281.5999 281.8774
   282.2103 282.6611 283.1183 285.3134 285.4601 285.7701 285.8201 286.1094
   286.1993 286.7309 287.3954 287.6495 288.0121 288.1944 289.1129 289.5021
   289.7173 290.0042 290.4312 290.7055 290.7807 291.0781 291.3429 291.6667
   292.1284 292.2341 292.6384 293.3072 293.3434 294.5365 294.6954 294.8409
   295.7269 296.6462 296.7594 296.8687 297.3044 297.6434 297.8988 298.1249
   298.5866 298.7099 299.3167 299.4075 299.4652 299.6290 299.8932 300.2049
   300.2735 300.9537 302.4716 303.0264 303.2551 304.2714 304.7212 304.8867
   306.2145 306.2493 307.7898 308.3021 308.4322 308.5625 308.7577 309.6466
   310.0528 310.1107 310.4886 310.8964 311.1659 311.3328 311.5073 311.7758
   311.9095 312.5046 312.5875 313.3322 313.6246 313.9091 314.1171 314.1640
   314.2262 314.3876 316.3059 316.4989 316.6441 317.1045 317.3599 317.4773
   317.4808 317.8205 317.8983 318.3662 319.1294 319.4980 319.6270 319.8978
   320.2603 321.6341 321.9203 323.2262 323.2808 323.7772 323.9255 323.9384
   324.2952 324.3483 325.1750 326.1303 326.3026 326.6485 327.6658 327.8405
   327.8796 328.5376 328.7097 328.7221 328.7559 328.9506 329.2135 329.3637
   329.8294 330.2207 331.5324 332.1794 332.4844 333.1458 333.1672 333.9463
   334.3507 335.2431 335.3275 335.9144 335.9446 336.4654 337.1894 337.7414
   338.1332 338.4334 338.5771 338.7917 338.8819 339.1723 339.2702 339.8870
   340.0571 340.5866 341.1726 341.4115 341.5674 341.8636 341.9102 342.0918
   342.1182 342.4989 342.6545 342.8505 343.2758 343.4132 344.3591 344.3948
   344.8229 346.7208 347.3676 347.3741 347.6866 347.7073 348.1789 348.2907
   348.9400 349.8667 350.0381 350.2726 350.4327 350.6017 350.8021 351.3565
   351.4213 351.8794 352.4550 352.5680 352.7109 353.3763 353.4042 353.7413
   353.9900 354.1879 354.5032 354.6040 355.9195 356.1110 356.2391 356.2833
   357.4989 358.3679 358.4280 358.7896 358.9030 358.9981 359.7437 360.2925
   360.8372 361.0451 361.2268 361.3428 362.0993 362.2538 362.5887 362.8126
   363.0642 363.0882 363.9723 364.2426 364.6208 364.8586 365.5639 365.7152
   365.8318 366.3001 367.5622 367.7300 368.3145 368.5281 369.4152 369.8159
   370.2139 370.6289 371.2158 371.5944 371.9471 373.9312 374.3582 374.3585
   374.4742 375.0948 375.3172 375.4106 375.7007 375.7761 376.0664 376.0705
   376.1912 376.2303 376.7901 376.9787 377.8257 377.8710 378.2681 379.2551
   379.7480 380.0095 380.5760 380.6643 380.7931 381.0105 381.0713 381.6038
   381.6724 381.8482 382.1291 382.6988 382.7975 384.0527 384.3313 384.7232
   386.2589 386.4364 386.4482 386.5692 386.7467 386.9935 387.7190 388.3490
   388.5615 388.9617 389.0235 389.5859 389.7331 390.2863 390.5649 391.1491
   391.1771 391.5750 391.6578 391.7958 393.4758 394.4131 395.2951 396.2127
   396.3765 396.5225 396.6468 396.8904 397.1695 397.4603 397.5699 397.6849
   398.1201 398.3425 398.3980 398.4459 398.6256 399.0403 399.1636 400.0809
   400.2272 400.4276 400.6987 401.0994 401.4255 401.7596 402.1965 402.3968
   402.8005 403.3505 404.2759 405.0321 405.2764 405.5257 405.7828 405.9223
   406.3312 407.4272 408.0733 408.3141 408.3536 408.7052 408.8325 409.0196
   409.0214 409.8000 410.9204 411.1178 411.2996 411.4105 411.7017 412.1940
   412.2354 412.5174 412.5538 413.0205 413.2918 413.4857 413.7146 414.2979
   414.3793 414.4757 414.4975 414.8805 415.4170 415.8793 415.9604 416.0453
   416.8453 417.0608 417.1919 417.2571 418.5631 419.3387 419.4123 419.6780
   419.9860 420.0219 420.1388 420.7249 421.0831 421.2020 421.2566 421.6195
   422.7333 423.1277 423.1551 423.3412 423.9620 424.1287 425.3679 425.5271
   427.0390 427.2825 427.6649 428.5912 428.6131 428.8048 430.0568 430.1565
   430.6129 430.7884 431.0168 431.1540 432.1839 432.2911 432.3638 432.5084
   432.5777 432.9653 433.0669 433.1333 433.1863 433.3934 433.6013 433.9947
   434.9714 435.0842 435.5081 435.6481 436.0150 436.1404 436.5347 436.5895
   436.7021 437.7935 438.1895 438.2343 438.3570 438.5054 439.0499 439.4911
   439.8025 441.0292 441.0314 441.6708 441.9623 442.0525 442.0854 442.1594
   442.4692 442.6919 443.5545 443.6936 444.1389 444.3637 444.3645 444.6906
   444.6945 444.9326 446.4743 446.8087 446.9952 447.2081 448.2247 448.2369
   448.8498 448.9659 449.0836 449.1139 449.3678 449.6776 449.6921 449.8868
   449.9583 450.0114 450.0662 450.4631 451.1513 451.7052 452.5359 452.9222
   453.4275 453.4404 453.4663 453.5298 454.0771 454.3060 454.3239 454.8155
   455.3149 455.3935 457.2181 457.4839 457.8110 457.8460 457.9747 458.0685
   458.2781 458.3813 458.3988 458.5454 458.5456 459.0277 459.8581 459.9084
   460.3269 460.6323 461.0667 461.3126 461.4082 462.1367 462.1941 462.2061
   463.7406 464.3589 464.5735 464.7230 465.2567 465.2833 465.5013 465.8770
   466.0939 466.6544 466.7787 466.9351 467.1022 467.1150 468.0193 468.3540
   468.4716 469.7176 469.9471 470.3194 470.3245 470.5431 470.7140 471.9428
   472.2228 472.5042 472.6648 473.2879 473.5344 473.5899 474.0139 474.1501
   474.7753 474.7840 474.8466 475.4793 475.6186 475.6324 475.7500 476.0356
   476.1468 476.5719 476.9284 477.2320 477.3913 477.4238 477.6520 477.8313
   478.7006 478.8584 478.8797 479.0214 479.9230 480.2428 480.5480 480.7390
   480.9158 480.9754 481.0618 481.2300 481.3262 481.4516 481.6531 481.8378
   481.8742 482.3100 482.7653 482.8003 484.2914 486.9589 487.1514 487.3453
   487.3621 487.6429 487.6636 488.0228 488.2391 488.2806 488.6890 488.7379
   489.4999 489.5098 489.5663 490.4868 490.5951 491.4994 491.5973 492.0172
   492.6444 492.6470 492.9982 493.1769 493.2258 493.4549 493.4589 493.7927
   494.1046 494.5964 495.3715 495.4608 495.8454 496.1736 496.4476 497.1562
   497.4354 497.9730 498.3133 498.3236 499.7188 499.8050 499.8861 500.0386
   500.1820 500.2576 500.3493 500.4642 500.4820 501.2061 501.2125 501.4359
   501.8583 502.2943 502.3065 502.8899 503.4743 503.8495 503.8509 504.2942
   504.7041 505.4027 505.4217 506.1578 506.1601 507.1703 507.2507 507.9308
   508.7991 509.4174 509.5186 510.0190 510.0215 510.2876 510.2879 510.6644
   511.1225 511.3376 511.7457 511.8125 512.6512 513.1269 513.1799 513.2472
   513.3074 513.3703 514.4036 514.6444 514.8636 515.2051 515.5050 515.7676
   515.9287 516.4715 517.0305 517.3274 517.3400 517.5029 517.6160 517.8944
   517.9080 518.5406 518.7134 519.3182 519.6673 519.7386 520.1929 520.3172
   521.4469 521.4649 521.8913 521.9970 523.1056 523.1666 523.7452 524.2362
   524.3879 524.5049 524.5605 525.0766 525.5921 525.7953 526.0024 526.0883
   526.5114 526.6213 526.8253 526.8805 527.9963 528.1991 528.2218 528.4236
   528.4278 528.7435 529.0817 529.0915 529.8429 530.0192 530.2269 530.2306
   530.4772 530.6116 530.7070 530.8877 531.1679 531.8498 534.0744 534.6489
   534.7036 534.7154 535.3123 535.3168 536.0805 536.0941 536.8041 537.5518
   537.7949 538.1137 538.1577 538.1734 538.5338 538.6623 538.9579 538.9701
   539.2321 539.3238 539.5129 539.5349 540.2768 540.2831 541.0705 541.1058
   541.2170 541.2807 541.8638 541.8697 542.0378 542.6621 542.6710 543.4605
   543.4825 544.1780 544.1835 544.3254 544.5583 546.3315 546.5051 546.5847

          k = 0.5000 0.0000 0.5000 (  2395 PWs)   bands (ev):

    -3.7328   0.6808   2.4294   4.8348   8.5759  10.9116  11.2337  12.2395
    12.5531  15.7153  18.6805  19.2179  19.5354  22.7151  23.0086  23.4286
    24.6687  27.1247  27.7062  29.8197  30.8349  31.1327  32.6976  33.0881
    33.6295  35.3154  36.1256  37.1347  39.7591  39.9725  42.0238  42.7242
    43.5044  43.8510  44.4024  44.4133  44.6538  48.0030  49.7095  50.7634
    52.2389  52.3201  54.5435  54.6108  55.7846  55.7977  56.3289  57.8296
    58.5308  59.8453  60.1705  61.4714  62.2355  62.4506  63.3370  63.7406
    65.6428  66.1668  66.6660  66.7044  67.4669  69.8077  69.8793  71.1409
    71.3680  72.2754  72.2757  73.4207  74.0731  75.5344  75.7186  75.7510
    76.4084  77.0492  78.4135  78.7238  79.4277  79.7318  80.8762  82.1812
    82.3170  82.9277  83.1824  83.9785  84.3329  86.1045  88.1816  88.9526
    89.2382  89.6240  90.5662  91.2051  91.3467  92.2683  93.1187  94.1397
    94.2510  95.2207  95.6500  96.2699  96.8163  97.7533  98.2181  99.0276
    99.9290 100.7941 100.9303 101.6637 102.2600 102.4890 103.3586 103.7001
   103.7005 104.4985 105.6350 106.3608 107.2387 108.1786 108.3638 110.3861
   111.3587 111.4063 111.9396 111.9897 112.2692 112.4325 113.2649 114.2289
   114.6011 115.0325 115.7884 116.6493 117.1849 118.4213 118.4935 118.9137
   119.7740 120.1054 120.3177 120.8937 121.1384 122.9013 123.7476 124.6483
   126.5126 126.8979 127.0207 127.2586 127.2612 128.1125 128.3679 128.6176
   129.6931 129.7466 130.9901 131.2776 132.1958 132.6969 132.7157 133.2443
   133.5012 134.1132 135.3605 135.4705 137.9825 138.0551 138.3129 139.3964
   139.7376 140.6607 142.3049 142.8101 143.2523 143.4817 144.0108 144.6872
   145.0640 145.5023 145.5887 147.0473 147.6108 147.9787 148.0642 148.2911
   149.1347 149.7237 150.4155 150.7242 150.7920 151.0207 152.6178 152.7012
   153.9635 154.1592 155.7639 155.8737 156.3021 156.4092 156.4681 156.5198
   157.6603 157.7004 158.2045 158.3892 161.5661 161.6949 162.3968 162.4223
   162.8918 163.6125 163.7203 163.9496 164.0674 164.0743 164.9527 165.4452
   167.8778 167.9476 168.0041 168.2092 168.5229 168.8123 169.0054 169.0148
   169.5907 171.5066 171.5305 171.5441 172.5795 173.0294 173.6592 174.0744
   175.0394 176.9349 178.0250 178.0455 178.1044 178.2767 178.6138 179.3991
   179.4599 179.5115 179.6534 180.2636 181.8060 182.1139 182.9572 182.9612
   183.6268 183.6980 185.9082 186.5965 186.7634 186.8737 187.3361 188.2787
   188.6094 189.6277 189.9960 190.2416 190.2632 190.6260 190.8140 190.9931
   192.7959 192.9698 193.2113 193.3210 193.6383 194.3750 194.5942 194.7009
   194.7757 196.1026 196.6326 197.8611 198.0541 199.0851 199.8567 200.3155
   200.3966 200.7640 201.3520 202.9294 203.7653 204.4673 206.4322 206.6816
   206.7513 206.7922 206.8609 208.1284 208.1751 208.2191 208.2523 208.8909
   208.9199 209.3988 209.6456 210.3891 211.1285 211.6780 211.7277 211.8044
   212.0572 212.0913 212.4365 212.8961 213.1699 213.2569 213.6488 214.6606
   215.1322 216.4953 217.5855 217.9154 217.9329 218.2718 219.1329 219.1573
   220.2144 220.3719 221.2261 221.2295 221.2898 221.6406 221.7121 221.7317
   222.3603 222.5911 222.7543 222.8507 224.4822 226.4752 226.6744 226.9868
   228.3498 228.6297 229.2271 231.1527 231.2095 231.4751 231.7404 232.0457
   232.1605 232.9128 233.1020 233.2403 233.8783 234.2808 235.0211 236.4777
   236.6737 237.3948 237.4907 237.6202 237.7541 238.2890 238.4392 239.0711
   239.1227 239.1311 239.1613 239.4810 239.8057 240.0854 240.1838 240.2750
   240.8265 240.8331 241.4841 242.1706 243.5668 244.6002 244.7866 244.8687
   244.9326 245.4353 245.5321 247.3901 248.4259 248.5237 248.7848 249.0511
   249.1493 249.1822 251.3741 251.6748 251.8713 252.0795 252.2740 252.7095
   253.0172 254.1605 254.7276 255.1216 255.1367 255.1548 255.4772 255.4841
   255.7229 256.1449 257.5369 257.5670 257.5800 259.0199 259.3177 260.0383
   260.1845 261.4176 261.4537 262.0796 262.5057 263.1207 263.2658 265.0315
   265.0669 265.5223 265.5233 265.5709 265.6023 266.2533 266.3167 266.3462
   266.5110 269.1817 269.4095 270.0330 270.1727 270.2061 270.7268 270.8234
   271.4325 272.9359 273.9710 273.9750 273.9926 274.7116 274.9505 276.2731
   276.3951 276.4131 276.8092 276.9390 277.2736 277.8346 278.2476 278.4035
   279.3637 279.5618 279.8153 279.8978 280.0963 280.3802 280.8573 281.9732
   282.6546 283.0200 283.3350 283.5580 284.2411 284.3483 284.4752 284.8525
   284.9050 285.8581 286.0839 286.2694 286.3618 286.8665 287.0349 288.0150
   288.1512 288.2170 288.3422 289.0085 289.4414 289.8638 290.4302 290.8622
   291.0626 292.2029 292.2074 292.4865 293.7428 294.0611 294.5193 294.6028
   294.6599 294.6831 294.7222 295.0675 295.1617 296.7585 296.9079 297.2778
   297.5914 297.6035 297.6884 297.9922 298.8728 299.1802 299.2408 299.3560
   301.2290 303.2209 303.3158 303.7089 303.7247 304.2916 304.3917 304.4099
   305.7666 306.3154 306.3314 306.5046 306.5150 307.7690 307.8825 308.7148
   308.9771 309.0212 309.2135 309.3309 309.4196 309.7457 309.8306 310.1694
   312.1609 312.1823 312.5117 312.5521 312.5683 312.9627 313.2737 313.4349
   314.9919 315.2838 315.3534 315.7659 315.7795 315.9234 317.0514 317.2244
   317.7800 317.8866 317.9991 318.0571 318.1473 318.4704 318.6113 319.4888
   320.7599 321.6085 321.6592 322.2778 323.7610 323.7795 323.9427 324.1938
   324.4699 324.7341 324.8370 325.0436 325.3630 326.0841 326.1127 326.9903
   327.1486 327.7057 328.4267 328.4654 328.6694 328.9924 329.1305 330.1836
   330.3365 330.9152 331.1485 331.2620 331.6796 331.7203 332.7803 332.8150
   333.0565 333.4046 334.6206 334.9790 337.2247 337.2307 337.9418 337.9535
   338.3816 338.6714 339.1049 339.1840 339.5037 339.6545 339.9511 340.0236
   340.0740 340.1181 342.5817 342.7794 342.8459 342.9378 343.0679 343.2387
   344.2256 344.2916 344.4099 344.7816 344.8136 345.0802 345.4516 345.8412
   345.8497 345.8991 346.1547 346.6420 347.0247 347.3939 347.5238 348.0172
   348.0252 348.0605 348.7188 351.9062 352.1278 352.2054 352.2152 352.2530
   352.5380 352.6109 355.0160 355.1600 355.1629 355.1636 355.1668 355.8826
   356.4250 356.8483 357.1382 357.4456 357.8372 358.2043 358.7086 358.7533
   358.9373 359.1306 359.2222 359.7362 359.8110 360.4247 360.5514 360.7980
   361.1227 361.5421 361.8017 362.0344 362.2251 362.4470 363.3370 363.3461
   363.7202 364.3242 364.3332 364.3650 365.7481 365.8831 366.8940 366.9001
   367.7346 367.9780 370.7693 370.9219 370.9824 371.0517 371.1206 371.4467
   371.5498 371.7646 371.8300 371.9362 374.2485 374.2854 374.3419 374.3770
   375.1827 375.5771 376.4736 376.4750 376.6690 377.0044 377.0797 377.1152
   377.1903 377.2198 377.9886 378.3265 378.4383 378.9511 378.9816 379.4761
   379.4939 380.3061 380.7206 380.7316 381.3110 381.4217 381.9463 382.0088
   382.6613 382.8053 382.8748 382.8886 383.7563 383.8207 384.3193 384.3213
   385.0061 385.0721 385.0955 385.1704 387.1425 387.1890 387.4171 387.5677
   388.0596 388.0735 389.1288 389.4672 389.8913 390.0489 390.2708 390.2866
   390.9875 391.1164 391.2774 391.3225 391.8683 392.0320 392.9081 392.9653
   393.4856 393.7220 393.7280 394.0004 394.0938 394.1828 394.3187 394.4362
   394.6307 394.6864 396.8502 396.8506 399.2392 399.2685 399.5766 399.6014
   399.7369 399.7491 400.4786 400.5691 401.1534 401.1549 402.8422 402.8630
   403.6942 403.7012 403.9592 403.9598 405.1546 405.5003 405.5426 405.5430
   405.5441 406.2312 406.2335 406.3763 406.4298 406.6092 407.4723 407.4836
   407.7854 408.3389 409.0296 409.0606 410.8729 410.9658 411.1042 411.1254
   411.2452 411.8922 412.1501 412.4385 412.6191 413.1901 413.3464 413.3752
   413.5650 413.6456 413.6775 413.7301 413.9726 415.5151 417.1640 417.1975
   417.2950 417.3135 417.3599 417.6489 417.8643 417.9512 418.7396 418.8403
   419.9405 420.6323 420.7198 420.9602 421.1730 421.5987 421.7250 421.9294
   422.7480 422.8969 423.4167 423.8640 423.9817 424.3607 425.5965 425.6140
   425.6569 425.7042 425.7561 425.8784 426.2114 426.2500 426.6048 427.1291
   427.1331 427.3904 427.5741 427.6875 430.8135 430.8502 430.9399 432.3689
   432.3793 432.4404 432.4498 433.8751 434.1171 434.6283 434.6320 434.8161
   434.8167 434.8983 434.9469 435.6662 435.6917 436.2001 436.4348 436.5346
   437.2871 437.2896 437.4595 438.2089 438.2227 438.9964 438.9993 439.1043
   439.2045 440.2740 440.5269 440.8740 440.9935 441.8261 441.9294 442.0677
   442.0707 442.1033 442.7745 442.8042 443.2801 443.3213 443.5097 443.5311
   444.0272 444.3811 445.9980 446.0335 446.6794 446.6963 447.7446 448.4196
   448.4972 448.6915 448.8406 449.3440 449.4321 449.7163 450.1265 450.2054
   450.9871 451.2349 451.3613 451.3619 451.5563 451.8055 452.0024 452.1397
   452.3968 452.7177 452.9213 453.0723 453.3467 453.7110 453.7881 455.0131
   455.1648 455.7735 455.9877 457.0051 457.1792 457.9536 457.9583 458.1181
   458.1666 458.9104 459.6856 460.5717 461.3331 462.2152 462.5514 462.7974
   464.4957 464.5266 464.8267 465.2277 465.2381 465.2727 465.3446 465.8428
   466.0412 466.0808 466.1821 466.2371 466.2828 466.5018 466.7464 466.7825
   466.8144 466.8345 466.8921 467.1352 468.0323 468.5872 468.7699 469.0239
   469.1951 469.1994 469.2260 470.6568 470.7043 471.1148 471.3521 471.7850
   472.0662 472.0745 472.1003 472.2220 472.5022 472.5415 472.5978 473.1865
   473.2726 473.3435 473.4622 475.9448 476.0214 476.0326 476.1099 476.1973
   477.0356 477.1113 477.1482 478.0704 478.5945 478.6102 478.8586 479.0738
   479.2781 479.3756 479.3912 479.5107 479.7531 480.8603 480.9265 481.1233
   481.2963 481.6229 482.3716 482.3797 482.8564 483.3963 483.4123 483.6791
   483.6871 483.6933 484.9810 484.9915 485.0235 486.3710 486.4243 486.5303
   486.6247 486.6368 486.7432 488.3608 488.3936 488.4416 488.4831 488.8026
   488.8134 489.5533 489.5544 489.6728 489.6914 493.3836 493.4435 493.7688
   493.9473 494.2180 494.2480 494.8033 495.2335 495.4455 495.7794 496.2415
   496.2838 496.5742 496.7180 497.2060 497.4669 497.7936 497.9588 497.9880
   497.9939 498.3302 498.7489 499.1834 499.1985 499.4675 499.5120 499.5195
   499.6225 500.2045 500.4887 501.0597 501.1535 501.3392 501.5124 501.5866
   501.5926 502.2822 502.5193 503.0580 503.0600 504.3287 504.6494 504.7439
   504.9061 504.9180 504.9657 507.3630 507.3971 507.4260 507.4688 507.5996
   507.6015 507.9816 507.9909 508.6987 508.7009 509.4063 509.8737 509.8808
   509.9412 512.1959 512.2209 513.7880 513.7934 513.8588 513.9651 514.0082
   514.1168 514.1218 514.2155 514.6674 514.6698 515.4884 515.6160 515.6301
   515.7272 515.8340 515.8412 515.9136 515.9303 516.1203 516.1213 516.8478
   516.9729 517.2803 517.3791 517.8429 518.0169 518.0640 518.3022 518.9979
   519.1046 519.6550 519.6785 520.2054 520.2075 522.0791 522.0797 523.4806
   523.5029 523.5294 523.6686 524.3027 524.3078 525.1349 525.2544 526.2059
   526.2812 526.4398 526.6046 527.6009 527.6010 528.4994 528.5049 528.7594
   528.8896 530.1351 530.1498 530.3933 530.4019 531.3335 531.3713 531.6465
   531.6726 532.7826 532.8285 533.1224 533.1487 534.6849 534.6879 534.9946
   535.1847 535.8407 535.8516 535.8796 535.8853 536.3359 536.3511 536.3527
   536.3867 536.9561 537.0529 538.6227 538.8053 539.8828 539.9057 540.2795
   540.2968 540.7116 540.7261 541.0701 541.0828 541.1905 541.2053 541.2719
   541.2871 541.4919 541.5037 541.7775 541.8557 541.8786 541.9575 543.2272
   543.2911 543.5110 543.5395 543.7719 543.7834 544.1873 544.4301 544.4636

          k = 0.0000-1.0000 0.0000 (  2450 PWs)   bands (ev):

    -1.6455  -1.6455   3.3251   3.3251   6.8538   6.8538  16.1818  16.1818
    17.0145  17.0145  18.5722  18.5722  19.0799  19.0799  24.8258  24.8258
    25.7960  25.7960  26.2300  26.2300  27.5533  27.5533  31.2144  31.2144
    35.3040  35.3040  40.1812  40.1812  40.2039  40.2039  41.4439  41.4439
    44.2136  44.2136  45.5764  45.5764  46.3549  46.3549  47.7290  47.7290
    50.6227  50.6227  54.4471  54.4471  56.0804  56.0804  58.9736  58.9736
    61.8419  61.8419  62.9178  62.9178  62.9616  62.9616  63.0149  63.0149
    65.9713  65.9713  67.1077  67.1077  67.3017  67.3017  68.7222  68.7222
    73.9510  73.9510  74.4686  74.4686  75.2451  75.2451  77.0921  77.0921
    78.0447  78.0447  78.1004  78.1004  81.1255  81.1255  81.5518  81.5518
    81.9204  81.9204  82.1047  82.1047  83.5082  83.5082  84.2395  84.2396
    87.0810  87.0810  87.2746  87.2746  87.8981  87.8981  94.1850  94.1850
    94.2820  94.2820  95.2964  95.2964  96.8108  96.8108  98.7275  98.7275
   100.2364 100.2364 100.9153 100.9153 102.5721 102.5721 103.9131 103.9131
   104.5168 104.5168 105.6882 105.6882 108.6391 108.6391 110.5863 110.5863
   110.7530 110.7530 112.2273 112.2273 112.7934 112.7934 115.4911 115.4912
   116.8057 116.8057 118.6444 118.6444 119.4845 119.4845 121.6850 121.6850
   122.6854 122.6854 123.8022 123.8022 124.5438 124.5438 124.9543 124.9543
   127.1262 127.1262 127.2634 127.2634 127.4955 127.4956 128.5119 128.5119
   130.6785 130.6785 131.9442 131.9442 132.3316 132.3316 136.0329 136.0329
   136.0935 136.0935 137.3005 137.3005 138.8393 138.8393 139.7362 139.7362
   139.8873 139.8873 140.9135 140.9135 141.1829 141.1829 142.7205 142.7205
   143.7413 143.7413 144.5095 144.5095 145.1031 145.1031 145.4459 145.4459
   146.7162 146.7162 147.6344 147.6344 147.9017 147.9017 150.3445 150.3445
   150.7414 150.7414 150.7587 150.7587 152.6339 152.6339 152.7005 152.7005
   154.8200 154.8200 156.1053 156.1053 157.8457 157.8457 163.1171 163.1171
   163.3113 163.3113 164.2375 164.2375 164.5058 164.5058 165.1533 165.1533
   165.4987 165.4987 168.7445 168.7445 168.8009 168.8009 173.4885 173.4885
   173.8766 173.8766 174.0890 174.0890 174.7252 174.7252 177.3619 177.3619
   178.9631 178.9631 179.0027 179.0027 179.9848 179.9848 180.8255 180.8255
   181.4219 181.4219 183.0947 183.0947 183.4736 183.4736 184.1774 184.1774
   185.7254 185.7254 186.1925 186.1925 186.8718 186.8718 189.8713 189.8713
   189.9156 189.9156 190.1403 190.1403 191.3957 191.3957 192.7799 192.7799
   192.8145 192.8145 192.9931 192.9931 195.0548 195.0548 198.4716 198.4716
   198.5574 198.5574 198.7353 198.7353 199.9657 199.9657 200.1291 200.1291
   200.6060 200.6060 200.6464 200.6464 201.0669 201.0669 201.8164 201.8164
   202.7072 202.7072 203.1472 203.1472 203.5448 203.5448 207.5443 207.5443
   207.7374 207.7374 207.7623 207.7623 207.8490 207.8490 211.5619 211.5619
   213.0717 213.0717 213.2727 213.2727 214.1005 214.1005 219.6867 219.6867
   219.7520 219.7520 219.8167 219.8167 219.8793 219.8793 220.1463 220.1463
   222.1384 222.1384 222.3154 222.3154 222.3264 222.3264 223.2676 223.2676
   223.2888 223.2888 223.7500 223.7500 223.9673 223.9673 228.7640 228.7640
   229.0521 229.0521 229.1007 229.1007 229.6785 229.6785 230.1071 230.1071
   230.2480 230.2480 230.5944 230.5944 231.7945 231.7945 232.6740 232.6740
   235.6611 235.6611 236.1756 236.1756 236.4115 236.4115 236.4496 236.4496
   238.8870 238.8870 239.6241 239.6241 242.7001 242.7001 243.0354 243.0355
   243.9320 243.9320 244.1385 244.1385 244.2758 244.2758 244.4591 244.4591
   244.8092 244.8092 245.3746 245.3746 249.0393 249.0393 249.2856 249.2856
   249.4977 249.4977 249.5997 249.5997 249.8678 249.8678 250.4409 250.4409
   251.1341 251.1341 258.9938 258.9938 259.0720 259.0720 259.1412 259.1412
   259.2106 259.2106 259.6092 259.6092 259.6122 259.6122 260.9867 260.9867
   262.4586 262.4586 262.7040 262.7040 262.9751 262.9751 263.0214 263.0214
   264.1370 264.1370 264.2047 264.2047 264.2372 264.2372 264.8994 264.8994
   265.0364 265.0364 265.2202 265.2202 266.0192 266.0192 266.1091 266.1091
   266.7719 266.7719 266.8765 266.8765 268.0546 268.0546 268.1019 268.1019
   269.4378 269.4378 269.4439 269.4439 274.2895 274.2895 276.1778 276.1778
   276.5211 276.5211 277.6829 277.6829 279.9871 279.9871 281.6417 281.6417
   281.7450 281.7450 283.8621 283.8621 286.0087 286.0087 286.0930 286.0930
   286.3532 286.3532 286.3991 286.3991 289.4954 289.4954 289.8085 289.8085
   289.9906 289.9906 290.6007 290.6007 291.5476 291.5476 291.8664 291.8664
   292.9754 292.9754 293.3302 293.3302 294.3296 294.3296 295.7830 295.7830
   297.0700 297.0700 299.0851 299.0851 299.2518 299.2519 300.7440 300.7440
   301.6399 301.6399 302.5894 302.5894 304.2401 304.2401 304.3850 304.3850
   307.1985 307.1985 307.2487 307.2487 307.3657 307.3658 307.6188 307.6188
   308.4627 308.4627 308.5577 308.5577 308.9107 308.9107 309.0106 309.0106
   309.6650 309.6650 309.7204 309.7204 315.1564 315.1564 315.8056 315.8056
   316.0691 316.0691 316.2233 316.2233 316.7994 316.7994 317.8234 317.8234
   317.9359 317.9359 318.0619 318.0619 320.1980 320.1980 320.2128 320.2128
   320.5032 320.5032 320.6066 320.6066 320.7360 320.7360 320.7431 320.7431
   323.1550 323.1550 323.2603 323.2603 323.6394 323.6394 323.8045 323.8045
   323.9481 323.9481 324.1931 324.1931 324.3284 324.3284 326.3025 326.3025
   327.3056 327.3056 327.8710 327.8710 328.0173 328.0173 328.5207 328.5207
   328.5982 328.5982 328.7337 328.7337 329.9163 329.9163 330.0497 330.0497
   330.1131 330.1131 330.1236 330.1236 334.1484 334.1484 334.4883 334.4883
   334.5926 334.5926 336.3206 336.3206 339.1745 339.1745 339.1765 339.1765
   339.2945 339.2946 339.4434 339.4435 341.2133 341.2133 341.5679 341.5679
   341.6711 341.6711 342.0828 342.0828 342.5531 342.5531 342.7299 342.7299
   342.7353 342.7353 343.6851 343.6851 344.9467 344.9467 345.2941 345.2941
   345.4106 345.4106 345.7514 345.7514 349.0591 349.0591 349.0943 349.0943
   350.5575 350.5575 350.6399 350.6399 350.6961 350.6961 350.7817 350.7817
   353.3482 353.3482 353.3978 353.3978 360.0884 360.0884 360.1635 360.1635
   360.5945 360.5945 360.8915 360.8915 361.8791 361.8791 361.9081 361.9081
   362.4275 362.4275 363.1249 363.1249 363.5242 363.5242 363.7084 363.7084
   364.4210 364.4210 364.4533 364.4533 365.1815 365.1815 365.4268 365.4268
   365.6110 365.6110 365.8150 365.8150 368.3744 368.3744 368.3792 368.3792
   369.8012 369.8012 369.8084 369.8084 370.2224 370.2224 370.3423 370.3423
   371.2003 371.2003 371.2396 371.2396 374.2303 374.2303 374.5701 374.5701
   375.8545 375.8545 376.1991 376.1991 379.0905 379.0905 379.5251 379.5251
   379.7521 379.7521 379.8205 379.8205 381.0938 381.0938 381.9698 381.9698
   382.5979 382.5979 383.0607 383.0607 384.5820 384.5820 384.6567 384.6567
   385.4704 385.4704 385.4720 385.4720 385.6143 385.6143 385.6947 385.6947
   385.9705 385.9705 385.9807 385.9807 387.9357 387.9357 387.9403 387.9403
   390.1455 390.1455 390.1460 390.1460 395.9355 395.9355 396.8629 396.8629
   396.8733 396.8733 396.9487 396.9487 399.5957 399.5957 399.6037 399.6037
   400.9288 400.9288 401.2461 401.2461 401.5302 401.5302 401.6994 401.6994
   402.3662 402.3662 402.6844 402.6844 403.4280 403.4280 404.0349 404.0349
   404.3992 404.3992 405.4282 405.4282 405.5284 405.5284 406.9756 406.9756
   407.0162 407.0162 407.1007 407.1007 407.3899 407.3899 407.4038 407.4038
   407.4784 407.4784 407.4817 407.4817 407.9405 407.9405 411.0794 411.0794
   412.4207 412.4207 412.4824 412.4824 413.1049 413.1049 414.6947 414.6947
   417.4355 417.4355 417.9678 417.9678 417.9967 417.9967 418.9954 418.9954
   423.9162 423.9162 423.9214 423.9214 424.2150 424.2150 424.3833 424.3833
   424.4542 424.4542 424.5287 424.5287 425.1570 425.1570 425.3751 425.3751
   425.6520 425.6520 425.7714 425.7714 427.3635 427.3635 428.3923 428.3924
   428.4065 428.4065 428.4450 428.4450 428.4711 428.4711 430.3037 430.3037
   430.3854 430.3854 430.4442 430.4442 430.4613 430.4613 436.2080 436.2080
   436.4583 436.4583 436.8110 436.8110 436.8542 436.8542 437.0981 437.0982
   438.2672 438.2672 438.5178 438.5178 438.5307 438.5307 438.6873 438.6873
   439.3326 439.3326 439.4666 439.4666 439.5484 439.5484 440.4021 440.4021
   441.0799 441.0799 441.2822 441.2822 441.2867 441.2867 441.8869 441.8869
   442.0311 442.0311 442.0645 442.0645 445.0582 445.0582 445.1122 445.1122
   445.2832 445.2832 445.3382 445.3382 445.3438 445.3438 446.7662 446.7662
   446.8655 446.8655 447.4245 447.4245 447.5641 447.5641 449.0197 449.0197
   449.0215 449.0215 449.0355 449.0355 449.0533 449.0533 449.8129 449.8129
   450.1071 450.1071 450.1090 450.1090 450.2921 450.2921 451.1430 451.1430
   451.2078 451.2078 451.2770 451.2770 451.3302 451.3302 452.1366 452.1366
   452.1544 452.1544 452.3833 452.3833 452.3937 452.3937 458.9851 458.9851
   459.0237 459.0237 459.0251 459.0251 459.0593 459.0593 461.9194 461.9194
   462.0070 462.0070 462.0431 462.0431 462.1362 462.1362 464.6191 464.6191
   464.6417 464.6417 465.5514 465.5514 465.5674 465.5674 467.1646 467.1646
   467.2444 467.2444 468.8026 468.8026 468.9282 468.9282 469.0965 469.0965
   469.1652 469.1652 470.6223 470.6223 470.6252 470.6252 471.0854 471.0854
   471.0859 471.0859 471.5039 471.5039 471.5096 471.5096 478.5089 478.5089
   478.6231 478.6231 479.0332 479.0332 479.3487 479.3487 479.8491 479.8491
   479.9362 479.9362 481.5971 481.5971 481.7249 481.7249 482.7413 482.7413
   482.8061 482.8061 484.2371 484.2371 484.9080 484.9080 484.9532 484.9532
   485.5159 485.5159 488.2846 488.2846 488.3198 488.3198 488.3552 488.3552
   488.3960 488.3960 488.8062 488.8062 488.8276 488.8276 489.1421 489.1421
   489.1522 489.1522 489.2159 489.2159 489.2223 489.2223 490.2987 490.2987
   490.6360 490.6361 490.6431 490.6431 490.9251 490.9251 494.2981 494.2981
   497.9381 497.9381 497.9408 497.9408 499.4871 499.4871 501.6862 501.6862
   501.6966 501.6966 501.7289 501.7289 502.0513 502.0513 502.1606 502.1606
   502.3462 502.3462 502.5205 502.5205 503.7219 503.7219 503.7258 503.7258
   504.6914 504.6914 504.7334 504.7334 504.8032 504.8032 505.2641 505.2641
   505.6548 505.6548 505.7999 505.7999 505.8923 505.8923 506.3801 506.3801
   506.4186 506.4186 506.4370 506.4370 507.6278 507.6278 507.8185 507.8185
   508.1167 508.1167 508.1213 508.1213 508.5724 508.5724 509.8074 509.8074
   509.8121 509.8121 512.2007 512.2007 512.2188 512.2188 512.5255 512.5255
   512.5345 512.5345 517.2706 517.2706 517.2926 517.2926 517.3429 517.3430
   517.3727 517.3727 518.6086 518.6086 518.6708 518.6708 518.6888 518.6888
   518.7801 518.7801 522.7066 522.7066 522.8802 522.8802 523.0205 523.0205
   523.1390 523.1390 525.0125 525.0125 525.0474 525.0474 525.1824 525.1824
   525.2036 525.2036 529.0025 529.0025 529.0187 529.0187 529.9617 529.9617
   530.0955 530.0955 530.1909 530.1909 530.3194 530.3194 530.8651 530.8651
   531.0267 531.0267 531.0709 531.0709 531.2927 531.2927 531.5098 531.5098
   531.5921 531.5921 537.6808 537.6808 537.6827 537.6827 539.0256 539.0256
   539.0377 539.0377 542.2979 542.2979 542.9131 542.9131 543.2115 543.2115
   543.2717 543.2717 543.3158 543.3158 543.3403 543.3403 544.5681 544.5681
   544.7943 544.7943 544.8002 544.8002 544.9802 544.9802 545.0527 545.0527
   545.1790 545.1790 545.1802 545.1802 545.3173 545.3173 545.9161 545.9161

          k =-0.5000-1.0000 0.0000 (  2400 PWs)   bands (ev):

    -1.4853  -1.4853   2.3334   2.3334  10.3922  10.3922  11.1079  11.1079
    16.6332  16.6332  19.0731  19.0731  22.4825  22.4825  24.6454  24.6454
    24.8630  24.8630  25.6966  25.6966  29.6386  29.6386  33.4381  33.4381
    33.6434  33.6434  35.4612  35.4612  38.3009  38.3009  42.7438  42.7438
    43.7911  43.7911  45.9317  45.9317  48.8883  48.8883  49.9753  49.9754
    52.9412  52.9412  54.5296  54.5296  54.5335  54.5335  57.3062  57.3062
    61.0000  61.0000  61.7758  61.7758  62.5714  62.5714  64.9237  64.9238
    64.9378  64.9378  67.0688  67.0688  68.5112  68.5112  70.4698  70.4698
    71.2075  71.2075  72.7282  72.7282  74.5971  74.5971  76.1471  76.1471
    77.7921  77.7921  80.3623  80.3623  80.7336  80.7336  81.0187  81.0187
    82.2942  82.2942  82.6288  82.6288  85.7895  85.7895  86.4418  86.4418
    87.0538  87.0538  87.8277  87.8277  90.7368  90.7368  91.4928  91.4928
    93.5376  93.5376  93.8767  93.8767  94.8417  94.8417  96.5903  96.5903
    99.0802  99.0803 100.8720 100.8720 101.3790 101.3790 103.1674 103.1674
   106.6563 106.6563 107.7824 107.7824 111.0323 111.0323 111.4788 111.4788
   113.3943 113.3943 114.2090 114.2090 114.3851 114.3851 115.2947 115.2947
   117.1985 117.1985 117.7780 117.7780 118.8244 118.8244 120.4672 120.4672
   122.1427 122.1427 122.7448 122.7448 123.7450 123.7450 124.4739 124.4739
   124.6796 124.6796 125.6317 125.6317 128.4718 128.4718 129.5454 129.5454
   130.1725 130.1725 130.2824 130.2824 131.5064 131.5064 132.3337 132.3337
   134.8414 134.8414 135.5159 135.5159 138.7090 138.7090 139.0519 139.0519
   141.1764 141.1764 142.1921 142.1921 142.5764 142.5764 142.7603 142.7603
   143.9077 143.9077 144.0508 144.0508 145.4983 145.4983 146.4129 146.4129
   148.0042 148.0042 148.2207 148.2207 150.4192 150.4192 150.8664 150.8664
   152.3062 152.3062 152.7598 152.7598 153.6172 153.6172 153.8357 153.8357
   157.0499 157.0499 157.1046 157.1046 159.3200 159.3200 159.3542 159.3542
   163.5123 163.5123 163.9936 163.9936 166.8393 166.8393 166.9904 166.9904
   168.6653 168.6653 169.1268 169.1268 170.0971 170.0971 171.1758 171.1758
   171.4734 171.4734 172.0980 172.0980 173.1020 173.1020 173.2055 173.2055
   177.0151 177.0151 177.2241 177.2241 178.7631 178.7631 179.0818 179.0818
   179.9207 179.9207 180.8074 180.8074 181.4528 181.4528 181.6302 181.6302
   185.8851 185.8851 185.9038 185.9038 186.8271 186.8271 187.8366 187.8366
   190.6009 190.6009 190.7909 190.7909 192.0974 192.0974 192.2685 192.2685
   192.8234 192.8234 193.4534 193.4534 193.9697 193.9697 194.0172 194.0172
   195.8944 195.8944 198.0364 198.0364 200.3569 200.3569 201.7102 201.7102
   202.1468 202.1468 202.4378 202.4378 206.5720 206.5720 206.7055 206.7055
   208.7794 208.7794 208.8034 208.8034 209.6002 209.6002 210.5292 210.5292
   210.7451 210.7451 211.0385 211.0385 211.9116 211.9116 212.1342 212.1342
   212.6526 212.6526 212.7789 212.7789 213.0661 213.0661 213.4783 213.4783
   216.1558 216.1558 216.9924 216.9924 218.4306 218.4306 219.0292 219.0292
   222.4856 222.4856 222.5883 222.5883 222.8792 222.8792 223.0434 223.0434
   223.5481 223.5481 224.1498 224.1498 226.1674 226.1674 226.4717 226.4717
   227.6144 227.6144 228.2787 228.2787 228.9697 228.9697 229.0413 229.0413
   232.5996 232.5996 232.6320 232.6320 233.2627 233.2627 233.3236 233.3236
   233.6001 233.6001 233.8932 233.8932 234.4793 234.4793 234.8724 234.8724
   238.0373 238.0373 238.1685 238.1685 239.9916 239.9916 240.0253 240.0253
   241.2713 241.2713 241.2764 241.2764 243.3597 243.3597 243.5074 243.5074
   243.8491 243.8491 245.0143 245.0143 246.3717 246.3717 246.4889 246.4889
   247.6450 247.6450 247.7775 247.7775 251.7628 251.7628 251.8358 251.8358
   252.4880 252.4880 252.6737 252.6737 256.3615 256.3615 256.8247 256.8247
   257.5694 257.5694 258.2871 258.2871 260.2846 260.2846 260.3811 260.3811
   261.1183 261.1183 261.2033 261.2033 262.9127 262.9127 262.9843 262.9843
   264.6477 264.6477 264.6862 264.6862 267.6958 267.6958 267.7274 267.7274
   269.4481 269.4481 269.8990 269.8990 272.1640 272.1640 272.2097 272.2097
   272.8877 272.8877 273.2067 273.2067 273.6997 273.6997 273.9058 273.9058
   274.1302 274.1302 274.2321 274.2321 275.5572 275.5572 275.6239 275.6239
   278.5767 278.5767 278.7719 278.7719 280.0762 280.0762 280.1548 280.1548
   280.9188 280.9188 280.9413 280.9413 283.2168 283.2168 283.2248 283.2248
   287.7895 287.7895 287.9361 287.9361 289.3600 289.3600 289.4914 289.4914
   289.5552 289.5552 289.9875 289.9875 290.3724 290.3724 292.1554 292.1554
   292.8466 292.8466 292.8791 292.8791 294.2949 294.2949 294.8585 294.8585
   295.2113 295.2113 295.8117 295.8117 297.0977 297.0977 297.8553 297.8553
   300.3771 300.3771 300.5789 300.5789 301.0367 301.0367 301.0782 301.0782
   301.6793 301.6793 302.1154 302.1154 303.1431 303.1431 303.2109 303.2109
   303.4718 303.4718 303.6437 303.6437 309.9009 309.9009 309.9029 309.9029
   310.6269 310.6270 312.4969 312.4969 313.1347 313.1347 313.1692 313.1692
   315.6635 315.6635 316.5090 316.5090 317.9509 317.9509 318.1793 318.1793
   319.2518 319.2518 319.9615 319.9615 320.0434 320.0434 320.0933 320.0933
   321.5234 321.5234 321.8846 321.8846 322.3910 322.3910 322.7434 322.7434
   323.4790 323.4790 324.1798 324.1798 324.6019 324.6019 325.0296 325.0296
   325.1793 325.1793 325.7697 325.7697 326.0859 326.0859 326.1214 326.1214
   328.7317 328.7317 328.7835 328.7835 329.5438 329.5438 329.7518 329.7518
   330.0922 330.0922 330.2233 330.2233 331.2250 331.2250 331.4233 331.4233
   332.8090 332.8090 333.0043 333.0043 333.0559 333.0559 333.1852 333.1852
   335.8479 335.8479 336.1893 336.1893 336.5615 336.5615 336.6873 336.6873
   337.2508 337.2508 337.3711 337.3711 340.9086 340.9086 340.9306 340.9306
   343.6598 343.6598 343.8799 343.8799 344.3683 344.3683 344.4555 344.4555
   345.7657 345.7657 345.9799 345.9799 347.4962 347.4962 347.5411 347.5411
   350.0993 350.0993 350.1407 350.1407 350.3751 350.3751 350.7879 350.7879
   351.7558 351.7558 351.8275 351.8275 352.3977 352.3977 352.6019 352.6019
   352.8174 352.8174 352.9758 352.9758 353.8726 353.8726 353.8932 353.8932
   359.8833 359.8833 359.8885 359.8885 361.2451 361.2451 361.2515 361.2515
   362.3553 362.3553 362.3703 362.3703 362.5528 362.5528 363.0155 363.0155
   363.3940 363.3940 363.8716 363.8716 364.0102 364.0102 364.0651 364.0651
   364.4230 364.4230 364.5408 364.5408 364.5687 364.5687 364.6828 364.6828
   366.2416 366.2416 366.2471 366.2471 371.8052 371.8052 372.0533 372.0533
   372.3431 372.3431 372.5010 372.5010 374.8977 374.8977 374.9313 374.9313
   375.0001 375.0001 375.0264 375.0264 377.6765 377.6765 377.8425 377.8425
   377.9705 377.9705 377.9861 377.9861 379.8677 379.8677 379.8797 379.8797
   380.8723 380.8724 380.9064 380.9064 384.1591 384.1591 384.1728 384.1728
   384.1885 384.1885 384.1924 384.1924 384.7223 384.7223 384.7392 384.7392
   387.7575 387.7575 387.8414 387.8414 392.5255 392.5255 392.5488 392.5488
   392.6900 392.6900 392.7253 392.7253 396.8912 396.8912 396.8928 396.8928
   397.8212 397.8213 397.8297 397.8297 398.5157 398.5157 398.5829 398.5829
   401.5384 401.5384 401.6724 401.6724 401.9873 401.9873 402.0192 402.0192
   402.5643 402.5643 402.6603 402.6603 405.3494 405.3494 405.3594 405.3594
   405.6663 405.6663 405.6910 405.6910 408.0358 408.0358 408.4521 408.4521
   410.4282 410.4282 410.8666 410.8666 411.3415 411.3415 411.3669 411.3669
   413.1423 413.1423 413.1923 413.1923 413.4721 413.4721 413.4778 413.4778
   413.6220 413.6220 413.6473 413.6473 414.9977 414.9977 415.6514 415.6514
   417.2097 417.2097 417.3585 417.3585 419.8247 419.8247 419.8372 419.8372
   421.6376 421.6376 421.8339 421.8339 422.0978 422.0978 422.1305 422.1305
   422.9406 422.9406 422.9467 422.9467 423.5739 423.5739 423.6167 423.6167
   424.8183 424.8183 424.8249 424.8249 425.2814 425.2814 425.5828 425.5828
   425.9252 425.9252 425.9357 425.9357 426.5324 426.5324 426.5456 426.5457
   426.9226 426.9226 427.2662 427.2662 427.7710 427.7710 428.0624 428.0624
   431.5906 431.5906 431.8251 431.8251 432.4093 432.4093 432.7216 432.7216
   434.1964 434.1964 434.2712 434.2712 434.7495 434.7495 434.9762 434.9762
   435.1818 435.1818 435.1943 435.1943 435.3603 435.3603 435.3775 435.3775
   435.5756 435.5756 435.6271 435.6271 443.4207 443.4207 443.4864 443.4864
   444.0718 444.0718 444.1209 444.1209 444.1595 444.1595 444.3148 444.3148
   445.0459 445.0459 445.0474 445.0474 446.2104 446.2104 446.2656 446.2656
   448.5355 448.5355 448.7675 448.7675 450.0235 450.0235 450.0452 450.0452
   450.8098 450.8098 450.8116 450.8116 451.2991 451.2991 451.4041 451.4041
   452.6559 452.6559 452.6643 452.6643 453.3224 453.3224 453.3236 453.3236
   454.2110 454.2110 454.2597 454.2597 455.8532 455.8532 455.9070 455.9070
   457.7828 457.7828 457.9935 457.9935 458.9867 458.9867 459.2617 459.2617
   459.6854 459.6854 459.8384 459.8384 460.1857 460.1857 460.5455 460.5455
   465.2908 465.2908 465.2925 465.2925 465.9065 465.9065 465.9420 465.9420
   470.2167 470.2167 470.2324 470.2324 471.2065 471.2065 471.2296 471.2296
   471.6188 471.6188 471.6265 471.6265 472.7570 472.7570 472.8038 472.8038
   473.0775 473.0775 473.1493 473.1493 473.4483 473.4483 473.4605 473.4605
   473.8164 473.8164 473.8443 473.8443 475.0125 475.0125 475.0156 475.0156
   477.3001 477.3001 477.3265 477.3265 479.0745 479.0745 479.1313 479.1313
   479.6019 479.6019 479.6255 479.6255 480.7105 480.7105 480.7162 480.7162
   482.1092 482.1092 482.2342 482.2342 483.8279 483.8279 484.3748 484.3748
   484.5734 484.5734 484.6903 484.6903 485.3116 485.3116 485.6034 485.6034
   486.0139 486.0139 486.0177 486.0177 486.3120 486.3120 486.4322 486.4322
   487.0292 487.0292 487.0590 487.0590 488.2156 488.2156 488.2418 488.2418
   488.8240 488.8240 488.8368 488.8368 494.7241 494.7241 494.9364 494.9364
   495.5955 495.5955 495.6638 495.6638 495.6719 495.6719 495.7529 495.7529
   497.9759 497.9759 497.9766 497.9767 498.6073 498.6073 498.6754 498.6754
   500.2892 500.2892 500.3292 500.3292 502.1408 502.1408 502.1632 502.1632
   502.6618 502.6618 502.7691 502.7691 503.6118 503.6118 503.6929 503.6929
   505.8708 505.8708 505.8830 505.8830 506.9124 506.9124 506.9705 506.9705
   507.9762 507.9762 508.0546 508.0546 511.1828 511.1828 511.3507 511.3507
   511.8008 511.8008 511.9242 511.9242 512.3682 512.3682 512.4438 512.4438
   513.2482 513.2482 513.2995 513.2995 514.4963 514.4963 514.5244 514.5244
   515.6907 515.6907 515.7234 515.7234 515.8937 515.8938 515.9074 515.9074
   516.7045 516.7045 516.7059 516.7059 516.8921 516.8921 516.8997 516.8997
   517.3356 517.3356 517.3744 517.3744 517.7221 517.7221 517.7546 517.7546
   524.0313 524.0313 524.0337 524.0337 525.0846 525.0846 525.1866 525.1866
   525.5513 525.5513 525.6509 525.6509 526.7180 526.7180 526.7897 526.7897
   528.3075 528.3075 528.3322 528.3322 533.1139 533.1139 533.1271 533.1271
   533.3060 533.3060 533.3369 533.3369 534.9625 534.9625 534.9655 534.9655
   535.7943 535.7943 535.7953 535.7953 536.0467 536.0467 536.0531 536.0531
   536.8052 536.8052 536.8220 536.8220 537.0130 537.0130 537.0174 537.0174
   539.3239 539.3239 539.4002 539.4002 540.0155 540.0155 540.1628 540.1628
   542.2984 542.2984 542.2995 542.2995 543.4833 543.4833 543.5306 543.5306
   546.4579 546.4579 546.4849 546.4849 546.5242 546.5242 546.5343 546.5343

     the Fermi energy is     6.6726 ev
     (compare with:     6.6129 eV, computed in scf)

     Writing all to output data dir out/mp-149.save/
 
     init_run     :      0.07s CPU      0.11s WALL (       1 calls)
     electrons    :    439.63s CPU    454.63s WALL (       1 calls)

     Called by init_run:
     wfcinit      :      0.00s CPU      0.00s WALL (       1 calls)
     potinit      :      0.04s CPU      0.04s WALL (       1 calls)
     hinit0       :      0.01s CPU      0.05s WALL (       1 calls)

     Called by electrons:
     c_bands      :    439.63s CPU    454.63s WALL (       1 calls)
     v_of_rho     :      0.01s CPU      0.01s WALL (       1 calls)

     Called by c_bands:
     init_us_2    :      0.00s CPU      0.00s WALL (       8 calls)
     init_us_2:cp :      0.00s CPU      0.00s WALL (       8 calls)
     paro_k       :    427.68s CPU    442.22s WALL (       8 calls)

     Called by paro_*:
     h_psi        :      5.68s CPU      5.88s WALL (     812 calls)
     g_psi        :      0.08s CPU      0.09s WALL (   78499 calls)

     Called by h_psi:
     h_psi:calbec :      0.12s CPU      0.12s WALL (     812 calls)
     vloc_psi     :      5.47s CPU      5.66s WALL (     812 calls)
     add_vuspsi   :      0.05s CPU      0.05s WALL (     812 calls)

     General routines
     calbec       :      0.12s CPU      0.12s WALL (     812 calls)
     fft          :      0.01s CPU      0.04s WALL (      10 calls)
     fftw         :      4.96s CPU      5.14s WALL (  128202 calls)
 
     Parallel routines
 
     PWSCF        :   7m20.47s CPU   7m35.76s WALL

 
   This run was terminated on:  13:16:12   5Apr2024            

=------------------------------------------------------------------------------=
   JOB DONE.
=------------------------------------------------------------------------------=
