
     Program PWSCF v.7.1 starts on 15Nov2023 at 15:37:21 

     This program is part of the open-source Quantum ESPRESSO suite
     for quantum simulation of materials; please cite
         "P. Giannozzi et al., J. Phys.:Condens. Matter 21 395502 (2009);
         "P. Giannozzi et al., J. Phys.:Condens. Matter 29 465901 (2017);
         "P. Giannozzi et al., J. Chem. Phys. 152 154105 (2020);
          URL http://www.quantum-espresso.org", 
     in publications or presentations arising from this work. More details at
     http://www.quantum-espresso.org/quote

     Parallel version (MPI), running on     8 processors

     MPI processes distributed on     1 nodes
     123534 MiB available memory on the printing compute node when the environment starts
 
     Reading input from pw_mp-1265_nscf_k60_E134.in
Warning: card &IONS ignored
Warning: card / ignored
Warning: card &CELL ignored
Warning: card / ignored

     Current dimensions of program PWSCF are:
     Max number of different atomic species (ntypx) = 10
     Max number of k-points (npk) =  40000
     Max angular momentum in pseudopotentials (lmaxx) =  4

     Atomic positions and unit cell read from directory:
     out/mp-1265.save/
     Atomic positions from file used, from input discarded
 
 
     R & G space division:  proc/nbgrp/npool/nimage =       8
     Subspace diagonalization in iterative solution of the eigenvalue problem:
     one sub-group per band group will be used
     scalapack distributed-memory algorithm (size of sub-group:  2*  2 procs)

 
     Parallelization info
     --------------------
     sticks:   dense  smooth     PW     G-vecs:    dense   smooth      PW
     Min         144     144     42                 3276     3276     501
     Max         145     145     43                 3280     3280     503
     Sum        1159    1159    337                26229    26229    4015
 
     Using Slab Decomposition
 


     bravais-lattice index     =            2
     lattice parameter (alat)  =       7.9255  a.u.
     unit-cell volume          =     124.4580 (a.u.)^3
     number of atoms/cell      =            2
     number of atomic types    =            2
     number of electrons       =        16.00
     number of Kohn-Sham states=         1200
     kinetic-energy cutoff     =     134.0000  Ry
     charge density cutoff     =     536.0000  Ry
     Exchange-correlation= PBE
                           (   1   4   3   4   0   0   0)

     celldm(1)=   7.925516  celldm(2)=   0.000000  celldm(3)=   0.000000
     celldm(4)=   0.000000  celldm(5)=   0.000000  celldm(6)=   0.000000

     crystal axes: (cart. coord. in units of alat)
               a(1) = (  -0.500000   0.000000   0.500000 )  
               a(2) = (   0.000000   0.500000   0.500000 )  
               a(3) = (  -0.500000   0.500000   0.000000 )  

     reciprocal axes: (cart. coord. in units 2 pi/alat)
               b(1) = ( -1.000000 -1.000000  1.000000 )  
               b(2) = (  1.000000  1.000000  1.000000 )  
               b(3) = ( -1.000000  1.000000 -1.000000 )  


     PseudoPot. # 1 for Mg read from file:
     /usr/scratch4/magr4985/MG/HTDF/pseudo/SG15/Mg.upf
     MD5 check sum: 330956729b1f868fdecd9f5113f6a961
     Pseudo is Norm-conserving, Zval = 10.0
     Generated using ONCVPSP code by D. R. Hamann
     Using radial grid of  602 points,  4 beta functions with: 
                l(1) =   0
                l(2) =   0
                l(3) =   1
                l(4) =   1

     PseudoPot. # 2 for O  read from file:
     /usr/scratch4/magr4985/MG/HTDF/pseudo/SG15/O.upf
     MD5 check sum: e36c48deb68f4e355fffe4602be2c42c
     Pseudo is Norm-conserving, Zval =  6.0
     Generated using ONCVPSP code by D. R. Hamann
     Using radial grid of  602 points,  4 beta functions with: 
                l(1) =   0
                l(2) =   0
                l(3) =   1
                l(4) =   1

     atomic species   valence    mass     pseudopotential
        Mg            10.00    24.30500     Mg( 1.00)
        O              6.00    15.99940     O ( 1.00)

     48 Sym. Ops., with inversion, found



   Cartesian axes

     site n.     atom                  positions (alat units)
         1           Mg  tau(   1) = (   0.0000000   0.0000000   0.0000000  )
         2           O   tau(   2) = (  -0.5000000   0.5000000   0.5000000  )

     number of k points=     8  Gaussian smearing, width (Ry)=  0.0005
                       cart. coord. in units 2pi/alat
        k(    1) = (   0.0000000   0.0000000   0.0000000), wk =   0.0312500
        k(    2) = (  -0.2500000   0.2500000  -0.2500000), wk =   0.2500000
        k(    3) = (   0.5000000  -0.5000000   0.5000000), wk =   0.1250000
        k(    4) = (   0.0000000   0.5000000   0.0000000), wk =   0.1875000
        k(    5) = (   0.7500000  -0.2500000   0.7500000), wk =   0.7500000
        k(    6) = (   0.5000000   0.0000000   0.5000000), wk =   0.3750000
        k(    7) = (   0.0000000  -1.0000000   0.0000000), wk =   0.0937500
        k(    8) = (  -0.5000000  -1.0000000   0.0000000), wk =   0.1875000

     Dense  grid:    26229 G-vectors     FFT dimensions: (  45,  45,  45)

     Estimated max dynamical RAM per process >     165.61 MB

     Estimated total dynamical RAM >       1.29 GB

     The potential is recalculated from file :
     out/mp-1265.save/charge-density

     Starting wfcs are random

     Band Structure Calculation
     Davidson diagonalization with overlap

     ethr =  5.00E-06,  avg # of iterations =  7.1

     total cpu time spent up to now is     1122.5 secs

     End of band structure calculation

          k = 0.0000 0.0000 0.0000 (  3287 PWs)   bands (ev):

   -63.3967 -30.1616 -30.1616 -30.1616  -8.3447   8.9260   8.9260   8.9260
    13.8206  24.9023  24.9023  24.9023  28.7412  30.7343  30.7343  33.5287
    33.5287  33.5287  47.5950  47.5950  47.5950  48.3823  59.6611  59.6611
    59.6611  65.1857  65.1857  66.2886  66.2886  66.2886  70.3137  75.1142
    75.1142  82.4434  82.4434  82.4434  82.9519  82.9519  82.9519  89.5790
    89.5790  89.5790  91.1255  91.1255  91.1255  92.7712  92.7712  92.7712
    92.9551  95.4814  95.4814  95.4814  96.4634  96.4634  96.5430  96.5430
    96.5430  97.8484  98.4906 106.7197 106.7197 106.7197 121.2872 121.2872
   121.2872 121.9944 121.9944 127.0546 142.1512 142.1512 142.1512 143.2827
   143.2827 143.2827 145.0968 151.3021 151.3021 152.4492 152.4492 152.4492
   155.9092 155.9092 155.9092 156.0360 157.8310 157.8310 160.4810 160.4810
   160.4810 161.9231 161.9231 161.9231 162.1585 162.1585 162.1585 163.0795
   163.0795 163.0795 163.0922 163.0922 164.8509 164.8509 164.8509 166.3595
   167.0487 167.0487 167.0487 168.5692 168.5692 169.8424 169.8424 169.8424
   170.6547 182.6246 182.6246 182.6246 187.8782 187.8782 187.8782 191.8534
   191.8534 191.8534 192.8135 197.0891 199.4591 199.4591 201.1665 201.1665
   201.1665 201.4085 201.4085 201.4085 201.9674 201.9674 201.9674 202.0142
   202.0142 202.0142 202.0458 202.0458 202.5018 202.5018 218.7474 218.7474
   218.7474 218.9974 219.0375 219.0375 219.0375 222.5623 225.5925 225.5925
   225.5925 226.1876 226.1876 226.1876 227.4625 227.4625 227.4625 227.5824
   227.8807 227.8807 227.8807 232.4407 232.4407 232.4983 232.4983 232.4983
   232.6009 242.5009 242.5009 242.5009 258.8743 258.8743 258.8743 260.8236
   260.8236 260.8236 262.5813 262.5813 263.7766 263.7766 263.7766 267.7392
   275.3089 275.3089 275.3089 278.5902 278.5902 280.8358 280.8358 280.8358
   280.8424 280.8424 280.8424 288.0085 288.0085 288.0085 288.4966 288.9613
   288.9613 289.8913 289.8913 289.8913 290.4964 291.3856 291.3856 291.6105
   291.6105 291.6105 293.0955 293.0955 293.0955 294.5812 294.6537 295.0393
   295.0393 295.0393 295.0461 295.0461 295.0461 296.3784 296.3784 297.3991
   297.3991 297.3991 297.7849 298.2611 298.2611 298.2611 299.1671 299.1671
   299.1671 299.7638 299.7638 299.7638 299.8527 299.8527 300.4073 300.4073
   300.4073 300.7407 303.2080 303.2080 303.2080 303.8110 303.8110 303.8124
   303.8124 303.8124 304.4869 304.4869 304.4869 304.7584 304.7584 304.7584
   304.7859 304.7859 310.6753 323.0290 323.0290 323.0290 325.9836 325.9836
   332.9035 332.9035 332.9035 332.9290 332.9290 332.9290 333.3452 333.3452
   333.3452 333.8266 333.8266 333.8266 337.8224 339.6956 339.6956 339.7795
   339.7795 339.7795 340.0191 343.2647 343.2647 343.2647 351.1669 351.1669
   351.1669 352.0153 361.5248 362.4112 362.4112 362.4699 362.4699 362.4699
   363.2137 363.2137 363.2137 363.2224 363.2224 363.2224 363.4355 363.4355
   363.4355 363.5537 363.5537 363.5537 363.6139 363.6139 368.1586 368.1586
   368.1586 368.8290 368.8290 369.4939 369.5082 369.5082 369.5082 369.7927
   369.7927 369.7927 370.1314 370.1314 370.1314 370.7691 370.7691 370.7691
   371.0052 371.0052 376.4916 390.2289 390.2289 390.2289 397.9828 397.9828
   397.9828 401.1707 401.1707 401.1707 401.7119 402.7511 402.7511 405.5763
   416.5270 416.5270 416.5270 417.3399 417.3399 417.3399 417.7568 418.2192
   418.2192 418.2192 419.9376 419.9376 419.9376 420.3058 420.3058 428.3722
   428.3722 428.3722 429.3754 429.3754 429.4553 429.4553 429.4553 429.6036
   430.6022 430.6022 430.6022 430.9280 430.9280 430.9280 431.1208 431.1208
   431.1208 431.3405 431.3405 431.3405 433.2597 433.9649 433.9649 433.9649
   434.4709 434.4709 434.4709 434.7391 434.7391 434.7850 434.7850 434.7850
   437.6042 437.6042 437.6063 437.6063 437.6063 437.6176 438.7831 438.7831
   438.7831 438.8332 438.8332 439.5566 439.5566 439.5566 439.9354 439.9354
   439.9354 440.1675 445.6191 459.1952 459.1952 459.1952 462.6981 462.7378
   462.7378 462.7378 468.3272 468.3272 468.6565 468.6565 468.6565 468.8014
   468.8014 468.8014 469.3521 469.3521 469.3521 469.6594 469.6594 469.6594
   469.7147 469.7147 469.7147 470.0427 470.0427 474.8758 474.8758 475.2295
   475.2295 475.2295 475.3925 475.3925 475.3925 475.6139 475.6139 475.6139
   475.6220 475.6220 475.6220 475.7670 475.8578 475.8578 477.1540 477.3550
   477.3550 477.3550 477.5752 477.5752 477.5752 477.7861 482.0659 482.0659
   482.0659 483.0682 483.0682 486.1129 486.1710 486.1710 486.1710 487.6372
   487.6372 487.6372 489.2045 489.2045 489.2045 491.9819 491.9819 491.9819
   493.3700 493.9676 493.9676 493.9676 494.6011 494.6011 495.2596 495.2596
   495.2596 495.8930 499.0875 499.0875 500.0230 500.0230 500.0230 500.2187
   500.2187 500.2187 500.3008 500.3008 500.3008 501.3784 501.3784 501.3795
   501.3795 501.3795 501.8850 502.1686 502.1686 502.1897 502.1897 502.1897
   503.8870 503.8870 503.8870 504.0391 504.0391 504.0391 504.2427 504.2427
   504.2427 504.3577 504.3577 504.3577 505.2827 505.2827 505.2891 505.2891
   505.2891 505.3099 507.0551 522.1842 522.1842 522.1842 528.3963 528.3963
   537.5225 553.2594 553.2594 553.2594 559.0564 559.0564 559.0564 561.2706
   561.2706 561.2706 562.6473 563.3024 563.3024 564.5026 564.5026 564.5026
   564.9871 564.9871 564.9871 565.0244 565.0244 565.0244 565.3420 565.3420
   565.3604 565.3604 565.3604 565.5617 565.5982 565.5982 565.5982 565.9044
   565.9044 566.2522 566.2522 566.2522 567.5605 570.2403 571.4075 571.4075
   571.4075 571.8598 571.8598 571.8598 572.3173 572.3173 572.3173 572.7476
   572.7476 572.7476 577.1653 577.1653 577.2576 577.2576 577.2802 577.2802
   577.2802 577.3751 577.3751 577.3751 577.4077 577.4077 577.4077 577.6264
   577.6264 577.6264 578.8509 578.9885 578.9885 579.0742 579.0742 579.0742
   579.2782 599.2478 599.2478 599.2478 602.3949 602.3949 602.3949 602.7947
   602.7947 602.8076 602.8076 602.8076 606.3192 606.3192 606.3192 608.4093
   608.4093 608.4702 608.4702 608.4702 608.7719 608.8355 608.8355 608.8355
   609.4333 609.4333 609.4333 609.7755 609.7755 609.7755 609.8850 610.0567
   610.0567 610.0632 610.0632 610.0632 610.0705 610.0705 610.0705 613.3203
   617.1678 617.1678 617.1678 618.2412 618.2412 618.2942 618.2942 618.2942
   629.9153 630.7631 631.3567 631.3567 631.3567 631.5818 631.5818 631.5818
   631.8689 631.8689 632.1838 632.1838 632.1838 632.3857 632.3857 632.3857
   632.6734 632.6734 632.6734 633.1454 634.7450 637.9978 637.9978 637.9978
   638.0138 638.0138 638.0678 638.0678 638.0678 638.4046 638.4046 638.4046
   638.4107 638.4107 638.4107 638.5656 641.0524 641.0524 641.0524 641.1250
   641.1250 641.1250 641.1409 641.1409 641.2205 641.2205 641.2205 641.3618
   641.3618 641.3618 641.5143 641.7721 641.7721 641.7721 641.8138 641.8138
   642.2960 643.0750 643.0750 643.0750 643.5110 643.5110 643.5110 643.7948
   643.7948 643.8339 643.8339 643.8339 646.0440 668.7064 668.7064 668.7064
   672.0177 672.0177 672.1538 672.1538 672.1538 673.8177 673.8177 673.8177
   673.8930 673.8930 673.8930 674.0332 674.0332 674.0332 674.1321 674.1321
   674.1321 675.3208 675.3208 675.5105 675.5105 675.5105 675.9378 676.9895
   676.9895 678.8206 684.2901 689.7621 689.7621 689.7621 691.4745 691.4745
   691.4745 691.6891 698.0208 698.0208 698.0208 698.6608 698.6608 698.6608
   698.8155 698.8155 698.8155 698.8901 698.8901 699.0122 699.0122 699.0122
   699.3130 699.3130 701.1383 702.8726 702.8726 702.8726 704.1195 704.1195
   704.1195 704.1585 704.1585 704.1585 704.3913 704.3913 704.3913 704.5239
   704.5239 704.5239 705.7684 705.7684 705.9423 705.9423 705.9423 705.9647
   705.9647 706.0024 706.0024 706.0024 706.0064 706.0064 706.0064 706.0792
   706.0792 706.0792 706.2119 706.2119 706.2119 706.3295 707.5177 707.5177
   707.6027 707.6027 707.6027 707.9151 707.9151 707.9151 707.9673 707.9673
   707.9673 708.0744 708.1209 708.1209 708.1209 708.1342 708.1342 708.1342
   708.1396 708.3029 708.3029 708.3029 708.4557 708.4557 711.2097 711.2169
   711.2169 711.2169 711.2211 711.2211 712.3364 714.0422 714.0422 714.1699
   714.1699 714.1699 714.6462 714.6462 714.6462 714.6667 714.6793 714.6793
   714.6793 714.8683 714.8683 714.8683 715.0072 715.0072 715.0072 715.2718
   715.2718 715.3374 715.3374 715.3374 715.3879 734.8166 734.8166 734.8166
   736.1103 736.1841 736.1841 736.1841 739.3074 748.1606 748.1606 748.1606
   748.1953 748.1953 748.2438 748.2438 748.2438 748.3121 748.3121 748.3121
   748.4363 748.4363 748.4452 748.4452 748.4452 753.7621 753.7621 753.7621
   756.7469 756.7469 761.5242 761.5242 761.5242 761.7819 761.7819 761.7819
   761.8005 761.8005 761.8005 762.0537 762.0537 762.0537 762.7271 768.7399
   768.7399 768.8662 768.8662 768.8662 769.0389 774.3035 774.3035 774.3035
   774.3124 774.3285 774.3285 777.3908 777.3908 777.3908 777.4049 777.4049
   777.4049 777.4454 777.4454 777.4454 777.4677 777.4677 777.4677 778.7857
   778.7857 778.8066 778.8066 778.8066 778.8356 807.0579 807.0579 807.0579
   810.8131 810.8131 810.8131 811.4362 811.9821 811.9821 812.3296 812.3296
   812.3296 812.5956 812.5956 812.5956 812.8068 812.8068 812.8068 812.9569
   812.9569 812.9569 813.1544 813.1544 813.7885 817.9468 817.9468 817.9468
   823.9519 823.9519 823.9519 826.7860 826.9336 826.9336 826.9420 826.9420
   826.9420 828.9750 830.2784 830.2784 830.2784 830.4254 830.4254 830.4254
   833.0291 833.0291 833.0291 833.3839 835.3737 835.3737 836.7226 836.7226
   836.7226 837.1497 837.1497 837.1497 837.2242 837.2242 837.6150 837.6150
   837.6150 837.7391 837.7391 837.7572 837.7572 837.7572 838.5840 838.5840
   838.5840 838.7009 838.7009 838.7009 838.9221 838.9862 838.9862 838.9862
   838.9939 838.9939 839.8858 839.9670 839.9670 839.9670 840.0261 840.0261
   840.0261 840.2095 842.0296 843.0913 843.0913 843.0913 843.1652 843.1652
   843.1955 843.1955 843.1955 843.3650 843.3650 843.3650 843.4026 843.4026
   843.4133 843.4133 843.4133 845.1267 845.1294 845.1294 845.1294 845.1502
   845.1502 845.1502 845.1997 845.1997 845.2012 845.2012 845.2012 849.5691
   849.5691 849.5691 849.6357 849.6357 849.6357 849.7248 849.7248 849.7248
   849.7442 849.7442 849.8382 870.8365 870.8365 870.8365 872.2581 872.2581
   873.9293 876.4322 876.4322 876.4322 876.7568 876.7568 876.7568 877.7476
   877.7476 877.7476 877.7897 878.6095 878.6095 878.8000 878.8000 878.8000
   879.0244 879.0244 879.0244 879.3649 879.3649 879.3649 879.3720 879.5925
   879.5925 880.1588 880.1588 880.1588 880.5213 880.5213 880.5213 880.5764
   880.5764 880.5764 881.0226 881.0226 881.0226 884.9076 884.9076 885.1196
   885.1364 885.1364 885.1364 885.2212 885.2212 885.2212 885.3788 885.3788
   885.3788 885.6247 885.6247 885.6703 885.6703 885.6703 885.8717 885.8717
   885.8717 885.9270 885.9310 885.9310 885.9310 887.1174 887.1174 887.1518
   887.1518 887.1518 887.2133 893.6262 893.6262 893.6262 896.7105 896.7105
   896.7105 897.0692 897.0692 897.1537 897.1537 897.1537 899.2060 899.6538
   899.6538 899.6538 899.9200 899.9200 900.0868 900.0868 900.0868 900.6984
   900.6984 900.6984 901.0428 904.9011 905.5113 905.5113 905.5113 906.1222
   906.1222 906.1222 906.8167 906.8167 906.8590 906.8590 906.8590 908.5623
   908.7630 908.7630 908.7630 909.0412 909.0412 909.0412 909.2916 909.2916
   909.2916 909.3127 909.3127 913.3111 913.3111 913.3214 913.3214 913.3214
   913.5128 913.5128 913.5128 913.6077 913.6077 913.6077 913.6741 913.6741

          k =-0.2500 0.2500-0.2500 (  3275 PWs)   bands (ev):

   -63.3921 -30.2067 -30.1661 -30.1661  -7.7273   6.2614   8.5832   8.5832
    16.1636  21.6239  25.7709  25.7709  29.3287  29.3287  31.1970  37.0135
    37.8451  37.8451  43.5177  46.1846  46.1846  52.9611  53.5213  53.5213
    62.1302  63.9484  63.9484  67.8725  69.0109  69.6635  69.6635  73.6058
    76.2570  76.2570  76.8177  78.4488  78.4488  80.7514  82.2147  82.2147
    83.6320  83.6320  88.2203  88.5009  88.5009  88.5087  94.8197  95.4113
    95.4113  96.8687 100.1519 100.1519 104.9368 104.9368 105.8967 106.3455
   108.2575 108.2575 110.7394 113.2640 114.4487 114.4487 115.5301 115.5301
   119.3254 124.9421 124.9421 126.9765 131.5106 131.5106 135.5642 136.8215
   136.8215 139.7990 139.7990 140.2025 142.0742 142.0742 144.3959 147.0994
   147.8317 147.8317 149.6925 149.6925 151.1831 152.5017 155.5590 157.0315
   157.0315 158.9343 159.3738 160.1619 160.1619 163.3858 165.9923 165.9923
   166.2842 166.8682 166.8682 169.2870 169.2870 170.6804 173.0697 173.0697
   173.1746 174.0224 174.0224 176.0795 176.0795 176.3429 179.0204 179.0204
   179.6841 185.1667 185.1667 185.1710 186.2662 186.2662 186.4450 186.6274
   190.4346 191.6744 191.6744 193.4891 193.4891 196.1726 196.8394 196.8394
   199.1901 199.1901 199.5057 201.0943 201.0943 201.5259 203.8211 203.8211
   204.1688 206.2027 209.7744 209.7744 211.5096 213.0733 214.1706 214.1706
   215.4901 215.4901 216.5625 218.6082 218.6082 219.6126 220.2525 220.2525
   220.3539 221.3709 227.4150 227.4150 229.4717 234.7127 234.7127 237.0296
   237.0296 237.2953 242.2649 243.2765 243.2765 245.6952 245.6952 246.4841
   246.4841 247.0200 248.7086 248.8082 248.8082 251.0731 255.5024 255.5024
   256.5630 258.8338 259.2402 259.2402 260.5918 260.5918 262.1908 262.1908
   262.3192 263.3250 263.3250 264.2211 265.0817 266.1139 266.6029 266.6029
   267.1592 267.9456 268.4460 268.4460 270.1368 270.1368 274.8183 274.8183
   275.6157 275.8346 275.8346 277.5376 279.8784 288.5047 288.5047 288.7610
   288.7610 288.8850 290.2142 290.5714 290.5714 291.4980 293.6725 293.6725
   293.6910 294.3685 294.3685 294.4585 296.3898 296.3898 296.8654 297.5284
   297.5284 298.2238 298.3422 298.3422 298.7195 301.6190 303.4763 303.4763
   303.9419 303.9419 304.0960 306.3144 306.3144 307.0842 308.8841 308.8841
   309.4625 310.8661 312.3106 312.3106 313.9733 314.0153 314.5371 314.8164
   314.8164 315.2839 315.2839 316.9210 316.9210 317.8982 317.8982 321.4514
   321.4611 321.4611 321.6222 324.4430 324.4430 325.9528 328.3675 328.7670
   328.7670 329.2137 329.2137 329.2296 330.9771 330.9771 331.0374 333.4740
   333.4740 335.1672 337.2683 337.2683 338.6988 338.8958 342.6903 342.6903
   343.0524 343.0524 343.5105 346.0721 346.1131 346.1131 346.3065 347.2111
   347.2111 348.2194 348.2194 350.0678 354.3181 354.5138 354.5138 354.7962
   356.1250 356.1250 357.9600 359.4278 359.4278 361.4754 361.4754 361.5071
   363.2017 364.6919 365.4396 365.4396 369.9398 369.9398 371.5699 372.2889
   372.2889 372.9020 376.5416 376.5416 378.9182 378.9182 379.4523 379.6962
   379.6962 380.6791 383.8890 383.8890 384.0756 385.9269 385.9269 386.3068
   386.6986 388.0096 389.6059 389.6059 393.8091 393.8091 394.2769 394.6616
   394.6616 397.0159 397.0159 397.1415 397.8505 397.8505 398.2691 398.7294
   399.1345 399.1345 399.4717 401.9994 401.9994 402.0797 402.3719 410.1606
   410.1606 410.7338 411.8543 411.8543 412.9784 413.0337 413.0337 414.2197
   414.2594 414.2594 414.6032 414.6032 419.0058 419.0058 419.1313 420.1368
   420.1368 421.6355 421.7463 423.1435 423.1435 425.4149 425.8804 425.8804
   426.1875 426.1875 426.3305 427.8452 431.1764 432.7108 432.7108 434.7194
   434.7194 435.4256 436.7402 436.7402 437.0121 437.4786 437.7163 437.7163
   440.4911 440.8165 440.8165 441.7275 441.7275 441.8908 443.1666 443.1666
   445.9686 445.9686 446.0503 446.2025 447.3527 447.3527 449.8767 449.8767
   449.9482 451.2738 453.3721 456.0738 456.0738 456.0946 457.1820 457.1820
   457.3060 457.3247 457.3933 457.3933 458.9780 458.9780 460.6469 460.6469
   462.1281 462.2105 462.2105 462.7217 462.8784 464.1547 464.1547 464.8883
   466.0348 466.0348 467.3154 467.3154 467.9814 469.5003 469.7802 469.7802
   470.0146 471.0098 471.0098 472.3445 472.3880 472.3880 472.8670 472.8670
   472.9296 474.9472 475.0330 475.0330 476.2329 476.2329 476.2608 477.3076
   477.3076 477.3558 477.6533 479.4311 480.2608 480.2608 482.5090 482.5090
   483.1072 483.1072 483.9286 483.9327 486.0007 486.0007 487.7674 489.1713
   489.1817 489.1817 489.4245 489.4405 489.4405 490.6206 490.6206 490.7226
   491.1583 491.1583 491.2166 493.1622 493.1622 499.5028 499.8507 499.8507
   504.0675 504.4857 504.4857 504.7346 505.6405 505.6405 506.4100 507.5915
   509.6134 511.1183 511.1183 511.2789 511.2789 511.3057 511.3057 511.3228
   512.4073 514.7906 514.7906 515.2461 515.8658 518.5060 518.5060 521.4125
   521.4125 521.6286 521.6286 521.9140 522.6773 522.6773 522.9859 525.9256
   526.2639 526.2639 527.9233 527.9233 528.2164 528.2164 529.4813 530.2675
   531.1063 531.9725 531.9725 532.4074 532.4074 533.9651 534.7359 534.7359
   535.6587 535.8734 535.8734 536.9907 536.9907 537.1391 539.0693 539.0693
   539.2577 542.1178 544.1407 544.1407 544.6600 546.0259 546.5038 546.5038
   550.2370 550.8178 550.8178 551.1595 551.1918 551.8896 551.8896 551.9752
   553.3594 553.3594 553.7461 553.8002 553.8002 558.0066 558.0066 559.1197
   559.1197 560.0695 560.1461 560.1461 561.4021 561.4021 561.5495 565.0287
   566.5661 566.5661 567.5451 567.5451 567.5988 568.5895 570.3419 570.3419
   571.7963 573.9277 575.4411 575.4411 576.4058 576.4095 576.4095 576.8401
   578.0159 578.0159 580.6108 580.6108 581.3688 581.5277 584.7299 584.7299
   584.7662 588.8956 588.8956 589.1183 592.4342 592.4342 593.1455 593.1819
   593.1819 593.3495 593.5113 593.5113 593.8868 593.8868 595.9287 595.9287
   596.2644 596.4824 597.2835 597.6608 597.6608 598.6627 600.3066 600.6462
   600.6462 601.8869 601.8869 602.4145 603.8231 603.8231 604.7681 604.9091
   604.9091 605.8166 605.8166 606.0215 606.4324 606.9023 606.9023 611.9363
   612.4790 612.4790 613.1825 613.4054 613.4054 615.0289 616.3045 616.3045
   617.8107 620.2120 620.2120 620.5359 620.5429 622.2415 622.2415 622.3386
   622.8336 622.8336 625.0456 625.0456 625.4640 626.3028 627.5658 627.5658
   628.8967 629.5669 631.6299 631.6299 633.2650 633.2650 633.4386 633.5620
   634.4367 634.4367 635.0385 635.0385 635.4638 635.7057 635.7057 635.7440
   636.1534 636.1534 636.8286 637.5245 637.5245 637.7313 638.3196 638.3196
   639.2668 639.2668 641.9775 643.5304 643.5304 643.7724 643.7724 644.5780
   644.6032 644.6047 644.6047 645.6344 648.0599 649.5316 649.5316 650.0107
   650.0107 650.5458 650.5458 650.8204 650.9606 650.9606 651.0289 652.5801
   652.5801 652.6596 652.8774 654.8561 654.8561 655.7870 655.9441 655.9441
   656.1461 656.5578 656.5578 656.9366 658.1986 658.1986 658.6967 658.6967
   659.4674 659.5995 659.5995 660.0396 660.8975 661.7381 661.7381 662.3433
   664.7498 664.7498 665.0207 665.9426 666.8848 666.8848 668.1204 668.1204
   668.2475 668.2475 668.5780 669.2306 669.5762 669.5762 669.8925 670.2119
   670.2119 670.2674 671.7570 677.9477 677.9477 678.0617 680.6658 680.6658
   681.5929 681.5929 682.5351 682.5908 682.5908 682.6293 683.0780 683.0780
   683.6197 686.1158 686.1158 686.4325 687.4095 687.4095 688.1865 688.1865
   688.2258 688.6119 689.9968 690.4894 690.4894 691.9908 691.9908 693.0468
   693.3288 693.3288 693.3634 695.5805 695.5805 695.8204 695.8204 696.1320
   696.6987 698.9440 699.1736 699.1736 700.0116 701.6172 701.6172 702.0365
   703.4147 703.4417 703.4417 703.7460 703.7496 703.7496 707.3198 707.3434
   707.3434 707.4531 707.4682 707.4682 708.4050 708.4050 710.1607 710.8663
   710.8663 711.0035 714.0826 714.0826 715.3314 715.3314 715.6417 717.3127
   717.3127 717.9962 718.5316 723.4433 723.4433 724.3238 724.8829 724.8829
   724.8918 724.9694 725.1503 725.1503 725.4172 725.4172 725.6435 726.6196
   726.6196 726.9035 726.9035 727.3920 727.6560 727.6625 727.6625 727.7359
   727.7359 727.7998 728.1995 732.8897 732.8897 732.9029 735.8738 735.8738
   736.8306 736.8306 737.2039 737.4186 737.6596 737.6596 737.7271 739.2029
   739.2029 739.8191 740.1251 740.1251 740.1683 741.8028 741.8028 741.9527
   743.8564 744.2797 744.2797 744.3826 745.9285 745.9285 746.1921 746.1921
   746.3405 751.7884 751.7884 751.8379 752.9263 754.1131 754.1131 754.8584
   754.8584 755.1654 755.6813 756.2441 756.2467 756.2467 756.7820 756.7820
   756.8024 758.3073 758.3073 758.3858 758.9072 764.4163 764.4163 766.3024
   766.7761 766.7761 767.0494 767.0494 767.0532 768.8905 768.8905 770.0499
   771.1429 771.1429 771.6927 771.6927 773.7049 775.3511 775.3511 776.0400
   776.0400 776.4636 776.7606 777.1462 777.1462 778.1171 779.8161 779.8161
   780.1638 781.4570 781.5045 781.5045 781.8187 781.8715 781.8715 783.3962
   783.3962 785.7192 787.1310 787.1310 787.4536 790.4448 790.4448 791.5429
   792.1281 792.1281 792.2158 794.0940 794.0940 795.1122 798.0701 798.0701
   799.7445 800.9955 800.9955 801.0834 803.5066 803.5066 803.9710 804.6287
   804.6287 804.6574 805.5888 805.8525 805.8525 806.1898 810.9968 812.4878
   812.4878 812.8694 812.8694 813.1000 813.3671 813.3671 813.7387 813.7387
   813.8953 814.1822 814.1822 814.1853 814.7707 816.9041 816.9041 817.1598
   818.2394 818.2394 818.4444 818.4444 819.0270 823.6781 823.6781 826.1381
   826.1381 826.1402 826.4024 826.4024 826.7177 827.3700 827.7360 828.3628
   828.3628 828.6487 828.7275 828.7275 828.9198 828.9198 829.1496 829.9689
   829.9689 830.6369 832.6893 832.8094 832.8094 832.9728 833.1576 833.1576
   833.2616 833.3846 833.3846 834.2845 834.2845 835.4518 835.4831 835.4831
   835.7987 835.7987 835.9729 836.3135 838.8577 840.3765 840.3765 841.3593
   841.4688 841.7706 841.7706 844.0791 844.1528 844.1528 845.7175 845.7175
   846.4399 846.9367 846.9367 847.3553 847.3553 847.3981 847.9042 848.2994
   848.2994 848.4381 851.0407 851.0407 851.2755 851.3532 851.3598 851.3598
   853.2845 853.2845 853.5335 854.8696 854.8696 855.2897 855.3381 855.3381
   855.6480 855.6480 855.6862 855.7179 856.5609 856.5609 856.6148 858.9537
   858.9537 858.9732 862.8601 862.8601 862.9063 865.9485 865.9485 866.3812
   866.3812 866.3977 866.5651 866.6692 866.6692 866.6721 872.6999 872.6999
   872.7239 875.4801 875.5955 875.5955 875.7058 875.7126 875.7126 877.8526
   877.8526 878.5246 878.8658 878.8658 879.1360 879.4903 879.4903 879.5338
   881.2927 881.3206 881.3206 881.8540 881.8540 882.0322 882.3114 882.3620
   882.3620 882.8480 882.8480 882.9534 883.5320 883.5320 883.5698 883.8673
   883.8673 883.9953 884.9037 884.9037 884.9158 887.8602 888.4284 888.4284
   890.4312 890.4312 890.6211 892.4680 892.4680 892.5345 895.1757 895.1757
   895.4345 896.3459 896.3459 896.4352 896.4428 897.7025 898.5284 898.5284
   898.9061 898.9090 898.9090 899.4071 899.4071 899.4187 900.2577 900.3853
   900.3853 900.5698 901.0232 901.0232 901.1188 901.1323 901.1323 901.2705
   903.4774 903.4774 905.5371 905.5371 907.1949 907.5954 907.5954 908.1733
   908.1733 908.5656 908.8010 910.7022 910.7022 910.9889 912.3761 912.3761
   912.5292 912.7783 912.7783 914.9857 915.6015 915.6015 916.5643 916.8761
   916.8761 916.9601 916.9601 916.9749 918.9333 918.9333 918.9788 921.5611
   921.6131 921.6131 921.9231 922.0628 922.0628 922.4022 922.4022 922.5412

          k = 0.5000-0.5000 0.5000 (  3274 PWs)   bands (ev):

   -63.3875 -30.2512 -30.1707 -30.1707  -6.9957   4.2782   8.2684   8.2684
    16.9389  21.6858  25.4393  25.4393  30.1058  31.6933  31.6933  37.7785
    40.0921  40.0921  42.1026  42.1026  51.8647  53.5313  56.1495  56.1495
    59.5198  60.1140  60.1140  62.5772  67.2227  67.2227  68.8430  70.2779
    70.2779  71.9495  73.4870  76.4251  77.5956  77.5956  81.8409  81.8409
    88.0152  88.5111  90.3040  90.3040  90.7546  90.7546  92.1561 100.9315
   100.9315 101.8365 101.8365 102.9969 108.0070 108.4177 110.7957 110.7957
   114.0633 114.0633 117.6371 117.6371 118.1929 118.1929 119.1323 121.6738
   121.6738 121.8103 121.8103 123.0241 123.7624 123.9708 128.8847 128.8847
   130.6157 132.8443 137.9171 137.9171 140.6050 140.6050 140.6127 140.6127
   142.7934 144.3996 145.7818 147.8762 147.8762 152.1019 152.1019 152.7839
   155.7246 155.9869 158.2841 159.1282 159.1282 159.4425 159.4425 160.7316
   166.6111 166.6111 167.3700 167.3700 168.1618 172.5855 174.0958 174.0958
   174.1801 174.1801 174.3449 174.4444 181.4547 182.5057 182.5057 182.8525
   182.8525 183.6428 187.2546 187.2546 187.6920 187.6920 189.6439 189.8165
   190.3862 192.1145 196.9579 196.9579 199.0605 199.0605 201.3027 201.3027
   202.8303 202.8303 203.1055 204.6236 204.7818 206.2519 206.2519 206.7029
   206.7029 206.7132 207.7125 212.6245 214.0490 214.0490 214.0529 214.0529
   216.1590 220.0309 223.3712 223.3712 223.4752 223.4752 224.9383 224.9383
   225.2659 225.2659 226.2069 226.2108 230.1585 230.1585 232.3752 232.3752
   235.7677 236.9680 238.1031 238.1031 239.2861 239.2861 241.8810 241.8810
   242.3136 242.3483 242.5544 242.5544 243.4462 251.3254 251.4889 251.4889
   252.1598 252.1598 255.1356 256.2279 263.0244 263.0244 263.3697 263.9017
   264.7161 265.1018 265.1018 266.8042 266.8042 267.6244 268.1506 269.8147
   269.8147 269.8977 269.8977 270.9230 270.9230 271.3154 271.6214 274.8081
   274.8081 274.8709 274.8709 275.0853 275.2423 275.9470 275.9470 275.9902
   275.9902 280.4130 286.6812 286.6812 287.3146 287.3146 288.4662 288.4911
   289.5227 290.9568 292.2391 292.2391 292.2640 292.2640 293.2359 293.2359
   293.4070 293.4070 293.7449 293.8762 297.3876 297.3876 299.3201 299.3201
   302.0955 303.4130 304.6999 305.3229 307.9561 307.9561 308.1341 308.1341
   308.2313 308.5999 314.8190 314.8190 316.1797 316.1797 316.5178 318.1858
   322.7600 322.7600 323.6310 323.9302 323.9302 325.0900 325.0900 325.1095
   325.1095 325.3846 325.4212 326.1515 327.2620 327.2620 327.3601 327.3601
   327.5360 327.8803 330.6340 333.3427 334.4624 334.4624 334.9751 334.9751
   341.6616 341.7577 341.7577 344.2537 344.2537 345.8051 348.3071 348.3071
   348.8773 348.8773 352.5545 356.4483 357.0154 357.0154 357.5389 357.5389
   359.4109 359.4825 359.4825 359.5438 359.5438 359.7088 359.7438 359.9197
   359.9197 359.9501 359.9501 360.7991 360.8437 364.0108 368.0730 368.0730
   368.9428 369.0678 369.4781 369.4781 373.2666 374.1295 374.3001 374.4486
   374.4486 374.5234 374.5234 374.7931 374.7931 374.9012 374.9012 376.3194
   376.8059 376.8059 376.8810 376.9195 376.9195 377.0533 379.8142 379.8142
   379.8173 379.8173 380.4926 381.5471 381.5514 387.0261 393.8533 393.8533
   394.4247 394.4247 394.7263 394.7263 394.8047 394.8047 394.9062 395.1794
   401.0993 401.0993 401.4994 402.1312 402.1312 402.4877 403.8687 403.8687
   404.4778 404.4778 408.1359 408.6875 408.6875 410.1452 410.1452 410.4480
   410.4663 410.8658 411.4986 411.4986 411.5466 411.5466 412.1882 412.4327
   416.0152 416.0152 416.0925 416.0925 419.7340 419.7340 419.7798 422.4769
   423.5913 423.5913 424.0672 426.2869 426.8063 427.2034 427.2034 427.2513
   427.2513 428.2076 428.2076 428.2515 428.2515 428.3590 428.4332 431.5780
   441.0270 441.0270 441.2735 441.8794 441.8794 441.8850 442.4569 442.4569
   443.7423 443.7423 444.7495 444.7495 444.7610 444.8856 445.0857 445.0857
   445.2966 445.7058 448.4112 450.8805 454.4674 454.4674 456.2539 456.2539
   456.8344 457.3981 458.5382 458.7352 458.7352 458.7643 458.8792 458.8792
   459.4577 459.5635 459.8523 459.8523 460.0524 460.0524 460.8561 460.8561
   462.4061 462.4061 464.7813 464.7813 465.0670 465.0670 468.5342 473.0925
   473.6218 473.6218 473.9178 473.9178 474.0031 475.1692 475.9894 475.9894
   476.6949 476.6949 477.0318 480.8528 480.8862 480.8862 480.9722 480.9722
   481.0378 481.9452 482.6416 482.6669 482.6669 482.7517 482.7517 482.8663
   489.0294 490.7081 490.7081 491.1139 491.1139 491.8731 495.4930 495.4930
   495.6410 495.6410 496.6267 496.6407 502.2635 502.6693 505.0108 505.0108
   505.4808 505.4808 507.1180 507.1180 509.0984 509.9486 509.9486 510.3217
   511.8125 511.8125 511.9532 511.9788 511.9788 512.1599 512.5320 513.7808
   514.3696 514.3696 514.4096 514.4096 514.5414 514.5419 516.8761 516.8761
   517.5828 519.8380 519.8380 519.9864 520.4146 520.4146 520.4393 520.4393
   523.0974 523.0974 523.2248 523.2248 524.3494 524.3931 526.8173 527.9318
   529.2255 529.2633 529.8682 530.1904 530.1904 530.2830 530.2830 530.5591
   530.5591 530.6908 530.6908 530.7711 530.7711 530.7817 530.7817 531.4400
   531.4420 532.4795 532.4795 532.5258 532.5258 532.8508 532.9132 535.5299
   544.7588 544.7588 544.9738 544.9738 545.2352 545.2390 546.8316 546.8316
   547.3590 547.3590 547.5664 547.5664 547.6286 547.6286 547.6478 547.6495
   547.9357 549.3403 550.2933 550.2933 550.3370 550.3370 550.4439 550.4727
   560.6938 560.6938 561.1312 561.7967 561.7967 562.7622 563.0639 563.0639
   563.0875 563.0875 563.5231 564.0395 569.0387 569.6422 574.7863 574.7863
   574.8585 575.5373 575.5373 576.4519 576.4519 577.3461 577.7369 577.7369
   578.3611 578.3611 578.7439 578.7439 578.8760 578.8760 578.9713 578.9879
   578.9879 578.9925 581.0778 581.6843 584.2090 584.2090 584.2228 584.2228
   586.3714 586.3717 590.4610 590.4610 591.3964 593.1461 593.5194 593.5194
   596.1208 596.1208 596.1286 596.1286 596.5114 596.6753 597.1193 597.1193
   598.6932 598.6932 601.9015 601.9015 601.9075 601.9075 602.2564 602.2585
   602.9979 605.6867 605.6919 606.2091 606.2091 606.6864 606.6864 607.5658
   607.9944 609.5071 609.5071 611.0833 611.2913 611.2913 611.8956 615.9348
   618.1278 618.1278 618.1334 618.1334 625.7266 625.7266 625.7492 625.7789
   625.7789 626.6644 626.6644 626.8292 628.2997 628.2997 628.8097 628.8566
   628.9134 628.9134 629.8683 629.8683 630.2557 630.4085 630.4085 630.4257
   630.5705 630.5705 632.4363 632.5345 632.8762 632.9134 632.9134 632.9599
   632.9599 633.0308 633.1077 633.1077 633.4446 633.4446 633.5909 633.6365
   633.7633 633.7633 633.8035 634.0232 634.0232 634.6105 635.1953 635.1953
   635.2065 635.2065 635.4879 635.5333 643.5797 643.5797 645.1750 645.1750
   646.3317 646.4676 646.4676 646.6009 646.8236 646.8791 646.8791 646.9835
   650.9989 650.9989 651.1361 651.1361 651.2418 651.3136 657.6039 658.0612
   658.0612 658.6754 658.6754 659.6845 664.2442 664.2442 664.5923 664.5923
   664.6300 665.3925 665.6123 665.6817 665.6817 665.7448 665.7448 666.0488
   666.5184 666.5184 666.8467 666.8467 667.1377 667.1377 667.1783 667.2306
   667.6449 667.6449 667.9987 667.9987 668.0918 668.1008 668.1014 668.1014
   668.1619 669.0599 679.4850 679.8307 679.8307 680.2532 680.7568 680.7568
   681.1671 681.3926 682.5091 682.5091 682.5451 682.5451 683.8112 683.8112
   684.0838 684.0838 684.2692 684.2692 684.3036 684.3036 684.3292 684.3355
   684.6518 685.1578 687.8159 689.9979 695.3379 695.3379 695.9286 695.9286
   696.7166 697.4145 702.4568 702.4568 702.5509 702.5509 703.7389 703.7509
   703.7509 703.8526 703.8526 703.8819 706.7360 706.7360 709.3762 709.3762
   710.0798 710.2892 710.9445 710.9445 710.9694 710.9694 711.5764 711.8302
   714.8802 714.9288 714.9288 714.9368 715.0078 715.0411 715.0411 715.0902
   715.0902 715.1157 715.1306 715.1306 717.6016 717.6016 717.6393 717.6393
   717.8727 718.2073 720.3714 720.3714 720.3764 720.4622 720.4622 720.4872
   722.1264 722.1264 723.1328 723.1328 723.9984 725.1618 733.1509 733.1509
   733.3485 733.3485 733.4227 733.5568 734.7289 734.7289 734.9953 735.1633
   735.1633 735.5145 735.5312 735.5312 735.5657 735.5657 736.0405 736.0471
   738.8965 738.8997 738.8997 738.9269 738.9269 738.9313 747.7669 747.7669
   748.1527 748.4658 749.5024 749.5024 750.0415 750.0415 750.1644 750.1644
   750.3494 750.7827 750.7830 750.7830 750.8276 750.8276 751.0724 751.1389
   753.7643 753.7643 754.2580 754.2580 754.8440 755.7686 755.7712 755.8420
   755.8789 755.8789 756.1985 756.1985 764.6229 764.6229 765.8976 766.2042
   766.2042 766.2528 766.7891 767.4014 767.4014 767.4038 767.4960 767.4960
   767.4977 767.5359 767.9508 768.0803 768.0803 768.0804 768.0804 768.7947
   778.4822 778.4822 779.2505 779.2505 779.5089 779.6961 781.0718 781.0718
   781.3156 781.3762 781.3883 781.3883 781.9509 781.9509 782.1915 782.1915
   782.7075 782.7075 782.8564 782.8564 783.2602 783.2772 783.3790 783.3790
   783.4165 783.4317 783.4317 783.4543 783.5500 783.6022 786.8843 786.9308
   787.3760 787.3760 787.4119 787.4119 788.9075 788.9075 788.9128 788.9354
   788.9354 788.9742 789.3609 789.3609 789.4205 789.4205 789.5320 789.5872
   803.4840 803.5239 803.5239 803.7876 803.7876 803.8317 804.6346 804.6346
   804.6501 804.6789 804.6789 804.6847 804.8344 804.8919 804.8919 804.8921
   804.8921 804.9128 809.8400 809.8400 811.0525 811.0525 812.2323 813.2345
   817.1031 817.1031 817.6745 817.6745 818.1296 818.3773 819.2143 819.2143
   819.9603 819.9718 820.0384 820.0384 820.1733 820.1733 820.2805 820.3044
   820.3044 820.3399 820.4729 820.4729 820.4740 820.6042 820.6042 820.6452
   825.3982 825.5022 828.4004 828.6033 828.6033 828.9109 828.9109 829.7731
   831.8720 831.8720 831.9687 831.9687 831.9976 831.9976 832.2808 832.4916
   833.5558 833.6610 833.6610 834.4856 834.4856 834.5121 834.5380 834.5380
   838.0957 838.0957 838.1133 838.1133 838.1998 838.1998 838.2054 838.2124
   838.2187 838.2187 838.2297 838.3303 839.8257 839.8257 839.8380 839.8380
   840.6271 840.6272 841.2866 841.2866 841.2893 841.2893 843.0274 843.0276
   853.1958 853.1958 854.0767 854.2150 854.2150 854.5702 854.6891 854.6891
   854.8753 854.8753 854.9593 855.0257 864.7853 864.7853 865.1000 866.3070
   866.3942 866.3942 866.5326 866.5326 867.2415 867.2415 867.3923 867.4030
   867.7535 867.7535 868.0789 868.0789 868.2281 868.5024 868.5024 868.6427
   868.6427 869.0174 869.0231 869.0734 869.1361 869.2110 869.3639 869.3639
   869.4469 869.4469 870.6780 870.6780 871.0053 871.0053 871.0112 871.1684
   878.3770 878.7628 884.8174 884.8174 885.5942 885.7567 885.7567 885.8237
   886.8058 886.8188 886.8188 886.8287 886.8287 886.8988 886.8988 886.9343
   886.9650 886.9650 887.0086 887.3993 887.9287 887.9461 887.9461 888.1224
   888.1224 888.2179 888.7288 888.7288 888.7424 888.7424 888.7751 888.8019
   889.4706 889.4706 889.8200 889.8200 889.9378 890.0145 890.5684 890.5684
   890.5884 890.5884 890.5942 890.5960 891.4079 891.4079 891.4140 891.4140
   892.7184 892.7184 892.7252 892.7252 892.8507 892.8544 899.6034 899.6034
   900.2014 900.2597 900.2597 900.4002 907.8356 907.8499 907.8499 907.8630
   907.8630 907.8910 920.9378 920.9378 921.3619 921.4108 921.4142 921.4142
   921.4594 921.4594 921.7468 921.7468 921.7736 921.7736 921.7801 921.7924
   922.6064 922.6064 922.7084 922.7668 922.7668 922.7829 922.8534 922.8534
   922.8539 922.9581 925.0770 925.0770 925.4483 925.7732 925.7732 925.8925

          k = 0.0000 0.5000 0.0000 (  3263 PWs)   bands (ev):

   -63.3906 -30.2021 -30.1764 -30.1764  -7.5659   6.2893   8.1865   8.1865
    17.1567  20.1933  24.6398  26.5862  26.5862  32.6354  36.5860  36.5860
    37.0929  37.6971  44.8544  45.1035  45.1035  51.2259  55.4424  55.4424
    55.7933  61.1693  64.5481  67.6696  67.6696  70.1030  71.4484  73.0978
    73.9060  75.9955  75.9955  79.6409  79.6409  80.9564  82.2561  83.2084
    84.8908  86.0448  86.0448  87.9914  89.1212  89.4831  89.4831  96.4590
    96.4590  97.0739  99.8501 100.9050 104.0714 104.0714 105.5114 108.1305
   111.6177 112.6492 112.6492 115.5114 116.7017 116.7017 119.4133 119.4133
   122.6650 123.4048 124.2290 129.1436 129.3053 130.2432 130.2432 132.8437
   136.5296 136.5304 136.5304 139.4709 139.4709 139.5914 140.8005 144.8220
   144.8220 145.2138 145.7009 149.0188 150.3164 154.4229 154.4229 154.9875
   156.1667 159.1040 159.1040 161.5595 164.1545 165.6726 165.6726 165.9678
   166.8958 167.3987 167.6394 167.6394 168.9441 171.1546 172.7288 173.4410
   173.4410 178.5000 178.5797 179.0259 179.0259 180.5751 180.5751 182.4563
   182.4563 183.0006 183.0160 185.1177 186.3908 186.8460 186.9630 186.9630
   187.6372 188.2618 188.2618 189.5143 189.5143 190.8639 191.5005 191.6478
   198.0148 198.0148 199.1664 199.7090 200.2123 202.5191 202.5191 205.2313
   209.3165 209.6857 209.6857 210.4987 212.6196 220.1083 220.5724 220.5724
   220.7619 221.2945 221.3072 221.5716 221.5716 222.3762 225.6056 225.6056
   226.3099 228.3851 228.3851 230.6231 231.7379 234.2799 235.0626 235.3465
   235.3465 236.4877 237.4283 237.4283 238.9905 240.0019 240.0019 240.5695
   241.8458 247.3644 248.6656 248.6656 249.6730 249.7541 249.7541 250.6954
   253.5389 254.0973 257.6727 257.6727 259.0833 259.0833 259.1975 259.3984
   261.0862 262.7517 264.2528 265.9617 265.9617 267.0690 268.4734 270.0353
   270.0353 270.7412 270.7412 270.8969 270.9022 272.2914 272.3369 272.3369
   274.5415 276.4843 276.4843 276.8815 277.2579 278.7488 281.8375 281.8375
   282.7232 284.7422 284.7422 286.9281 287.1700 287.3648 287.5452 287.5452
   287.9486 288.5447 288.5447 290.0967 290.7122 294.3797 295.6978 296.7550
   296.7550 299.3452 299.3452 300.3299 300.9337 303.3714 304.5030 305.2438
   305.2438 306.3381 306.4844 310.5133 310.5133 312.9953 314.3662 314.3662
   315.1225 315.1225 315.3833 315.8907 317.2596 318.0933 318.0933 318.4696
   319.1018 319.7189 320.4692 320.4692 321.6618 324.2468 325.0988 325.3098
   325.3098 325.8803 326.4928 330.0801 330.0801 331.4965 331.4965 331.7036
   332.7995 332.7995 333.8241 333.8287 334.7894 334.7924 334.7924 335.1613
   335.1613 335.2676 335.3837 335.6113 335.8995 339.0164 339.4310 339.7755
   339.7755 340.0026 340.2364 340.4107 340.4107 340.6462 341.0369 343.6276
   343.6276 344.0325 344.9437 348.3038 352.1507 352.1507 352.4164 353.2008
   353.2008 353.3263 354.8107 355.0908 355.9043 355.9043 356.2779 358.6147
   367.8008 367.8008 368.7083 368.7083 369.4646 370.0189 374.1915 374.1915
   375.0048 377.0682 377.9490 379.0279 379.0279 379.8043 381.0390 382.4113
   382.4113 382.9303 385.4204 385.4891 385.4891 386.9479 387.1830 387.1830
   387.6868 388.2486 388.5458 388.5458 389.0118 390.8342 391.1306 391.1306
   391.8488 393.1956 393.3076 393.6615 393.6615 393.7909 394.1597 397.5904
   397.5904 402.1593 402.1593 402.9449 403.1843 404.1299 404.2600 405.5109
   405.5109 406.0490 413.5254 414.9079 415.5916 415.6676 415.6676 417.0370
   417.0370 418.4896 419.1681 421.0050 421.0050 422.0242 423.5391 424.1936
   424.1936 425.0511 425.2775 425.6851 425.6851 426.1375 427.0042 427.2750
   427.2750 427.3886 428.0253 429.9237 429.9237 434.3144 434.3144 434.9471
   435.0431 436.1791 437.7496 437.8680 437.8680 438.2519 438.3772 438.5487
   438.5656 438.5656 439.6444 439.9116 439.9116 439.9669 440.5460 440.5460
   440.6806 441.3753 441.9157 441.9347 442.1569 442.1569 442.3470 443.2908
   445.4956 445.4956 445.4989 445.6637 445.6637 445.6890 447.4260 447.5389
   448.5325 448.5325 450.7869 455.6145 455.6145 456.0022 456.1689 458.2830
   458.8600 458.8600 459.2410 459.8133 460.7134 460.7134 460.7286 460.8529
   460.9054 460.9054 462.1609 463.1342 464.7281 464.7281 466.7075 467.1076
   467.1076 469.3055 469.4356 470.7352 473.0410 473.2005 473.2005 473.8382
   477.9359 478.6218 478.6946 478.9279 478.9279 479.1772 479.1772 479.2577
   479.6103 484.2481 484.2481 485.6391 485.9001 486.4660 486.4660 487.6459
   488.4676 488.4965 488.5770 488.5770 488.7813 488.7813 488.9344 489.8462
   492.1659 492.6478 492.6478 493.3164 493.3164 493.3905 493.5492 499.1804
   499.5247 503.5650 503.9728 503.9728 504.8695 504.8695 506.4668 506.4668
   507.1554 507.2843 507.4216 507.4216 507.6681 507.7497 508.0701 508.3812
   508.4488 508.4488 509.0112 509.0363 509.0363 509.3997 511.4059 512.8236
   516.3628 516.3628 518.4200 518.5166 518.5166 519.0139 520.7624 521.0514
   521.8573 521.9315 521.9315 522.8251 522.8251 522.9478 523.0706 524.6810
   525.8809 525.8809 528.5019 528.9749 528.9749 529.0057 529.4292 530.9729
   531.0293 531.0293 531.0863 534.3427 536.5633 537.3737 537.3737 538.0118
   538.0118 538.1440 539.2544 539.5478 539.5478 539.7974 540.9168 541.6060
   541.6858 541.6858 542.0554 542.4797 542.4797 542.8021 543.9319 544.6339
   544.9973 544.9973 545.0782 545.2323 545.2323 545.3590 545.5000 545.9487
   547.8342 551.7354 551.7354 553.2685 553.2685 553.7324 555.1303 557.6061
   558.2115 558.2115 558.6731 559.2480 562.9892 563.2670 563.2670 565.8679
   565.8679 566.0491 566.7216 567.1880 570.6747 570.6747 573.1894 573.2136
   573.6857 573.6857 573.8322 575.9354 580.7441 581.3353 581.3353 582.0778
   585.0511 585.0511 586.4241 587.0552 587.1187 588.8338 588.8338 590.1131
   590.1131 590.7708 591.1857 591.1857 591.3281 591.6838 591.7980 591.9801
   591.9801 592.1595 592.8693 592.9145 592.9877 593.0478 593.0478 593.3935
   593.5039 593.5039 593.8120 594.5314 594.5314 594.8390 595.1103 595.2617
   595.4579 595.7311 595.7311 595.8803 599.1426 599.1426 599.1528 599.4100
   599.5106 599.5106 599.5522 600.8701 602.3623 604.1464 606.4062 606.4062
   606.6268 606.7533 608.3074 608.3074 609.6533 611.2317 613.0519 613.0736
   613.0736 613.3617 613.9993 613.9993 617.0024 620.1388 625.4733 625.4733
   625.8671 626.3206 626.3206 626.4791 626.7509 627.3169 627.8402 627.8402
   627.8750 628.2150 628.2150 628.2456 628.4632 628.5797 628.6443 628.6443
   628.7782 628.9288 628.9288 629.1045 629.1045 629.1430 629.1752 630.1168
   634.8895 636.1165 638.1513 638.1513 638.6996 638.9539 640.2746 640.2746
   641.4487 641.8369 642.0143 642.0143 642.2706 642.5760 642.5760 642.8324
   642.8324 643.2220 643.7436 644.4011 646.6958 646.9236 646.9236 647.1988
   648.3689 648.4971 648.4971 648.5415 648.6097 648.8642 648.8642 649.3559
   649.4037 656.0703 656.0703 656.5157 657.3774 657.4553 657.4553 659.6474
   659.9398 659.9398 660.3115 660.6623 661.0209 661.4911 661.4911 661.8650
   661.9598 664.0130 664.0130 666.9304 667.9513 671.6344 671.6344 673.8867
   674.0139 674.0139 674.1507 674.4983 674.4983 674.6320 676.0010 676.0064
   676.2798 676.8865 676.8865 676.9468 677.0048 677.1806 677.1806 677.4800
   678.1836 678.8515 678.8515 679.1818 679.2483 679.2483 679.4615 679.5894
   679.8109 679.8109 679.9567 679.9707 680.4128 682.4335 682.6524 682.6524
   682.8886 684.3780 684.3793 684.5270 684.5270 684.6542 687.1664 687.1664
   689.1224 689.1224 689.5854 689.5854 689.6403 689.6439 690.3904 690.7644
   693.7967 693.7967 694.1071 694.7866 695.7831 695.7898 696.3953 696.3953
   696.7756 697.4607 697.4607 697.6259 697.8254 697.8254 697.8299 697.8756
   698.0242 699.3499 699.4767 699.4767 699.5519 699.6156 700.4948 700.4948
   700.5192 700.5647 701.6116 701.9147 701.9147 702.2530 702.6204 702.6204
   703.9860 708.4687 708.4687 708.6683 709.1902 710.2037 710.2037 710.7711
   711.2325 713.8298 713.8298 713.9617 714.1490 718.7192 718.7295 718.7295
   718.9038 723.4567 723.4567 724.1478 725.3165 727.8255 727.8255 728.9320
   729.2371 729.2960 729.2960 729.4379 729.4861 732.8156 732.8156 732.9002
   732.9151 737.2939 737.2939 738.4445 738.5631 740.3792 743.9032 743.9032
   745.1552 745.1552 745.3512 745.7004 745.7118 745.7288 745.7288 746.0829
   746.3810 746.4757 746.7083 746.7083 747.0159 747.6551 747.6551 748.1677
   748.3330 748.8714 749.0571 749.0571 749.2044 751.7976 751.7976 751.8837
   751.9195 752.4556 753.7589 759.9746 759.9746 760.7566 760.7719 760.7719
   761.1363 761.6989 761.7053 761.8435 761.8435 761.9753 762.0233 762.0233
   762.3940 763.5260 764.4305 767.9303 768.0232 768.0232 768.1195 769.1283
   769.3741 769.3741 771.3210 772.6826 773.0467 773.0467 775.8553 775.8553
   775.9430 776.1596 777.0616 777.8981 778.0889 778.0889 779.3179 779.3732
   779.3732 779.8772 779.9083 779.9083 779.9571 780.0836 780.6560 780.6560
   780.9255 780.9424 780.9464 780.9520 780.9520 781.0429 782.3669 782.5661
   782.5661 782.5730 782.6599 783.2915 783.2915 784.6597 785.2282 785.2282
   785.7524 787.0403 787.2125 787.2125 787.3604 789.4377 790.2804 792.3772
   792.3772 792.5856 792.5881 794.3299 794.3299 794.9212 795.5166 795.8176
   795.8625 795.8625 796.0822 796.2242 796.2242 796.3977 796.7779 796.7779
   797.0749 801.2140 801.2140 801.2429 801.2509 801.5740 801.6831 801.6831
   801.8284 803.5935 804.6454 804.6454 804.6532 804.6550 814.1295 814.1295
   814.2843 814.7382 814.7382 814.8504 815.2568 815.4673 815.5747 815.6809
   815.6809 815.7358 815.8264 815.9080 815.9080 816.2088 822.8563 824.1750
   824.1750 825.5142 826.2082 826.2082 826.4723 827.5340 829.5899 829.5899
   832.1109 832.6049 833.1019 833.3125 833.3125 833.7866 833.8073 833.8073
   833.9342 834.2021 834.2021 834.4785 835.2087 836.7467 837.8614 837.9711
   838.2986 838.2986 838.7233 838.7905 839.0637 839.0637 840.0761 840.6732
   840.6732 847.8588 847.9997 847.9997 848.2438 848.6218 848.6218 848.6761
   848.7376 848.7954 848.8098 848.8098 848.8449 848.9072 849.1867 849.7576
   849.7576 850.0430 850.0430 850.1200 850.4462 850.7256 851.9202 851.9217
   851.9248 851.9248 853.3553 856.5106 856.5106 857.8983 859.7613 859.7613
   860.0436 860.0683 862.5610 862.5610 863.1410 863.4213 864.2048 864.2048
   865.3859 865.4161 865.4566 865.4906 865.4906 865.5818 865.7682 865.9186
   865.9186 866.1524 867.1566 867.2359 867.2359 867.2460 870.7414 870.8373
   870.8373 870.9204 872.8928 872.8928 872.9054 872.9079 876.7046 876.7046
   876.8006 877.2996 880.2813 880.2813 881.0126 881.2031 881.6706 881.6915
   881.6975 881.6975 881.7237 882.1109 882.1109 882.4870 882.4870 882.6135
   882.9202 883.0994 886.4187 886.7803 886.7803 887.2084 889.7598 889.7598
   889.7738 889.8619 893.6461 894.7844 894.7844 895.5391 895.6196 896.0808
   896.0808 896.7980 896.8135 897.0254 897.0791 897.0791 897.4775 897.4775
   897.6871 897.8760 897.8768 897.8833 897.8833 898.0659 898.0659 898.1393
   898.6395 899.4779 900.4588 900.4588 900.5247 900.5721 900.6598 901.2159
   901.2159 901.8230 902.0133 902.0133 902.2021 902.4188 903.0921 903.0947
   903.0947 903.1083 904.4602 904.5255 904.5474 904.5474 904.5886 904.5901
   904.5901 904.6955 906.8820 906.9733 906.9733 907.0519 911.9733 911.9862
   912.0074 912.0074 915.0637 915.6947 915.6947 915.9305 917.4336 918.0642
   918.0642 918.5275 918.8051 918.8051 918.9877 919.0868 919.9472 919.9472
   919.9481 919.9685 920.5731 920.7063 920.7063 920.8751 924.0339 926.8697

          k = 0.7500-0.2500 0.7500 (  3259 PWs)   bands (ev):

   -63.3860 -30.2323 -30.1931 -30.1811  -6.8931   5.0927   7.0023   7.9032
    18.7470  20.6397  22.4073  26.7931  27.9578  33.7023  36.0300  37.3514
    38.7154  41.3120  43.4005  47.6533  50.1147  51.5449  52.1773  55.2144
    56.1271  59.9717  60.7273  63.0991  63.3343  65.6041  67.0299  68.2149
    71.6682  73.0256  75.6207  76.2385  78.0562  80.5341  81.8528  82.2058
    86.8496  88.5126  91.6500  92.2690  92.8911  95.1824  97.6576  98.9470
   100.3043 101.0854 101.6750 102.6351 104.0358 106.1479 110.2062 110.3642
   112.3114 112.3829 114.8296 115.3275 117.9391 118.6914 120.3125 122.3995
   122.5431 125.7104 125.9419 127.4505 127.7942 129.0346 129.2887 131.1637
   131.7533 132.8672 135.1403 135.8054 137.7855 139.2466 140.1186 140.3841
   143.0252 144.1417 144.7470 145.6841 145.9665 148.0483 150.1551 150.5260
   153.3575 155.5327 155.8600 157.3787 158.2268 159.7804 160.5025 162.9073
   163.0421 165.3809 166.3030 167.4395 168.9242 171.2799 172.2904 173.1778
   174.4097 175.6477 175.7872 175.8635 177.5434 177.6385 177.8180 179.1835
   182.5293 182.5739 187.4668 187.8050 189.6924 189.8480 192.8573 192.9426
   194.1815 194.6884 195.1540 198.4822 198.8996 200.7941 201.1137 201.8855
   202.1389 203.0489 205.3915 205.7095 206.5831 207.8584 208.2706 208.9018
   210.1209 211.9466 213.9793 214.1529 215.1128 216.7749 217.1188 218.0028
   218.6127 220.2035 221.4315 221.8716 223.9615 225.5335 226.3554 226.8807
   227.7692 227.8030 229.3833 230.9069 230.9556 231.7543 231.7922 233.3777
   233.4680 235.5071 237.5604 238.6170 238.7564 239.4573 241.3978 241.9187
   243.0533 243.1928 243.8540 244.6624 244.6815 246.0468 248.7030 250.1563
   250.7859 251.1811 252.6989 253.7917 254.8749 255.5777 255.7806 256.9549
   257.1737 257.4042 258.5591 260.0057 260.9193 263.1504 264.2730 264.2782
   267.1567 268.6951 268.9553 269.3303 270.4122 270.5260 271.1445 271.5320
   273.1139 273.1798 274.2563 274.4770 274.7134 275.9955 279.6821 280.2111
   281.9245 283.3661 283.4454 283.9450 286.1674 287.9590 288.8318 289.2795
   290.2548 290.4421 290.7167 291.2979 293.5029 294.3365 294.7095 295.7627
   296.5079 297.2811 297.6227 298.9418 299.4143 299.7356 300.8193 301.2505
   303.6253 304.4814 304.8998 304.9564 306.3393 306.7408 310.2727 310.5755
   313.8224 314.5352 316.5928 317.1052 317.2295 317.8553 318.1426 318.2067
   319.0074 319.6778 320.5937 321.5123 321.7733 321.9679 322.9011 324.7376
   325.9465 328.3423 329.1714 329.2409 333.3802 333.4835 334.3687 334.7707
   335.0357 335.4461 335.8538 336.7986 337.5149 337.5864 339.3453 339.6569
   340.6978 341.1663 342.0053 342.4111 344.3987 344.5803 345.3454 345.5429
   346.8326 348.1577 349.2256 349.6336 350.2801 352.4277 354.6991 355.2930
   355.4176 355.7517 356.0913 356.2359 356.6862 357.1617 357.6694 359.0166
   362.1633 363.5996 364.0102 364.0838 364.3942 364.8062 365.6773 366.1666
   366.5999 366.7259 367.2956 367.7134 369.1411 369.6803 369.7607 370.0131
   370.7267 371.1569 371.7553 373.8571 374.4871 376.9481 377.0788 377.1318
   378.5564 379.4211 380.7272 380.9667 382.6268 382.9970 383.7878 384.1926
   384.8014 385.4568 385.7319 386.6972 388.5713 390.0599 390.2158 390.7563
   391.1937 391.7487 392.5525 393.0926 393.9577 394.9797 396.5388 397.3974
   397.4536 398.1087 399.0011 399.5217 401.8811 402.6774 403.3636 404.9821
   406.1272 406.2521 406.7885 407.6896 408.6745 408.7422 409.1672 409.9179
   410.0065 410.3687 410.6607 410.6618 412.7433 413.9360 414.6507 415.3585
   415.4662 416.4300 416.6485 416.8663 419.0894 419.6828 419.8122 420.5781
   421.3476 423.5030 424.1245 424.4658 424.7340 424.7620 425.5400 427.9322
   428.6166 428.9827 429.1151 429.5071 429.6566 430.1925 430.9620 431.2254
   431.2482 432.6089 434.8096 435.1753 435.6943 436.2194 438.7327 441.2516
   441.5207 441.6279 442.1281 442.2149 445.7528 445.7661 446.1290 446.1599
   446.7826 446.9179 447.3561 448.2251 448.8286 450.0146 450.7348 451.3458
   453.6988 453.9264 454.5876 456.4585 457.1252 457.7978 457.9826 458.3968
   460.1194 460.3571 461.2162 462.1815 462.7394 462.9781 463.5317 463.5986
   464.5999 464.7285 465.4801 466.0483 467.1271 468.3100 469.4770 469.5856
   469.9593 470.9466 471.4108 472.3998 473.0715 474.0619 474.7579 475.8410
   479.7190 480.7160 480.7361 482.7165 483.6047 483.7712 484.1300 484.4610
   484.6990 485.6801 485.8632 487.1099 487.7464 488.3100 489.2255 490.5572
   490.8206 491.1661 492.1511 492.8131 494.2422 494.9243 495.3906 495.6414
   495.8831 496.5356 497.1175 497.4464 498.4566 499.2276 499.2890 499.6996
   500.8258 501.1782 501.4531 502.8965 504.2273 504.4054 504.5310 505.5158
   506.4278 506.9227 506.9978 507.3691 507.6372 508.0167 509.6290 511.6191
   512.1817 512.2390 512.7259 513.1640 513.3428 514.7909 515.6341 515.9143
   517.5788 518.6743 518.9127 519.2462 519.5044 521.2824 521.5554 521.6471
   523.7307 524.9916 526.1986 526.3382 527.0637 527.1256 528.6714 530.1176
   530.3738 531.2585 531.3759 531.8265 532.6107 532.9353 533.4603 534.1548
   534.6840 534.8889 535.6896 536.0455 536.0990 536.2927 536.5405 537.0382
   537.5021 538.0982 538.9155 538.9585 539.5101 540.0423 541.2829 544.2976
   544.9904 546.7022 546.7855 547.5870 548.1554 548.3834 548.6996 548.7334
   549.2503 550.0055 552.2883 552.4624 553.0231 553.5750 553.8176 553.9927
   555.0328 555.4737 556.6895 557.8632 557.9566 558.8142 559.7046 559.7763
   561.9022 562.6250 562.6625 562.9902 563.7186 564.2139 564.3589 565.1118
   565.1977 565.4174 565.5077 565.9393 566.3195 566.6754 567.7612 568.5825
   569.4698 569.9794 571.8745 573.1017 573.3123 573.8540 573.9600 574.3728
   575.1879 575.9652 576.4039 576.4826 577.0258 577.6491 577.7313 578.0268
   578.6962 578.8411 580.0063 581.4324 582.5013 583.8712 585.5974 586.2424
   586.6690 586.9350 586.9413 588.0489 589.8559 589.9272 590.7258 590.9447
   591.9665 592.3700 592.5512 593.1144 593.8427 593.9484 594.2724 594.8863
   595.2148 596.7999 597.0322 597.7925 597.9497 598.9348 599.2191 599.2990
   599.9044 600.8781 601.2091 602.7094 604.3968 604.6118 604.6886 605.0186
   605.2000 605.5742 605.9703 606.1310 606.7561 607.7667 608.3779 610.1867
   611.1673 611.5949 612.8973 613.4546 613.5179 614.7848 615.0299 615.2421
   615.9531 616.8968 616.9676 617.3271 617.8428 618.8987 620.5371 621.1001
   621.1487 621.5479 622.2431 622.3448 623.6570 624.1387 624.6745 625.3076
   625.3286 625.5071 626.3606 626.7840 626.9645 627.1900 627.4730 628.4713
   629.0340 632.7195 632.8241 633.2996 633.5578 633.7799 634.7161 634.7656
   635.6582 635.7004 636.6358 636.8396 637.2404 638.6496 638.7711 639.8272
   639.8572 640.7977 642.3204 642.8954 643.1510 643.5334 644.5371 644.5950
   647.2072 649.7559 650.6238 652.0853 653.9400 654.3935 654.8816 654.9719
   655.7307 656.2555 656.6969 657.4787 658.2466 658.9368 659.0068 659.5497
   660.5234 660.7376 660.9336 661.1131 661.7304 662.1801 662.2944 662.4394
   662.7336 662.8377 662.9537 663.3789 663.4029 663.9614 664.1535 664.6960
   665.5987 666.0392 667.0000 667.6188 669.0411 669.3901 673.9518 674.2058
   675.3390 675.7047 675.8526 676.1343 676.3396 676.8533 677.0991 679.1288
   679.2259 679.3995 679.7971 680.4073 680.4279 680.6871 680.9858 681.2391
   682.8617 683.1572 683.5809 684.1848 685.3076 685.5079 686.5827 687.4730
   688.5111 689.3266 689.5442 689.6353 690.1512 690.4966 690.5020 691.1531
   691.6343 691.9209 692.2493 692.8202 695.9534 696.3926 696.8573 697.1125
   698.2880 698.4579 699.3657 699.8150 700.2893 700.3647 700.9285 701.4625
   701.4813 702.8347 704.5253 705.9466 706.0684 707.0531 707.1010 707.2599
   707.8762 708.1798 709.5341 710.5437 710.5950 710.7462 711.5664 711.5744
   711.6951 712.1846 712.2172 712.8218 713.8139 715.1764 715.3098 715.3860
   715.5008 716.0886 716.7095 716.9172 717.7581 717.7891 717.9560 720.0119
   720.2273 720.7292 721.5833 721.9903 722.7056 723.8374 724.5777 724.6542
   725.9069 726.0060 726.3140 727.8495 728.0452 729.4025 729.6171 729.8742
   730.7724 731.9056 732.1909 732.5967 733.0131 734.0020 734.8040 737.1795
   737.2413 738.1462 738.6685 738.9128 739.1550 739.3434 739.3812 739.6019
   740.0811 741.7712 742.1344 743.0403 743.0616 743.3577 743.9408 744.3107
   745.3071 745.4195 745.5172 748.0945 749.4573 749.7305 750.1195 750.9755
   751.1440 751.3329 751.5510 751.9304 751.9483 752.5209 752.5634 753.8212
   754.5740 754.6524 755.0990 755.1318 755.1798 755.6356 757.0525 757.2411
   758.1245 758.2618 758.9832 759.4733 759.5020 761.4022 763.0255 763.1985
   763.9024 765.2953 765.4756 765.7546 766.2782 766.3769 766.4102 766.5654
   766.6853 766.9205 767.3909 767.6169 767.6840 768.1126 768.5682 768.8148
   769.0766 769.1821 769.3171 770.3200 770.6334 771.2399 771.4747 774.8510
   775.4584 777.7794 779.1457 779.8842 780.2963 780.6300 781.1262 781.2568
   782.8490 782.8639 783.3706 783.5932 783.7870 784.0837 784.0961 784.1808
   785.4502 785.8274 786.2094 786.6350 787.1732 787.5130 788.0119 789.5178
   789.7044 789.9524 790.0688 790.5651 791.1383 791.4117 791.8979 792.1200
   792.3264 792.6324 792.9034 793.8543 793.9676 794.2704 794.4152 795.8347
   796.1676 796.3164 796.8126 797.6482 797.8771 798.3826 798.5587 799.7191
   799.9712 800.3489 801.2972 801.5465 801.6380 802.0992 803.0707 806.7020
   806.7275 807.0154 807.3335 807.5225 807.6974 807.9278 809.6588 809.7302
   810.1039 810.7147 810.8718 811.1317 811.2657 811.9826 812.3182 813.6102
   814.4208 814.8949 815.4494 815.4713 817.1272 818.0347 818.2520 818.3134
   818.5997 818.7742 819.1421 819.2372 819.7292 820.2842 820.4464 820.5319
   822.9002 825.3895 825.6789 825.9122 826.5429 826.7987 827.2173 827.6872
   828.6799 828.8148 828.8490 830.2805 830.5550 831.7486 832.1112 833.3857
   833.5371 833.7237 834.9317 835.6467 835.8424 836.2914 836.3682 836.6841
   836.8422 836.8694 837.1402 837.4039 838.1740 838.4603 839.7470 839.7782
   840.4286 840.5136 840.7183 842.2393 842.3220 843.1595 843.2370 845.9174
   845.9678 847.3592 847.6913 848.0842 848.6681 848.6968 848.7253 849.5724
   850.3548 850.8761 852.6098 852.6858 853.7504 853.8041 854.9999 855.6158
   855.6324 855.7236 856.4449 856.4535 856.9312 857.3305 857.3371 858.0849
   858.1961 859.2596 859.4120 860.2050 860.9213 861.0054 861.0214 861.5498
   864.3338 864.3985 864.7026 864.8077 865.5395 865.8425 866.2818 866.9024
   867.7183 867.8351 868.3526 868.6453 868.7701 872.3953 872.7832 873.1214
   873.6710 873.7242 873.8276 874.2591 874.3807 874.8283 875.1845 875.7007
   875.8636 876.9095 877.6282 879.0576 879.0599 879.9759 880.5185 881.3463
   881.4465 881.8170 882.3911 883.5869 884.6903 884.8865 885.5250 885.7302
   886.3276 886.6880 886.8083 887.9903 888.0276 888.7773 889.5247 890.7448
   890.7866 890.9398 892.1691 892.7329 892.7797 893.4556 893.9156 894.3720
   894.6781 895.0543 895.0979 895.9378 896.0137 896.3342 896.5262 896.5833
   896.8412 896.8770 897.1877 897.7040 898.2843 900.1298 901.9983 903.4062
   903.7362 904.0608 905.9030 905.9436 906.5086 906.5290 906.7923 907.1792
   908.6906 909.9039 910.0057 910.1436 910.8713 911.5275 911.5743 912.2598
   913.3919 913.4780 913.8103 914.4124 914.8342 914.9874 916.4642 917.0675
   917.3408 917.4012 918.5849 918.8762 919.6099 919.7895 920.0275 920.8459
   920.9253 921.2031 921.3026 921.5388 921.7591 922.7548 922.7601 922.8187
   925.4734 925.8742 926.0237 926.6162 926.6805 926.9420 927.2212 927.4330

          k = 0.5000 0.0000 0.5000 (  3250 PWs)   bands (ev):

   -63.3875 -30.2246 -30.1954 -30.1708  -7.0828   5.4123   6.9200   8.2689
    18.5461  20.8261  23.1628  26.6845  29.1114  30.1691  34.9834  37.9655
    39.1247  40.4358  43.2552  47.7325  47.9113  50.1231  51.5510  58.5202
    58.8854  61.6043  63.0804  64.0997  64.3163  65.7583  66.8536  69.5782
    70.2959  71.2910  76.8811  77.6988  78.6684  80.1130  83.6022  84.8609
    84.9465  85.8168  86.3902  92.0798  92.6648  93.0419  97.1732  97.8705
   100.1665 100.8347 101.0007 103.4259 103.7213 108.3024 108.9440 110.0098
   110.1318 113.0369 113.2496 114.0561 116.1587 117.9587 119.5772 120.3958
   124.7237 124.7738 124.9459 126.0017 128.4069 129.2049 131.0765 131.9398
   132.6247 133.0926 135.1231 135.3265 138.5569 141.0192 141.1798 142.5915
   144.0632 145.2891 146.9689 149.4708 150.1881 150.8797 151.4455 152.5647
   152.7138 154.3485 155.0886 155.6868 156.1368 156.3532 159.0418 160.7221
   164.3550 166.0154 168.7603 170.5210 170.5281 172.0484 173.5343 173.8751
   174.1133 174.9549 176.3801 179.4868 181.2943 181.5315 182.2797 183.5084
   184.9164 186.2606 186.3993 186.8377 186.8763 187.2107 187.4796 188.5763
   191.2726 192.3414 193.7351 197.2913 197.8386 198.7275 199.3697 199.4929
   199.8588 200.3197 200.6138 201.1131 203.5531 203.7838 203.8631 204.4707
   205.4057 211.0746 212.7209 212.8053 216.7636 218.2129 218.9603 219.9872
   221.0013 221.4147 222.0696 222.2675 224.0808 224.9285 225.1346 226.6228
   226.9912 227.7076 229.9721 230.6760 230.8031 231.2118 232.5328 233.2616
   233.9966 234.6014 236.6765 236.9791 237.2423 238.5757 238.9940 240.9063
   242.1413 242.4308 244.2420 246.5134 247.1818 249.5730 251.3244 251.7509
   252.1609 254.2083 254.8303 256.0432 257.2087 257.4863 257.5634 258.0804
   259.4997 261.1331 261.2061 261.8291 263.0550 264.5277 265.2907 265.8478
   266.6050 266.9167 269.3851 269.5374 269.7159 270.4494 270.9571 275.1583
   275.3470 275.6352 279.1251 279.6962 280.0246 280.1938 280.3418 280.7512
   282.2188 283.7825 284.9458 285.0654 285.1686 285.8131 286.0335 287.8566
   288.0878 288.2567 289.8857 289.9022 290.5949 295.6558 296.6437 298.4129
   298.5038 298.9597 299.5289 299.6628 300.6052 302.1406 302.3199 302.3719
   304.8066 305.9067 306.0388 306.1193 306.1303 306.5450 307.1473 307.1738
   308.3875 308.8364 310.4701 311.9005 313.5529 314.9266 317.1779 318.4546
   318.5730 319.0554 321.4727 322.3923 323.2946 323.3125 324.1168 324.4781
   324.6563 326.1406 326.9393 327.0018 328.5776 330.3855 330.5269 334.1297
   335.0050 335.2147 335.2629 335.5167 336.4565 336.9495 339.3882 339.3958
   339.5280 341.0418 341.9423 342.1698 342.2417 342.2988 343.9883 345.2342
   345.3810 347.1601 348.2128 348.2153 348.2246 348.6429 349.2995 350.3780
   353.0424 353.6727 354.2199 354.4529 356.3253 356.5177 357.8883 358.1827
   359.8995 360.0335 360.0852 363.0582 363.7455 363.9315 366.5988 367.9481
   368.7222 368.8640 369.4628 370.8663 371.5800 372.0586 372.3285 373.1462
   373.2632 373.7349 374.8516 375.0489 375.3859 376.6454 377.0789 377.9665
   378.1139 379.8611 380.6429 382.0193 382.0292 382.1809 382.3829 384.5424
   384.6667 387.0222 387.6995 387.7626 387.7921 387.8001 388.0188 388.6825
   392.7020 393.2853 394.0158 394.5981 398.9399 399.3890 399.8165 399.9112
   400.3824 400.5409 401.5201 403.1020 404.0266 404.5826 404.6489 405.7966
   406.0069 406.1992 406.6743 406.7636 406.9383 407.9551 408.9379 409.1987
   409.4656 409.8109 409.9474 410.1703 410.5790 410.6373 411.0946 411.2433
   412.1806 415.2358 416.5925 416.8599 418.7450 420.1871 420.7637 421.8722
   423.0327 423.5208 426.5925 426.7134 427.4002 429.0032 429.0129 429.1772
   429.3370 429.5943 430.1044 430.2353 432.5218 432.6666 434.0282 434.4012
   435.3257 435.4653 435.9050 436.9828 437.0631 437.8797 438.0969 438.3390
   438.4563 438.8533 440.0751 441.2008 441.5094 442.6291 443.5196 447.3827
   449.5763 450.2432 451.1761 451.6983 451.7179 452.5157 454.7301 454.9362
   455.0689 456.1047 456.8469 457.7775 457.7899 459.0870 459.6880 459.6943
   459.6954 460.2678 460.8420 461.1208 461.2476 461.6035 462.2762 463.3177
   465.2028 465.7013 466.5582 467.8011 468.0487 469.2622 470.3414 470.7635
   473.0355 473.1039 474.5148 475.2811 475.4455 479.4065 479.5587 480.8117
   480.8749 482.5938 482.8142 483.1648 483.8657 483.9255 484.5669 485.1804
   485.4771 485.6345 486.5893 486.6504 486.7280 486.7294 486.8047 488.1779
   488.2439 488.4862 489.1823 489.3236 490.8688 491.8797 493.2324 493.3075
   494.0954 494.1110 494.1599 494.6249 494.7697 494.8886 495.1424 495.7476
   496.1290 496.3329 497.3656 498.9785 500.7103 501.0224 502.2672 505.5805
   505.8587 506.8452 507.2414 507.3528 507.4376 507.6157 508.1854 509.0591
   509.8463 510.8311 511.7745 511.8906 512.0097 512.0693 513.2286 514.4973
   515.1937 516.9515 517.0698 518.5997 518.6747 519.4075 519.9301 519.9854
   520.3109 521.9245 523.2468 523.9729 525.0285 525.7959 526.5617 527.0392
   527.8528 528.2509 528.6160 529.0285 529.0347 529.1110 529.9678 530.1636
   533.0952 533.3291 533.3722 534.3042 534.8712 534.9044 535.1175 537.4663
   538.9120 540.0703 540.0708 540.4396 540.5590 541.9939 542.7258 542.9246
   543.9158 544.3898 544.3933 545.0845 547.3473 547.6310 548.5969 549.3662
   549.8067 550.3727 550.4251 552.1409 552.9198 555.7763 556.8684 557.6286
   557.6329 558.6515 558.8471 559.1055 559.5658 559.6277 560.8885 561.3021
   561.8670 562.5650 562.5708 562.7238 562.7409 563.3886 563.4061 563.4130
   563.8053 564.5302 565.4171 568.1436 568.2273 568.7823 569.1367 569.2281
   569.8313 570.2206 571.9126 571.9621 574.0992 574.2609 574.6675 575.7773
   576.2783 576.6649 577.4890 577.5741 577.6964 578.9278 579.6180 579.6312
   579.9773 581.2162 581.2578 581.5430 582.4547 583.7586 584.3254 584.6694
   586.9757 587.4062 587.9020 588.4199 588.5872 588.7631 588.9576 589.3387
   590.2400 593.1397 593.6743 595.1008 595.2268 595.4164 595.4254 596.1701
   596.3792 596.4688 598.6661 599.6796 599.8243 601.7932 602.5687 603.2234
   603.6687 605.0216 605.3865 605.4275 605.6564 605.7452 605.9018 606.2555
   606.4561 607.0224 607.4982 607.5760 607.6533 610.3658 611.1833 611.4514
   611.5265 611.9140 612.2833 613.1348 613.2072 613.5717 614.0237 614.7680
   615.0160 615.0242 615.1498 615.1755 618.8324 619.5850 620.0362 621.1921
   621.4929 621.9109 625.7104 625.8094 626.4187 626.4981 627.8668 628.4907
   630.7063 630.8531 631.4654 631.5765 633.4559 633.9356 634.2623 634.9596
   635.0605 635.2647 636.0144 637.0764 637.7038 637.9906 639.2048 640.6576
   641.1279 641.9825 641.9992 642.8434 643.5024 643.5110 644.0242 644.1376
   644.1524 644.1598 644.3670 644.7212 644.7926 647.0156 647.0676 647.1097
   647.6507 647.8689 648.0710 648.3175 649.0297 649.6244 652.8602 653.0214
   654.0145 654.6336 656.9421 657.3382 657.5169 657.6901 658.2409 659.0041
   660.0313 660.3935 661.1454 661.1827 661.8344 662.1350 662.3896 662.5795
   662.7214 662.7780 663.2497 663.6410 664.2887 664.6403 664.8139 664.8456
   665.5132 665.8979 666.0305 666.0480 666.0838 666.4513 666.4522 667.3291
   667.4740 668.0725 668.9490 668.9641 669.5370 669.9277 670.2721 672.0617
   674.3362 677.1335 677.2113 677.5844 680.6471 681.1530 681.4394 681.6016
   681.6128 682.3582 682.3602 682.4128 685.0543 685.2217 685.5376 686.1895
   686.5832 687.0341 687.1413 688.2670 688.7298 688.9859 689.0088 689.0816
   689.2593 689.8102 689.8184 690.2609 690.6937 691.2267 691.5675 691.5834
   695.8656 696.5294 696.7350 697.1940 697.6216 698.2506 698.6808 698.8227
   703.1054 703.6480 705.8523 706.1836 707.6980 707.7789 707.8342 707.8911
   708.1417 708.1786 708.2087 708.2856 708.3595 708.4593 710.0796 710.8083
   711.2546 711.3288 711.6898 711.9575 713.4922 714.1540 714.7936 714.8190
   716.0645 716.0724 716.5540 716.5601 717.4883 717.8665 719.6101 720.1691
   720.8404 721.3941 721.5885 722.1730 723.7510 724.1194 724.1389 724.3341
   724.4499 725.8092 725.8403 726.0588 727.0794 727.1845 728.1333 728.8125
   729.8599 729.8669 730.3370 731.1248 733.1448 734.0388 734.1091 734.1706
   734.1815 734.1984 734.2012 734.3950 738.3442 738.8105 739.3547 741.3252
   741.3267 741.3841 741.4778 741.5274 741.6104 741.9144 742.1182 742.1676
   743.5906 743.5961 744.0303 744.5705 744.9951 745.0446 746.9786 747.5438
   747.5591 748.0160 748.0417 748.0737 748.1057 748.6814 750.0979 751.1887
   751.4985 751.9243 752.0465 752.0603 754.4100 754.7325 755.6143 757.3147
   758.1270 758.5189 758.7850 758.9017 759.5366 761.5939 762.1995 763.0712
   763.7220 765.3702 765.3768 765.6141 765.9112 767.9616 768.1342 768.2554
   768.3795 768.6908 769.5103 769.5349 769.5668 769.6301 769.6336 769.9784
   769.9819 770.3613 771.0883 774.6900 775.2930 776.3497 776.7086 777.5554
   777.5557 779.5268 779.5823 780.5739 780.7276 781.4191 782.2832 782.2930
   782.7495 783.2067 783.2474 783.2808 784.9383 786.7501 786.9824 787.4110
   788.1292 788.8227 789.9401 789.9425 790.0189 790.4724 790.6203 790.7124
   790.9285 791.5414 791.6329 791.9432 792.2409 792.5685 793.3530 793.3630
   793.4999 793.5477 793.6896 795.7382 796.9407 797.1175 797.3011 797.4916
   797.6123 798.0880 798.1934 798.2058 798.2598 798.2995 798.7452 799.1336
   799.8311 799.8781 800.0971 801.9931 802.1087 802.3753 802.5006 805.8221
   806.4466 807.8021 807.9489 812.6216 812.8092 813.6742 813.6922 814.7852
   814.8956 814.8973 815.9117 815.9499 816.0585 816.5538 816.6339 816.7358
   817.0452 817.9047 818.4106 818.5746 818.7412 818.8880 819.4702 819.5726
   819.6591 819.6707 819.7767 819.8010 819.8666 820.0616 820.5943 821.2288
   821.5759 822.5702 822.8284 823.0727 823.6052 826.8036 827.0063 827.6950
   827.7039 827.9495 827.9774 828.0791 829.0349 830.8817 830.9325 833.2396
   833.6369 833.9829 834.2000 834.4028 834.8563 835.9664 838.0330 838.0463
   838.7156 838.8008 838.9723 839.5697 840.2497 840.5607 840.7579 840.8430
   840.8541 844.7529 844.8716 844.9035 844.9458 845.2333 845.2822 845.2919
   845.3077 848.8718 848.8735 849.3897 850.3878 850.6481 850.8082 851.5471
   851.7449 852.3830 852.4168 852.4244 852.4439 852.5996 852.7114 852.7508
   852.7915 856.0891 856.6826 857.6865 857.7138 857.8299 858.4369 859.1711
   859.7858 859.8233 859.8594 860.1501 860.3696 860.4729 860.7530 861.4282
   861.5893 861.6072 863.4246 863.6190 864.3539 865.5422 865.6520 865.9475
   867.5072 869.0317 869.3458 869.3688 869.5440 870.6520 870.6584 871.2881
   871.2968 871.4084 871.6000 871.7077 871.9336 875.7959 875.9800 876.1322
   876.2680 877.8616 877.9501 878.0423 878.0585 880.5465 880.5561 880.5569
   880.5595 883.1176 883.3811 883.3892 883.5544 883.6844 883.7556 884.2323
   884.8952 885.8925 885.9516 887.1627 887.4883 887.6240 888.1468 888.2452
   888.3472 892.7949 893.5815 893.6858 893.9699 894.0276 894.7877 895.0555
   895.2034 895.5849 896.2804 898.3302 898.4787 898.7549 898.9597 899.0563
   899.1828 899.7506 900.0332 902.6138 903.1304 903.5680 903.6917 903.9242
   903.9383 904.5474 904.5589 904.5789 904.6091 906.8497 906.8636 907.0807
   907.4491 910.2878 911.0069 911.3607 911.4059 911.8754 911.9671 912.5246
   912.5658 914.5885 915.1971 915.2272 915.4224 915.4283 915.7949 917.1295
   917.4548 917.5546 917.8321 919.5736 919.7386 920.1502 920.4647 920.9962
   921.1215 921.1706 921.1826 922.2333 922.2892 922.3214 922.3463 922.8489
   922.8688 922.8955 922.9816 923.6727 923.7667 925.1089 925.1760 925.1974

          k = 0.0000-1.0000 0.0000 (  3282 PWs)   bands (ev):

   -63.3845 -30.2375 -30.1914 -30.1914  -6.7697   4.8301   7.5732   7.5732
    18.1299  19.1072  22.1558  28.1221  28.1221  34.6567  36.2063  40.0875
    40.0875  43.4332  46.4789  46.4789  48.1652  50.5575  50.5575  52.0974
    52.8322  58.3572  58.3572  59.9440  63.6095  67.4326  70.3015  71.8288
    72.7530  74.6323  74.6323  76.0061  76.0156  79.7831  84.0814  84.0814
    84.9107  84.9107  85.9185  88.9953  96.4663  98.1669  98.1669 100.0309
   100.0309 105.3045 105.3045 106.7897 108.0733 109.0830 110.7562 111.5888
   111.5888 111.7080 113.7432 116.2602 118.4401 118.4401 119.1636 119.1636
   120.3051 120.4608 120.6309 125.5959 127.7068 128.2946 132.1526 135.3578
   135.3578 136.5337 136.5337 137.2714 139.0382 139.0382 139.2436 140.8069
   143.3425 143.8394 144.1548 144.1548 144.4372 148.3634 148.6199 148.6199
   148.6593 148.6593 154.8320 154.8320 155.3550 155.3820 159.5933 162.7346
   165.1925 165.1925 165.8475 170.4698 171.3028 171.3028 172.5026 172.9719
   175.4217 175.4217 176.5626 178.8587 179.4239 179.4239 179.4343 179.8325
   180.0956 180.2872 180.2872 181.4569 183.7749 190.3929 190.3929 192.4530
   196.7940 196.8644 196.8644 198.7019 201.0750 201.0750 204.2918 204.4778
   204.5426 205.4316 205.5882 206.5028 206.5028 208.4255 208.4255 212.4017
   213.7885 217.2896 217.6511 218.4787 219.4403 219.4403 219.9846 220.2710
   221.4829 221.4829 221.6756 221.6756 222.9112 222.9787 224.0964 224.8372
   224.8372 233.3405 233.3405 234.5982 235.1548 236.8527 237.3573 237.3573
   238.7893 241.0713 241.2305 241.2305 241.2630 241.6003 241.6003 241.9020
   242.6033 243.0910 243.0910 243.7644 244.0590 244.0590 244.3985 244.7466
   244.8776 244.9801 244.9801 246.4201 246.5718 250.5412 252.3142 253.3760
   253.3760 254.8608 254.9458 255.3101 255.3101 255.6789 260.2757 260.2757
   265.6096 267.4208 268.5365 268.5860 268.5860 271.5797 274.3013 275.0842
   275.0842 275.2862 275.2862 276.1844 276.4868 276.6451 279.6267 280.5641
   280.6025 280.6025 280.6960 281.6269 281.6269 282.5141 283.1789 283.1789
   283.9961 285.5755 285.5755 285.6312 285.9714 286.6620 286.6620 287.3770
   291.4322 291.6517 298.2095 304.2832 309.3333 309.3333 311.2569 313.2597
   313.3198 313.3198 313.7085 313.9403 314.7490 314.7490 315.3059 318.9188
   318.9188 319.2540 319.2540 319.5815 320.2645 320.2645 320.4404 320.6920
   320.7913 321.1547 321.1547 321.3826 321.7737 323.8747 323.8747 326.3872
   326.3993 332.4446 334.3634 334.3634 335.6284 336.3708 336.6358 336.6358
   337.7697 337.7697 337.9641 337.9686 338.7936 340.5035 340.6428 340.6970
   340.6970 342.1652 342.1652 343.6822 343.9813 344.2198 344.2198 344.3273
   344.3969 344.5552 344.9530 344.9530 345.3168 348.6504 348.8551 348.8551
   349.2663 349.4995 349.9163 349.9163 350.1046 355.7672 357.0504 357.0674
   357.3229 357.3229 357.4741 357.4741 357.8367 357.8910 365.7918 368.5930
   368.9759 368.9759 371.7159 371.7159 374.1269 374.1363 374.3839 374.5480
   374.6378 375.4496 375.4496 376.7503 376.7503 377.4619 377.4619 377.7619
   378.2770 378.3331 378.3331 381.4538 381.5486 381.6067 381.6505 381.6612
   381.6612 381.7032 381.7032 382.3193 384.7776 384.7886 388.6643 388.6643
   389.3164 389.3295 392.6027 392.6027 392.7375 392.7375 394.0203 394.0284
   397.1807 401.7929 403.1001 405.0593 405.0593 407.2723 409.5404 410.5165
   410.5165 410.6916 410.7845 410.7845 410.9764 411.3047 411.4001 411.6165
   411.7688 412.3239 412.3239 412.4354 412.5346 412.5346 412.9078 414.3754
   414.3754 414.7673 415.3326 418.6585 418.7607 418.7607 418.9188 422.8987
   423.0684 423.2454 423.2454 423.3313 423.3313 423.4316 423.6735 425.5187
   425.5217 425.5217 425.5327 425.8290 428.4379 428.4379 431.3275 432.7844
   434.2692 443.4002 443.4002 443.9102 443.9102 444.2849 444.4440 444.4440
   444.5066 444.5486 444.5486 444.8365 446.0781 447.5433 447.9781 447.9781
   448.1253 449.4352 449.6332 449.7192 449.7192 450.8562 450.8772 450.9207
   451.4112 452.8521 452.8698 452.8698 453.1866 453.1890 453.1890 453.1975
   454.0610 454.0610 454.1889 454.1889 454.4069 454.4360 454.6995 455.5954
   455.6895 455.6895 455.9042 459.4399 459.7792 459.7792 460.0124 460.6916
   460.7191 460.7191 460.7556 461.6881 469.4235 472.4089 472.4089 475.6022
   475.6022 476.6181 476.6686 481.3073 481.4836 482.1750 482.1750 482.2184
   482.2184 482.4917 482.9296 482.9449 484.3105 484.3105 486.2895 486.8205
   486.8570 486.8570 486.9775 489.0186 497.3890 498.7177 498.7177 502.8172
   505.8310 505.8310 506.3974 506.5031 506.5031 507.0616 509.1458 510.1143
   511.0058 511.0058 511.3858 511.3858 512.0401 512.7438 513.1915 513.1915
   513.8423 513.9119 515.5485 516.8934 516.9941 516.9941 517.2302 517.3273
   517.4702 517.4702 517.6126 519.2500 520.1327 520.1327 521.3896 522.5098
   522.5686 522.6278 522.7197 522.7197 522.7222 522.7222 522.9893 523.6554
   523.7388 523.7388 524.0060 526.6877 527.8613 527.8613 527.9784 528.0397
   528.4221 528.4221 528.4308 528.4308 528.7799 528.8414 530.4833 531.0525
   535.7731 536.8399 536.9431 542.2377 542.2377 542.9575 542.9575 544.7068
   544.9018 546.9952 546.9952 547.4491 548.2852 548.3052 548.8940 548.8940
   548.9683 548.9683 549.0681 549.0681 549.3548 549.5014 549.5093 549.5558
   549.6773 550.1930 550.6684 550.6684 550.9754 550.9754 551.3060 551.3414
   551.4643 553.5855 553.6311 553.6311 553.6326 554.4530 554.5846 554.6250
   554.6250 554.9071 555.3648 555.3648 555.9630 558.7982 558.7982 558.8007
   558.8007 561.2261 562.9681 562.9902 563.0492 563.0492 563.0726 563.0726
   563.1395 563.1396 565.7791 565.7810 572.4902 572.4902 575.4733 575.7391
   576.0762 576.0762 576.2085 576.5140 576.9671 578.9113 578.9113 579.1717
   579.1717 579.7037 579.7378 582.7432 584.3572 585.1084 585.1084 585.9886
   585.9953 586.4871 586.4871 586.4887 586.4887 586.7560 586.7560 586.9603
   586.9771 587.1409 587.1564 587.4037 587.5240 587.5240 587.5691 588.7855
   588.8263 588.8263 588.8497 590.9700 594.1468 594.1538 594.2857 594.2857
   594.3456 594.3456 594.5200 594.5573 603.6288 603.6288 605.3178 608.3565
   608.3565 608.6333 608.9972 612.6908 613.6945 613.9783 613.9783 614.3462
   614.3462 614.4427 614.4903 614.7619 616.9578 616.9578 617.1016 617.1016
   617.5145 622.0551 622.0702 622.0898 622.1265 622.1265 623.2859 623.3963
   623.5006 623.5006 623.5780 623.9134 624.1437 624.1437 624.2897 624.4126
   624.9865 625.3527 625.3527 625.3651 625.3651 625.6082 625.6928 628.3032
   628.3032 628.3097 628.3200 629.0802 629.1186 629.2051 632.0954 632.0954
   632.0969 632.0969 633.4443 633.4479 638.9971 638.9971 639.1021 642.8260
   642.8726 642.8726 642.9195 648.7289 648.8155 648.8155 649.3389 649.4816
   649.7190 649.9948 649.9948 650.6115 651.8819 651.8819 652.0620 652.3837
   652.5913 652.5913 652.5939 652.9137 654.5025 654.5025 655.0939 655.2097
   655.2889 655.2889 655.3363 655.3363 655.4602 655.4650 656.2285 656.9684
   657.2797 657.2999 657.2999 658.2637 662.3731 662.3731 662.4324 662.6941
   663.5597 663.5712 663.5712 663.5839 667.5711 671.7193 671.7193 673.8731
   674.5856 674.5856 675.6228 675.7676 678.4867 678.4867 678.5723 678.7855
   679.6636 680.1979 683.4670 683.7856 683.7856 683.9130 683.9130 684.1611
   684.6970 684.6970 684.7158 684.7296 684.9935 686.5117 686.9698 686.9698
   687.0766 687.2550 688.5658 691.2985 691.2985 691.2988 691.3034 691.8760
   691.9072 691.9072 691.9301 692.1910 692.1910 692.7680 692.7680 693.4929
   693.5419 694.6069 698.5627 698.5627 698.5864 698.6377 705.7028 710.4441
   710.7793 710.7793 711.3112 711.3519 711.3519 711.7643 712.0835 712.2427
   712.2427 715.4150 716.1132 716.1132 717.0441 717.1027 717.3770 718.7481
   718.7481 719.0550 719.0550 721.9644 722.2398 722.2398 722.4445 722.6294
   722.7087 723.0054 723.0054 723.1644 724.6619 724.6643 724.7530 724.7752
   725.5507 725.5507 725.9241 725.9241 726.8030 728.2816 732.4657 732.5361
   732.5361 732.6906 733.3234 733.5025 733.5025 733.6545 733.9086 733.9772
   733.9772 734.0505 734.3875 734.4068 734.4068 734.4400 743.3481 743.3481
   743.7240 746.6402 746.6402 746.9827 747.0110 750.4347 750.9061 751.0033
   751.1408 751.1408 751.4331 751.6435 751.7086 751.7086 751.8921 752.2435
   752.2435 752.3100 752.6649 752.6649 752.6759 752.8900 752.8900 753.3421
   753.7256 753.8807 753.9093 754.1232 754.1232 754.1930 754.3558 754.3558
   754.5312 754.5312 754.8682 754.9541 755.0142 755.0532 755.0713 755.0713
   755.2124 755.3102 755.3102 755.4150 755.4150 755.4955 756.0042 756.1244
   756.1643 756.2407 756.2893 756.5142 756.5142 756.5224 756.5224 756.6070
   756.6165 757.6472 757.7602 757.8238 757.8238 759.3889 759.3889 759.4682
   759.6412 760.2123 761.1217 761.1217 761.1451 761.5968 765.0063 765.0343
   765.0343 765.0829 765.4105 765.4233 765.4233 765.4618 767.6409 767.6444
   768.0101 768.0101 768.0137 768.0137 768.3666 768.3776 787.0452 787.0452
   787.2263 787.6883 787.6883 787.7898 787.8161 788.6203 788.6355 788.7474
   788.7474 788.7662 788.7662 788.8218 788.8281 788.8681 791.8563 791.8563
   792.6264 794.1912 794.2759 794.2759 794.5354 794.7701 795.0428 795.0428
   795.0970 795.3053 795.5233 795.5233 795.8788 796.5491 796.7030 796.7519
   796.7519 796.8931 797.3044 797.4814 797.4814 797.5131 797.6363 797.6484
   797.6484 797.8229 797.9280 798.0701 798.0701 798.1848 814.1564 816.7582
   816.7582 817.9390 818.3944 818.3944 819.0481 819.3415 819.3415 819.3772
   819.6060 819.8458 819.8458 820.4884 820.5542 820.6143 822.4765 822.6168
   822.6168 823.3834 823.4700 823.5002 823.5002 823.8184 823.9632 824.9826
   824.9826 825.3207 825.3208 826.1388 826.1388 826.3953 826.3953 826.6660
   826.6661 828.2318 833.1808 833.1808 833.9943 834.0025 834.1146 834.1146
   834.1453 834.1453 834.2073 834.2370 836.5675 836.5682 836.5682 836.5800
   836.5845 836.5845 836.5924 836.5933 837.5783 838.7337 839.2136 839.7897
   840.7055 840.7055 841.2525 841.6885 846.7890 848.1021 848.1021 848.6162
   848.6207 848.6207 848.6558 850.6571 854.2459 854.4448 854.4448 854.6152
   855.7519 855.8093 856.0240 856.0240 856.0411 856.0411 856.4773 856.4869
   857.9595 857.9759 858.3498 858.3498 858.3503 858.3503 858.6612 858.6841
   859.7822 859.8380 859.8380 859.8721 860.5704 860.6378 860.8684 860.8684
   860.9437 860.9437 861.0608 861.0637 861.1139 861.1139 861.2921 861.3060
   862.5252 862.5252 863.2560 863.5017 863.5298 863.5298 863.5574 863.9102
   865.2972 865.3930 865.3930 865.4073 866.5708 866.5708 866.5773 866.5773
   873.6446 873.6455 881.9692 881.9692 882.9818 883.4938 883.5256 883.5256
   883.5279 884.0788 887.8642 888.4338 888.4338 888.7963 889.0435 889.0435
   889.2805 889.3797 889.6166 889.6166 889.8679 889.9138 890.1035 890.2032
   890.2032 890.3025 892.3217 892.3217 894.2625 894.4159 894.4608 894.4608
   894.5178 895.4304 895.5401 895.5497 895.5497 895.5837 896.7109 896.7195
   896.7195 896.7244 896.7869 897.6479 897.6479 897.8829 898.1169 898.3444
   898.3444 898.5411 899.4755 899.4755 899.6751 899.7741 899.7857 899.9866
   899.9866 900.1217 916.2405 919.3612 919.5208 919.5208 920.3192 920.6337
   920.7974 920.7974 920.8839 921.0457 921.8655 921.8655 922.1081 922.2065
   922.2065 922.2430 922.2996 922.7253 923.1925 923.1925 923.6175 923.6175
   925.3397 925.6464 925.6464 925.9070 925.9705 926.1779 926.1779 926.9894
   927.7495 927.7937 927.7937 927.8322 927.9669 928.0217 928.0217 928.0667

          k =-0.5000-1.0000 0.0000 (  3248 PWs)   bands (ev):

   -63.3845 -30.2144 -30.2144 -30.1936  -6.7039   5.9601   5.9601   7.1475
    20.6846  20.6846  21.3090  24.6702  31.1216  31.1216  35.6804  38.2598
    41.0250  43.7189  46.8061  46.8061  48.8866  50.3474  50.3474  55.0897
    59.5375  59.5375  60.7829  60.8055  63.2877  63.2877  64.4558  66.4288
    69.1272  69.1272  69.1804  76.1317  82.7623  84.2592  84.2592  89.5806
    89.5806  91.8782  93.0512  93.2513  93.7937  94.0248  94.0248  94.2295
   101.2275 101.2275 101.9108 102.5800 105.5431 109.0272 110.6958 110.6958
   110.9183 112.0194 112.0194 117.2033 120.1705 120.1705 121.6013 121.6013
   122.7788 124.0788 124.5463 124.6655 126.5240 126.5240 128.6526 130.2986
   131.8953 133.2002 134.8627 134.8627 141.5763 141.5763 144.5236 144.6968
   145.4685 145.4685 146.3425 146.5393 146.7783 148.1472 150.0417 150.0417
   153.8356 153.8356 154.9825 154.9825 155.0375 156.4940 157.5062 157.5832
   162.0003 162.2499 162.5820 162.5820 163.3449 163.5485 165.8808 165.8808
   170.7577 172.7147 175.9555 175.9555 178.9656 178.9656 181.8313 181.8313
   182.5543 184.2260 194.5980 195.9640 195.9640 196.0652 196.2077 197.3383
   197.3383 197.6231 199.9676 202.0733 202.5553 203.7756 203.7756 204.8643
   205.6028 206.3118 206.3118 206.4348 208.0605 208.3316 208.3316 208.9480
   208.9480 209.3502 209.7107 213.4561 213.4561 214.8671 214.9612 215.4615
   222.8296 222.8296 223.2781 223.2781 223.7439 224.8439 225.5580 225.8081
   226.6074 226.8951 227.5030 227.5030 229.6092 230.3727 232.2221 232.2221
   235.3694 235.3694 237.2661 240.0605 240.0605 240.5125 241.2493 241.8056
   242.1258 242.1258 242.3479 243.5219 244.8140 248.2085 248.5796 248.5796
   248.7177 248.7776 253.1606 253.1606 256.3263 256.3263 257.6926 258.0651
   258.1982 258.2784 259.6507 259.6507 260.2605 260.3088 260.5080 260.5080
   261.6869 262.1618 262.1922 262.2101 262.2101 264.6691 264.6691 266.0934
   274.5495 274.6669 275.8174 275.8174 276.4287 276.4287 277.7617 277.8082
   280.4797 280.4797 284.3798 286.3300 288.3179 288.3179 291.5017 291.5017
   293.3047 294.5711 294.9934 295.2486 295.2486 295.3022 295.8821 295.8821
   296.6762 298.3426 299.8056 299.8660 299.8792 301.3417 301.9442 301.9442
   304.3079 304.3079 305.8627 308.7820 308.7820 309.1153 309.4764 311.2191
   311.3829 311.3829 311.6646 315.4649 315.4649 315.5968 315.6860 316.9889
   317.0870 317.0870 317.1299 317.1615 324.1253 324.1253 324.6339 324.9244
   325.6870 326.5386 326.5386 326.8681 331.9059 331.9059 333.5033 334.2113
   335.3315 335.3315 336.2453 336.2453 337.2874 337.3929 340.8069 341.4484
   342.0934 345.1285 345.1285 345.1578 345.8436 345.8436 345.9735 345.9881
   347.0165 350.2561 352.1760 352.1760 354.1331 356.9612 361.3134 361.3134
   361.4140 361.6882 361.6882 362.3069 362.8941 362.8941 363.3128 363.3353
   363.7156 363.7156 363.7766 364.0072 364.2905 364.5934 364.7450 364.7450
   366.7229 367.0557 367.2564 367.2564 370.5795 370.5795 372.4190 373.2291
   373.2291 373.6336 376.4780 376.5064 377.1418 377.1418 378.1189 378.1189
   378.2096 378.8313 379.2404 379.4756 379.7491 380.1557 380.1557 380.1762
   384.6228 384.6228 385.4929 388.6897 390.2259 391.0881 391.0881 391.3079
   391.7316 391.7316 395.5597 395.5597 395.6233 395.8346 396.0929 396.5575
   396.5575 397.3883 397.6202 398.0819 398.0819 398.1906 398.2466 400.1231
   400.5498 400.5498 401.6787 401.6787 402.3469 402.3779 402.3823 402.3823
   402.9629 402.9688 405.4992 407.9435 408.7198 408.7198 409.3008 411.2151
   412.5407 413.2722 413.2722 414.8929 414.8929 414.9159 414.9964 416.5491
   419.8886 419.8886 419.9418 419.9501 427.1983 427.1983 427.4024 427.9478
   428.3794 428.3794 429.5092 429.5092 429.5757 430.1442 430.7391 430.7391
   430.7555 430.9475 431.0277 433.2282 439.9577 439.9577 442.4032 442.4032
   442.5361 443.3720 443.5538 444.9839 445.6658 445.6658 446.5816 447.0952
   447.1276 447.1276 447.1872 449.7436 452.9910 454.6442 458.2059 458.2059
   461.6590 461.6590 462.6899 462.6899 462.8004 463.3922 463.8279 463.8279
   463.9730 464.0052 464.0613 464.1602 464.4981 465.1381 465.1381 465.4201
   465.4201 466.2723 466.3699 466.3716 466.4550 466.4550 467.1773 467.1773
   467.2467 467.2606 467.3325 467.6104 467.8115 469.4768 470.6007 470.6007
   473.4930 477.0042 480.3496 480.3496 481.8755 481.8755 482.1336 482.3462
   482.9655 484.2053 486.9065 486.9065 487.4751 487.4751 487.5667 487.5676
   492.6214 493.1813 493.1813 493.2492 494.3733 494.3733 496.3126 497.7755
   497.8240 497.8240 498.2733 498.2733 498.7951 499.2594 499.7849 499.7849
   499.9468 499.9533 500.3860 501.7893 504.9003 504.9003 505.1884 505.2124
   505.3274 505.3274 507.5449 507.7442 507.7442 507.8277 509.1340 510.0225
   510.0225 511.9864 512.1131 513.8843 514.1131 514.2334 514.2334 515.2928
   515.2928 515.4556 515.5209 515.8217 515.8217 515.9384 516.7145 519.8301
   521.3359 521.3359 522.5885 522.5931 525.9910 525.9910 533.2878 533.2878
   533.7172 534.0215 534.1225 534.4938 534.5233 534.5233 534.8893 536.1513
   543.2419 543.2419 544.0416 545.9335 545.9335 545.9484 546.3334 546.4730
   547.5558 547.6488 547.6488 547.8441 548.2806 548.3170 548.3170 549.1459
   549.1459 549.3384 549.9400 550.6202 550.8017 551.1415 551.1415 551.8733
   551.9490 551.9490 552.1850 552.8526 554.0778 554.0778 554.3841 555.2995
   555.3023 555.3023 555.3040 556.1809 560.0838 560.0838 561.6916 564.4931
   564.5761 564.5761 564.6700 566.4762 566.8949 566.8949 567.2930 567.3548
   567.3548 567.5757 567.5757 567.5793 567.8195 567.8391 567.9100 568.0706
   568.2839 568.7220 568.7220 569.1748 569.3514 569.3514 569.8912 569.8912
   569.9106 569.9470 570.2015 572.3149 572.7676 572.7676 572.8009 572.8188
   573.9222 573.9243 573.9340 573.9340 580.4215 581.2097 581.2097 582.2294
   583.6743 583.6743 584.0913 584.0913 584.1148 584.8318 585.0734 585.0810
   591.8825 591.8825 594.1523 594.4827 595.0666 597.4949 597.7683 597.7683
   598.4837 598.4837 598.9498 598.9616 599.4610 599.4610 600.4179 600.4496
   600.4496 600.4607 600.8967 601.0595 602.2909 602.2909 602.9365 603.0949
   603.1601 603.1663 603.1663 603.4747 604.5150 605.2982 606.5784 606.5784
   606.6366 606.6513 611.2351 611.2351 611.5013 612.5557 613.4287 613.4287
   615.1154 615.1154 615.3932 615.5154 617.2937 617.8019 618.9034 618.9034
   618.9048 618.9261 618.9822 618.9822 619.0054 619.0621 619.4975 619.4975
   620.4999 620.6642 620.6642 620.7097 620.7239 621.2745 623.8405 623.8405
   624.7508 624.7508 624.7609 624.7829 633.1574 633.1574 634.0552 634.9407
   635.9864 635.9864 636.0516 636.0614 637.6495 637.7244 637.7352 637.7352
   638.0272 638.0273 638.0273 638.0485 644.2839 645.3761 645.3761 645.4982
   647.5194 647.5194 647.8613 647.8993 649.0530 649.0530 652.0869 652.2595
   652.2595 652.4245 652.5198 653.0585 657.4900 657.4900 657.9923 657.9923
   658.6170 659.3216 659.3315 659.3742 659.3789 659.3789 659.3846 660.1609
   662.8212 662.8212 663.5980 667.5021 668.7455 668.7455 669.1071 669.1071
   669.2525 669.3253 669.9360 670.3376 672.2444 672.2444 675.6954 675.6957
   675.6957 675.7187 676.3625 676.6851 680.4392 681.9326 682.6782 682.6782
   683.4208 683.4208 684.0335 684.0335 684.5061 684.5676 685.3385 685.4470
   685.4470 685.5658 686.2036 686.2036 686.7860 686.8549 686.8845 687.2625
   688.4392 688.4911 688.4911 688.6869 700.8046 700.8046 701.4890 702.1040
   702.8215 702.8215 703.1319 703.1319 703.3054 703.3260 703.9719 703.9897
   704.4446 704.4446 704.5958 704.5991 704.8960 704.9448 704.9448 705.0059
   710.2204 710.2204 710.7489 711.2243 711.2243 712.8963 713.9825 714.1169
   714.1169 715.3842 715.4322 716.8458 718.5264 718.5264 718.7891 719.4208
   719.4208 719.4972 719.5082 719.5957 720.0636 720.5133 720.5133 720.5313
   720.7257 720.9526 720.9802 721.1372 721.1372 721.2279 721.3534 721.3534
   721.4324 721.4324 722.1225 722.1225 722.2638 722.3917 722.3917 722.4178
   722.4309 722.4328 722.5519 722.7810 722.7810 722.9805 723.0134 723.0134
   723.0420 723.0884 723.4776 723.6080 727.1988 727.1988 727.2064 727.2142
   736.7427 737.1011 737.1011 737.1310 737.3192 737.3192 737.3561 737.9418
   738.0796 738.0796 738.6119 738.6986 738.6986 738.7405 738.7772 738.8099
   738.8099 738.9863 739.3142 740.0544 740.2936 740.3854 740.3854 740.5171
   741.1000 741.1352 741.1352 741.2083 748.5633 749.0433 749.2912 749.2912
   750.9629 750.9629 752.0453 752.1815 752.6009 752.7533 752.7533 752.9247
   755.0178 755.1385 761.7905 761.7905 761.8313 761.8416 766.0093 766.0093
   766.1362 767.1181 767.8417 767.8417 769.6098 769.6970 769.6970 769.8500
   770.0164 770.2142 770.7636 770.7636 771.5500 771.5708 771.5708 771.6662
   772.0508 772.6985 773.8985 773.9195 773.9195 773.9746 774.3428 774.4020
   774.4020 774.4157 774.8608 774.8608 774.9352 775.0172 775.0172 775.0458
   775.1045 775.1301 777.6511 777.6511 778.3499 778.3499 778.6534 779.4437
   786.2187 786.2187 786.4915 787.2302 787.8984 787.8984 788.9401 788.9604
   788.9604 788.9695 789.1691 789.2141 795.3754 795.3791 795.3791 795.3846
   799.1926 799.6347 799.8319 799.8319 800.8759 800.9278 800.9278 801.0185
   803.3533 803.3533 803.6431 804.4669 804.4669 804.4831 804.4873 804.6228
   805.0222 805.0222 805.8774 806.3461 807.1092 807.1092 807.2211 807.2416
   807.5362 807.5362 807.6168 807.6168 807.6459 807.7749 807.8882 808.2205
   811.7630 811.7630 813.0005 813.0046 813.0046 813.0060 813.2101 813.2242
   817.7655 817.7655 818.6622 819.0665 819.0665 819.1816 819.2762 819.3322
   820.0016 820.0355 820.0355 820.8142 821.9486 821.9486 822.5936 822.6133
   823.4140 823.5255 823.5255 823.6356 824.2343 824.2343 824.3117 824.3742
   824.3802 824.3802 824.4631 824.4861 824.4940 824.4940 824.8451 824.8491
   824.9048 824.9214 824.9320 824.9320 825.1150 825.5531 825.5595 825.5595
   825.7840 825.8095 825.8095 825.8336 836.2104 836.2104 838.6052 838.9223
   838.9970 838.9970 839.3356 840.5468 843.2324 843.2324 843.3544 843.3544
   843.3548 843.3773 843.3833 843.4006 854.2939 854.2939 854.5050 854.6757
   854.8984 854.8984 855.4337 855.4458 855.4810 855.4810 855.8836 856.0534
   857.6989 857.6989 857.7753 857.9321 858.2819 858.2939 858.2939 858.3657
   858.9047 859.1841 859.1841 859.3292 859.8874 859.8874 859.9246 859.9360
   862.9725 863.0028 863.0028 863.0393 870.2214 870.2214 870.7182 871.0578
   871.0873 871.0873 871.4857 871.5106 871.5179 871.5179 871.7121 872.0098
   874.3651 874.6369 874.7526 874.7526 874.8677 874.8677 874.8849 874.9044
   874.9554 875.0154 875.0154 875.0470 875.5425 875.5425 876.3308 876.3502
   876.3502 876.3574 876.4090 876.4290 876.4452 876.4502 876.4502 876.4781
   881.5311 881.5375 881.5375 881.5413 886.8805 886.8805 886.9052 887.3632
   890.8651 890.8651 891.4253 891.5031 891.5031 891.5768 891.5782 891.5917
   893.4992 893.5134 893.5134 893.5393 894.3131 894.3131 894.3575 894.3638
   895.4546 895.4546 896.0381 896.6897 902.2261 902.2895 902.2895 902.3021
   902.7476 902.7476 902.7742 902.8422 909.8713 909.8749 909.8749 909.9828
   910.0733 910.0733 910.0900 910.0917 913.7138 913.7138 913.7480 913.7628
   915.3220 915.3389 915.3508 915.3508 915.6217 915.6217 915.6520 915.6577
   918.4999 919.4162 920.0940 920.0940 922.1558 922.1558 922.6204 922.6204
   922.7125 923.0366 923.1212 923.3142 923.3142 923.3933 923.9239 924.0650
   924.7866 924.7866 924.7988 924.9185 925.7968 926.2435 926.2584 926.2584

     the Fermi energy is    10.1353 ev
     (compare with:    11.0099 eV, computed in scf)

     Writing all to output data dir out/mp-1265.save/
 
     init_run     :      0.05s CPU      0.09s WALL (       1 calls)
     electrons    :   1040.44s CPU   1122.21s WALL (       1 calls)

     Called by init_run:
     wfcinit      :      0.00s CPU      0.00s WALL (       1 calls)
     potinit      :      0.01s CPU      0.02s WALL (       1 calls)
     hinit0       :      0.01s CPU      0.04s WALL (       1 calls)

     Called by electrons:
     c_bands      :   1040.43s CPU   1122.20s WALL (       1 calls)
     v_of_rho     :      0.01s CPU      0.01s WALL (       1 calls)

     Called by c_bands:
     init_us_2    :      0.00s CPU      0.00s WALL (       8 calls)
     init_us_2:cp :      0.00s CPU      0.00s WALL (       8 calls)
     cegterg      :   1020.06s CPU   1100.66s WALL (       8 calls)

     Called by *egterg:
     cdiaghg      :    974.66s CPU   1054.49s WALL (      65 calls)
     h_psi        :     15.88s CPU     16.40s WALL (      73 calls)
     g_psi        :      0.09s CPU      0.09s WALL (      57 calls)

     Called by h_psi:
     h_psi:calbec :      0.16s CPU      0.17s WALL (      73 calls)
     vloc_psi     :     15.53s CPU     16.03s WALL (      73 calls)
     add_vuspsi   :      0.11s CPU      0.11s WALL (      73 calls)

     General routines
     calbec       :      0.16s CPU      0.17s WALL (      73 calls)
     fft          :      0.01s CPU      0.03s WALL (      10 calls)
     fftw         :     14.06s CPU     14.50s WALL (  112152 calls)
 
     Parallel routines
 
     PWSCF        :  17m21.26s CPU  18m43.50s WALL

 
   This run was terminated on:  15:56: 5  15Nov2023            

=------------------------------------------------------------------------------=
   JOB DONE.
=------------------------------------------------------------------------------=
