
     Program PWSCF v.7.1 starts on 15Nov2023 at 15: 6:12 

     This program is part of the open-source Quantum ESPRESSO suite
     for quantum simulation of materials; please cite
         "P. Giannozzi et al., J. Phys.:Condens. Matter 21 395502 (2009);
         "P. Giannozzi et al., J. Phys.:Condens. Matter 29 465901 (2017);
         "P. Giannozzi et al., J. Chem. Phys. 152 154105 (2020);
          URL http://www.quantum-espresso.org", 
     in publications or presentations arising from this work. More details at
     http://www.quantum-espresso.org/quote

     Parallel version (MPI), running on     8 processors

     MPI processes distributed on     1 nodes
     123542 MiB available memory on the printing compute node when the environment starts
 
     Reading input from pw_mp-1265_nscf_k10_E134.in
Warning: card &IONS ignored
Warning: card / ignored
Warning: card &CELL ignored
Warning: card / ignored

     Current dimensions of program PWSCF are:
     Max number of different atomic species (ntypx) = 10
     Max number of k-points (npk) =  40000
     Max angular momentum in pseudopotentials (lmaxx) =  4

     Atomic positions and unit cell read from directory:
     out/mp-1265.save/
     Atomic positions from file used, from input discarded
 
 
     R & G space division:  proc/nbgrp/npool/nimage =       8
     Subspace diagonalization in iterative solution of the eigenvalue problem:
     one sub-group per band group will be used
     scalapack distributed-memory algorithm (size of sub-group:  2*  2 procs)

 
     Parallelization info
     --------------------
     sticks:   dense  smooth     PW     G-vecs:    dense   smooth      PW
     Min         144     144     40                 3276     3276     492
     Max         145     145     43                 3280     3280     494
     Sum        1159    1159    337                26229    26229    3943
 
     Using Slab Decomposition
 


     bravais-lattice index     =            2
     lattice parameter (alat)  =       7.9255  a.u.
     unit-cell volume          =     124.4580 (a.u.)^3
     number of atoms/cell      =            2
     number of atomic types    =            2
     number of electrons       =        16.00
     number of Kohn-Sham states=         1200
     kinetic-energy cutoff     =     134.0000  Ry
     charge density cutoff     =     536.0000  Ry
     Exchange-correlation= PBE
                           (   1   4   3   4   0   0   0)

     celldm(1)=   7.925516  celldm(2)=   0.000000  celldm(3)=   0.000000
     celldm(4)=   0.000000  celldm(5)=   0.000000  celldm(6)=   0.000000

     crystal axes: (cart. coord. in units of alat)
               a(1) = (  -0.500000   0.000000   0.500000 )  
               a(2) = (   0.000000   0.500000   0.500000 )  
               a(3) = (  -0.500000   0.500000   0.000000 )  

     reciprocal axes: (cart. coord. in units 2 pi/alat)
               b(1) = ( -1.000000 -1.000000  1.000000 )  
               b(2) = (  1.000000  1.000000  1.000000 )  
               b(3) = ( -1.000000  1.000000 -1.000000 )  


     PseudoPot. # 1 for Mg read from file:
     /usr/scratch4/magr4985/MG/HTDF/pseudo/SG15/Mg.upf
     MD5 check sum: 330956729b1f868fdecd9f5113f6a961
     Pseudo is Norm-conserving, Zval = 10.0
     Generated using ONCVPSP code by D. R. Hamann
     Using radial grid of  602 points,  4 beta functions with: 
                l(1) =   0
                l(2) =   0
                l(3) =   1
                l(4) =   1

     PseudoPot. # 2 for O  read from file:
     /usr/scratch4/magr4985/MG/HTDF/pseudo/SG15/O.upf
     MD5 check sum: e36c48deb68f4e355fffe4602be2c42c
     Pseudo is Norm-conserving, Zval =  6.0
     Generated using ONCVPSP code by D. R. Hamann
     Using radial grid of  602 points,  4 beta functions with: 
                l(1) =   0
                l(2) =   0
                l(3) =   1
                l(4) =   1

     atomic species   valence    mass     pseudopotential
        Mg            10.00    24.30500     Mg( 1.00)
        O              6.00    15.99940     O ( 1.00)

     48 Sym. Ops., with inversion, found



   Cartesian axes

     site n.     atom                  positions (alat units)
         1           Mg  tau(   1) = (   0.0000000   0.0000000   0.0000000  )
         2           O   tau(   2) = (  -0.5000000   0.5000000   0.5000000  )

     number of k points=     3  Gaussian smearing, width (Ry)=  0.0005
                       cart. coord. in units 2pi/alat
        k(    1) = (   0.0000000   0.0000000   0.0000000), wk =   0.2500000
        k(    2) = (   0.5000000  -0.5000000   0.5000000), wk =   1.0000000
        k(    3) = (   0.0000000  -1.0000000   0.0000000), wk =   0.7500000

     Dense  grid:    26229 G-vectors     FFT dimensions: (  45,  45,  45)

     Estimated max dynamical RAM per process >     128.35 MB

     Estimated total dynamical RAM >       1.00 GB

     The potential is recalculated from file :
     out/mp-1265.save/charge-density

     Starting wfcs are random

     Band Structure Calculation
     Davidson diagonalization with overlap

     ethr =  5.00E-06,  avg # of iterations =  6.7

     total cpu time spent up to now is      397.2 secs

     End of band structure calculation

          k = 0.0000 0.0000 0.0000 (  3287 PWs)   bands (ev):

   -63.3967 -30.1616 -30.1616 -30.1616  -8.3447   8.9260   8.9260   8.9260
    13.8206  24.9023  24.9023  24.9023  28.7412  30.7343  30.7343  33.5287
    33.5287  33.5287  47.5950  47.5950  47.5950  48.3823  59.6611  59.6611
    59.6611  65.1857  65.1857  66.2886  66.2886  66.2886  70.3137  75.1142
    75.1142  82.4434  82.4434  82.4434  82.9519  82.9519  82.9519  89.5790
    89.5790  89.5790  91.1255  91.1255  91.1255  92.7712  92.7712  92.7712
    92.9551  95.4814  95.4814  95.4814  96.4634  96.4634  96.5430  96.5430
    96.5430  97.8484  98.4906 106.7197 106.7197 106.7197 121.2872 121.2872
   121.2872 121.9944 121.9944 127.0546 142.1512 142.1512 142.1512 143.2827
   143.2827 143.2827 145.0968 151.3021 151.3021 152.4492 152.4492 152.4492
   155.9092 155.9092 155.9092 156.0360 157.8310 157.8310 160.4810 160.4810
   160.4810 161.9231 161.9231 161.9231 162.1585 162.1585 162.1585 163.0795
   163.0795 163.0795 163.0922 163.0922 164.8509 164.8509 164.8509 166.3595
   167.0487 167.0487 167.0487 168.5692 168.5692 169.8424 169.8424 169.8424
   170.6547 182.6246 182.6246 182.6246 187.8782 187.8782 187.8782 191.8534
   191.8534 191.8534 192.8135 197.0891 199.4591 199.4591 201.1665 201.1665
   201.1665 201.4085 201.4085 201.4085 201.9674 201.9674 201.9674 202.0142
   202.0142 202.0142 202.0458 202.0458 202.5018 202.5018 218.7474 218.7474
   218.7474 218.9974 219.0375 219.0375 219.0375 222.5623 225.5925 225.5925
   225.5925 226.1876 226.1876 226.1876 227.4625 227.4625 227.4625 227.5824
   227.8807 227.8807 227.8807 232.4407 232.4407 232.4983 232.4983 232.4983
   232.6009 242.5009 242.5009 242.5009 258.8743 258.8743 258.8743 260.8236
   260.8236 260.8236 262.5813 262.5813 263.7766 263.7766 263.7766 267.7392
   275.3089 275.3089 275.3089 278.5902 278.5902 280.8358 280.8358 280.8358
   280.8424 280.8424 280.8424 288.0085 288.0085 288.0085 288.4966 288.9613
   288.9613 289.8913 289.8913 289.8913 290.4964 291.3856 291.3856 291.6105
   291.6105 291.6105 293.0955 293.0955 293.0955 294.5812 294.6537 295.0393
   295.0393 295.0393 295.0461 295.0461 295.0461 296.3784 296.3784 297.3991
   297.3991 297.3991 297.7849 298.2611 298.2611 298.2611 299.1671 299.1671
   299.1671 299.7638 299.7638 299.7638 299.8527 299.8527 300.4073 300.4073
   300.4073 300.7407 303.2080 303.2080 303.2080 303.8110 303.8110 303.8124
   303.8124 303.8124 304.4869 304.4869 304.4869 304.7584 304.7584 304.7584
   304.7859 304.7859 310.6753 323.0290 323.0290 323.0290 325.9836 325.9836
   332.9035 332.9035 332.9035 332.9290 332.9290 332.9290 333.3452 333.3452
   333.3452 333.8266 333.8266 333.8266 337.8224 339.6956 339.6956 339.7795
   339.7795 339.7795 340.0191 343.2647 343.2647 343.2647 351.1669 351.1669
   351.1669 352.0153 361.5248 362.4112 362.4112 362.4699 362.4699 362.4699
   363.2137 363.2137 363.2137 363.2224 363.2224 363.2224 363.4355 363.4355
   363.4355 363.5537 363.5537 363.5537 363.6139 363.6139 368.1586 368.1586
   368.1586 368.8290 368.8290 369.4939 369.5082 369.5082 369.5082 369.7927
   369.7927 369.7927 370.1314 370.1314 370.1314 370.7691 370.7691 370.7691
   371.0052 371.0052 376.4916 390.2289 390.2289 390.2289 397.9828 397.9828
   397.9828 401.1707 401.1707 401.1707 401.7119 402.7511 402.7511 405.5763
   416.5270 416.5270 416.5270 417.3399 417.3399 417.3399 417.7568 418.2192
   418.2192 418.2192 419.9376 419.9376 419.9376 420.3058 420.3058 428.3722
   428.3722 428.3722 429.3754 429.3754 429.4553 429.4553 429.4553 429.6036
   430.6022 430.6022 430.6022 430.9280 430.9280 430.9280 431.1208 431.1208
   431.1208 431.3405 431.3405 431.3405 433.2597 433.9649 433.9649 433.9649
   434.4709 434.4709 434.4709 434.7391 434.7391 434.7850 434.7850 434.7850
   437.6042 437.6042 437.6063 437.6063 437.6063 437.6176 438.7831 438.7831
   438.7831 438.8332 438.8332 439.5566 439.5566 439.5566 439.9354 439.9354
   439.9354 440.1675 445.6191 459.1952 459.1952 459.1952 462.6981 462.7378
   462.7378 462.7378 468.3272 468.3272 468.6565 468.6565 468.6565 468.8014
   468.8014 468.8014 469.3521 469.3521 469.3521 469.6594 469.6594 469.6594
   469.7147 469.7147 469.7147 470.0427 470.0427 474.8758 474.8758 475.2295
   475.2295 475.2295 475.3925 475.3925 475.3925 475.6139 475.6139 475.6139
   475.6220 475.6220 475.6220 475.7670 475.8578 475.8578 477.1540 477.3550
   477.3550 477.3550 477.5752 477.5752 477.5752 477.7861 482.0659 482.0659
   482.0659 483.0682 483.0682 486.1129 486.1710 486.1710 486.1710 487.6372
   487.6372 487.6372 489.2045 489.2045 489.2045 491.9819 491.9819 491.9819
   493.3700 493.9676 493.9676 493.9676 494.6011 494.6011 495.2596 495.2596
   495.2596 495.8930 499.0875 499.0875 500.0230 500.0230 500.0230 500.2187
   500.2187 500.2187 500.3008 500.3008 500.3008 501.3784 501.3784 501.3795
   501.3795 501.3795 501.8850 502.1686 502.1686 502.1897 502.1897 502.1897
   503.8870 503.8870 503.8870 504.0391 504.0391 504.0391 504.2427 504.2427
   504.2427 504.3577 504.3577 504.3577 505.2827 505.2827 505.2891 505.2891
   505.2891 505.3099 507.0551 522.1842 522.1842 522.1842 528.3963 528.3963
   537.5225 553.2594 553.2594 553.2594 559.0564 559.0564 559.0564 561.2706
   561.2706 561.2706 562.6473 563.3024 563.3024 564.5026 564.5026 564.5026
   564.9871 564.9871 564.9871 565.0244 565.0244 565.0244 565.3420 565.3420
   565.3604 565.3604 565.3604 565.5617 565.5982 565.5982 565.5982 565.9044
   565.9044 566.2522 566.2522 566.2522 567.5605 570.2403 571.4075 571.4075
   571.4075 571.8598 571.8598 571.8598 572.3173 572.3173 572.3173 572.7476
   572.7476 572.7476 577.1653 577.1653 577.2576 577.2576 577.2802 577.2802
   577.2802 577.3751 577.3751 577.3751 577.4077 577.4077 577.4077 577.6264
   577.6264 577.6264 578.8509 578.9885 578.9885 579.0742 579.0742 579.0742
   579.2782 599.2478 599.2478 599.2478 602.3949 602.3949 602.3949 602.7947
   602.7947 602.8076 602.8076 602.8076 606.3192 606.3192 606.3192 608.4093
   608.4093 608.4702 608.4702 608.4702 608.7719 608.8355 608.8355 608.8355
   609.4333 609.4333 609.4333 609.7755 609.7755 609.7755 609.8850 610.0567
   610.0567 610.0632 610.0632 610.0632 610.0705 610.0705 610.0705 613.3203
   617.1678 617.1678 617.1678 618.2412 618.2412 618.2942 618.2942 618.2942
   629.9153 630.7631 631.3567 631.3567 631.3567 631.5818 631.5818 631.5818
   631.8689 631.8689 632.1838 632.1838 632.1838 632.3857 632.3857 632.3857
   632.6734 632.6734 632.6734 633.1454 634.7450 637.9978 637.9978 637.9978
   638.0138 638.0138 638.0678 638.0678 638.0678 638.4046 638.4046 638.4046
   638.4107 638.4107 638.4107 638.5656 641.0524 641.0524 641.0524 641.1250
   641.1250 641.1250 641.1409 641.1409 641.2205 641.2205 641.2205 641.3618
   641.3618 641.3618 641.5143 641.7721 641.7721 641.7721 641.8138 641.8138
   642.2960 643.0750 643.0750 643.0750 643.5110 643.5110 643.5110 643.7948
   643.7948 643.8339 643.8339 643.8339 646.0440 668.7064 668.7064 668.7064
   672.0177 672.0177 672.1538 672.1538 672.1538 673.8177 673.8177 673.8177
   673.8930 673.8930 673.8930 674.0332 674.0332 674.0332 674.1321 674.1321
   674.1321 675.3208 675.3208 675.5105 675.5105 675.5105 675.9378 676.9895
   676.9895 678.8206 684.2901 689.7621 689.7621 689.7621 691.4745 691.4745
   691.4745 691.6891 698.0208 698.0208 698.0208 698.6608 698.6608 698.6608
   698.8155 698.8155 698.8155 698.8901 698.8901 699.0122 699.0122 699.0122
   699.3130 699.3130 701.1383 702.8726 702.8726 702.8726 704.1195 704.1195
   704.1195 704.1585 704.1585 704.1585 704.3913 704.3913 704.3913 704.5239
   704.5239 704.5239 705.7684 705.7684 705.9423 705.9423 705.9423 705.9647
   705.9647 706.0024 706.0024 706.0024 706.0064 706.0064 706.0064 706.0792
   706.0792 706.0792 706.2119 706.2119 706.2119 706.3295 707.5177 707.5177
   707.6027 707.6027 707.6027 707.9151 707.9151 707.9151 707.9673 707.9673
   707.9673 708.0744 708.1209 708.1209 708.1209 708.1342 708.1342 708.1342
   708.1396 708.3029 708.3029 708.3029 708.4557 708.4557 711.2097 711.2169
   711.2169 711.2169 711.2211 711.2211 712.3364 714.0422 714.0422 714.1699
   714.1699 714.1699 714.6462 714.6462 714.6462 714.6667 714.6793 714.6793
   714.6793 714.8683 714.8683 714.8683 715.0072 715.0072 715.0072 715.2718
   715.2718 715.3374 715.3374 715.3374 715.3879 734.8166 734.8166 734.8166
   736.1103 736.1841 736.1841 736.1841 739.3074 748.1606 748.1606 748.1606
   748.1953 748.1953 748.2438 748.2438 748.2438 748.3121 748.3121 748.3121
   748.4363 748.4363 748.4452 748.4452 748.4452 753.7621 753.7621 753.7621
   756.7469 756.7469 761.5242 761.5242 761.5242 761.7819 761.7819 761.7819
   761.8005 761.8005 761.8005 762.0537 762.0537 762.0537 762.7271 768.7399
   768.7399 768.8662 768.8662 768.8662 769.0389 774.3035 774.3035 774.3035
   774.3124 774.3285 774.3285 777.3908 777.3908 777.3908 777.4049 777.4049
   777.4049 777.4454 777.4454 777.4454 777.4677 777.4677 777.4677 778.7857
   778.7857 778.8066 778.8066 778.8066 778.8356 807.0579 807.0579 807.0579
   810.8131 810.8131 810.8131 811.4362 811.9821 811.9821 812.3296 812.3296
   812.3296 812.5956 812.5956 812.5956 812.8068 812.8068 812.8068 812.9569
   812.9569 812.9569 813.1544 813.1544 813.7885 817.9468 817.9468 817.9468
   823.9519 823.9519 823.9519 826.7860 826.9336 826.9336 826.9420 826.9420
   826.9420 828.9750 830.2784 830.2784 830.2784 830.4254 830.4254 830.4254
   833.0291 833.0291 833.0291 833.3839 835.3737 835.3737 836.7226 836.7226
   836.7226 837.1497 837.1497 837.1497 837.2242 837.2242 837.6150 837.6150
   837.6150 837.7391 837.7391 837.7572 837.7572 837.7572 838.5840 838.5840
   838.5840 838.7009 838.7009 838.7009 838.9221 838.9862 838.9862 838.9862
   838.9939 838.9939 839.8858 839.9670 839.9670 839.9670 840.0261 840.0261
   840.0261 840.2095 842.0296 843.0913 843.0913 843.0913 843.1652 843.1652
   843.1955 843.1955 843.1955 843.3650 843.3650 843.3650 843.4026 843.4026
   843.4133 843.4133 843.4133 845.1267 845.1294 845.1294 845.1294 845.1502
   845.1502 845.1502 845.1997 845.1997 845.2012 845.2012 845.2012 849.5691
   849.5691 849.5691 849.6357 849.6357 849.6357 849.7248 849.7248 849.7248
   849.7442 849.7442 849.8382 870.8365 870.8365 870.8365 872.2581 872.2581
   873.9293 876.4322 876.4322 876.4322 876.7568 876.7568 876.7568 877.7476
   877.7476 877.7476 877.7897 878.6095 878.6095 878.8000 878.8000 878.8000
   879.0244 879.0244 879.0244 879.3649 879.3649 879.3649 879.3720 879.5925
   879.5925 880.1588 880.1588 880.1588 880.5213 880.5213 880.5213 880.5764
   880.5764 880.5764 881.0226 881.0226 881.0226 884.9076 884.9076 885.1196
   885.1364 885.1364 885.1364 885.2212 885.2212 885.2212 885.3788 885.3788
   885.3788 885.6247 885.6247 885.6703 885.6703 885.6703 885.8717 885.8717
   885.8717 885.9270 885.9310 885.9310 885.9310 887.1174 887.1174 887.1518
   887.1518 887.1518 887.2133 893.6262 893.6262 893.6262 896.7105 896.7105
   896.7105 897.0692 897.0692 897.1537 897.1537 897.1537 899.2060 899.6538
   899.6538 899.6538 899.9200 899.9200 900.0868 900.0868 900.0868 900.6984
   900.6984 900.6984 901.0428 904.9011 905.5113 905.5113 905.5113 906.1222
   906.1222 906.1222 906.8167 906.8167 906.8590 906.8590 906.8590 908.5623
   908.7630 908.7630 908.7630 909.0412 909.0412 909.0412 909.2916 909.2916
   909.2916 909.3127 909.3127 913.3111 913.3111 913.3214 913.3214 913.3214
   913.5128 913.5128 913.5128 913.6077 913.6077 913.6077 913.6741 913.6741

          k = 0.5000-0.5000 0.5000 (  3274 PWs)   bands (ev):

   -63.3875 -30.2512 -30.1707 -30.1707  -6.9957   4.2782   8.2684   8.2684
    16.9389  21.6858  25.4393  25.4393  30.1058  31.6933  31.6933  37.7785
    40.0921  40.0921  42.1026  42.1026  51.8647  53.5313  56.1495  56.1495
    59.5198  60.1140  60.1140  62.5772  67.2227  67.2227  68.8430  70.2779
    70.2779  71.9495  73.4870  76.4251  77.5956  77.5956  81.8409  81.8409
    88.0152  88.5111  90.3040  90.3040  90.7546  90.7546  92.1561 100.9315
   100.9315 101.8365 101.8365 102.9969 108.0070 108.4177 110.7957 110.7957
   114.0633 114.0633 117.6371 117.6371 118.1929 118.1929 119.1323 121.6738
   121.6738 121.8103 121.8103 123.0241 123.7624 123.9708 128.8847 128.8847
   130.6157 132.8443 137.9171 137.9171 140.6050 140.6050 140.6127 140.6127
   142.7934 144.3996 145.7818 147.8762 147.8762 152.1019 152.1019 152.7839
   155.7246 155.9869 158.2841 159.1282 159.1282 159.4425 159.4425 160.7316
   166.6111 166.6111 167.3700 167.3700 168.1618 172.5855 174.0958 174.0958
   174.1801 174.1801 174.3449 174.4444 181.4547 182.5057 182.5057 182.8525
   182.8525 183.6428 187.2546 187.2546 187.6920 187.6920 189.6439 189.8165
   190.3862 192.1145 196.9579 196.9579 199.0605 199.0605 201.3027 201.3027
   202.8303 202.8303 203.1055 204.6236 204.7818 206.2519 206.2519 206.7029
   206.7029 206.7132 207.7125 212.6245 214.0490 214.0490 214.0529 214.0529
   216.1590 220.0309 223.3712 223.3712 223.4752 223.4752 224.9383 224.9383
   225.2659 225.2659 226.2069 226.2108 230.1585 230.1585 232.3752 232.3752
   235.7677 236.9680 238.1031 238.1031 239.2861 239.2861 241.8810 241.8810
   242.3136 242.3483 242.5544 242.5544 243.4462 251.3254 251.4889 251.4889
   252.1598 252.1598 255.1356 256.2279 263.0244 263.0244 263.3697 263.9017
   264.7161 265.1018 265.1018 266.8042 266.8042 267.6244 268.1506 269.8147
   269.8147 269.8977 269.8977 270.9230 270.9230 271.3154 271.6214 274.8081
   274.8081 274.8709 274.8709 275.0853 275.2423 275.9470 275.9470 275.9902
   275.9902 280.4130 286.6812 286.6812 287.3146 287.3146 288.4662 288.4911
   289.5227 290.9568 292.2391 292.2391 292.2640 292.2640 293.2359 293.2359
   293.4070 293.4070 293.7449 293.8762 297.3876 297.3876 299.3201 299.3201
   302.0955 303.4130 304.6999 305.3229 307.9561 307.9561 308.1341 308.1341
   308.2313 308.5999 314.8190 314.8190 316.1797 316.1797 316.5178 318.1858
   322.7600 322.7600 323.6310 323.9302 323.9302 325.0900 325.0900 325.1095
   325.1095 325.3846 325.4212 326.1515 327.2620 327.2620 327.3601 327.3601
   327.5360 327.8803 330.6340 333.3427 334.4624 334.4624 334.9751 334.9751
   341.6616 341.7577 341.7577 344.2537 344.2537 345.8051 348.3071 348.3071
   348.8773 348.8773 352.5545 356.4483 357.0154 357.0154 357.5389 357.5389
   359.4109 359.4825 359.4825 359.5438 359.5438 359.7088 359.7438 359.9197
   359.9197 359.9501 359.9501 360.7991 360.8437 364.0108 368.0730 368.0730
   368.9428 369.0678 369.4781 369.4781 373.2666 374.1295 374.3001 374.4486
   374.4486 374.5234 374.5234 374.7931 374.7931 374.9012 374.9012 376.3194
   376.8059 376.8059 376.8810 376.9195 376.9195 377.0533 379.8142 379.8142
   379.8173 379.8173 380.4926 381.5471 381.5514 387.0261 393.8533 393.8533
   394.4247 394.4247 394.7263 394.7263 394.8047 394.8047 394.9062 395.1794
   401.0993 401.0993 401.4994 402.1312 402.1312 402.4877 403.8687 403.8687
   404.4778 404.4778 408.1359 408.6875 408.6875 410.1452 410.1452 410.4480
   410.4663 410.8658 411.4986 411.4986 411.5466 411.5466 412.1882 412.4327
   416.0152 416.0152 416.0925 416.0925 419.7340 419.7340 419.7798 422.4769
   423.5913 423.5913 424.0672 426.2869 426.8063 427.2034 427.2034 427.2513
   427.2513 428.2076 428.2076 428.2515 428.2515 428.3590 428.4332 431.5780
   441.0270 441.0270 441.2735 441.8794 441.8794 441.8850 442.4569 442.4569
   443.7423 443.7423 444.7495 444.7495 444.7610 444.8856 445.0857 445.0857
   445.2966 445.7058 448.4112 450.8805 454.4674 454.4674 456.2539 456.2539
   456.8344 457.3981 458.5382 458.7352 458.7352 458.7643 458.8792 458.8792
   459.4577 459.5635 459.8523 459.8523 460.0524 460.0524 460.8561 460.8561
   462.4061 462.4061 464.7813 464.7813 465.0670 465.0670 468.5342 473.0925
   473.6218 473.6218 473.9178 473.9178 474.0031 475.1692 475.9894 475.9894
   476.6949 476.6949 477.0318 480.8528 480.8862 480.8862 480.9722 480.9722
   481.0378 481.9452 482.6416 482.6669 482.6669 482.7517 482.7517 482.8663
   489.0294 490.7081 490.7081 491.1139 491.1139 491.8731 495.4930 495.4930
   495.6410 495.6410 496.6267 496.6407 502.2635 502.6693 505.0108 505.0108
   505.4808 505.4808 507.1180 507.1180 509.0984 509.9486 509.9486 510.3217
   511.8125 511.8125 511.9532 511.9788 511.9788 512.1599 512.5320 513.7808
   514.3696 514.3696 514.4096 514.4096 514.5414 514.5419 516.8761 516.8761
   517.5828 519.8380 519.8380 519.9864 520.4146 520.4146 520.4393 520.4393
   523.0974 523.0974 523.2248 523.2248 524.3494 524.3931 526.8173 527.9318
   529.2255 529.2633 529.8682 530.1904 530.1904 530.2830 530.2830 530.5591
   530.5591 530.6908 530.6908 530.7711 530.7711 530.7817 530.7817 531.4400
   531.4420 532.4795 532.4795 532.5258 532.5258 532.8508 532.9132 535.5299
   544.7588 544.7588 544.9738 544.9738 545.2352 545.2390 546.8316 546.8316
   547.3590 547.3590 547.5664 547.5664 547.6286 547.6286 547.6478 547.6495
   547.9357 549.3403 550.2933 550.2933 550.3370 550.3370 550.4439 550.4727
   560.6938 560.6938 561.1312 561.7967 561.7967 562.7622 563.0639 563.0639
   563.0875 563.0875 563.5231 564.0395 569.0387 569.6422 574.7863 574.7863
   574.8585 575.5373 575.5373 576.4519 576.4519 577.3461 577.7369 577.7369
   578.3611 578.3611 578.7439 578.7439 578.8760 578.8760 578.9713 578.9879
   578.9879 578.9925 581.0778 581.6843 584.2090 584.2090 584.2228 584.2228
   586.3714 586.3717 590.4610 590.4610 591.3964 593.1461 593.5194 593.5194
   596.1208 596.1208 596.1286 596.1286 596.5114 596.6753 597.1193 597.1193
   598.6932 598.6932 601.9015 601.9015 601.9075 601.9075 602.2564 602.2585
   602.9979 605.6867 605.6919 606.2091 606.2091 606.6864 606.6864 607.5658
   607.9944 609.5071 609.5071 611.0833 611.2913 611.2913 611.8956 615.9348
   618.1278 618.1278 618.1334 618.1334 625.7266 625.7266 625.7492 625.7789
   625.7789 626.6644 626.6644 626.8292 628.2997 628.2997 628.8097 628.8566
   628.9134 628.9134 629.8683 629.8683 630.2557 630.4085 630.4085 630.4257
   630.5705 630.5705 632.4363 632.5345 632.8762 632.9134 632.9134 632.9599
   632.9599 633.0308 633.1077 633.1077 633.4446 633.4446 633.5909 633.6365
   633.7633 633.7633 633.8035 634.0232 634.0232 634.6105 635.1953 635.1953
   635.2065 635.2065 635.4879 635.5333 643.5797 643.5797 645.1750 645.1750
   646.3317 646.4676 646.4676 646.6009 646.8236 646.8791 646.8791 646.9835
   650.9989 650.9989 651.1361 651.1361 651.2418 651.3136 657.6039 658.0612
   658.0612 658.6754 658.6754 659.6845 664.2442 664.2442 664.5923 664.5923
   664.6300 665.3925 665.6123 665.6817 665.6817 665.7448 665.7448 666.0488
   666.5184 666.5184 666.8467 666.8467 667.1377 667.1377 667.1783 667.2306
   667.6449 667.6449 667.9987 667.9987 668.0918 668.1008 668.1014 668.1014
   668.1619 669.0599 679.4850 679.8307 679.8307 680.2532 680.7568 680.7568
   681.1671 681.3926 682.5091 682.5091 682.5451 682.5451 683.8112 683.8112
   684.0838 684.0838 684.2692 684.2692 684.3036 684.3036 684.3292 684.3355
   684.6518 685.1578 687.8159 689.9979 695.3379 695.3379 695.9286 695.9286
   696.7166 697.4145 702.4568 702.4568 702.5509 702.5509 703.7389 703.7509
   703.7509 703.8526 703.8526 703.8819 706.7360 706.7360 709.3762 709.3762
   710.0798 710.2892 710.9445 710.9445 710.9694 710.9694 711.5764 711.8302
   714.8802 714.9288 714.9288 714.9368 715.0078 715.0411 715.0411 715.0902
   715.0902 715.1157 715.1306 715.1306 717.6016 717.6016 717.6393 717.6393
   717.8727 718.2073 720.3714 720.3714 720.3764 720.4622 720.4622 720.4872
   722.1264 722.1264 723.1328 723.1328 723.9984 725.1618 733.1509 733.1509
   733.3485 733.3485 733.4227 733.5568 734.7289 734.7289 734.9953 735.1633
   735.1633 735.5145 735.5312 735.5312 735.5657 735.5657 736.0405 736.0471
   738.8965 738.8997 738.8997 738.9269 738.9269 738.9313 747.7669 747.7669
   748.1527 748.4658 749.5024 749.5024 750.0415 750.0415 750.1644 750.1644
   750.3494 750.7827 750.7830 750.7830 750.8276 750.8276 751.0724 751.1389
   753.7643 753.7643 754.2580 754.2580 754.8440 755.7686 755.7712 755.8420
   755.8789 755.8789 756.1985 756.1985 764.6229 764.6229 765.8976 766.2042
   766.2042 766.2528 766.7891 767.4014 767.4014 767.4038 767.4960 767.4960
   767.4977 767.5359 767.9508 768.0803 768.0803 768.0804 768.0804 768.7947
   778.4822 778.4822 779.2505 779.2505 779.5089 779.6961 781.0718 781.0718
   781.3156 781.3762 781.3883 781.3883 781.9509 781.9509 782.1915 782.1915
   782.7075 782.7075 782.8564 782.8564 783.2602 783.2772 783.3790 783.3790
   783.4165 783.4317 783.4317 783.4543 783.5500 783.6022 786.8843 786.9308
   787.3760 787.3760 787.4119 787.4119 788.9075 788.9075 788.9128 788.9354
   788.9354 788.9742 789.3609 789.3609 789.4205 789.4205 789.5320 789.5872
   803.4840 803.5239 803.5239 803.7876 803.7876 803.8317 804.6346 804.6346
   804.6501 804.6789 804.6789 804.6847 804.8344 804.8919 804.8919 804.8921
   804.8921 804.9128 809.8400 809.8400 811.0525 811.0525 812.2323 813.2345
   817.1031 817.1031 817.6745 817.6745 818.1296 818.3773 819.2143 819.2143
   819.9603 819.9718 820.0384 820.0384 820.1733 820.1733 820.2805 820.3044
   820.3044 820.3399 820.4729 820.4729 820.4740 820.6042 820.6042 820.6452
   825.3982 825.5022 828.4004 828.6033 828.6033 828.9109 828.9109 829.7731
   831.8720 831.8720 831.9687 831.9687 831.9976 831.9976 832.2808 832.4916
   833.5558 833.6610 833.6610 834.4856 834.4856 834.5121 834.5380 834.5380
   838.0957 838.0957 838.1133 838.1133 838.1998 838.1998 838.2054 838.2124
   838.2187 838.2187 838.2297 838.3303 839.8257 839.8257 839.8380 839.8380
   840.6271 840.6272 841.2866 841.2866 841.2893 841.2893 843.0274 843.0276
   853.1958 853.1958 854.0767 854.2150 854.2150 854.5702 854.6891 854.6891
   854.8753 854.8753 854.9593 855.0257 864.7853 864.7853 865.1000 866.3070
   866.3942 866.3942 866.5326 866.5326 867.2415 867.2415 867.3923 867.4030
   867.7535 867.7535 868.0789 868.0789 868.2281 868.5024 868.5024 868.6427
   868.6427 869.0174 869.0231 869.0734 869.1361 869.2110 869.3639 869.3639
   869.4469 869.4469 870.6780 870.6780 871.0053 871.0053 871.0112 871.1684
   878.3770 878.7628 884.8174 884.8174 885.5942 885.7567 885.7567 885.8237
   886.8058 886.8188 886.8188 886.8287 886.8287 886.8988 886.8988 886.9343
   886.9650 886.9650 887.0086 887.3993 887.9287 887.9461 887.9461 888.1224
   888.1224 888.2179 888.7288 888.7288 888.7424 888.7424 888.7751 888.8019
   889.4706 889.4706 889.8200 889.8200 889.9378 890.0145 890.5684 890.5684
   890.5884 890.5884 890.5942 890.5960 891.4079 891.4079 891.4140 891.4140
   892.7184 892.7184 892.7252 892.7252 892.8507 892.8544 899.6034 899.6034
   900.2014 900.2597 900.2597 900.4002 907.8356 907.8499 907.8499 907.8630
   907.8630 907.8910 920.9378 920.9378 921.3619 921.4108 921.4142 921.4142
   921.4594 921.4594 921.7468 921.7468 921.7736 921.7736 921.7801 921.7924
   922.6064 922.6064 922.7084 922.7668 922.7668 922.7829 922.8534 922.8534
   922.8539 922.9581 925.0770 925.0770 925.4483 925.7732 925.7732 925.8925

          k = 0.0000-1.0000 0.0000 (  3282 PWs)   bands (ev):

   -63.3845 -30.2375 -30.1914 -30.1914  -6.7697   4.8301   7.5732   7.5732
    18.1299  19.1072  22.1558  28.1221  28.1221  34.6567  36.2063  40.0875
    40.0875  43.4332  46.4789  46.4789  48.1652  50.5575  50.5575  52.0974
    52.8322  58.3572  58.3572  59.9440  63.6095  67.4326  70.3015  71.8288
    72.7530  74.6323  74.6323  76.0061  76.0156  79.7831  84.0814  84.0814
    84.9107  84.9107  85.9185  88.9953  96.4663  98.1669  98.1669 100.0309
   100.0309 105.3045 105.3045 106.7897 108.0733 109.0830 110.7562 111.5888
   111.5888 111.7080 113.7432 116.2602 118.4401 118.4401 119.1636 119.1636
   120.3051 120.4608 120.6309 125.5959 127.7068 128.2946 132.1526 135.3578
   135.3578 136.5337 136.5337 137.2714 139.0382 139.0382 139.2436 140.8069
   143.3425 143.8394 144.1548 144.1548 144.4372 148.3634 148.6199 148.6199
   148.6593 148.6593 154.8320 154.8320 155.3550 155.3820 159.5933 162.7346
   165.1925 165.1925 165.8475 170.4698 171.3028 171.3028 172.5026 172.9719
   175.4217 175.4217 176.5626 178.8587 179.4239 179.4239 179.4343 179.8325
   180.0956 180.2872 180.2872 181.4569 183.7749 190.3929 190.3929 192.4530
   196.7940 196.8644 196.8644 198.7019 201.0750 201.0750 204.2918 204.4778
   204.5426 205.4316 205.5882 206.5028 206.5028 208.4255 208.4255 212.4017
   213.7885 217.2896 217.6511 218.4787 219.4403 219.4403 219.9846 220.2710
   221.4829 221.4829 221.6756 221.6756 222.9112 222.9787 224.0964 224.8372
   224.8372 233.3405 233.3405 234.5982 235.1548 236.8527 237.3573 237.3573
   238.7893 241.0713 241.2305 241.2305 241.2630 241.6003 241.6003 241.9020
   242.6033 243.0910 243.0910 243.7644 244.0590 244.0590 244.3985 244.7466
   244.8776 244.9801 244.9801 246.4201 246.5718 250.5412 252.3142 253.3760
   253.3760 254.8608 254.9458 255.3101 255.3101 255.6789 260.2757 260.2757
   265.6096 267.4208 268.5365 268.5860 268.5860 271.5797 274.3013 275.0842
   275.0842 275.2862 275.2862 276.1844 276.4868 276.6451 279.6267 280.5641
   280.6025 280.6025 280.6960 281.6269 281.6269 282.5141 283.1789 283.1789
   283.9961 285.5755 285.5755 285.6312 285.9714 286.6620 286.6620 287.3770
   291.4322 291.6517 298.2095 304.2832 309.3333 309.3333 311.2569 313.2597
   313.3198 313.3198 313.7085 313.9403 314.7490 314.7490 315.3059 318.9188
   318.9188 319.2540 319.2540 319.5815 320.2645 320.2645 320.4404 320.6920
   320.7913 321.1547 321.1547 321.3826 321.7737 323.8747 323.8747 326.3872
   326.3993 332.4446 334.3634 334.3634 335.6284 336.3708 336.6358 336.6358
   337.7697 337.7697 337.9641 337.9686 338.7936 340.5035 340.6428 340.6970
   340.6970 342.1652 342.1652 343.6822 343.9813 344.2198 344.2198 344.3273
   344.3969 344.5552 344.9530 344.9530 345.3168 348.6504 348.8551 348.8551
   349.2663 349.4995 349.9163 349.9163 350.1046 355.7672 357.0504 357.0674
   357.3229 357.3229 357.4741 357.4741 357.8367 357.8910 365.7918 368.5930
   368.9759 368.9759 371.7159 371.7159 374.1269 374.1363 374.3839 374.5480
   374.6378 375.4496 375.4496 376.7503 376.7503 377.4619 377.4619 377.7619
   378.2770 378.3331 378.3331 381.4538 381.5486 381.6067 381.6505 381.6612
   381.6612 381.7032 381.7032 382.3193 384.7776 384.7886 388.6643 388.6643
   389.3164 389.3295 392.6027 392.6027 392.7375 392.7375 394.0203 394.0284
   397.1807 401.7929 403.1001 405.0593 405.0593 407.2723 409.5404 410.5165
   410.5165 410.6916 410.7845 410.7845 410.9764 411.3047 411.4001 411.6165
   411.7688 412.3239 412.3239 412.4354 412.5346 412.5346 412.9078 414.3754
   414.3754 414.7673 415.3326 418.6585 418.7607 418.7607 418.9188 422.8987
   423.0684 423.2454 423.2454 423.3313 423.3313 423.4316 423.6735 425.5187
   425.5217 425.5217 425.5327 425.8290 428.4379 428.4379 431.3275 432.7844
   434.2692 443.4002 443.4002 443.9102 443.9102 444.2849 444.4440 444.4440
   444.5066 444.5486 444.5486 444.8365 446.0781 447.5433 447.9781 447.9781
   448.1253 449.4352 449.6332 449.7192 449.7192 450.8562 450.8772 450.9207
   451.4112 452.8521 452.8698 452.8698 453.1866 453.1890 453.1890 453.1975
   454.0610 454.0610 454.1889 454.1889 454.4069 454.4360 454.6995 455.5954
   455.6895 455.6895 455.9042 459.4399 459.7792 459.7792 460.0124 460.6916
   460.7191 460.7191 460.7556 461.6881 469.4235 472.4089 472.4089 475.6022
   475.6022 476.6181 476.6686 481.3073 481.4836 482.1750 482.1750 482.2184
   482.2184 482.4917 482.9296 482.9449 484.3105 484.3105 486.2895 486.8205
   486.8570 486.8570 486.9775 489.0186 497.3890 498.7177 498.7177 502.8172
   505.8310 505.8310 506.3974 506.5031 506.5031 507.0616 509.1458 510.1143
   511.0058 511.0058 511.3858 511.3858 512.0401 512.7438 513.1915 513.1915
   513.8423 513.9119 515.5485 516.8934 516.9941 516.9941 517.2302 517.3273
   517.4702 517.4702 517.6126 519.2500 520.1327 520.1327 521.3896 522.5098
   522.5686 522.6278 522.7197 522.7197 522.7222 522.7222 522.9893 523.6554
   523.7388 523.7388 524.0060 526.6877 527.8613 527.8613 527.9784 528.0397
   528.4221 528.4221 528.4308 528.4308 528.7799 528.8414 530.4833 531.0525
   535.7731 536.8399 536.9431 542.2377 542.2377 542.9575 542.9575 544.7068
   544.9018 546.9952 546.9952 547.4491 548.2852 548.3052 548.8940 548.8940
   548.9683 548.9683 549.0681 549.0681 549.3548 549.5014 549.5093 549.5558
   549.6773 550.1930 550.6684 550.6684 550.9754 550.9754 551.3060 551.3414
   551.4643 553.5855 553.6311 553.6311 553.6326 554.4530 554.5846 554.6250
   554.6250 554.9071 555.3648 555.3648 555.9630 558.7982 558.7982 558.8007
   558.8007 561.2261 562.9681 562.9902 563.0492 563.0492 563.0726 563.0726
   563.1395 563.1396 565.7791 565.7810 572.4902 572.4902 575.4733 575.7391
   576.0762 576.0762 576.2085 576.5140 576.9671 578.9113 578.9113 579.1717
   579.1717 579.7037 579.7378 582.7432 584.3572 585.1084 585.1084 585.9886
   585.9953 586.4871 586.4871 586.4887 586.4887 586.7560 586.7560 586.9603
   586.9771 587.1409 587.1564 587.4037 587.5240 587.5240 587.5691 588.7855
   588.8263 588.8263 588.8497 590.9700 594.1468 594.1538 594.2857 594.2857
   594.3456 594.3456 594.5200 594.5573 603.6288 603.6288 605.3178 608.3565
   608.3565 608.6333 608.9972 612.6908 613.6945 613.9783 613.9783 614.3462
   614.3462 614.4427 614.4903 614.7619 616.9578 616.9578 617.1016 617.1016
   617.5145 622.0551 622.0702 622.0898 622.1265 622.1265 623.2859 623.3963
   623.5006 623.5006 623.5780 623.9134 624.1437 624.1437 624.2897 624.4126
   624.9865 625.3527 625.3527 625.3651 625.3651 625.6082 625.6928 628.3032
   628.3032 628.3097 628.3200 629.0802 629.1186 629.2051 632.0954 632.0954
   632.0969 632.0969 633.4443 633.4479 638.9971 638.9971 639.1021 642.8260
   642.8726 642.8726 642.9195 648.7289 648.8155 648.8155 649.3389 649.4816
   649.7190 649.9948 649.9948 650.6115 651.8819 651.8819 652.0620 652.3837
   652.5913 652.5913 652.5939 652.9137 654.5025 654.5025 655.0939 655.2097
   655.2889 655.2889 655.3363 655.3363 655.4602 655.4650 656.2285 656.9684
   657.2797 657.2999 657.2999 658.2637 662.3731 662.3731 662.4324 662.6941
   663.5597 663.5712 663.5712 663.5839 667.5711 671.7193 671.7193 673.8731
   674.5856 674.5856 675.6228 675.7676 678.4867 678.4867 678.5723 678.7855
   679.6636 680.1979 683.4670 683.7856 683.7856 683.9130 683.9130 684.1611
   684.6970 684.6970 684.7158 684.7296 684.9935 686.5117 686.9698 686.9698
   687.0766 687.2550 688.5658 691.2985 691.2985 691.2988 691.3034 691.8760
   691.9072 691.9072 691.9301 692.1910 692.1910 692.7680 692.7680 693.4929
   693.5419 694.6069 698.5627 698.5627 698.5864 698.6377 705.7028 710.4441
   710.7793 710.7793 711.3112 711.3519 711.3519 711.7643 712.0835 712.2427
   712.2427 715.4150 716.1132 716.1132 717.0441 717.1027 717.3770 718.7481
   718.7481 719.0550 719.0550 721.9644 722.2398 722.2398 722.4445 722.6294
   722.7087 723.0054 723.0054 723.1644 724.6619 724.6643 724.7530 724.7752
   725.5507 725.5507 725.9241 725.9241 726.8030 728.2816 732.4657 732.5361
   732.5361 732.6906 733.3234 733.5025 733.5025 733.6545 733.9086 733.9772
   733.9772 734.0505 734.3875 734.4068 734.4068 734.4400 743.3481 743.3481
   743.7240 746.6402 746.6402 746.9827 747.0110 750.4347 750.9061 751.0033
   751.1408 751.1408 751.4331 751.6435 751.7086 751.7086 751.8921 752.2435
   752.2435 752.3100 752.6649 752.6649 752.6759 752.8900 752.8900 753.3421
   753.7256 753.8807 753.9093 754.1232 754.1232 754.1930 754.3558 754.3558
   754.5312 754.5312 754.8682 754.9541 755.0142 755.0532 755.0713 755.0713
   755.2124 755.3102 755.3102 755.4150 755.4150 755.4955 756.0042 756.1244
   756.1643 756.2407 756.2893 756.5142 756.5142 756.5224 756.5224 756.6070
   756.6165 757.6472 757.7602 757.8238 757.8238 759.3889 759.3889 759.4682
   759.6412 760.2123 761.1217 761.1217 761.1451 761.5968 765.0063 765.0343
   765.0343 765.0829 765.4105 765.4233 765.4233 765.4618 767.6409 767.6444
   768.0101 768.0101 768.0137 768.0137 768.3666 768.3776 787.0452 787.0452
   787.2263 787.6883 787.6883 787.7898 787.8161 788.6203 788.6355 788.7474
   788.7474 788.7662 788.7662 788.8218 788.8281 788.8681 791.8563 791.8563
   792.6264 794.1912 794.2759 794.2759 794.5354 794.7701 795.0428 795.0428
   795.0970 795.3053 795.5233 795.5233 795.8788 796.5491 796.7030 796.7519
   796.7519 796.8931 797.3044 797.4814 797.4814 797.5131 797.6363 797.6484
   797.6484 797.8229 797.9280 798.0701 798.0701 798.1848 814.1564 816.7582
   816.7582 817.9390 818.3944 818.3944 819.0481 819.3415 819.3415 819.3772
   819.6060 819.8458 819.8458 820.4884 820.5542 820.6143 822.4765 822.6168
   822.6168 823.3834 823.4700 823.5002 823.5002 823.8184 823.9632 824.9826
   824.9826 825.3207 825.3208 826.1388 826.1388 826.3953 826.3953 826.6660
   826.6661 828.2318 833.1808 833.1808 833.9943 834.0025 834.1146 834.1146
   834.1453 834.1453 834.2073 834.2370 836.5675 836.5682 836.5682 836.5800
   836.5845 836.5845 836.5924 836.5933 837.5783 838.7337 839.2136 839.7897
   840.7055 840.7055 841.2525 841.6885 846.7890 848.1021 848.1021 848.6162
   848.6207 848.6207 848.6558 850.6571 854.2459 854.4448 854.4448 854.6152
   855.7519 855.8093 856.0240 856.0240 856.0411 856.0411 856.4773 856.4869
   857.9595 857.9759 858.3498 858.3498 858.3503 858.3503 858.6612 858.6841
   859.7822 859.8380 859.8380 859.8721 860.5704 860.6378 860.8684 860.8684
   860.9437 860.9437 861.0608 861.0637 861.1139 861.1139 861.2921 861.3060
   862.5252 862.5252 863.2560 863.5017 863.5298 863.5298 863.5574 863.9102
   865.2972 865.3930 865.3930 865.4073 866.5708 866.5708 866.5773 866.5773
   873.6446 873.6455 881.9692 881.9692 882.9818 883.4938 883.5256 883.5256
   883.5279 884.0788 887.8642 888.4338 888.4338 888.7963 889.0435 889.0435
   889.2805 889.3797 889.6166 889.6166 889.8679 889.9138 890.1035 890.2032
   890.2032 890.3025 892.3217 892.3217 894.2625 894.4159 894.4608 894.4608
   894.5178 895.4304 895.5401 895.5497 895.5497 895.5837 896.7109 896.7195
   896.7195 896.7244 896.7869 897.6479 897.6479 897.8829 898.1169 898.3444
   898.3444 898.5411 899.4755 899.4755 899.6751 899.7741 899.7857 899.9866
   899.9866 900.1217 916.2405 919.3612 919.5208 919.5208 920.3192 920.6337
   920.7974 920.7974 920.8839 921.0457 921.8655 921.8655 922.1081 922.2065
   922.2065 922.2430 922.2996 922.7253 923.1925 923.1925 923.6175 923.6175
   925.3397 925.6464 925.6464 925.9070 925.9705 926.1779 926.1779 926.9894
   927.7495 927.7937 927.7937 927.8322 927.9669 928.0217 928.0217 928.0667

     the Fermi energy is    10.1353 ev
     (compare with:    11.0099 eV, computed in scf)

     Writing all to output data dir out/mp-1265.save/
 
     init_run     :      0.05s CPU      0.09s WALL (       1 calls)
     electrons    :    367.62s CPU    396.87s WALL (       1 calls)

     Called by init_run:
     wfcinit      :      0.00s CPU      0.00s WALL (       1 calls)
     potinit      :      0.01s CPU      0.01s WALL (       1 calls)
     hinit0       :      0.01s CPU      0.04s WALL (       1 calls)

     Called by electrons:
     c_bands      :    367.62s CPU    396.87s WALL (       1 calls)
     v_of_rho     :      0.01s CPU      0.01s WALL (       1 calls)

     Called by c_bands:
     init_us_2    :      0.00s CPU      0.00s WALL (       3 calls)
     init_us_2:cp :      0.00s CPU      0.00s WALL (       3 calls)
     cegterg      :    359.95s CPU    388.70s WALL (       3 calls)

     Called by *egterg:
     cdiaghg      :    343.00s CPU    371.55s WALL (      23 calls)
     h_psi        :      5.98s CPU      6.16s WALL (      26 calls)
     g_psi        :      0.04s CPU      0.04s WALL (      20 calls)

     Called by h_psi:
     h_psi:calbec :      0.06s CPU      0.07s WALL (      26 calls)
     vloc_psi     :      5.84s CPU      6.01s WALL (      26 calls)
     add_vuspsi   :      0.04s CPU      0.04s WALL (      26 calls)

     General routines
     calbec       :      0.06s CPU      0.07s WALL (      26 calls)
     fft          :      0.00s CPU      0.03s WALL (      10 calls)
     fftw         :      5.30s CPU      5.45s WALL (   42050 calls)
 
     Parallel routines
 
     PWSCF        :   6m 8.11s CPU   6m37.57s WALL

 
   This run was terminated on:  15:12:49  15Nov2023            

=------------------------------------------------------------------------------=
   JOB DONE.
=------------------------------------------------------------------------------=
