
     Program PWSCF v.7.1 starts on 15Nov2023 at 19:45:42 

     This program is part of the open-source Quantum ESPRESSO suite
     for quantum simulation of materials; please cite
         "P. Giannozzi et al., J. Phys.:Condens. Matter 21 395502 (2009);
         "P. Giannozzi et al., J. Phys.:Condens. Matter 29 465901 (2017);
         "P. Giannozzi et al., J. Chem. Phys. 152 154105 (2020);
          URL http://www.quantum-espresso.org", 
     in publications or presentations arising from this work. More details at
     http://www.quantum-espresso.org/quote

     Parallel version (MPI), running on    24 processors

     MPI processes distributed on     1 nodes
     123244 MiB available memory on the printing compute node when the environment starts
 
     Reading input from pw_mp-1265_nscf_k690_E134.in
Warning: card &IONS ignored
Warning: card / ignored
Warning: card &CELL ignored
Warning: card / ignored

     Current dimensions of program PWSCF are:
     Max number of different atomic species (ntypx) = 10
     Max number of k-points (npk) =  40000
     Max angular momentum in pseudopotentials (lmaxx) =  4

     Atomic positions and unit cell read from directory:
     out/mp-1265.save/
     Atomic positions from file used, from input discarded
 
 
     K-points division:     npool     =       2
     R & G space division:  proc/nbgrp/npool/nimage =      12
     Subspace diagonalization in iterative solution of the eigenvalue problem:
     one sub-group per band group will be used
     scalapack distributed-memory algorithm (size of sub-group:  3*  3 procs)

 
     Parallelization info
     --------------------
     sticks:   dense  smooth     PW     G-vecs:    dense   smooth      PW
     Min          96      96     29                 2184     2184     356
     Max          97      97     30                 2187     2187     359
     Sum        1159    1159    349                26229    26229    4279
 
     Using Slab Decomposition
 


     bravais-lattice index     =            2
     lattice parameter (alat)  =       7.9255  a.u.
     unit-cell volume          =     124.4580 (a.u.)^3
     number of atoms/cell      =            2
     number of atomic types    =            2
     number of electrons       =        16.00
     number of Kohn-Sham states=         1200
     kinetic-energy cutoff     =     134.0000  Ry
     charge density cutoff     =     536.0000  Ry
     Exchange-correlation= PBE
                           (   1   4   3   4   0   0   0)

     celldm(1)=   7.925516  celldm(2)=   0.000000  celldm(3)=   0.000000
     celldm(4)=   0.000000  celldm(5)=   0.000000  celldm(6)=   0.000000

     crystal axes: (cart. coord. in units of alat)
               a(1) = (  -0.500000   0.000000   0.500000 )  
               a(2) = (   0.000000   0.500000   0.500000 )  
               a(3) = (  -0.500000   0.500000   0.000000 )  

     reciprocal axes: (cart. coord. in units 2 pi/alat)
               b(1) = ( -1.000000 -1.000000  1.000000 )  
               b(2) = (  1.000000  1.000000  1.000000 )  
               b(3) = ( -1.000000  1.000000 -1.000000 )  


     PseudoPot. # 1 for Mg read from file:
     /usr/scratch4/magr4985/MG/HTDF/pseudo/SG15/Mg.upf
     MD5 check sum: 330956729b1f868fdecd9f5113f6a961
     Pseudo is Norm-conserving, Zval = 10.0
     Generated using ONCVPSP code by D. R. Hamann
     Using radial grid of  602 points,  4 beta functions with: 
                l(1) =   0
                l(2) =   0
                l(3) =   1
                l(4) =   1

     PseudoPot. # 2 for O  read from file:
     /usr/scratch4/magr4985/MG/HTDF/pseudo/SG15/O.upf
     MD5 check sum: e36c48deb68f4e355fffe4602be2c42c
     Pseudo is Norm-conserving, Zval =  6.0
     Generated using ONCVPSP code by D. R. Hamann
     Using radial grid of  602 points,  4 beta functions with: 
                l(1) =   0
                l(2) =   0
                l(3) =   1
                l(4) =   1

     atomic species   valence    mass     pseudopotential
        Mg            10.00    24.30500     Mg( 1.00)
        O              6.00    15.99940     O ( 1.00)

     48 Sym. Ops., with inversion, found



   Cartesian axes

     site n.     atom                  positions (alat units)
         1           Mg  tau(   1) = (   0.0000000   0.0000000   0.0000000  )
         2           O   tau(   2) = (  -0.5000000   0.5000000   0.5000000  )

     number of k points=    29  Gaussian smearing, width (Ry)=  0.0005
                       cart. coord. in units 2pi/alat
        k(    1) = (   0.0000000   0.0000000   0.0000000), wk =   0.0039062
        k(    2) = (  -0.1250000   0.1250000  -0.1250000), wk =   0.0312500
        k(    3) = (  -0.2500000   0.2500000  -0.2500000), wk =   0.0312500
        k(    4) = (  -0.3750000   0.3750000  -0.3750000), wk =   0.0312500
        k(    5) = (   0.5000000  -0.5000000   0.5000000), wk =   0.0156250
        k(    6) = (   0.0000000   0.2500000   0.0000000), wk =   0.0234375
        k(    7) = (  -0.1250000   0.3750000  -0.1250000), wk =   0.0937500
        k(    8) = (  -0.2500000   0.5000000  -0.2500000), wk =   0.0937500
        k(    9) = (   0.6250000  -0.3750000   0.6250000), wk =   0.0937500
        k(   10) = (   0.5000000  -0.2500000   0.5000000), wk =   0.0937500
        k(   11) = (   0.3750000  -0.1250000   0.3750000), wk =   0.0937500
        k(   12) = (   0.2500000   0.0000000   0.2500000), wk =   0.0468750
        k(   13) = (   0.0000000   0.5000000   0.0000000), wk =   0.0234375
        k(   14) = (  -0.1250000   0.6250000  -0.1250000), wk =   0.0937500
        k(   15) = (   0.7500000  -0.2500000   0.7500000), wk =   0.0937500
        k(   16) = (   0.6250000  -0.1250000   0.6250000), wk =   0.0937500
        k(   17) = (   0.5000000   0.0000000   0.5000000), wk =   0.0468750
        k(   18) = (   0.0000000   0.7500000   0.0000000), wk =   0.0234375
        k(   19) = (   0.8750000  -0.1250000   0.8750000), wk =   0.0937500
        k(   20) = (   0.7500000   0.0000000   0.7500000), wk =   0.0468750
        k(   21) = (   0.0000000  -1.0000000   0.0000000), wk =   0.0117188
        k(   22) = (  -0.2500000   0.5000000   0.0000000), wk =   0.0937500
        k(   23) = (   0.6250000  -0.3750000   0.8750000), wk =   0.1875000
        k(   24) = (   0.5000000  -0.2500000   0.7500000), wk =   0.0937500
        k(   25) = (   0.7500000  -0.2500000   1.0000000), wk =   0.0937500
        k(   26) = (   0.6250000  -0.1250000   0.8750000), wk =   0.1875000
        k(   27) = (   0.5000000   0.0000000   0.7500000), wk =   0.0937500
        k(   28) = (  -0.2500000  -1.0000000   0.0000000), wk =   0.0468750
        k(   29) = (  -0.5000000  -1.0000000   0.0000000), wk =   0.0234375

     Dense  grid:    26229 G-vectors     FFT dimensions: (  45,  45,  45)

     Estimated max dynamical RAM per process >     130.86 MB

     Estimated total dynamical RAM >       3.07 GB

     The potential is recalculated from file :
     out/mp-1265.save/charge-density

     Starting wfcs are random

     Band Structure Calculation
     Davidson diagonalization with overlap

     ethr =  5.00E-06,  avg # of iterations =  7.1

     total cpu time spent up to now is     1365.5 secs

     End of band structure calculation

          k = 0.0000 0.0000 0.0000 (  3287 PWs)   bands (ev):

   -63.3967 -30.1616 -30.1616 -30.1616  -8.3447   8.9260   8.9260   8.9260
    13.8206  24.9023  24.9023  24.9023  28.7412  30.7343  30.7343  33.5287
    33.5287  33.5287  47.5950  47.5950  47.5950  48.3823  59.6611  59.6611
    59.6611  65.1857  65.1857  66.2886  66.2886  66.2886  70.3137  75.1142
    75.1142  82.4434  82.4434  82.4434  82.9519  82.9519  82.9519  89.5790
    89.5790  89.5790  91.1255  91.1255  91.1255  92.7712  92.7712  92.7712
    92.9551  95.4814  95.4814  95.4814  96.4634  96.4634  96.5430  96.5430
    96.5430  97.8484  98.4906 106.7197 106.7197 106.7197 121.2872 121.2872
   121.2872 121.9944 121.9944 127.0546 142.1512 142.1512 142.1512 143.2827
   143.2827 143.2827 145.0968 151.3021 151.3021 152.4492 152.4492 152.4492
   155.9092 155.9092 155.9092 156.0360 157.8310 157.8310 160.4810 160.4810
   160.4810 161.9231 161.9231 161.9231 162.1585 162.1585 162.1585 163.0795
   163.0795 163.0795 163.0922 163.0922 164.8509 164.8509 164.8509 166.3595
   167.0487 167.0487 167.0487 168.5692 168.5692 169.8424 169.8424 169.8424
   170.6547 182.6246 182.6246 182.6246 187.8782 187.8782 187.8782 191.8534
   191.8534 191.8534 192.8135 197.0891 199.4591 199.4591 201.1665 201.1665
   201.1665 201.4085 201.4085 201.4085 201.9674 201.9674 201.9674 202.0142
   202.0142 202.0142 202.0458 202.0458 202.5018 202.5018 218.7474 218.7474
   218.7474 218.9974 219.0375 219.0375 219.0375 222.5623 225.5925 225.5925
   225.5925 226.1876 226.1876 226.1876 227.4625 227.4625 227.4625 227.5824
   227.8807 227.8807 227.8807 232.4407 232.4407 232.4983 232.4983 232.4983
   232.6009 242.5009 242.5009 242.5009 258.8743 258.8743 258.8743 260.8236
   260.8236 260.8236 262.5813 262.5813 263.7766 263.7766 263.7766 267.7392
   275.3089 275.3089 275.3089 278.5902 278.5902 280.8358 280.8358 280.8358
   280.8424 280.8424 280.8424 288.0085 288.0085 288.0085 288.4966 288.9613
   288.9613 289.8913 289.8913 289.8913 290.4964 291.3856 291.3856 291.6105
   291.6105 291.6105 293.0955 293.0955 293.0955 294.5812 294.6537 295.0393
   295.0393 295.0393 295.0461 295.0461 295.0461 296.3784 296.3784 297.3991
   297.3991 297.3991 297.7849 298.2611 298.2611 298.2611 299.1671 299.1671
   299.1671 299.7638 299.7638 299.7638 299.8527 299.8527 300.4073 300.4073
   300.4073 300.7407 303.2080 303.2080 303.2080 303.8110 303.8110 303.8124
   303.8124 303.8124 304.4869 304.4869 304.4869 304.7584 304.7584 304.7584
   304.7859 304.7859 310.6753 323.0290 323.0290 323.0290 325.9836 325.9836
   332.9035 332.9035 332.9035 332.9290 332.9290 332.9290 333.3452 333.3452
   333.3452 333.8266 333.8266 333.8266 337.8224 339.6956 339.6956 339.7795
   339.7795 339.7795 340.0191 343.2647 343.2647 343.2647 351.1669 351.1669
   351.1669 352.0153 361.5248 362.4112 362.4112 362.4699 362.4699 362.4699
   363.2137 363.2137 363.2137 363.2224 363.2224 363.2224 363.4355 363.4355
   363.4355 363.5537 363.5537 363.5537 363.6139 363.6139 368.1586 368.1586
   368.1586 368.8290 368.8290 369.4939 369.5082 369.5082 369.5082 369.7927
   369.7927 369.7927 370.1314 370.1314 370.1314 370.7691 370.7691 370.7691
   371.0052 371.0052 376.4916 390.2289 390.2289 390.2289 397.9828 397.9828
   397.9828 401.1707 401.1707 401.1707 401.7119 402.7511 402.7511 405.5763
   416.5270 416.5270 416.5270 417.3399 417.3399 417.3399 417.7568 418.2192
   418.2192 418.2192 419.9376 419.9376 419.9376 420.3058 420.3058 428.3722
   428.3722 428.3722 429.3754 429.3754 429.4553 429.4553 429.4553 429.6036
   430.6022 430.6022 430.6022 430.9280 430.9280 430.9280 431.1208 431.1208
   431.1208 431.3405 431.3405 431.3405 433.2597 433.9649 433.9649 433.9649
   434.4709 434.4709 434.4709 434.7391 434.7391 434.7850 434.7850 434.7850
   437.6042 437.6042 437.6063 437.6063 437.6063 437.6176 438.7831 438.7831
   438.7831 438.8332 438.8332 439.5566 439.5566 439.5566 439.9354 439.9354
   439.9354 440.1675 445.6191 459.1952 459.1952 459.1952 462.6981 462.7378
   462.7378 462.7378 468.3272 468.3272 468.6565 468.6565 468.6565 468.8014
   468.8014 468.8014 469.3521 469.3521 469.3521 469.6594 469.6594 469.6594
   469.7147 469.7147 469.7147 470.0427 470.0427 474.8758 474.8758 475.2295
   475.2295 475.2295 475.3925 475.3925 475.3925 475.6139 475.6139 475.6139
   475.6220 475.6220 475.6220 475.7670 475.8578 475.8578 477.1540 477.3550
   477.3550 477.3550 477.5752 477.5752 477.5752 477.7861 482.0659 482.0659
   482.0659 483.0682 483.0682 486.1129 486.1710 486.1710 486.1710 487.6372
   487.6372 487.6372 489.2045 489.2045 489.2045 491.9819 491.9819 491.9819
   493.3700 493.9676 493.9676 493.9676 494.6011 494.6011 495.2596 495.2596
   495.2596 495.8930 499.0875 499.0875 500.0230 500.0230 500.0230 500.2187
   500.2187 500.2187 500.3008 500.3008 500.3008 501.3784 501.3784 501.3795
   501.3795 501.3795 501.8850 502.1686 502.1686 502.1897 502.1897 502.1897
   503.8870 503.8870 503.8870 504.0391 504.0391 504.0391 504.2427 504.2427
   504.2427 504.3577 504.3577 504.3577 505.2827 505.2827 505.2891 505.2891
   505.2891 505.3099 507.0551 522.1842 522.1842 522.1842 528.3963 528.3963
   537.5225 553.2594 553.2594 553.2594 559.0564 559.0564 559.0564 561.2706
   561.2706 561.2706 562.6473 563.3024 563.3024 564.5026 564.5026 564.5026
   564.9871 564.9871 564.9871 565.0244 565.0244 565.0244 565.3420 565.3420
   565.3604 565.3604 565.3604 565.5617 565.5982 565.5982 565.5982 565.9044
   565.9044 566.2522 566.2522 566.2522 567.5605 570.2403 571.4075 571.4075
   571.4075 571.8598 571.8598 571.8598 572.3173 572.3173 572.3173 572.7476
   572.7476 572.7476 577.1653 577.1653 577.2576 577.2576 577.2802 577.2802
   577.2802 577.3751 577.3751 577.3751 577.4077 577.4077 577.4077 577.6264
   577.6264 577.6264 578.8509 578.9885 578.9885 579.0742 579.0742 579.0742
   579.2782 599.2478 599.2478 599.2478 602.3949 602.3949 602.3949 602.7947
   602.7947 602.8076 602.8076 602.8076 606.3192 606.3192 606.3192 608.4093
   608.4093 608.4702 608.4702 608.4702 608.7719 608.8355 608.8355 608.8355
   609.4333 609.4333 609.4333 609.7755 609.7755 609.7755 609.8850 610.0567
   610.0567 610.0632 610.0632 610.0632 610.0705 610.0705 610.0705 613.3203
   617.1678 617.1678 617.1678 618.2412 618.2412 618.2942 618.2942 618.2942
   629.9153 630.7631 631.3567 631.3567 631.3567 631.5818 631.5818 631.5818
   631.8689 631.8689 632.1838 632.1838 632.1838 632.3857 632.3857 632.3857
   632.6734 632.6734 632.6734 633.1454 634.7450 637.9978 637.9978 637.9978
   638.0138 638.0138 638.0678 638.0678 638.0678 638.4046 638.4046 638.4046
   638.4107 638.4107 638.4107 638.5656 641.0524 641.0524 641.0524 641.1250
   641.1250 641.1250 641.1409 641.1409 641.2205 641.2205 641.2205 641.3618
   641.3618 641.3618 641.5143 641.7721 641.7721 641.7721 641.8138 641.8138
   642.2960 643.0750 643.0750 643.0750 643.5110 643.5110 643.5110 643.7948
   643.7948 643.8339 643.8339 643.8339 646.0440 668.7064 668.7064 668.7064
   672.0177 672.0177 672.1538 672.1538 672.1538 673.8177 673.8177 673.8177
   673.8930 673.8930 673.8930 674.0332 674.0332 674.0332 674.1321 674.1321
   674.1321 675.3208 675.3208 675.5105 675.5105 675.5105 675.9378 676.9895
   676.9895 678.8206 684.2901 689.7621 689.7621 689.7621 691.4745 691.4745
   691.4745 691.6891 698.0208 698.0208 698.0208 698.6608 698.6608 698.6608
   698.8155 698.8155 698.8155 698.8901 698.8901 699.0122 699.0122 699.0122
   699.3130 699.3130 701.1383 702.8726 702.8726 702.8726 704.1195 704.1195
   704.1195 704.1585 704.1585 704.1585 704.3913 704.3913 704.3913 704.5239
   704.5239 704.5239 705.7684 705.7684 705.9423 705.9423 705.9423 705.9647
   705.9647 706.0024 706.0024 706.0024 706.0064 706.0064 706.0064 706.0792
   706.0792 706.0792 706.2119 706.2119 706.2119 706.3295 707.5177 707.5177
   707.6027 707.6027 707.6027 707.9151 707.9151 707.9151 707.9673 707.9673
   707.9673 708.0744 708.1209 708.1209 708.1209 708.1342 708.1342 708.1342
   708.1396 708.3029 708.3029 708.3029 708.4557 708.4557 711.2097 711.2169
   711.2169 711.2169 711.2211 711.2211 712.3364 714.0422 714.0422 714.1699
   714.1699 714.1699 714.6462 714.6462 714.6462 714.6667 714.6793 714.6793
   714.6793 714.8683 714.8683 714.8683 715.0072 715.0072 715.0072 715.2718
   715.2718 715.3374 715.3374 715.3374 715.3879 734.8166 734.8166 734.8166
   736.1103 736.1841 736.1841 736.1841 739.3074 748.1606 748.1606 748.1606
   748.1953 748.1953 748.2438 748.2438 748.2438 748.3121 748.3121 748.3121
   748.4363 748.4363 748.4452 748.4452 748.4452 753.7621 753.7621 753.7621
   756.7469 756.7469 761.5242 761.5242 761.5242 761.7819 761.7819 761.7819
   761.8005 761.8005 761.8005 762.0537 762.0537 762.0537 762.7271 768.7399
   768.7399 768.8662 768.8662 768.8662 769.0389 774.3035 774.3035 774.3035
   774.3124 774.3285 774.3285 777.3908 777.3908 777.3908 777.4049 777.4049
   777.4049 777.4454 777.4454 777.4454 777.4677 777.4677 777.4677 778.7857
   778.7857 778.8066 778.8066 778.8066 778.8356 807.0579 807.0579 807.0579
   810.8131 810.8131 810.8131 811.4362 811.9821 811.9821 812.3296 812.3296
   812.3296 812.5956 812.5956 812.5956 812.8068 812.8068 812.8068 812.9569
   812.9569 812.9569 813.1544 813.1544 813.7885 817.9468 817.9468 817.9468
   823.9519 823.9519 823.9519 826.7860 826.9336 826.9336 826.9420 826.9420
   826.9420 828.9750 830.2784 830.2784 830.2784 830.4254 830.4254 830.4254
   833.0291 833.0291 833.0291 833.3839 835.3737 835.3737 836.7226 836.7226
   836.7226 837.1497 837.1497 837.1497 837.2242 837.2242 837.6150 837.6150
   837.6150 837.7391 837.7391 837.7572 837.7572 837.7572 838.5840 838.5840
   838.5840 838.7009 838.7009 838.7009 838.9221 838.9862 838.9862 838.9862
   838.9939 838.9939 839.8858 839.9670 839.9670 839.9670 840.0261 840.0261
   840.0261 840.2095 842.0296 843.0913 843.0913 843.0913 843.1652 843.1652
   843.1955 843.1955 843.1955 843.3650 843.3650 843.3650 843.4026 843.4026
   843.4133 843.4133 843.4133 845.1267 845.1294 845.1294 845.1294 845.1502
   845.1502 845.1502 845.1997 845.1997 845.2012 845.2012 845.2012 849.5691
   849.5691 849.5691 849.6357 849.6357 849.6357 849.7248 849.7248 849.7248
   849.7442 849.7442 849.8382 870.8365 870.8365 870.8365 872.2581 872.2581
   873.9293 876.4322 876.4322 876.4322 876.7568 876.7568 876.7568 877.7476
   877.7476 877.7476 877.7897 878.6095 878.6095 878.8000 878.8000 878.8000
   879.0244 879.0244 879.0244 879.3649 879.3649 879.3649 879.3720 879.5925
   879.5925 880.1588 880.1588 880.1588 880.5213 880.5213 880.5213 880.5764
   880.5764 880.5764 881.0226 881.0226 881.0226 884.9076 884.9076 885.1196
   885.1364 885.1364 885.1364 885.2212 885.2212 885.2212 885.3788 885.3788
   885.3788 885.6247 885.6247 885.6703 885.6703 885.6703 885.8716 885.8717
   885.8717 885.9270 885.9310 885.9310 885.9310 887.1174 887.1174 887.1518
   887.1518 887.1518 887.2133 893.6262 893.6262 893.6262 896.7105 896.7105
   896.7105 897.0692 897.0692 897.1537 897.1537 897.1537 899.2060 899.6538
   899.6538 899.6538 899.9200 899.9200 900.0868 900.0868 900.0868 900.6984
   900.6984 900.6984 901.0428 904.9011 905.5113 905.5113 905.5113 906.1222
   906.1222 906.1222 906.8167 906.8167 906.8590 906.8590 906.8590 908.5623
   908.7630 908.7630 908.7630 909.0412 909.0412 909.0412 909.2916 909.2916
   909.2916 909.3127 909.3127 913.3111 913.3111 913.3214 913.3214 913.3214
   913.5128 913.5128 913.5128 913.6077 913.6077 913.6077 913.6741 913.6741

          k =-0.1250 0.1250-0.1250 (  3275 PWs)   bands (ev):

   -63.3953 -30.1748 -30.1629 -30.1629  -8.1730   7.9761   8.8223   8.8223
    14.7259  23.1838  25.2642  25.2642  29.7446  29.7446  30.9704  33.6924
    35.2014  35.2014  45.5740  47.4246  47.4246  50.2459  56.8370  56.8370
    60.6151  63.2458  63.2458  66.6854  70.4068  71.9711  71.9711  74.4282
    74.4282  79.5722  80.2844  80.5495  80.5495  82.4528  82.4528  84.8542
    84.8542  85.9077  89.7372  90.1776  90.1776  90.7879  92.5332  94.3993
    94.3993  96.4958  96.4958  97.4458  98.0096  98.0096  98.7885 100.9947
   103.4565 104.7436 104.7436 106.9262 106.9262 110.6368 117.9185 117.9185
   119.3168 125.0557 125.0557 126.9863 139.1331 139.2889 139.2889 140.9183
   140.9183 142.8454 146.2582 146.2582 147.7458 150.3308 150.9006 150.9006
   151.1815 151.1815 152.2574 153.0084 153.0084 155.7321 156.3054 158.4133
   158.4133 159.4315 159.4315 159.9043 162.0589 163.4372 163.4372 163.6544
   163.6544 163.9665 165.3924 165.4367 165.4367 167.7360 168.9181 168.9181
   171.1666 172.2708 174.2397 174.2397 175.5894 176.4676 176.4676 179.8037
   179.8037 180.1747 180.1747 182.4085 183.1552 183.9297 183.9297 185.4697
   185.4697 188.7650 192.6852 192.6852 193.6386 194.7751 194.7751 197.8601
   199.9699 199.9699 200.5644 202.4644 202.4644 204.1860 204.8516 206.4883
   206.4883 208.2400 210.3917 210.3917 210.6212 213.1467 213.1467 214.3815
   214.4810 214.4810 215.6463 216.3161 218.9165 218.9165 219.3363 219.3363
   221.5666 222.8297 222.8297 223.3266 227.6024 227.6024 230.8888 232.6362
   236.1034 236.1034 236.9021 236.9194 237.4943 237.4943 238.8808 238.8808
   241.3142 244.7150 244.7150 246.0744 250.9537 250.9537 253.9067 254.8903
   254.8903 261.8777 261.8777 262.8991 264.1180 264.4259 267.8120 267.8120
   271.4497 271.4497 274.8661 274.9042 274.9042 274.9580 276.5610 277.3298
   277.3298 278.3125 278.3125 279.9989 280.7896 280.7896 281.0060 283.3396
   283.3999 283.3999 283.5711 283.5711 284.1586 284.1586 284.2643 286.2764
   288.7664 288.7664 289.9043 290.9781 290.9781 292.2796 293.1425 293.1425
   293.4210 293.5029 293.5029 294.2565 295.6358 295.6358 296.5969 296.8239
   296.8239 297.1035 297.3567 297.3567 300.0459 300.3256 300.3256 301.9625
   301.9625 302.1771 303.2380 303.3144 303.3272 303.3272 304.2245 304.2245
   305.2831 307.8745 307.8745 308.6366 309.2436 309.2436 309.7267 311.3966
   311.4882 311.4882 313.6539 314.4508 314.4508 315.6648 315.6648 316.0830
   317.6169 317.6169 318.7164 318.7164 318.7708 319.2727 319.5229 322.4707
   322.4707 324.8456 325.6483 325.6483 328.9165 329.3140 329.3140 329.4622
   335.5748 335.5748 338.1194 338.1194 339.3617 340.7148 340.7148 344.2034
   344.2034 344.5474 345.2277 345.8160 348.2969 348.2969 348.9408 348.9408
   350.2178 352.0359 352.0359 353.0825 354.2534 354.2534 354.8302 354.8302
   355.2684 355.7828 355.7828 357.4833 357.4833 357.6740 358.4477 359.7178
   359.7178 359.7397 361.7726 364.5104 364.5104 366.7239 367.5853 370.0293
   370.0293 372.4454 372.8997 372.8997 374.0411 374.0411 374.3702 374.4588
   376.1169 380.2315 380.2315 382.5704 382.7772 382.7772 383.1286 383.2069
   383.2069 386.9894 386.9894 387.7597 390.5953 391.1036 391.1036 391.7120
   391.7120 395.9468 398.1386 398.1386 399.0820 403.9384 404.8339 404.8339
   407.9801 407.9801 408.9370 408.9370 413.2213 413.3864 413.7007 413.7007
   414.5801 414.5801 414.9217 415.0699 416.3094 416.3094 417.9427 417.9427
   418.9513 419.3948 419.3948 419.7912 420.8018 421.0439 421.0439 423.8142
   423.8142 424.1708 424.3691 424.3691 425.0237 427.5633 427.9817 427.9817
   428.4355 434.0039 434.5394 434.5394 435.2894 435.2894 435.3895 435.4132
   436.5857 438.1899 438.6376 438.6376 439.7472 439.7472 441.6361 441.6361
   441.7103 442.5444 444.0595 444.0595 445.3519 445.3519 446.0666 446.0925
   446.6981 446.7454 446.7454 448.7265 448.7265 449.9052 449.9052 450.3795
   450.3795 452.2219 453.6277 454.0459 454.0459 454.5175 456.0833 456.7500
   456.7500 456.7886 456.7886 457.0319 459.9516 460.1481 460.1481 460.8611
   460.8611 461.5561 462.2309 462.2309 463.9797 464.4612 464.4612 464.7648
   465.9452 465.9452 468.0441 468.0441 468.3263 469.7816 470.5270 470.5270
   471.2620 471.7913 471.7913 472.1479 474.3463 474.3463 474.3595 474.8099
   474.8099 476.2009 476.2009 476.2644 477.6463 478.2835 478.2835 479.0589
   479.0589 480.2361 480.7975 481.1200 481.2379 481.2379 481.3900 482.3006
   482.3006 483.1054 483.1054 484.0966 485.1834 485.1834 485.5386 487.6036
   488.1249 488.1249 488.2503 488.2503 488.6639 489.6624 491.0499 491.0499
   492.9967 492.9967 493.2005 493.8228 493.8228 494.0148 494.5210 494.9680
   494.9680 495.1922 495.1922 496.5576 496.5576 497.1288 497.3367 497.3367
   498.6849 500.1560 500.5132 501.4221 501.4221 502.4771 502.4771 503.4621
   506.3004 506.3004 506.9831 507.6450 507.9199 507.9199 509.1102 509.1102
   510.7238 510.7238 511.8016 511.8699 513.1493 513.1493 514.0212 514.1549
   514.1549 515.9182 516.5085 516.5085 517.2303 518.4757 523.6917 523.6917
   525.1525 526.7245 526.7245 527.2061 529.4635 529.4635 531.0996 536.9235
   537.6711 537.6711 538.8838 538.8838 543.2024 545.2511 545.2511 547.8382
   547.8382 548.3480 548.3480 550.0122 550.0122 550.6286 551.0120 551.1987
   551.1987 551.3916 553.5506 554.7509 554.7509 556.2815 556.5421 556.5421
   559.5271 561.9904 561.9904 563.6145 563.8960 564.0977 564.0977 565.0388
   565.0388 565.4260 566.3988 566.3988 567.9787 569.3157 569.3157 571.4866
   571.5407 571.5407 573.6935 576.9023 577.5664 577.5664 578.3235 578.3235
   578.7583 579.4949 579.4949 580.4311 580.5855 580.5855 583.8170 584.0819
   584.0819 584.7210 585.0980 585.0980 585.8889 586.7003 587.9396 588.1789
   588.1789 589.0566 590.2229 590.2229 590.8951 591.1429 591.1429 591.2156
   591.2156 591.9137 591.9137 592.0964 592.1671 592.1671 593.5125 593.5125
   593.8696 594.6278 596.7436 598.4309 598.4309 598.7229 599.5147 599.5147
   601.3765 601.6672 603.3018 603.3018 603.8652 604.3236 604.3236 606.0155
   606.0155 606.8734 607.0069 607.3465 607.3465 608.6560 608.6560 611.7706
   612.7589 612.7589 613.2290 613.7129 613.7129 616.2438 616.2438 616.4353
   616.8641 616.8641 617.4304 617.9454 617.9454 618.4468 621.0150 621.0150
   621.0249 621.3475 623.2035 623.2035 623.3034 624.9777 624.9777 626.3778
   626.3778 626.3838 627.0626 629.6966 629.8333 629.8333 632.3557 632.3557
   633.1415 633.3602 633.3602 633.6133 634.9072 634.9072 635.1082 635.1082
   635.1240 635.3846 635.9474 635.9474 636.1307 637.0805 637.0805 638.8607
   638.8607 638.9430 639.4383 639.6513 640.4769 640.4769 643.6726 644.3830
   644.3830 644.8568 644.8568 644.9701 645.7313 645.8264 645.8264 646.1769
   646.1769 646.3315 647.3932 647.3932 647.4807 647.6150 647.6150 649.4332
   649.4332 649.8583 650.3553 655.4407 655.4407 657.5598 657.5598 658.1214
   659.7045 661.2202 662.8620 663.2665 663.2665 663.8298 664.3430 664.3430
   664.9503 664.9503 666.5470 666.5470 666.6157 666.7661 667.2950 667.6283
   667.6283 667.6787 667.6787 667.9820 671.0737 672.9146 672.9146 674.2113
   674.2113 675.6788 675.6788 676.3156 676.4674 678.1016 678.4296 678.4296
   680.6666 680.6666 683.3453 683.5401 683.5485 683.5485 683.6253 683.9672
   683.9672 684.5539 684.6019 684.6019 685.0704 685.0704 685.5276 685.9828
   685.9828 686.5259 687.2420 687.2420 688.8832 688.9401 688.9401 689.5164
   689.5253 689.5253 690.8122 692.6892 692.6892 692.7403 693.2171 693.2171
   693.3965 694.0355 694.0355 697.1701 697.7911 697.7911 698.5131 698.5893
   698.5893 699.3466 699.4850 699.4850 699.8337 699.8337 700.1398 700.1398
   700.1695 700.4804 700.4804 700.5934 700.9064 702.0470 702.9738 703.0858
   703.0858 704.5629 704.5906 704.5906 704.8000 706.4602 706.5675 706.5675
   710.8116 710.8116 710.8769 710.8854 710.8854 711.2760 711.2760 711.8030
   712.9452 713.6744 713.9332 713.9332 714.5413 714.5413 719.3522 719.3522
   719.3914 720.0787 720.3469 720.3469 721.4867 721.6699 721.6699 722.6760
   722.7795 722.7795 723.0409 723.0574 723.0574 723.5635 723.5635 723.7668
   723.9700 723.9700 724.5855 725.4052 725.9956 725.9956 726.0889 730.8291
   730.8291 732.0852 732.3840 732.3840 732.5425 732.5425 733.6969 733.6969
   733.8510 734.5671 734.5827 734.5827 734.6275 736.0133 736.0133 736.0774
   736.4821 737.6703 737.6703 738.7683 738.7683 739.5014 739.5014 739.8759
   740.1571 740.1571 740.1629 740.5324 744.9325 744.9325 745.3199 745.5182
   745.5182 746.5929 746.5929 747.3523 747.8343 750.5017 750.5017 750.5842
   752.3172 752.3172 752.4297 754.8793 754.8793 754.9184 757.2614 757.2614
   757.2668 763.2253 763.2259 763.2259 763.9382 763.9593 763.9593 766.5087
   766.5098 766.5098 769.8033 770.1715 770.1715 772.8247 777.1288 777.9577
   777.9577 778.0864 778.8345 778.8345 782.8651 782.8651 783.3488 784.5565
   784.5565 788.9176 788.9176 789.0404 789.6885 790.8190 790.8190 791.0812
   793.2209 793.2209 793.3530 793.3530 793.4655 795.2704 795.7396 795.7396
   796.0843 796.8362 796.8362 800.1015 801.6645 801.7017 801.7017 804.6207
   804.6207 804.9568 804.9568 805.0406 806.7031 807.1320 807.1320 808.1954
   808.9251 808.9251 810.5276 810.5276 811.5530 811.5530 812.2120 812.4593
   812.4593 813.3779 813.9307 814.9558 814.9558 816.0270 816.4309 816.4309
   817.1277 818.4662 818.4662 818.6001 820.2450 820.4286 820.4286 821.6343
   821.6910 821.6910 825.2407 825.2407 826.9987 827.2273 827.2273 827.9203
   827.9203 828.4598 828.4598 828.6717 828.6873 829.7317 830.1568 830.1568
   830.4215 832.1974 832.3511 832.3511 834.0694 834.0694 834.4071 835.8200
   835.8200 837.3859 837.4476 837.4476 838.3254 840.0497 840.0497 840.2609
   842.7029 845.2873 845.2873 845.3339 845.3339 845.4235 845.5503 845.9633
   845.9633 846.1095 846.2030 846.2030 846.3277 846.9265 846.9265 849.2092
   849.2092 849.4192 850.5276 850.5276 851.3231 851.3736 851.3736 851.4255
   851.4716 851.4716 851.8588 851.8628 851.8982 851.8982 853.0265 853.0265
   853.4925 855.5750 855.5750 855.6218 855.8213 856.8690 857.3417 857.3417
   857.4234 857.4234 857.8507 857.8507 858.6032 859.5673 859.9251 859.9251
   860.2148 860.2148 860.2356 860.2513 860.2513 860.4035 860.6746 860.6746
   861.0315 864.0493 865.8944 866.1148 866.1148 867.8058 867.8058 867.8159
   868.1845 868.1845 868.7520 870.0955 870.0955 870.2991 870.2991 870.8819
   872.4738 872.4738 872.8575 872.9571 873.1691 873.1986 873.1986 873.2675
   873.5865 873.5865 875.5085 875.5085 875.9536 876.2358 879.6765 879.6765
   879.8300 879.8300 879.9701 880.1584 880.1584 880.8348 881.6363 881.6363
   881.6610 882.1280 882.1280 882.1285 882.8894 882.8894 883.1754 883.9947
   883.9947 884.0002 884.2667 884.2667 884.4033 886.4816 886.4816 886.4882
   887.2879 887.2879 887.3501 888.9442 888.9442 890.5162 890.5162 890.5917
   890.6568 891.3254 891.3254 891.6439 891.8412 891.8412 891.9308 893.5073
   893.5073 893.5729 895.6217 895.6217 895.7102 895.7432 895.7432 895.9284
   899.8016 899.8016 899.9845 899.9845 900.0250 900.1797 901.1913 901.1913
   901.3084 901.6949 901.6949 901.8990 902.9500 903.1521 903.1521 904.1080
   904.1080 904.2551 904.7652 904.7652 904.8930 904.8930 905.0887 905.2803
   905.4747 905.4747 905.5375 907.9602 907.9602 908.4392 908.6790 908.6790
   908.7492 910.1654 910.5652 910.5652 911.7136 911.7136 911.9670 912.0543
   913.5459 913.5459 914.2429 914.2620 914.2620 914.9649 914.9649 915.0814

          k =-0.2500 0.2500-0.2500 (  3275 PWs)   bands (ev):

   -63.3921 -30.2067 -30.1661 -30.1661  -7.7273   6.2614   8.5832   8.5832
    16.1636  21.6239  25.7709  25.7709  29.3287  29.3287  31.1970  37.0135
    37.8451  37.8451  43.5177  46.1846  46.1846  52.9611  53.5213  53.5213
    62.1302  63.9484  63.9484  67.8725  69.0109  69.6635  69.6635  73.6058
    76.2570  76.2570  76.8177  78.4488  78.4488  80.7514  82.2147  82.2147
    83.6320  83.6320  88.2203  88.5009  88.5009  88.5087  94.8197  95.4113
    95.4113  96.8687 100.1519 100.1519 104.9368 104.9368 105.8967 106.3455
   108.2575 108.2575 110.7394 113.2640 114.4487 114.4487 115.5301 115.5301
   119.3254 124.9421 124.9421 126.9765 131.5106 131.5106 135.5642 136.8215
   136.8215 139.7990 139.7990 140.2025 142.0742 142.0742 144.3959 147.0994
   147.8317 147.8317 149.6925 149.6925 151.1831 152.5017 155.5590 157.0315
   157.0315 158.9343 159.3738 160.1619 160.1619 163.3858 165.9923 165.9923
   166.2842 166.8682 166.8682 169.2870 169.2870 170.6804 173.0697 173.0697
   173.1746 174.0224 174.0224 176.0795 176.0795 176.3429 179.0204 179.0204
   179.6841 185.1667 185.1667 185.1710 186.2662 186.2662 186.4450 186.6274
   190.4346 191.6744 191.6744 193.4891 193.4891 196.1726 196.8394 196.8394
   199.1901 199.1901 199.5057 201.0943 201.0943 201.5259 203.8211 203.8211
   204.1688 206.2027 209.7744 209.7744 211.5096 213.0733 214.1706 214.1706
   215.4901 215.4901 216.5625 218.6082 218.6082 219.6126 220.2525 220.2525
   220.3539 221.3709 227.4150 227.4150 229.4717 234.7127 234.7127 237.0296
   237.0296 237.2953 242.2649 243.2765 243.2765 245.6952 245.6952 246.4841
   246.4841 247.0200 248.7086 248.8082 248.8082 251.0731 255.5024 255.5024
   256.5630 258.8338 259.2402 259.2402 260.5918 260.5918 262.1908 262.1908
   262.3192 263.3250 263.3250 264.2211 265.0817 266.1139 266.6029 266.6029
   267.1592 267.9456 268.4460 268.4460 270.1368 270.1368 274.8183 274.8183
   275.6157 275.8346 275.8346 277.5376 279.8784 288.5047 288.5047 288.7610
   288.7610 288.8850 290.2142 290.5714 290.5714 291.4980 293.6725 293.6725
   293.6910 294.3685 294.3685 294.4585 296.3898 296.3898 296.8654 297.5284
   297.5284 298.2238 298.3422 298.3422 298.7195 301.6190 303.4763 303.4763
   303.9419 303.9419 304.0960 306.3144 306.3144 307.0842 308.8841 308.8841
   309.4625 310.8661 312.3106 312.3106 313.9733 314.0153 314.5371 314.8164
   314.8164 315.2839 315.2839 316.9210 316.9210 317.8982 317.8982 321.4514
   321.4611 321.4611 321.6222 324.4430 324.4430 325.9528 328.3675 328.7670
   328.7670 329.2137 329.2137 329.2296 330.9771 330.9771 331.0374 333.4740
   333.4740 335.1672 337.2683 337.2683 338.6988 338.8958 342.6903 342.6903
   343.0524 343.0524 343.5105 346.0721 346.1131 346.1131 346.3065 347.2111
   347.2111 348.2194 348.2194 350.0678 354.3181 354.5138 354.5138 354.7962
   356.1250 356.1250 357.9600 359.4278 359.4278 361.4754 361.4754 361.5071
   363.2017 364.6919 365.4396 365.4396 369.9398 369.9398 371.5699 372.2889
   372.2889 372.9020 376.5416 376.5416 378.9182 378.9182 379.4523 379.6962
   379.6962 380.6791 383.8890 383.8890 384.0756 385.9269 385.9269 386.3068
   386.6986 388.0096 389.6059 389.6059 393.8091 393.8091 394.2769 394.6616
   394.6616 397.0159 397.0159 397.1415 397.8505 397.8505 398.2691 398.7294
   399.1345 399.1345 399.4717 401.9994 401.9994 402.0797 402.3719 410.1606
   410.1606 410.7338 411.8543 411.8543 412.9784 413.0337 413.0337 414.2197
   414.2594 414.2594 414.6032 414.6032 419.0058 419.0058 419.1313 420.1368
   420.1368 421.6355 421.7463 423.1435 423.1435 425.4149 425.8804 425.8804
   426.1875 426.1875 426.3305 427.8452 431.1764 432.7108 432.7108 434.7194
   434.7194 435.4256 436.7402 436.7402 437.0121 437.4786 437.7163 437.7163
   440.4911 440.8165 440.8165 441.7275 441.7275 441.8908 443.1666 443.1666
   445.9686 445.9686 446.0503 446.2025 447.3527 447.3527 449.8767 449.8767
   449.9482 451.2738 453.3721 456.0738 456.0738 456.0946 457.1820 457.1820
   457.3060 457.3247 457.3933 457.3933 458.9780 458.9780 460.6469 460.6469
   462.1281 462.2105 462.2105 462.7217 462.8784 464.1547 464.1547 464.8883
   466.0348 466.0348 467.3154 467.3154 467.9814 469.5003 469.7802 469.7802
   470.0146 471.0098 471.0098 472.3445 472.3880 472.3880 472.8670 472.8670
   472.9296 474.9472 475.0330 475.0330 476.2329 476.2329 476.2608 477.3076
   477.3076 477.3558 477.6533 479.4311 480.2608 480.2608 482.5090 482.5090
   483.1072 483.1072 483.9286 483.9327 486.0007 486.0007 487.7674 489.1713
   489.1817 489.1817 489.4245 489.4405 489.4405 490.6206 490.6206 490.7226
   491.1583 491.1583 491.2166 493.1622 493.1622 499.5028 499.8507 499.8507
   504.0675 504.4857 504.4857 504.7346 505.6405 505.6405 506.4100 507.5915
   509.6134 511.1183 511.1183 511.2789 511.2789 511.3057 511.3057 511.3228
   512.4073 514.7906 514.7906 515.2461 515.8658 518.5060 518.5060 521.4125
   521.4125 521.6286 521.6286 521.9140 522.6773 522.6773 522.9859 525.9256
   526.2639 526.2639 527.9233 527.9233 528.2164 528.2164 529.4813 530.2675
   531.1063 531.9725 531.9725 532.4074 532.4074 533.9651 534.7359 534.7359
   535.6587 535.8734 535.8734 536.9907 536.9907 537.1391 539.0693 539.0693
   539.2577 542.1178 544.1407 544.1407 544.6600 546.0259 546.5038 546.5038
   550.2370 550.8178 550.8178 551.1595 551.1918 551.8896 551.8896 551.9752
   553.3594 553.3594 553.7461 553.8002 553.8002 558.0066 558.0066 559.1197
   559.1197 560.0695 560.1461 560.1461 561.4021 561.4021 561.5495 565.0287
   566.5661 566.5661 567.5451 567.5451 567.5988 568.5895 570.3419 570.3419
   571.7963 573.9277 575.4411 575.4411 576.4058 576.4095 576.4095 576.8401
   578.0159 578.0159 580.6108 580.6108 581.3688 581.5277 584.7299 584.7299
   584.7662 588.8956 588.8956 589.1183 592.4342 592.4342 593.1455 593.1819
   593.1819 593.3495 593.5113 593.5113 593.8868 593.8868 595.9287 595.9287
   596.2644 596.4824 597.2835 597.6608 597.6608 598.6627 600.3066 600.6462
   600.6462 601.8869 601.8869 602.4145 603.8231 603.8231 604.7681 604.9091
   604.9091 605.8166 605.8166 606.0215 606.4324 606.9023 606.9023 611.9363
   612.4790 612.4790 613.1825 613.4054 613.4054 615.0289 616.3045 616.3045
   617.8107 620.2120 620.2120 620.5359 620.5429 622.2415 622.2415 622.3386
   622.8336 622.8336 625.0456 625.0456 625.4640 626.3028 627.5658 627.5658
   628.8967 629.5669 631.6299 631.6299 633.2650 633.2650 633.4386 633.5620
   634.4367 634.4367 635.0385 635.0385 635.4638 635.7057 635.7057 635.7440
   636.1534 636.1534 636.8286 637.5245 637.5245 637.7313 638.3196 638.3196
   639.2668 639.2668 641.9775 643.5304 643.5304 643.7724 643.7724 644.5780
   644.6032 644.6047 644.6047 645.6344 648.0599 649.5316 649.5316 650.0107
   650.0107 650.5458 650.5458 650.8204 650.9606 650.9606 651.0289 652.5801
   652.5801 652.6596 652.8774 654.8561 654.8561 655.7870 655.9441 655.9441
   656.1461 656.5578 656.5578 656.9366 658.1986 658.1986 658.6967 658.6967
   659.4674 659.5995 659.5995 660.0396 660.8975 661.7381 661.7381 662.3433
   664.7498 664.7498 665.0207 665.9426 666.8848 666.8848 668.1204 668.1204
   668.2475 668.2475 668.5780 669.2306 669.5762 669.5762 669.8925 670.2119
   670.2119 670.2674 671.7570 677.9477 677.9477 678.0617 680.6658 680.6658
   681.5929 681.5929 682.5351 682.5908 682.5908 682.6293 683.0780 683.0780
   683.6197 686.1158 686.1158 686.4325 687.4095 687.4095 688.1865 688.1865
   688.2258 688.6119 689.9968 690.4894 690.4894 691.9908 691.9908 693.0468
   693.3288 693.3288 693.3634 695.5805 695.5805 695.8204 695.8204 696.1320
   696.6987 698.9440 699.1736 699.1736 700.0116 701.6172 701.6172 702.0365
   703.4147 703.4417 703.4417 703.7460 703.7496 703.7496 707.3198 707.3434
   707.3434 707.4531 707.4682 707.4682 708.4050 708.4050 710.1607 710.8663
   710.8663 711.0035 714.0826 714.0826 715.3314 715.3314 715.6417 717.3127
   717.3127 717.9962 718.5316 723.4433 723.4433 724.3238 724.8829 724.8829
   724.8918 724.9694 725.1503 725.1503 725.4172 725.4172 725.6435 726.6196
   726.6196 726.9035 726.9035 727.3920 727.6560 727.6625 727.6625 727.7359
   727.7359 727.7998 728.1995 732.8897 732.8897 732.9029 735.8738 735.8738
   736.8306 736.8306 737.2039 737.4186 737.6596 737.6596 737.7271 739.2029
   739.2029 739.8191 740.1251 740.1251 740.1683 741.8028 741.8028 741.9527
   743.8564 744.2797 744.2797 744.3826 745.9285 745.9285 746.1921 746.1921
   746.3405 751.7884 751.7884 751.8379 752.9263 754.1131 754.1131 754.8584
   754.8584 755.1654 755.6813 756.2441 756.2467 756.2467 756.7820 756.7820
   756.8024 758.3073 758.3073 758.3858 758.9072 764.4163 764.4163 766.3024
   766.7761 766.7761 767.0494 767.0494 767.0532 768.8905 768.8905 770.0499
   771.1429 771.1429 771.6927 771.6927 773.7049 775.3511 775.3511 776.0400
   776.0400 776.4636 776.7606 777.1462 777.1462 778.1171 779.8161 779.8161
   780.1638 781.4570 781.5045 781.5045 781.8187 781.8715 781.8715 783.3962
   783.3962 785.7192 787.1310 787.1310 787.4536 790.4448 790.4448 791.5429
   792.1281 792.1281 792.2158 794.0940 794.0940 795.1122 798.0701 798.0701
   799.7445 800.9955 800.9955 801.0834 803.5066 803.5066 803.9710 804.6287
   804.6287 804.6574 805.5888 805.8525 805.8525 806.1898 810.9968 812.4878
   812.4878 812.8694 812.8694 813.1000 813.3671 813.3671 813.7387 813.7387
   813.8953 814.1822 814.1822 814.1853 814.7707 816.9041 816.9041 817.1598
   818.2394 818.2394 818.4444 818.4444 819.0270 823.6781 823.6781 826.1381
   826.1381 826.1402 826.4024 826.4024 826.7177 827.3700 827.7360 828.3628
   828.3628 828.6487 828.7275 828.7275 828.9198 828.9198 829.1496 829.9689
   829.9689 830.6369 832.6893 832.8094 832.8094 832.9728 833.1576 833.1576
   833.2616 833.3846 833.3846 834.2845 834.2845 835.4518 835.4831 835.4831
   835.7987 835.7987 835.9729 836.3135 838.8577 840.3765 840.3765 841.3593
   841.4688 841.7706 841.7706 844.0791 844.1528 844.1528 845.7175 845.7175
   846.4399 846.9367 846.9367 847.3553 847.3553 847.3981 847.9042 848.2994
   848.2994 848.4381 851.0407 851.0407 851.2755 851.3532 851.3598 851.3598
   853.2845 853.2845 853.5335 854.8696 854.8696 855.2897 855.3381 855.3381
   855.6480 855.6480 855.6862 855.7179 856.5609 856.5609 856.6148 858.9537
   858.9537 858.9732 862.8601 862.8601 862.9063 865.9485 865.9485 866.3812
   866.3812 866.3977 866.5651 866.6692 866.6692 866.6721 872.6999 872.6999
   872.7239 875.4801 875.5955 875.5955 875.7058 875.7126 875.7126 877.8526
   877.8526 878.5246 878.8658 878.8658 879.1360 879.4903 879.4903 879.5338
   881.2927 881.3206 881.3206 881.8540 881.8540 882.0322 882.3114 882.3620
   882.3620 882.8480 882.8480 882.9534 883.5320 883.5320 883.5698 883.8673
   883.8673 883.9953 884.9037 884.9037 884.9158 887.8602 888.4284 888.4284
   890.4312 890.4312 890.6211 892.4680 892.4680 892.5345 895.1757 895.1757
   895.4345 896.3459 896.3459 896.4352 896.4428 897.7025 898.5284 898.5284
   898.9061 898.9090 898.9090 899.4071 899.4071 899.4187 900.2577 900.3853
   900.3853 900.5698 901.0232 901.0232 901.1188 901.1323 901.1323 901.2705
   903.4774 903.4774 905.5371 905.5371 907.1949 907.5954 907.5954 908.1733
   908.1733 908.5656 908.8010 910.7022 910.7022 910.9889 912.3761 912.3761
   912.5292 912.7783 912.7783 914.9857 915.6015 915.6015 916.5643 916.8761
   916.8761 916.9601 916.9601 916.9749 918.9333 918.9333 918.9788 921.5611
   921.6131 921.6131 921.9231 922.0628 922.0628 922.4022 922.4022 922.5412

          k =-0.3750 0.3750-0.3750 (  3266 PWs)   bands (ev):

   -63.3888 -30.2382 -30.1693 -30.1693  -7.2254   4.8364   8.3580   8.3580
    16.8555  21.4452  25.6075  25.6075  30.4175  30.6336  30.6336  38.3300
    39.8068  39.8068  43.3622  43.3622  46.1056  54.0301  54.0301  55.9875
    60.4232  63.7531  63.7531  64.9767  65.9429  65.9429  69.6344  69.8282
    72.4534  72.4534  76.3026  76.4057  77.9648  77.9648  82.0080  82.0080
    87.9338  88.2262  88.8709  88.8709  90.2878  90.2878  92.9778  94.8429
    94.8429 101.0509 105.7037 105.7037 106.8456 109.9092 109.9092 111.2685
   111.4376 111.4376 112.9046 112.9046 114.7116 117.7001 119.6812 119.6812
   121.0267 124.2856 124.2856 127.5257 127.5257 127.9282 131.1513 131.1513
   131.4938 131.4938 133.7878 134.5881 138.2053 138.2053 141.7340 146.1350
   147.6395 147.6395 148.5675 151.3439 151.3439 152.2364 152.6181 154.4764
   154.4764 156.1755 156.2864 156.2864 156.8249 161.4274 161.4274 166.8434
   167.8741 167.8741 169.1114 169.1114 169.7091 169.7091 169.8324 171.4318
   173.2668 176.7002 177.2254 177.2254 179.1731 179.1731 179.6752 181.2257
   181.2257 182.9229 183.5528 185.9483 185.9483 188.9193 191.5172 191.5172
   195.0550 195.0550 195.1107 195.1692 195.1692 197.5582 200.1795 201.5568
   202.0956 202.0956 202.6958 202.6958 203.3544 205.3427 205.3427 207.2953
   208.1415 208.1415 208.3772 208.3772 210.5218 210.5218 210.8065 210.9475
   212.2079 213.5047 213.5047 217.0317 222.7245 222.7245 224.5217 224.5217
   226.0484 230.0591 230.0591 230.8023 230.8023 230.9211 232.7552 239.0764
   239.0764 240.2461 240.2461 241.1940 242.2908 242.7659 243.0346 243.0346
   244.7792 244.7792 246.7000 249.4463 249.4463 250.2775 254.2172 254.2172
   254.5897 255.5514 255.9801 255.9801 257.6916 257.6916 259.4038 259.4038
   259.8291 260.8181 260.8181 261.1922 264.7552 264.7552 265.5788 266.7250
   266.7250 266.8738 266.9998 267.6419 267.6419 271.8280 272.6793 272.6793
   273.9711 275.2426 275.2426 277.8405 281.3160 282.5231 282.5231 282.6497
   285.8749 286.9408 286.9408 287.4086 287.4086 288.8539 289.4968 289.4968
   289.6729 289.9467 292.2200 292.2200 293.3464 294.6751 294.6751 295.1617
   295.1617 295.2437 296.5861 296.5861 298.9611 300.6183 300.6183 302.6354
   302.6354 303.1456 304.0171 306.8956 310.2024 310.2024 310.6409 310.6409
   311.8837 313.9272 313.9272 314.3130 314.6595 314.6595 315.5475 316.5670
   316.5670 316.9261 317.7272 318.1926 318.1926 320.1340 320.1340 320.6532
   321.9449 322.8637 322.8637 327.7373 328.5821 328.5821 330.7984 330.7984
   331.9126 332.3863 333.7585 333.7585 334.0055 334.0055 334.4392 335.9616
   335.9616 336.1538 340.4519 341.7339 341.7339 343.0093 343.5305 343.5305
   343.8574 348.7117 350.5324 350.5324 353.3953 353.5112 353.5112 355.5391
   356.7284 356.7284 357.1036 357.1036 358.0761 358.0761 358.7457 359.0006
   359.0006 359.6672 359.6901 360.1569 360.3075 360.3075 365.3311 365.3311
   365.5320 365.9365 366.4840 366.4840 367.7768 367.7768 368.9703 371.1291
   371.1291 374.8036 376.1219 376.1219 376.8841 378.2398 378.2398 378.4675
   378.4675 379.4000 379.8208 383.6887 383.6887 384.9228 384.9228 385.5240
   386.7058 387.4742 387.4742 388.2791 388.9710 388.9710 389.1411 390.6423
   390.6423 391.2434 391.2434 391.5254 392.3075 394.5912 396.8884 396.8884
   398.4431 398.4431 398.9360 402.4459 402.4459 402.8335 402.8882 402.8882
   404.2804 404.8001 406.6098 406.6098 411.6623 411.6623 411.8205 411.9210
   412.8165 412.8165 415.1268 415.1268 418.3146 418.3146 419.1219 419.1219
   419.1806 419.8066 420.9677 421.7864 421.7864 421.8962 424.1592 424.1883
   424.1883 424.9011 424.9011 426.8881 427.4043 427.4043 427.7094 430.1957
   430.1957 430.8096 431.0660 431.6374 431.6374 432.4338 435.8367 435.8367
   436.5087 437.6341 437.6341 438.9862 438.9862 440.4423 440.5678 440.5678
   440.7493 442.5091 442.5091 442.9835 444.6345 444.6345 444.9641 445.3451
   445.3451 447.4944 447.4944 449.3623 449.3623 449.4154 450.2945 452.0250
   452.4613 452.4613 452.6873 453.2856 453.2856 453.3679 454.3482 454.3482
   458.2724 462.4782 462.4782 466.5102 466.5102 466.5976 467.4247 468.0929
   468.0929 469.8967 471.3256 472.5124 472.5124 473.9413 474.3695 474.3695
   474.7307 476.9753 476.9753 477.9748 477.9748 478.3343 478.3697 478.3697
   478.7294 478.7294 478.9188 478.9380 479.3449 479.3449 479.4094 480.1453
   480.5950 480.5950 481.6950 482.4104 484.2634 484.2634 485.0125 485.0125
   485.0497 485.0659 485.6374 485.6374 486.3285 486.3285 486.3691 489.1253
   491.0639 491.0639 492.5466 492.5466 493.1073 493.1073 493.1263 498.4534
   500.3823 500.3823 500.6700 501.1573 501.1573 501.2935 503.6021 504.9951
   504.9951 506.9395 506.9395 507.5930 507.6063 507.6063 509.0171 509.0171
   511.0459 513.4776 513.4776 513.9713 513.9776 513.9776 514.9952 515.0539
   519.2304 520.4766 520.4766 521.5926 521.5926 523.2584 523.2584 523.6512
   523.9545 523.9545 524.1975 524.2434 524.3162 524.3162 525.6053 526.2679
   526.2679 529.2599 530.2423 530.2423 530.4086 531.2402 531.2402 531.9706
   533.9469 533.9469 534.1279 534.1279 534.6406 534.6406 534.6869 534.7800
   534.9432 536.7544 536.7544 537.2668 537.8493 539.8282 540.6864 540.6864
   542.4746 542.4746 542.6834 542.6834 542.9086 543.4426 544.3412 544.8640
   544.8640 547.8384 548.9000 548.9000 553.4467 553.4467 554.1287 555.3166
   555.3166 555.7415 555.7415 556.0911 556.7374 556.7888 556.8842 556.8842
   557.1899 557.1899 558.0435 560.5953 560.5953 561.3620 561.3620 561.5711
   561.5711 561.5822 561.6922 563.3708 563.4932 563.4932 565.5313 566.3248
   566.3248 566.4537 568.3516 570.6979 570.6979 571.2445 571.2445 571.3889
   573.7031 573.7031 575.8873 575.8873 576.2364 576.2370 577.1507 577.1507
   577.9261 579.7499 581.4430 581.4430 583.1059 583.1059 583.2101 587.6420
   587.6420 588.4452 589.5996 589.5996 590.0224 598.0695 598.0695 598.4685
   599.1360 599.1360 599.5250 601.3947 601.3947 601.8068 603.0611 603.0611
   604.2528 604.2528 604.2889 604.6577 605.9663 605.9663 607.6793 607.6793
   609.6462 611.1956 611.1956 611.7153 611.7225 611.7225 612.0193 612.7352
   612.7352 613.0522 613.2078 613.3526 613.3526 614.1237 614.1859 614.1859
   614.5007 614.5007 615.6013 616.7293 617.5265 617.9672 617.9672 619.5711
   619.5711 619.8602 620.1953 620.1953 620.7384 622.6203 622.6203 623.6421
   628.7997 628.7997 629.1692 631.0217 631.0217 631.9969 631.9969 632.1168
   632.6169 632.7069 632.7123 632.7123 633.7864 633.7864 633.8897 635.0107
   635.0107 636.0458 638.8291 639.0695 639.0695 639.4490 639.4490 639.5385
   641.4918 641.4918 641.5505 641.5923 642.4072 642.4072 643.0226 643.0226
   643.3681 643.8339 646.0827 646.0827 646.4833 646.4833 646.6100 648.0565
   648.5074 648.5074 649.4518 649.4564 649.4564 649.8744 650.0311 650.0311
   650.9987 650.9987 651.2120 651.7311 651.9725 651.9725 652.1066 652.1066
   652.4067 652.9373 652.9373 653.1727 657.2235 657.5844 657.5844 658.2763
   658.2763 658.3333 658.7477 659.1240 659.1240 660.0438 660.0438 660.0640
   660.3979 663.8640 663.8640 664.0425 664.0425 664.0981 664.3603 664.3603
   664.3848 664.6833 667.3291 667.3291 668.1402 670.0895 670.0895 672.2546
   672.2546 673.7222 673.7326 673.7326 673.7656 676.7024 676.7024 677.5416
   677.5416 677.5839 677.6576 681.5868 682.6396 682.6396 682.9455 682.9455
   683.3574 689.2330 689.2330 689.7307 690.7791 690.7791 691.1852 693.3840
   693.3840 694.6399 694.6399 694.9375 695.2490 696.1785 696.1785 697.1058
   697.1058 697.5034 698.6639 700.6716 700.6716 702.9810 703.0366 703.0486
   703.0486 703.8722 703.8722 703.9579 704.5138 704.5138 705.2955 705.2955
   705.3206 705.4226 705.4226 705.4933 705.5812 706.5399 706.5399 708.4324
   709.0224 709.0224 709.5305 709.9072 710.4467 710.4467 712.7064 713.8143
   713.8143 715.1977 715.1977 715.2205 717.4196 717.4196 718.2232 718.8009
   720.6253 720.6253 721.5946 723.8896 723.8896 724.9091 724.9091 725.0095
   725.4585 725.9210 725.9210 725.9295 726.6432 726.6432 726.6844 727.2374
   727.2374 727.3114 731.7641 731.7641 731.7768 732.2506 732.2506 732.5477
   732.9078 735.3231 735.3231 735.4034 735.4034 735.8202 736.6214 736.6214
   737.6015 737.8163 738.5558 738.5558 739.8881 739.8881 741.3735 741.8442
   741.8442 742.9905 746.4156 746.8317 746.8317 747.0897 747.0917 747.0917
   747.7603 748.2655 748.2655 750.5302 750.5302 750.8503 750.8503 751.1299
   753.8711 755.1157 755.1157 755.3081 755.8907 755.8907 756.2094 759.7043
   759.7043 759.7085 760.5894 760.5894 761.1798 761.6206 761.6206 761.9143
   761.9143 762.0384 762.7463 764.2427 764.2427 764.9575 765.0813 765.4242
   765.4242 765.7317 765.7317 765.9127 767.2394 767.2394 767.3729 767.3729
   767.5226 768.5548 773.6148 773.6148 775.3853 777.4216 777.4216 777.4378
   779.0397 779.3292 779.3292 779.4157 779.5299 779.5299 780.0770 780.3858
   780.3859 780.3859 781.2181 781.2181 781.6755 781.6755 783.6752 783.9047
   783.9047 783.9747 786.5451 786.5451 786.9751 790.7431 791.4987 791.4987
   792.7855 797.1526 797.4976 797.4976 798.0554 798.0554 799.1470 800.2784
   800.3116 800.3116 800.4829 800.7673 800.7673 801.0193 801.0193 801.1375
   801.1403 801.1403 802.7043 803.4723 803.4723 804.1600 804.9477 804.9477
   805.5648 805.5648 805.7230 806.1037 806.1037 806.1420 807.3596 808.0167
   808.0167 808.7486 809.4156 809.9851 809.9851 810.7478 810.7478 811.3045
   811.8940 811.8940 811.9499 812.3437 812.3437 812.6302 814.3042 814.3042
   815.4960 815.4960 815.6811 816.5013 819.7781 819.7781 820.5836 820.5836
   820.6312 820.6776 821.4666 821.4666 822.7491 822.7750 822.7750 823.2875
   826.1601 826.1601 827.7967 827.8385 828.2580 828.2580 828.8923 828.8923
   828.9881 829.4511 829.4511 830.0877 830.0877 830.0947 830.6932 831.4479
   831.4479 831.6409 832.7514 832.7514 833.0707 834.2702 834.2702 835.4298
   836.7027 836.7027 836.7143 839.1832 839.3547 839.3547 840.9980 840.9980
   841.1768 841.8573 842.4237 842.4237 842.6715 849.6006 849.6006 850.1589
   850.5856 850.5856 850.6392 854.4098 854.4098 855.4948 855.4948 856.0668
   856.0843 856.0843 856.2323 857.0977 857.1861 857.1861 857.5720 857.5720
   858.5348 858.5348 858.5546 858.6169 859.3349 859.3349 859.6824 860.9305
   861.5899 861.5899 861.8829 862.2528 862.2528 862.4556 862.4556 862.5750
   862.6438 862.6438 862.6548 862.7104 865.2630 865.9437 865.9437 867.0994
   867.0994 867.3988 868.1840 868.1840 868.2559 869.4499 869.4499 873.7230
   873.7230 873.9243 873.9243 874.2256 874.8256 874.8256 874.8589 875.0821
   876.4717 876.4717 878.3865 878.3865 878.5779 878.8608 880.1504 880.1504
   880.6979 882.5268 882.5268 882.9365 885.1857 885.1857 885.3330 885.4516
   885.4516 885.4692 886.3363 886.3363 886.5658 886.8827 886.8827 886.8875
   889.9561 889.9561 889.9873 890.8550 890.8550 891.2582 892.0678 892.0678
   892.1286 893.4094 893.4147 893.4147 893.7591 893.8649 893.8649 894.3217
   894.3217 894.3307 895.9460 895.9460 896.1633 899.9736 899.9736 900.1211
   900.2203 900.2203 900.3189 901.4929 901.4929 902.4161 907.0416 907.0416
   907.2736 908.2656 908.2656 908.3501 911.2554 911.2554 911.4560 911.5301
   911.5572 911.5572 915.6504 916.1166 917.6220 917.6220 917.6751 918.0449
   918.0449 918.1242 918.1242 918.7904 919.1402 919.5742 919.5742 923.8869
   923.8869 924.0185 924.6468 924.6468 925.6284 926.0770 926.0770 926.2250
   926.3784 926.3784 926.3801 929.1882 929.1882 929.8033 929.8529 929.8529

          k = 0.5000-0.5000 0.5000 (  3274 PWs)   bands (ev):

   -63.3875 -30.2512 -30.1707 -30.1707  -6.9957   4.2782   8.2684   8.2684
    16.9389  21.6858  25.4393  25.4393  30.1058  31.6933  31.6933  37.7785
    40.0921  40.0921  42.1026  42.1026  51.8647  53.5313  56.1495  56.1495
    59.5198  60.1140  60.1140  62.5772  67.2227  67.2227  68.8430  70.2779
    70.2779  71.9495  73.4870  76.4251  77.5956  77.5956  81.8409  81.8409
    88.0152  88.5111  90.3040  90.3040  90.7546  90.7546  92.1561 100.9315
   100.9315 101.8365 101.8365 102.9969 108.0070 108.4177 110.7957 110.7957
   114.0633 114.0633 117.6371 117.6371 118.1929 118.1929 119.1323 121.6738
   121.6738 121.8103 121.8103 123.0241 123.7624 123.9708 128.8847 128.8847
   130.6157 132.8443 137.9171 137.9171 140.6050 140.6050 140.6127 140.6127
   142.7934 144.3996 145.7818 147.8762 147.8762 152.1019 152.1019 152.7839
   155.7246 155.9869 158.2841 159.1282 159.1282 159.4425 159.4425 160.7316
   166.6111 166.6111 167.3700 167.3700 168.1618 172.5855 174.0958 174.0958
   174.1801 174.1801 174.3449 174.4444 181.4547 182.5057 182.5057 182.8525
   182.8525 183.6428 187.2546 187.2546 187.6920 187.6920 189.6439 189.8165
   190.3862 192.1145 196.9579 196.9579 199.0605 199.0605 201.3027 201.3027
   202.8303 202.8303 203.1055 204.6236 204.7818 206.2519 206.2519 206.7029
   206.7029 206.7132 207.7125 212.6245 214.0490 214.0490 214.0529 214.0529
   216.1590 220.0309 223.3712 223.3712 223.4752 223.4752 224.9383 224.9383
   225.2659 225.2659 226.2069 226.2108 230.1585 230.1585 232.3752 232.3752
   235.7677 236.9680 238.1031 238.1031 239.2861 239.2861 241.8810 241.8810
   242.3136 242.3483 242.5544 242.5544 243.4462 251.3254 251.4889 251.4889
   252.1598 252.1598 255.1356 256.2279 263.0244 263.0244 263.3697 263.9017
   264.7161 265.1018 265.1018 266.8042 266.8042 267.6244 268.1506 269.8147
   269.8147 269.8977 269.8977 270.9230 270.9230 271.3154 271.6214 274.8081
   274.8081 274.8708 274.8708 275.0853 275.2423 275.9470 275.9470 275.9902
   275.9902 280.4130 286.6812 286.6812 287.3146 287.3146 288.4662 288.4911
   289.5227 290.9568 292.2391 292.2391 292.2640 292.2640 293.2359 293.2359
   293.4070 293.4070 293.7449 293.8762 297.3876 297.3876 299.3201 299.3201
   302.0955 303.4130 304.6999 305.3229 307.9561 307.9561 308.1341 308.1341
   308.2313 308.5999 314.8190 314.8190 316.1797 316.1797 316.5178 318.1858
   322.7600 322.7600 323.6310 323.9302 323.9302 325.0900 325.0900 325.1095
   325.1095 325.3846 325.4212 326.1515 327.2620 327.2620 327.3601 327.3601
   327.5360 327.8803 330.6340 333.3427 334.4624 334.4624 334.9751 334.9751
   341.6616 341.7577 341.7577 344.2537 344.2537 345.8051 348.3071 348.3071
   348.8773 348.8773 352.5545 356.4483 357.0154 357.0154 357.5389 357.5389
   359.4109 359.4825 359.4825 359.5438 359.5438 359.7088 359.7438 359.9197
   359.9197 359.9501 359.9501 360.7991 360.8437 364.0108 368.0730 368.0730
   368.9428 369.0678 369.4781 369.4781 373.2666 374.1295 374.3001 374.4486
   374.4486 374.5234 374.5234 374.7931 374.7931 374.9012 374.9012 376.3194
   376.8059 376.8059 376.8810 376.9195 376.9195 377.0533 379.8142 379.8142
   379.8173 379.8173 380.4926 381.5471 381.5514 387.0261 393.8533 393.8533
   394.4247 394.4247 394.7263 394.7263 394.8047 394.8047 394.9062 395.1794
   401.0993 401.0993 401.4994 402.1312 402.1312 402.4877 403.8687 403.8687
   404.4778 404.4778 408.1359 408.6875 408.6875 410.1452 410.1452 410.4480
   410.4663 410.8658 411.4986 411.4986 411.5466 411.5466 412.1882 412.4327
   416.0152 416.0152 416.0925 416.0925 419.7340 419.7340 419.7798 422.4769
   423.5913 423.5913 424.0672 426.2869 426.8063 427.2034 427.2034 427.2513
   427.2513 428.2076 428.2076 428.2515 428.2515 428.3590 428.4332 431.5780
   441.0270 441.0270 441.2735 441.8794 441.8794 441.8850 442.4569 442.4569
   443.7423 443.7423 444.7495 444.7495 444.7610 444.8856 445.0857 445.0857
   445.2966 445.7058 448.4112 450.8805 454.4674 454.4674 456.2539 456.2539
   456.8344 457.3981 458.5382 458.7352 458.7352 458.7643 458.8792 458.8792
   459.4577 459.5635 459.8523 459.8523 460.0524 460.0524 460.8561 460.8561
   462.4061 462.4061 464.7813 464.7813 465.0670 465.0670 468.5342 473.0925
   473.6218 473.6218 473.9178 473.9178 474.0031 475.1692 475.9894 475.9894
   476.6949 476.6949 477.0318 480.8528 480.8862 480.8862 480.9722 480.9722
   481.0378 481.9452 482.6416 482.6669 482.6669 482.7517 482.7517 482.8663
   489.0294 490.7081 490.7081 491.1139 491.1139 491.8731 495.4930 495.4930
   495.6410 495.6410 496.6267 496.6407 502.2635 502.6692 505.0108 505.0108
   505.4808 505.4808 507.1180 507.1180 509.0984 509.9486 509.9486 510.3217
   511.8125 511.8125 511.9532 511.9788 511.9788 512.1599 512.5320 513.7808
   514.3696 514.3696 514.4096 514.4096 514.5414 514.5419 516.8761 516.8761
   517.5828 519.8380 519.8380 519.9864 520.4146 520.4146 520.4393 520.4393
   523.0974 523.0974 523.2248 523.2248 524.3494 524.3931 526.8173 527.9318
   529.2255 529.2633 529.8682 530.1904 530.1904 530.2830 530.2830 530.5591
   530.5591 530.6908 530.6908 530.7711 530.7711 530.7817 530.7817 531.4400
   531.4420 532.4795 532.4795 532.5258 532.5258 532.8508 532.9132 535.5299
   544.7588 544.7588 544.9738 544.9738 545.2352 545.2390 546.8316 546.8316
   547.3590 547.3590 547.5664 547.5664 547.6286 547.6286 547.6478 547.6495
   547.9357 549.3403 550.2933 550.2933 550.3370 550.3370 550.4439 550.4727
   560.6938 560.6938 561.1312 561.7967 561.7967 562.7622 563.0639 563.0639
   563.0875 563.0875 563.5231 564.0395 569.0387 569.6422 574.7863 574.7863
   574.8585 575.5373 575.5373 576.4519 576.4519 577.3461 577.7369 577.7369
   578.3611 578.3611 578.7439 578.7439 578.8760 578.8760 578.9713 578.9879
   578.9879 578.9925 581.0778 581.6843 584.2090 584.2090 584.2228 584.2228
   586.3714 586.3717 590.4610 590.4610 591.3964 593.1461 593.5194 593.5194
   596.1208 596.1208 596.1286 596.1286 596.5114 596.6753 597.1193 597.1193
   598.6932 598.6932 601.9015 601.9015 601.9075 601.9075 602.2564 602.2585
   602.9979 605.6867 605.6919 606.2091 606.2091 606.6864 606.6864 607.5658
   607.9944 609.5071 609.5071 611.0833 611.2913 611.2913 611.8956 615.9348
   618.1278 618.1278 618.1334 618.1334 625.7266 625.7266 625.7492 625.7789
   625.7789 626.6644 626.6644 626.8292 628.2997 628.2997 628.8097 628.8566
   628.9134 628.9134 629.8683 629.8683 630.2557 630.4085 630.4085 630.4257
   630.5705 630.5705 632.4363 632.5345 632.8762 632.9134 632.9134 632.9599
   632.9599 633.0308 633.1077 633.1077 633.4446 633.4446 633.5909 633.6365
   633.7633 633.7633 633.8035 634.0232 634.0232 634.6105 635.1953 635.1953
   635.2065 635.2065 635.4879 635.5333 643.5797 643.5797 645.1750 645.1750
   646.3317 646.4676 646.4676 646.6009 646.8236 646.8791 646.8791 646.9835
   650.9989 650.9989 651.1361 651.1361 651.2418 651.3136 657.6039 658.0612
   658.0612 658.6754 658.6754 659.6845 664.2442 664.2442 664.5923 664.5923
   664.6300 665.3925 665.6123 665.6817 665.6817 665.7448 665.7448 666.0488
   666.5184 666.5184 666.8467 666.8467 667.1377 667.1377 667.1783 667.2306
   667.6449 667.6449 667.9987 667.9987 668.0918 668.1008 668.1014 668.1014
   668.1619 669.0599 679.4850 679.8307 679.8307 680.2532 680.7568 680.7568
   681.1671 681.3926 682.5091 682.5091 682.5451 682.5451 683.8112 683.8112
   684.0838 684.0838 684.2692 684.2692 684.3036 684.3036 684.3292 684.3355
   684.6518 685.1578 687.8159 689.9979 695.3379 695.3379 695.9286 695.9286
   696.7166 697.4145 702.4568 702.4568 702.5509 702.5509 703.7389 703.7509
   703.7509 703.8526 703.8526 703.8819 706.7360 706.7360 709.3762 709.3762
   710.0798 710.2892 710.9445 710.9445 710.9694 710.9694 711.5764 711.8302
   714.8802 714.9288 714.9288 714.9368 715.0078 715.0411 715.0411 715.0902
   715.0902 715.1157 715.1306 715.1306 717.6016 717.6016 717.6393 717.6393
   717.8727 718.2073 720.3714 720.3714 720.3764 720.4622 720.4622 720.4872
   722.1264 722.1264 723.1328 723.1328 723.9984 725.1618 733.1509 733.1509
   733.3485 733.3485 733.4227 733.5568 734.7289 734.7289 734.9953 735.1633
   735.1633 735.5145 735.5312 735.5312 735.5657 735.5657 736.0405 736.0471
   738.8965 738.8997 738.8997 738.9269 738.9269 738.9313 747.7669 747.7669
   748.1527 748.4658 749.5024 749.5024 750.0415 750.0415 750.1644 750.1644
   750.3494 750.7827 750.7830 750.7830 750.8276 750.8276 751.0724 751.1389
   753.7643 753.7643 754.2580 754.2580 754.8440 755.7686 755.7712 755.8420
   755.8789 755.8789 756.1985 756.1985 764.6229 764.6229 765.8976 766.2042
   766.2042 766.2528 766.7891 767.4014 767.4014 767.4038 767.4960 767.4960
   767.4977 767.5359 767.9508 768.0803 768.0803 768.0804 768.0804 768.7947
   778.4822 778.4822 779.2505 779.2505 779.5089 779.6961 781.0718 781.0718
   781.3156 781.3762 781.3883 781.3883 781.9509 781.9509 782.1915 782.1915
   782.7075 782.7075 782.8564 782.8564 783.2602 783.2772 783.3790 783.3790
   783.4165 783.4317 783.4317 783.4543 783.5500 783.6022 786.8843 786.9308
   787.3760 787.3760 787.4119 787.4119 788.9075 788.9075 788.9128 788.9354
   788.9354 788.9742 789.3609 789.3609 789.4205 789.4205 789.5320 789.5872
   803.4840 803.5239 803.5239 803.7876 803.7876 803.8317 804.6346 804.6346
   804.6501 804.6789 804.6789 804.6847 804.8344 804.8919 804.8919 804.8921
   804.8921 804.9128 809.8400 809.8400 811.0525 811.0525 812.2323 813.2345
   817.1031 817.1031 817.6745 817.6745 818.1296 818.3773 819.2143 819.2143
   819.9603 819.9718 820.0384 820.0384 820.1733 820.1733 820.2805 820.3044
   820.3044 820.3399 820.4729 820.4729 820.4740 820.6042 820.6042 820.6452
   825.3982 825.5022 828.4004 828.6033 828.6033 828.9109 828.9109 829.7731
   831.8720 831.8720 831.9687 831.9687 831.9976 831.9976 832.2808 832.4916
   833.5558 833.6610 833.6610 834.4856 834.4856 834.5121 834.5380 834.5380
   838.0957 838.0957 838.1133 838.1133 838.1998 838.1998 838.2054 838.2124
   838.2187 838.2187 838.2297 838.3303 839.8257 839.8257 839.8380 839.8380
   840.6271 840.6272 841.2866 841.2866 841.2893 841.2893 843.0274 843.0276
   853.1958 853.1958 854.0767 854.2150 854.2150 854.5702 854.6891 854.6891
   854.8753 854.8753 854.9593 855.0257 864.7853 864.7853 865.1000 866.3070
   866.3942 866.3942 866.5326 866.5326 867.2415 867.2415 867.3923 867.4030
   867.7535 867.7535 868.0789 868.0789 868.2281 868.5024 868.5024 868.6427
   868.6427 869.0174 869.0231 869.0734 869.1361 869.2110 869.3639 869.3639
   869.4469 869.4469 870.6780 870.6780 871.0053 871.0053 871.0112 871.1684
   878.3770 878.7628 884.8174 884.8174 885.5942 885.7567 885.7567 885.8237
   886.8058 886.8188 886.8188 886.8287 886.8287 886.8988 886.8988 886.9343
   886.9650 886.9650 887.0086 887.3993 887.9287 887.9461 887.9461 888.1224
   888.1224 888.2179 888.7288 888.7288 888.7424 888.7424 888.7751 888.8019
   889.4706 889.4706 889.8200 889.8200 889.9378 890.0145 890.5684 890.5684
   890.5884 890.5884 890.5942 890.5960 891.4079 891.4079 891.4140 891.4140
   892.7184 892.7184 892.7252 892.7252 892.8507 892.8544 899.6034 899.6034
   900.2014 900.2597 900.2597 900.4002 907.8356 907.8499 907.8499 907.8630
   907.8630 907.8910 920.9378 920.9378 921.3619 921.4108 921.4142 921.4142
   921.4594 921.4594 921.7468 921.7468 921.7736 921.7736 921.7801 921.7924
   922.6064 922.6064 922.7084 922.7668 922.7668 922.7829 922.8534 922.8534
   922.8539 922.9581 925.0770 925.0770 925.4483 925.7732 925.7732 925.8925

          k = 0.0000 0.2500 0.0000 (  3271 PWs)   bands (ev):

   -63.3949 -30.1740 -30.1659 -30.1659  -8.1191   7.8969   8.6930   8.6930
    15.0216  22.6711  25.4237  25.4237  28.0317  31.2198  32.0347  34.2912
    34.2912  35.7560  45.7287  46.8956  46.8956  51.0741  57.4700  57.4700
    57.9014  60.0623  65.4939  70.1671  70.1671  70.3446  73.5924  73.9654
    75.5952  77.1792  77.1792  80.6329  81.2359  81.2359  82.1043  84.8393
    87.4090  87.4090  88.7900  88.7900  89.2192  90.4885  92.7564  92.7613
    95.8330  95.8330  96.0849  96.3353  98.6484  98.6484  99.8133 103.3882
   103.3882 105.6083 107.1144 109.1373 109.4812 109.4812 115.3913 119.9090
   119.9090 122.2493 126.6428 126.9388 139.6713 139.6713 140.0073 140.0214
   140.5051 140.5051 140.6815 147.5624 149.0845 149.0845 149.6710 149.6710
   149.7033 150.3554 150.8045 151.1343 155.1953 155.2973 155.2973 155.7776
   156.1435 158.2534 158.2534 161.6066 163.5204 163.6277 164.4954 164.4954
   165.0177 166.2210 166.2210 166.4078 166.5379 167.5278 171.0603 171.0603
   173.0217 173.6064 175.1823 175.1823 175.2452 176.4430 177.2655 177.7146
   177.7146 180.4901 181.4497 181.4497 183.5452 183.7114 183.7114 186.7715
   189.3693 189.3693 190.3012 190.3103 192.9944 193.7144 193.7144 194.3561
   199.7103 199.7103 200.7087 201.9925 202.3970 204.1789 204.1818 204.1818
   208.9756 210.0688 210.5660 210.5660 211.2722 211.7607 211.7607 212.1611
   212.2110 215.5167 217.4889 217.4889 218.3581 222.5287 223.1399 223.1399
   223.3649 224.5399 225.6414 225.6414 226.5337 226.9222 232.8238 233.1009
   233.1009 235.1528 236.5580 236.5580 237.1864 237.1864 237.3995 237.8398
   237.9477 246.9498 247.7170 247.7170 252.5115 252.5115 254.2747 254.2747
   254.3141 254.5366 260.6607 260.8626 264.4654 264.6764 268.2336 268.2336
   272.3461 273.3184 273.3184 273.6993 274.4416 275.5919 276.1703 276.1760
   276.1760 277.0352 277.0352 278.7876 278.7876 278.8300 279.0233 279.8122
   282.3240 283.9740 284.6963 284.9624 284.9624 285.7006 286.5147 286.6122
   286.6122 288.2935 288.9102 288.9796 288.9796 289.2565 289.2565 290.5069
   291.6273 291.6273 291.6301 292.0436 294.2714 295.0247 295.0278 295.0278
   295.1259 296.8631 298.6234 298.6755 298.6755 299.0468 300.5752 301.2148
   301.8926 301.8926 303.0293 304.3715 304.3715 304.9632 306.2124 308.3597
   308.3597 308.7748 308.7748 310.6982 311.3204 311.5369 311.5369 311.5829
   313.6686 314.0239 314.6955 317.0355 317.0355 317.1832 318.7829 320.2043
   320.2043 320.5066 320.5235 321.1825 321.1825 321.5436 322.1600 322.1600
   322.6522 323.2001 327.8892 331.4003 331.4003 332.6219 332.6219 333.3299
   333.6736 333.9032 333.9032 334.0570 334.2765 335.3381 337.6414 342.6934
   343.6252 343.6252 344.2864 344.2864 344.4103 345.3173 345.7068 346.2435
   346.2435 347.1753 347.5622 350.6385 350.8995 350.8995 351.3793 352.0861
   358.0656 358.0656 359.4508 359.4508 361.3677 361.4553 362.0987 362.1408
   362.1408 362.3560 362.3560 362.7508 364.4769 365.9437 366.3573 375.1811
   375.1811 375.4260 375.7711 376.1222 376.1222 376.6993 378.1169 378.5622
   378.7537 379.2908 379.2908 379.7209 382.5034 383.3940 383.3940 383.4341
   383.4341 383.7811 385.1663 386.6179 388.0826 388.0826 393.6666 394.9799
   394.9799 396.5808 396.5948 398.4212 399.2770 399.2770 402.4640 402.4640
   404.7067 405.0736 405.7005 405.7005 407.9985 408.0827 412.8261 412.8906
   413.3613 413.3613 413.9101 414.8266 414.8266 415.9833 417.6083 417.6083
   418.7396 418.9523 419.6829 419.6829 419.9228 420.1019 422.7494 426.2820
   426.2820 428.7040 429.1565 429.4843 429.4843 429.7341 429.7605 430.6562
   430.6562 431.1833 432.0367 435.3135 435.9063 435.9233 435.9233 436.7827
   438.8084 439.1694 439.1694 439.4260 439.5757 439.5757 439.8146 440.2588
   440.2588 440.2779 440.3107 441.0487 441.0487 441.4153 441.8677 443.6797
   446.8854 446.8854 448.4973 449.0657 449.0657 449.4786 449.6107 450.1735
   453.5318 453.5318 454.4400 455.4767 455.6181 455.6181 455.7603 455.8287
   456.0111 456.0111 456.3066 456.3066 456.4074 456.6615 458.9847 461.1838
   461.1838 461.7160 462.6208 462.6208 462.8905 462.8905 463.0865 463.6687
   464.1762 465.5936 465.5936 465.7999 466.3122 467.6135 467.6778 467.6778
   467.7826 468.0111 472.0209 472.9513 473.6579 473.6579 473.9049 473.9677
   473.9677 475.0134 475.6502 475.9285 475.9285 478.2393 479.4334 480.0336
   480.1359 480.1359 481.2634 482.2872 482.3141 482.3141 482.7663 483.2695
   483.2695 483.5435 486.0927 487.0887 487.4514 487.9040 487.9040 488.1905
   488.1905 488.5112 488.5112 488.6621 489.0500 489.8017 490.0797 490.4688
   490.4688 490.8653 492.3502 492.6623 492.6623 493.0160 493.4736 494.2824
   496.3289 496.3289 496.8217 497.5514 497.7731 497.7731 500.3121 501.4799
   501.5542 501.9502 501.9502 502.3780 503.3156 503.3156 503.6369 504.5641
   507.3318 507.3318 507.6793 507.7570 507.9486 507.9486 508.0781 509.8401
   512.7676 515.5695 515.5695 516.4414 516.5923 516.7552 516.7552 518.4331
   520.5025 521.4204 521.4204 521.8319 521.9501 521.9501 522.7188 523.1807
   523.1807 526.5833 528.1520 528.6035 531.6523 534.3866 534.3866 534.5937
   534.5937 535.4990 535.6730 535.8886 537.1115 537.2452 537.2452 542.4437
   542.4437 543.0666 543.9201 545.3983 549.8417 549.8417 552.0711 552.3594
   552.9834 552.9834 553.3733 554.0217 554.8265 554.8265 556.1345 556.2479
   558.8285 559.1357 559.1357 560.6015 561.1797 562.1168 562.1168 563.2142
   566.1877 569.8309 569.8309 570.6370 571.8753 571.9745 572.5209 572.5209
   572.7175 574.2220 574.2220 575.2250 575.2250 575.5937 576.4187 577.2045
   577.4525 578.2485 578.4495 578.6328 578.6328 578.9507 578.9507 579.0284
   579.2296 580.8962 580.8962 583.3691 583.4927 583.7956 584.0713 584.0713
   586.8135 589.1729 589.1729 590.1173 592.4783 594.5836 594.6204 594.6204
   594.7778 594.7778 594.8157 595.6913 595.7561 598.3509 598.8903 598.8903
   600.3649 600.5995 600.5995 600.6402 601.3541 601.3541 601.6194 601.6778
   602.5652 602.8844 604.3204 604.3204 604.7319 606.1841 606.2627 606.2627
   607.2983 607.3511 607.3511 608.4433 608.5151 608.8355 608.8355 610.2004
   611.1966 611.1966 611.9897 612.4255 613.7292 614.7178 614.7178 615.0674
   616.5615 616.5615 616.7738 616.9057 616.9057 617.0990 617.2480 617.8448
   617.8448 618.1085 618.1942 618.4026 618.4609 618.4609 618.5357 619.5733
   619.6021 619.6021 619.6342 620.0601 621.9928 629.2022 629.2022 629.6066
   629.9843 630.8491 630.8491 631.0221 631.0497 633.7304 633.7304 634.1556
   634.4798 635.3942 638.2316 638.2316 639.1324 639.1506 639.9154 640.3231
   640.3231 640.8903 640.8903 641.9750 642.5747 643.2748 643.5153 643.5659
   643.5659 643.6494 643.6494 643.8108 644.6856 647.0059 650.1856 650.1856
   650.9352 651.8528 653.1894 654.0291 654.0291 655.1231 656.5408 656.5408
   657.2389 658.2825 658.7609 659.6113 659.6113 660.2590 661.2432 661.4008
   661.4008 661.5343 663.2241 663.2241 666.2386 666.2386 666.3476 666.6967
   667.4165 667.4165 667.7425 667.7944 668.4499 668.9995 668.9995 669.2915
   670.4947 670.7395 670.7395 671.1568 671.3029 671.3029 673.0008 673.0524
   673.0524 673.2875 673.4300 673.9961 673.9961 674.0944 674.3472 674.4109
   674.5113 674.5113 674.6173 675.0591 675.1593 675.1593 676.8852 677.5712
   679.4887 680.1050 680.1050 680.4480 680.5991 681.1261 681.1261 681.5020
   682.2057 682.3485 682.3485 682.5629 683.1922 688.5050 688.5050 688.6250
   688.8583 690.7949 690.7949 691.0422 691.7007 691.9610 691.9610 692.9703
   693.0975 693.5664 693.5664 693.6434 694.1103 694.1103 694.1409 694.1823
   694.6097 702.4997 702.4997 702.5846 702.6422 703.6604 703.6604 703.9872
   704.1722 704.7615 704.7615 704.9690 704.9732 704.9732 704.9978 705.1138
   705.1704 706.7868 708.3503 708.3503 708.4256 708.4256 708.6709 710.1118
   710.7691 711.9787 712.7601 712.7601 713.2154 713.4299 713.6788 713.6788
   713.9504 714.4317 716.7133 716.8133 716.8133 716.9469 717.0002 717.0002
   718.0224 719.5462 719.5462 719.6395 719.6512 720.0809 720.6726 721.9566
   721.9566 722.4855 723.1155 723.2312 723.2312 723.3795 723.6492 723.9236
   723.9236 724.6006 724.8381 724.8381 725.0824 729.3060 729.3060 729.5106
   729.7149 729.9239 729.9239 729.9960 730.1649 730.3038 730.4275 730.4275
   730.6095 730.9290 730.9290 730.9411 731.2723 731.4417 736.3967 736.6976
   736.7598 736.7598 736.8307 739.4886 739.4886 740.8602 741.1142 741.4165
   741.4165 742.1863 743.3057 743.3057 747.2140 747.2140 748.7567 748.9179
   749.4718 749.4718 749.9932 750.2074 750.7524 757.2497 757.2497 757.9087
   758.1613 759.5530 759.5530 759.8024 759.9722 762.1711 762.1711 763.0544
   764.1686 766.2205 766.2577 766.2577 766.3481 770.1097 770.2970 770.2970
   770.3791 773.6516 773.6516 773.9608 774.1161 774.3310 774.4462 774.4462
   774.5915 777.6577 777.9465 777.9465 777.9629 778.0243 778.1905 778.1905
   778.9650 781.2668 781.3102 781.3102 781.3683 790.4303 790.4303 790.4311
   790.4402 790.7104 793.3235 793.3235 793.7499 793.7850 793.7850 795.0750
   795.1052 795.6899 796.0722 796.0722 796.4309 798.1532 798.4609 798.9779
   800.6699 800.6699 801.4176 801.4176 801.9211 804.3329 804.3329 804.8986
   805.6857 807.5572 807.5572 807.8165 807.8521 808.3614 813.2997 815.1560
   815.4151 815.4151 815.6255 815.7736 815.7736 816.3104 816.4353 816.4353
   816.5973 817.8167 820.5383 820.5565 820.5565 820.7206 821.0764 821.0764
   821.5057 821.5728 825.1826 825.1826 825.6059 825.6059 825.6773 826.7672
   827.0566 827.2524 827.2524 827.4550 828.0712 828.6150 828.7379 828.7379
   829.1134 829.6056 829.8540 830.2484 830.2484 830.5624 830.9020 834.4054
   834.4054 836.6235 837.6440 837.6440 837.6786 838.7707 838.9776 838.9776
   839.6179 844.1661 844.1661 844.5529 844.5767 845.1343 845.5376 846.4118
   846.4118 846.6829 846.6829 846.8686 847.2739 847.4758 847.6580 847.9125
   847.9125 848.2725 848.7656 848.7656 849.1636 850.0231 850.1008 850.1343
   850.1343 850.1722 850.4570 851.2324 851.2324 851.6542 854.6355 855.2163
   855.2163 855.6654 857.3148 857.3349 857.3349 857.5596 858.2830 858.3825
   858.4434 858.4464 858.4464 858.9565 858.9565 859.2244 860.7026 860.7026
   861.0314 861.9301 864.3922 864.5614 864.5614 864.7461 866.4309 866.4309
   866.5837 867.3064 869.4200 869.4200 869.7488 870.0177 870.1696 870.1696
   870.3334 870.7622 870.9578 871.2343 871.2343 871.6265 873.3034 873.7369
   874.2589 874.2589 874.3881 874.3881 874.9407 874.9407 875.0339 875.4069
   875.4220 875.4658 875.4658 875.5125 875.5314 875.5992 877.0819 877.3143
   877.3143 877.4416 877.5120 878.1815 878.3183 878.4192 878.4192 878.5538
   878.5538 878.8524 878.8780 879.8336 879.8336 880.1197 880.4755 880.4864
   880.6575 880.6575 880.7852 881.4351 881.4351 881.5083 881.6375 881.6375
   881.6401 881.8368 882.7177 887.2812 887.2812 887.4409 887.5800 889.0323
   889.0323 889.1827 889.4507 891.2054 891.2054 891.3368 891.3744 891.5930
   891.5930 892.0817 892.7179 892.8293 892.8293 892.9308 893.0096 894.3585
   894.3808 894.3808 894.4018 899.3536 899.3536 899.4189 899.4255 900.1171
   900.1171 900.3360 900.7464 906.2890 906.2890 906.3716 906.8041 907.0237
   907.4342 907.4342 907.6590 908.1860 908.1860 908.4096 908.6757 909.4783
   909.4805 909.4805 909.4905 913.8473 913.8529 913.8529 914.0275 914.4043
   915.2791 915.2941 915.2941 915.3360 916.7881 916.7881 917.7941 917.8333
   918.3822 918.4502 918.4502 918.6744 920.3630 920.3630 920.7980 920.8382

          k =-0.1250 0.3750-0.1250 (  3266 PWs)   bands (ev):

   -63.3923 -30.1973 -30.1703 -30.1686  -7.7728   6.6601   8.4381   8.4437
    16.3152  21.3156  25.5008  25.9468  27.1976  31.1331  33.2294  36.4823
    36.5811  37.5558  43.7822  45.5098  47.4584  52.5400  53.3220  55.1629
    58.6581  61.5541  64.9727  68.8750  71.0320  71.1959  72.2060  73.6618
    73.8397  75.5643  77.0571  77.6795  79.4697  80.5119  82.1142  82.6543
    82.9147  85.9071  86.2505  87.4851  90.9475  93.1258  93.3624  94.9716
    95.4039  96.2195  96.7015  98.9673  99.0789 104.7496 105.9809 109.1619
   109.3729 109.8010 110.2188 111.8244 112.4004 115.0341 116.3977 117.5209
   119.3610 123.8161 125.4316 127.6066 131.8048 134.4749 134.7354 135.5782
   137.4111 139.3009 139.7039 140.5751 142.5623 143.4831 145.1123 145.8349
   146.2754 148.1090 150.4383 150.9159 151.5492 151.7844 154.9140 155.0678
   156.8271 157.3064 159.8323 160.2936 162.0844 163.2039 166.1468 166.1516
   166.5182 168.0954 168.3858 168.9980 169.1900 171.2625 172.3743 173.7872
   174.0353 175.0826 175.6512 177.2948 177.7399 178.0893 179.2330 179.2968
   180.8423 182.2182 183.1783 183.4758 183.5123 184.3015 186.2104 187.7482
   188.7424 190.2972 192.3993 192.4957 192.8923 193.9613 194.2901 194.9781
   195.9801 198.2097 198.3938 201.0313 202.3566 202.4533 203.2421 203.4555
   204.5334 205.6212 209.1606 209.6520 212.7132 212.8579 214.1798 216.8680
   217.2783 217.6036 217.7754 218.1631 218.4000 223.1857 225.4497 226.3339
   226.6709 227.0084 227.4027 228.3430 228.6194 231.2355 233.4072 234.1746
   234.3277 235.5552 236.1740 238.2143 241.5599 242.7291 243.1521 244.2350
   244.2539 246.3543 248.2432 249.0460 249.6059 252.1459 252.8429 254.6781
   257.3072 257.9915 258.1409 258.5578 259.1769 259.3501 261.2452 262.4260
   262.9711 263.3752 266.1323 266.4576 267.1883 267.6124 269.0900 269.4474
   270.1430 271.3922 272.0060 273.0388 273.8987 274.7074 275.4795 276.1395
   278.2913 279.1067 279.7820 280.4965 280.7546 280.8889 282.7530 283.9315
   284.2437 285.6982 287.1561 287.7215 289.2469 289.8137 289.9135 290.5115
   290.9834 291.9063 292.1449 292.5130 294.0956 294.2418 294.6809 295.1481
   297.5578 298.2203 298.2933 299.7684 302.2668 303.2767 303.8389 304.1529
   304.9564 306.1890 307.0782 307.5329 308.0707 308.1005 308.3427 308.7471
   310.2608 310.5911 312.0598 312.1831 313.1421 315.9572 316.4251 316.9274
   317.1886 318.2089 319.4820 321.1977 321.3480 323.1202 323.2978 323.4918
   323.4968 324.3976 324.8612 325.0186 325.6562 326.3834 326.9889 328.5609
   329.1973 329.3438 329.4132 330.0275 330.0787 331.3203 332.9470 333.0856
   333.6400 333.9032 335.4251 336.2789 336.6842 337.0205 337.4387 337.8153
   339.4087 339.7314 340.1096 340.3958 341.7633 342.6283 342.8238 343.8451
   345.0448 347.2944 347.5985 349.2926 349.3004 350.9897 351.5907 353.3249
   355.6707 359.5269 360.1388 361.4701 361.7618 362.3393 363.2316 364.3752
   365.1493 365.4498 366.9914 368.4785 368.5097 370.7618 372.3660 373.6835
   373.7969 373.8158 374.3788 374.8572 375.7655 375.8893 376.8474 379.9191
   381.0905 381.6129 382.4800 384.5402 385.4588 385.8177 385.9517 386.7969
   386.9312 388.0523 391.2328 391.4248 391.8235 392.8718 393.5702 393.6364
   393.9948 394.6782 395.4711 396.6346 397.3782 398.1225 399.2125 399.3835
   399.9312 400.4030 401.0406 401.7592 403.6141 403.8855 406.7663 407.6206
   408.4764 410.2150 411.1627 412.5774 413.0189 414.2000 414.4244 415.0086
   415.1283 416.4468 417.4900 417.8683 417.9499 418.4137 419.3016 419.4556
   420.7887 421.5235 423.2932 424.4200 424.5911 426.5475 427.9273 427.9288
   428.3121 428.9103 429.4365 430.3778 430.4717 431.3661 431.4313 436.3147
   437.6613 438.2013 438.4181 439.0230 439.3603 439.8269 439.8657 439.9841
   439.9954 440.7369 441.7324 441.7680 441.8272 441.9804 443.0975 443.3358
   443.3789 444.3507 445.6656 446.2519 447.6457 448.0399 449.2973 450.4392
   450.4866 451.2256 451.6430 452.4491 453.8525 454.4109 455.1179 455.4080
   456.6852 457.0978 457.3872 457.4156 457.5244 457.5989 457.9132 458.1703
   459.3360 459.7357 459.8972 460.3211 461.2283 461.2798 461.9275 463.2381
   464.1920 464.6958 465.3464 465.8867 466.4423 466.9123 467.0859 467.1483
   467.4212 468.0207 468.3095 469.3029 469.3614 470.1187 470.5856 470.9001
   472.6748 475.9109 476.3577 477.0653 477.3602 477.5246 477.5440 478.5367
   479.1638 479.6787 480.1264 480.6357 482.1212 482.1802 482.4345 482.8279
   483.6701 483.6879 484.8900 485.1236 485.2973 485.5780 485.7094 487.9596
   488.4014 489.9765 490.0979 490.7898 491.3555 493.0586 494.2155 495.4282
   496.1923 496.8452 496.8919 499.4478 499.4964 499.7814 500.5717 500.8407
   502.0329 502.6622 504.5197 504.9494 506.9941 507.6548 508.3542 508.4148
   508.8877 508.9266 509.2330 509.4706 510.6440 510.8329 511.2740 511.6225
[...]
   498.5383 500.4038 501.6131 504.0575 504.7872 506.6575 506.7963 507.7446
   507.9137 508.4289 510.1179 510.6880 511.1142 511.8415 512.2799 513.9070
   515.4877 516.8233 517.9541 518.5069 520.3951 520.8913 520.9967 521.1553
   523.2949 523.8995 524.2348 525.2887 528.3357 529.0955 529.2719 529.5020
   529.6748 530.1113 530.1420 530.4341 530.4809 531.3244 531.4078 532.0756
   532.4673 532.5669 532.6747 533.7593 534.1371 534.5784 535.1973 535.2508
   535.6509 535.9512 536.4156 536.7179 537.1662 538.8547 539.5169 539.5793
   540.4106 540.6739 540.8556 541.1355 541.9340 542.1576 542.2647 544.2861
   545.5833 546.3938 546.6795 548.3702 549.3835 549.5937 549.6090 549.8951
   549.9632 550.2006 552.7826 553.0312 553.6512 553.7069 553.8735 553.9505
   554.1960 555.1693 557.0795 557.1896 557.6650 557.6887 557.9687 558.1911
   559.8859 559.9237 561.7054 561.7870 563.6167 563.9700 564.4171 564.5963
   564.6545 564.7165 565.1019 565.3128 565.9032 566.8766 567.0833 568.2533
   568.3287 568.4657 568.8253 569.0956 571.3537 574.2300 574.8100 574.8861
   575.1921 575.7332 575.7818 576.1382 576.2407 576.3158 576.3405 576.5891
   576.8335 579.5318 579.5696 579.8682 580.0609 580.2711 580.2822 580.3054
   580.3424 580.7085 581.0404 581.0791 581.8846 582.8324 586.0517 586.9944
   588.1074 589.6825 590.1381 590.4622 590.6023 592.5364 593.3114 593.3403
   594.8142 595.6405 596.1610 596.6487 596.8806 597.0333 597.1949 597.2247
   599.1992 601.2351 601.2599 601.5389 602.1493 602.2884 602.5145 602.5905
   602.8412 603.6206 603.8345 606.7463 608.6365 609.9697 611.9984 612.1311
   612.1388 612.6385 612.6806 612.8762 614.0492 614.0800 614.0836 614.5064
   614.7128 614.8815 615.0669 615.0881 615.5845 615.8977 616.7797 617.6556
   617.9278 619.0233 621.0241 621.0550 622.1255 622.5893 622.7756 623.2463
   623.5428 623.7228 627.4451 628.5234 628.8269 629.5008 630.0607 630.1117
   630.3661 632.3487 632.5239 632.7751 632.9851 634.1181 634.3870 634.6087
   634.8465 635.9870 636.0439 636.1119 637.8306 638.0254 638.9568 639.5682
   640.4731 640.6676 640.7118 641.8583 642.6291 642.9901 643.5963 644.0569
   644.0727 644.1288 644.5419 645.1232 645.1241 647.6252 648.2572 649.2155
   649.4153 652.6965 652.9304 654.4697 655.2940 656.3065 656.5590 656.7426
   657.0696 657.2202 657.4583 657.7407 658.2863 658.7849 660.0409 660.6766
   660.8159 660.9591 662.6435 664.0345 664.0404 665.2798 665.4151 665.7202
   666.1884 667.8402 667.9589 669.4584 670.9191 672.0577 674.8498 674.8544
   675.6315 675.9141 676.6472 676.9045 677.1253 677.1264 677.8069 679.5346
   680.5106 680.6476 680.7779 681.1347 681.2158 681.4248 682.0378 683.0365
   684.9948 686.0736 686.3193 687.0428 687.0918 687.5613 690.3051 690.7445
   690.8839 691.8322 691.8926 691.9038 693.9071 694.7601 695.3910 696.1610
   699.6498 699.9069 700.2246 701.3852 701.5789 701.8358 702.2407 702.3325
   702.6061 704.3906 705.0279 705.2660 705.5450 706.4653 706.5876 706.7856
   707.3668 707.8738 707.8912 707.9080 708.8483 708.9251 711.6124 712.0673
   712.0759 712.0993 712.2928 712.4860 713.9545 714.0887 714.4143 715.0821
   715.2688 715.4468 716.4453 716.6709 718.2158 718.3050 718.4954 719.1058
   719.1422 719.1495 719.4263 720.6802 720.8724 721.3850 721.6093 721.6773
   722.1980 722.3080 722.3910 726.0754 726.1124 728.2302 728.2879 728.4793
   728.7719 728.8626 729.1105 730.3865 730.4862 730.5355 730.7083 732.9785
   733.4463 733.7395 734.4619 734.5354 734.5766 734.6580 735.5915 735.6199
   735.7661 735.8698 736.0539 736.3390 736.3710 737.5767 739.3024 740.5218
   741.1364 741.6151 741.9338 742.1253 743.1385 744.1801 744.4985 744.6454
   745.4129 745.7650 746.6374 746.6389 746.8042 747.0363 747.0960 747.3464
   747.4891 747.5179 748.2501 748.6683 749.9101 750.0113 750.9554 751.2449
   751.5765 752.0978 753.4621 753.9167 754.0614 754.1596 754.2290 754.9788
   755.2268 755.2491 757.2885 758.0993 758.2031 759.2748 760.4226 760.7633
   761.0219 761.5113 761.7352 761.9469 763.8046 763.8112 763.9768 763.9844
   764.4417 764.4584 766.3335 766.4384 766.9419 767.0062 769.4765 769.6754
   769.8157 769.8622 769.8748 770.3525 770.6110 770.6150 771.4264 771.9517
   772.8289 773.1581 776.2314 776.3933 776.6832 777.0409 779.8086 779.9184
   779.9261 780.0470 780.1137 780.5589 780.5600 781.2032 781.5144 781.5161
   782.0934 782.7490 783.0239 783.4323 784.8575 784.8619 785.0150 785.6065
   785.6214 785.6513 785.7002 785.8375 786.9845 787.7579 789.0701 789.3204
   789.8995 789.9158 792.4375 792.5999 793.2123 793.2434 793.3435 794.0949
   794.4137 794.5212 795.2347 795.9446 796.2874 797.1316 797.2466 797.3326
   797.8381 798.6658 798.6690 799.2649 799.3364 801.6952 802.5629 806.4281
   806.4623 807.3042 807.8906 808.0147 808.0259 808.0870 808.8872 808.8911
   809.9186 810.4195 810.4300 811.0796 811.1073 817.8233 818.4993 818.7064
   818.7801 819.2528 819.3026 819.5068 819.7603 819.9433 822.0816 822.2761
   822.3039 822.7647 822.8765 823.0618 823.1352 823.1648 825.2663 825.4728
   825.5580 826.0683 826.4369 826.5261 827.2180 827.5254 827.8532 828.0124
   828.0206 828.2424 833.1926 833.3981 834.5569 835.0930 835.3068 835.4315
   835.6260 835.8210 836.1181 836.1901 836.3728 836.4585 837.4292 837.4385
   838.4094 838.4298 838.4966 838.5104 838.6949 838.7242 839.3076 839.3218
   839.3826 840.0192 840.4620 840.4923 840.9549 840.9753 841.0811 841.6929
   842.0204 842.0805 843.0785 843.1016 844.8390 845.2866 845.4360 845.8493
   850.2447 850.3313 850.3806 850.3971 852.3425 853.5027 853.5327 853.8529
   853.8794 853.9863 855.1721 855.4214 855.5804 855.8736 855.9844 856.2259
   856.8564 857.0162 859.8480 860.6053 861.4358 861.4585 861.6862 862.0941
   862.1727 862.2756 862.5233 862.6668 862.8943 863.4010 865.0766 865.0983
   867.8319 867.8344 868.1456 868.5739 871.6867 872.3322 872.4070 872.5268
   872.6666 872.7510 872.8149 873.0671 874.1067 874.6921 874.9232 874.9508
   875.5616 875.5811 875.8356 875.8394 876.2125 876.2136 877.0722 877.2789
   879.1883 879.9700 880.7292 883.3692 883.4193 883.5040 883.5584 885.1663
   885.3877 885.5615 885.7666 886.1624 886.5580 887.5231 887.5293 888.1504
   888.1646 888.8633 889.1661 889.6030 889.6243 891.7069 892.3840 893.1718
   893.2066 894.7800 894.9772 895.1568 895.2085 895.6616 895.8325 897.2459
   897.2599 899.5812 899.9134 900.0695 900.1148 900.5118 900.6015 900.8563
   900.9492 904.1746 904.2297 904.2682 906.8654 907.1797 907.3121 907.3531
   909.5825 909.9704 910.6290 911.2080 911.5230 911.5515 911.6353 911.8271
   912.0662 912.1298 913.5619 913.5844 914.1813 914.1945 914.8575 915.3428
   916.6064 917.4577 919.0165 919.0537 919.7690 919.7745 921.8287 921.9256
   922.3416 922.5847 922.6425 922.6867 923.2959 923.3934 923.5421 924.0475
   924.5447 925.2317 927.3367 927.5522 927.7891 927.8380 928.6349 928.6530

          k =-0.5000-1.0000 0.0000 (  3248 PWs)   bands (ev):

   -63.3845 -30.2144 -30.2144 -30.1936  -6.7039   5.9601   5.9601   7.1475
    20.6846  20.6846  21.3090  24.6702  31.1216  31.1216  35.6804  38.2598
    41.0250  43.7189  46.8061  46.8061  48.8866  50.3474  50.3474  55.0897
    59.5375  59.5375  60.7829  60.8055  63.2877  63.2877  64.4558  66.4288
    69.1272  69.1272  69.1804  76.1317  82.7623  84.2592  84.2592  89.5806
    89.5806  91.8782  93.0512  93.2513  93.7937  94.0248  94.0248  94.2295
   101.2275 101.2275 101.9108 102.5800 105.5431 109.0272 110.6958 110.6958
   110.9183 112.0194 112.0194 117.2033 120.1705 120.1705 121.6013 121.6013
   122.7788 124.0788 124.5463 124.6655 126.5240 126.5240 128.6526 130.2986
   131.8953 133.2002 134.8627 134.8627 141.5763 141.5763 144.5236 144.6968
   145.4685 145.4685 146.3425 146.5393 146.7783 148.1472 150.0417 150.0417
   153.8356 153.8356 154.9825 154.9825 155.0375 156.4940 157.5062 157.5832
   162.0003 162.2499 162.5820 162.5820 163.3449 163.5485 165.8808 165.8808
   170.7577 172.7147 175.9555 175.9555 178.9656 178.9656 181.8313 181.8313
   182.5543 184.2260 194.5980 195.9640 195.9640 196.0652 196.2077 197.3383
   197.3383 197.6231 199.9676 202.0733 202.5553 203.7756 203.7756 204.8643
   205.6028 206.3118 206.3118 206.4348 208.0605 208.3316 208.3316 208.9480
   208.9480 209.3502 209.7107 213.4561 213.4561 214.8671 214.9612 215.4615
   222.8296 222.8296 223.2781 223.2781 223.7439 224.8439 225.5580 225.8081
   226.6074 226.8951 227.5030 227.5030 229.6092 230.3727 232.2221 232.2221
   235.3694 235.3694 237.2661 240.0605 240.0605 240.5125 241.2493 241.8056
   242.1258 242.1258 242.3479 243.5219 244.8140 248.2085 248.5796 248.5796
   248.7177 248.7776 253.1606 253.1606 256.3263 256.3263 257.6926 258.0651
   258.1982 258.2784 259.6507 259.6507 260.2605 260.3088 260.5080 260.5080
   261.6869 262.1618 262.1922 262.2101 262.2101 264.6691 264.6691 266.0934
   274.5495 274.6669 275.8174 275.8174 276.4287 276.4287 277.7617 277.8082
   280.4797 280.4797 284.3798 286.3300 288.3179 288.3179 291.5017 291.5017
   293.3047 294.5711 294.9934 295.2486 295.2486 295.3022 295.8821 295.8821
   296.6762 298.3426 299.8056 299.8660 299.8792 301.3417 301.9442 301.9442
   304.3079 304.3079 305.8627 308.7820 308.7820 309.1153 309.4764 311.2191
   311.3829 311.3829 311.6646 315.4649 315.4649 315.5968 315.6860 316.9889
   317.0870 317.0870 317.1299 317.1615 324.1253 324.1253 324.6339 324.9244
   325.6870 326.5386 326.5386 326.8681 331.9059 331.9059 333.5033 334.2113
   335.3315 335.3315 336.2453 336.2453 337.2874 337.3929 340.8069 341.4484
   342.0934 345.1285 345.1285 345.1578 345.8436 345.8436 345.9735 345.9881
   347.0165 350.2561 352.1760 352.1760 354.1331 356.9612 361.3134 361.3134
   361.4140 361.6882 361.6882 362.3069 362.8941 362.8941 363.3128 363.3353
   363.7156 363.7156 363.7766 364.0072 364.2905 364.5934 364.7450 364.7450
   366.7229 367.0557 367.2564 367.2564 370.5795 370.5795 372.4190 373.2291
   373.2291 373.6336 376.4780 376.5064 377.1418 377.1418 378.1189 378.1189
   378.2096 378.8313 379.2404 379.4756 379.7491 380.1557 380.1557 380.1762
   384.6228 384.6228 385.4929 388.6897 390.2259 391.0881 391.0881 391.3079
   391.7316 391.7316 395.5597 395.5597 395.6233 395.8346 396.0929 396.5575
   396.5575 397.3883 397.6202 398.0819 398.0819 398.1906 398.2466 400.1231
   400.5498 400.5498 401.6787 401.6787 402.3469 402.3779 402.3823 402.3823
   402.9629 402.9688 405.4992 407.9435 408.7198 408.7198 409.3008 411.2151
   412.5407 413.2722 413.2722 414.8929 414.8929 414.9159 414.9964 416.5491
   419.8886 419.8886 419.9418 419.9501 427.1983 427.1983 427.4024 427.9478
   428.3794 428.3794 429.5092 429.5092 429.5757 430.1442 430.7391 430.7391
   430.7555 430.9475 431.0277 433.2282 439.9577 439.9577 442.4032 442.4032
   442.5361 443.3720 443.5538 444.9839 445.6658 445.6658 446.5816 447.0952
   447.1276 447.1276 447.1872 449.7436 452.9910 454.6442 458.2059 458.2059
   461.6590 461.6590 462.6899 462.6899 462.8004 463.3922 463.8279 463.8279
   463.9730 464.0052 464.0613 464.1602 464.4981 465.1381 465.1381 465.4201
   465.4201 466.2723 466.3699 466.3716 466.4550 466.4550 467.1773 467.1773
   467.2467 467.2606 467.3325 467.6104 467.8115 469.4768 470.6007 470.6007
   473.4930 477.0042 480.3496 480.3496 481.8755 481.8755 482.1336 482.3462
   482.9655 484.2053 486.9065 486.9065 487.4751 487.4751 487.5667 487.5676
   492.6214 493.1813 493.1813 493.2492 494.3733 494.3733 496.3126 497.7755
   497.8240 497.8240 498.2733 498.2733 498.7951 499.2594 499.7849 499.7849
   499.9468 499.9533 500.3860 501.7893 504.9003 504.9003 505.1884 505.2124
   505.3274 505.3274 507.5449 507.7442 507.7442 507.8277 509.1340 510.0225
   510.0225 511.9864 512.1131 513.8843 514.1131 514.2334 514.2334 515.2928
   515.2928 515.4556 515.5209 515.8217 515.8217 515.9384 516.7145 519.8301
   521.3359 521.3359 522.5885 522.5931 525.9910 525.9910 533.2878 533.2878
   533.7172 534.0215 534.1225 534.4938 534.5233 534.5233 534.8893 536.1513
   543.2419 543.2419 544.0416 545.9335 545.9335 545.9484 546.3334 546.4730
   547.5558 547.6488 547.6488 547.8441 548.2806 548.3170 548.3170 549.1459
   549.1459 549.3384 549.9400 550.6202 550.8017 551.1415 551.1415 551.8733
   551.9490 551.9490 552.1850 552.8526 554.0778 554.0778 554.3841 555.2995
   555.3023 555.3023 555.3040 556.1809 560.0838 560.0838 561.6916 564.4931
   564.5761 564.5761 564.6700 566.4762 566.8949 566.8949 567.2930 567.3548
   567.3548 567.5757 567.5757 567.5793 567.8195 567.8391 567.9100 568.0706
   568.2839 568.7220 568.7220 569.1748 569.3514 569.3514 569.8912 569.8912
   569.9106 569.9470 570.2015 572.3149 572.7676 572.7676 572.8009 572.8188
   573.9222 573.9243 573.9340 573.9340 580.4215 581.2097 581.2097 582.2294
   583.6743 583.6743 584.0913 584.0913 584.1148 584.8318 585.0734 585.0810
   591.8825 591.8825 594.1523 594.4827 595.0666 597.4949 597.7683 597.7683
   598.4837 598.4837 598.9498 598.9616 599.4610 599.4610 600.4179 600.4496
   600.4496 600.4606 600.8967 601.0595 602.2909 602.2909 602.9365 603.0949
   603.1601 603.1663 603.1663 603.4747 604.5150 605.2982 606.5784 606.5784
   606.6366 606.6513 611.2351 611.2351 611.5013 612.5557 613.4287 613.4287
   615.1154 615.1154 615.3932 615.5154 617.2937 617.8019 618.9034 618.9034
   618.9048 618.9261 618.9822 618.9822 619.0054 619.0621 619.4975 619.4975
   620.4999 620.6642 620.6642 620.7097 620.7239 621.2745 623.8405 623.8405
   624.7508 624.7508 624.7609 624.7829 633.1574 633.1574 634.0552 634.9407
   635.9864 635.9864 636.0516 636.0614 637.6495 637.7244 637.7352 637.7352
   638.0272 638.0273 638.0273 638.0485 644.2839 645.3761 645.3761 645.4982
   647.5194 647.5194 647.8613 647.8993 649.0530 649.0530 652.0869 652.2595
   652.2595 652.4245 652.5198 653.0585 657.4900 657.4900 657.9923 657.9923
   658.6170 659.3216 659.3315 659.3742 659.3789 659.3789 659.3846 660.1609
   662.8212 662.8212 663.5980 667.5021 668.7455 668.7455 669.1071 669.1071
   669.2525 669.3253 669.9360 670.3376 672.2444 672.2444 675.6954 675.6957
   675.6957 675.7187 676.3625 676.6851 680.4392 681.9326 682.6782 682.6782
   683.4208 683.4208 684.0335 684.0335 684.5061 684.5676 685.3385 685.4470
   685.4470 685.5658 686.2036 686.2036 686.7860 686.8549 686.8845 687.2625
   688.4392 688.4911 688.4911 688.6869 700.8046 700.8046 701.4890 702.1040
   702.8215 702.8215 703.1319 703.1319 703.3054 703.3260 703.9719 703.9897
   704.4446 704.4446 704.5958 704.5991 704.8960 704.9448 704.9448 705.0059
   710.2204 710.2204 710.7489 711.2243 711.2243 712.8963 713.9825 714.1169
   714.1169 715.3842 715.4322 716.8458 718.5264 718.5264 718.7891 719.4208
   719.4208 719.4972 719.5082 719.5957 720.0636 720.5133 720.5133 720.5313
   720.7257 720.9526 720.9802 721.1372 721.1372 721.2279 721.3534 721.3534
   721.4324 721.4324 722.1225 722.1225 722.2638 722.3917 722.3917 722.4178
   722.4309 722.4328 722.5519 722.7810 722.7810 722.9805 723.0134 723.0134
   723.0420 723.0884 723.4776 723.6080 727.1988 727.1988 727.2064 727.2142
   736.7427 737.1011 737.1011 737.1310 737.3192 737.3192 737.3561 737.9418
   738.0796 738.0796 738.6119 738.6986 738.6986 738.7405 738.7772 738.8099
   738.8099 738.9863 739.3142 740.0544 740.2936 740.3854 740.3854 740.5171
   741.1000 741.1352 741.1352 741.2083 748.5633 749.0433 749.2912 749.2912
   750.9629 750.9629 752.0453 752.1815 752.6009 752.7533 752.7533 752.9247
   755.0178 755.1385 761.7905 761.7905 761.8313 761.8416 766.0093 766.0093
   766.1362 767.1181 767.8417 767.8417 769.6098 769.6970 769.6970 769.8500
   770.0164 770.2142 770.7636 770.7636 771.5500 771.5708 771.5708 771.6662
   772.0508 772.6985 773.8985 773.9195 773.9195 773.9746 774.3428 774.4020
   774.4020 774.4157 774.8608 774.8608 774.9352 775.0172 775.0172 775.0458
   775.1045 775.1301 777.6511 777.6511 778.3499 778.3499 778.6534 779.4437
   786.2187 786.2187 786.4915 787.2302 787.8984 787.8984 788.9401 788.9604
   788.9604 788.9695 789.1691 789.2141 795.3754 795.3791 795.3791 795.3846
   799.1926 799.6347 799.8319 799.8319 800.8759 800.9278 800.9278 801.0185
   803.3533 803.3533 803.6431 804.4669 804.4669 804.4831 804.4873 804.6228
   805.0222 805.0222 805.8774 806.3461 807.1092 807.1092 807.2211 807.2416
   807.5362 807.5362 807.6168 807.6168 807.6459 807.7749 807.8882 808.2205
   811.7630 811.7630 813.0005 813.0046 813.0046 813.0060 813.2101 813.2242
   817.7655 817.7655 818.6622 819.0665 819.0665 819.1816 819.2762 819.3322
   820.0016 820.0355 820.0355 820.8142 821.9486 821.9486 822.5936 822.6133
   823.4140 823.5255 823.5255 823.6356 824.2343 824.2343 824.3117 824.3742
   824.3802 824.3802 824.4631 824.4861 824.4940 824.4940 824.8451 824.8491
   824.9048 824.9214 824.9320 824.9320 825.1150 825.5531 825.5595 825.5595
   825.7840 825.8095 825.8095 825.8336 836.2104 836.2104 838.6052 838.9223
   838.9970 838.9970 839.3356 840.5468 843.2324 843.2324 843.3544 843.3544
   843.3548 843.3773 843.3833 843.4006 854.2939 854.2939 854.5050 854.6757
   854.8984 854.8984 855.4337 855.4458 855.4810 855.4810 855.8836 856.0534
   857.6989 857.6989 857.7753 857.9321 858.2819 858.2939 858.2939 858.3657
   858.9047 859.1841 859.1841 859.3292 859.8874 859.8874 859.9246 859.9360
   862.9725 863.0028 863.0028 863.0393 870.2214 870.2214 870.7182 871.0578
   871.0873 871.0873 871.4857 871.5106 871.5179 871.5179 871.7121 872.0098
   874.3651 874.6369 874.7526 874.7526 874.8677 874.8677 874.8849 874.9044
   874.9554 875.0154 875.0154 875.0470 875.5425 875.5425 876.3308 876.3502
   876.3502 876.3574 876.4090 876.4290 876.4452 876.4502 876.4502 876.4781
   881.5311 881.5375 881.5375 881.5413 886.8805 886.8805 886.9052 887.3632
   890.8651 890.8651 891.4253 891.5031 891.5031 891.5768 891.5782 891.5917
   893.4992 893.5134 893.5134 893.5393 894.3131 894.3131 894.3575 894.3638
   895.4546 895.4546 896.0381 896.6897 902.2261 902.2895 902.2895 902.3021
   902.7476 902.7476 902.7742 902.8422 909.8713 909.8749 909.8749 909.9828
   910.0733 910.0733 910.0900 910.0917 913.7138 913.7138 913.7480 913.7628
   915.3220 915.3389 915.3508 915.3508 915.6217 915.6217 915.6520 915.6577
   918.4999 919.4162 920.0940 920.0940 922.1558 922.1558 922.6204 922.6204
   922.7125 923.0366 923.1212 923.3142 923.3142 923.3933 923.9239 924.0650
   924.7866 924.7866 924.7988 924.9185 925.7968 926.2435 926.2584 926.2584

     the Fermi energy is    10.3955 ev
     (compare with:    11.0099 eV, computed in scf)

     Writing all to output data dir out/mp-1265.save/
 
     init_run     :      0.02s CPU      0.06s WALL (       1 calls)
     electrons    :   1282.36s CPU   1365.26s WALL (       1 calls)

     Called by init_run:
     wfcinit      :      0.00s CPU      0.00s WALL (       1 calls)
     potinit      :      0.01s CPU      0.01s WALL (       1 calls)
     hinit0       :      0.01s CPU      0.04s WALL (       1 calls)

     Called by electrons:
     c_bands      :   1282.35s CPU   1365.23s WALL (       1 calls)
     v_of_rho     :      0.00s CPU      0.00s WALL (       1 calls)

     Called by c_bands:
     init_us_2    :      0.00s CPU      0.00s WALL (      15 calls)
     init_us_2:cp :      0.00s CPU      0.00s WALL (      15 calls)
     cegterg      :   1218.78s CPU   1296.99s WALL (      15 calls)

     Called by *egterg:
     cdiaghg      :   1152.78s CPU   1228.85s WALL (     123 calls)
     h_psi        :     21.14s CPU     21.94s WALL (     138 calls)
     g_psi        :      0.13s CPU      0.14s WALL (     108 calls)

     Called by h_psi:
     h_psi:calbec :      0.26s CPU      0.27s WALL (     138 calls)
     vloc_psi     :     20.40s CPU     21.18s WALL (     138 calls)
     add_vuspsi   :      0.20s CPU      0.20s WALL (     138 calls)

     General routines
     calbec       :      0.26s CPU      0.27s WALL (     138 calls)
     fft          :      0.00s CPU      0.03s WALL (      10 calls)
     fftw         :     18.64s CPU     19.35s WALL (  210116 calls)
 
     Parallel routines
 
     PWSCF        :  21m23.57s CPU  22m47.20s WALL

 
   This run was terminated on:  20: 8:29  15Nov2023            

=------------------------------------------------------------------------------=
   JOB DONE.
=------------------------------------------------------------------------------=
