
     Program PWSCF v.7.1 starts on 15Nov2023 at 19:45:36 

     This program is part of the open-source Quantum ESPRESSO suite
     for quantum simulation of materials; please cite
         "P. Giannozzi et al., J. Phys.:Condens. Matter 21 395502 (2009);
         "P. Giannozzi et al., J. Phys.:Condens. Matter 29 465901 (2017);
         "P. Giannozzi et al., J. Chem. Phys. 152 154105 (2020);
          URL http://www.quantum-espresso.org", 
     in publications or presentations arising from this work. More details at
     http://www.quantum-espresso.org/quote

     Parallel version (MPI), running on    24 processors

     MPI processes distributed on     1 nodes
     123253 MiB available memory on the printing compute node when the environment starts
 
     Reading input from pw_mp-1265_scf_k3000_E134.in
Warning: card &CELL ignored
Warning: card / ignored

     Current dimensions of program PWSCF are:
     Max number of different atomic species (ntypx) = 10
     Max number of k-points (npk) =  40000
     Max angular momentum in pseudopotentials (lmaxx) =  4
 
     K-points division:     npool     =       2
     R & G space division:  proc/nbgrp/npool/nimage =      12
     Subspace diagonalization in iterative solution of the eigenvalue problem:
     a serial algorithm will be used

 
     Parallelization info
     --------------------
     sticks:   dense  smooth     PW     G-vecs:    dense   smooth      PW
     Min          96      96     29                 2184     2184     356
     Max          97      97     30                 2187     2187     359
     Sum        1159    1159    349                26229    26229    4279
 
     Using Slab Decomposition
 


     bravais-lattice index     =            2
     lattice parameter (alat)  =       7.9255  a.u.
     unit-cell volume          =     124.4580 (a.u.)^3
     number of atoms/cell      =            2
     number of atomic types    =            2
     number of electrons       =        16.00
     number of Kohn-Sham states=           16
     kinetic-energy cutoff     =     134.0000  Ry
     charge density cutoff     =     536.0000  Ry
     scf convergence threshold =      1.0E-10
     mixing beta               =       0.7000
     number of iterations used =            8  plain     mixing
     Exchange-correlation= PBE
                           (   1   4   3   4   0   0   0)

     celldm(1)=   7.925516  celldm(2)=   0.000000  celldm(3)=   0.000000
     celldm(4)=   0.000000  celldm(5)=   0.000000  celldm(6)=   0.000000

     crystal axes: (cart. coord. in units of alat)
               a(1) = (  -0.500000   0.000000   0.500000 )  
               a(2) = (   0.000000   0.500000   0.500000 )  
               a(3) = (  -0.500000   0.500000   0.000000 )  

     reciprocal axes: (cart. coord. in units 2 pi/alat)
               b(1) = ( -1.000000 -1.000000  1.000000 )  
               b(2) = (  1.000000  1.000000  1.000000 )  
               b(3) = ( -1.000000  1.000000 -1.000000 )  


     PseudoPot. # 1 for Mg read from file:
     /usr/scratch4/magr4985/MG/HTDF/pseudo/SG15/Mg.upf
     MD5 check sum: 330956729b1f868fdecd9f5113f6a961
     Pseudo is Norm-conserving, Zval = 10.0
     Generated using ONCVPSP code by D. R. Hamann
     Using radial grid of  602 points,  4 beta functions with: 
                l(1) =   0
                l(2) =   0
                l(3) =   1
                l(4) =   1

     PseudoPot. # 2 for O  read from file:
     /usr/scratch4/magr4985/MG/HTDF/pseudo/SG15/O.upf
     MD5 check sum: e36c48deb68f4e355fffe4602be2c42c
     Pseudo is Norm-conserving, Zval =  6.0
     Generated using ONCVPSP code by D. R. Hamann
     Using radial grid of  602 points,  4 beta functions with: 
                l(1) =   0
                l(2) =   0
                l(3) =   1
                l(4) =   1

     atomic species   valence    mass     pseudopotential
        Mg            10.00    24.30500     Mg( 1.00)
        O              6.00    15.99940     O ( 1.00)

     48 Sym. Ops., with inversion, found



   Cartesian axes

     site n.     atom                  positions (alat units)
         1           Mg  tau(   1) = (   0.0000000   0.0000000   0.0000000  )
         2           O   tau(   2) = (  -0.5000000   0.5000000   0.5000000  )

     number of k points=    72  Gaussian smearing, width (Ry)=  0.0005
                       cart. coord. in units 2pi/alat
        k(    1) = (   0.0000000   0.0000000   0.0000000), wk =   0.0011574
        k(    2) = (  -0.0833333   0.0833333  -0.0833333), wk =   0.0092593
        k(    3) = (  -0.1666667   0.1666667  -0.1666667), wk =   0.0092593
        k(    4) = (  -0.2500000   0.2500000  -0.2500000), wk =   0.0092593
        k(    5) = (  -0.3333333   0.3333333  -0.3333333), wk =   0.0092593
        k(    6) = (  -0.4166667   0.4166667  -0.4166667), wk =   0.0092593
        k(    7) = (   0.5000000  -0.5000000   0.5000000), wk =   0.0046296
        k(    8) = (   0.0000000   0.1666667   0.0000000), wk =   0.0069444
        k(    9) = (  -0.0833333   0.2500000  -0.0833333), wk =   0.0277778
        k(   10) = (  -0.1666667   0.3333333  -0.1666667), wk =   0.0277778
        k(   11) = (  -0.2500000   0.4166667  -0.2500000), wk =   0.0277778
        k(   12) = (  -0.3333333   0.5000000  -0.3333333), wk =   0.0277778
        k(   13) = (   0.5833333  -0.4166667   0.5833333), wk =   0.0277778
        k(   14) = (   0.5000000  -0.3333333   0.5000000), wk =   0.0277778
        k(   15) = (   0.4166667  -0.2500000   0.4166667), wk =   0.0277778
        k(   16) = (   0.3333333  -0.1666667   0.3333333), wk =   0.0277778
        k(   17) = (   0.2500000  -0.0833333   0.2500000), wk =   0.0277778
        k(   18) = (   0.1666667  -0.0000000   0.1666667), wk =   0.0138889
        k(   19) = (   0.0000000   0.3333333   0.0000000), wk =   0.0069444
        k(   20) = (  -0.0833333   0.4166667  -0.0833333), wk =   0.0277778
        k(   21) = (  -0.1666667   0.5000000  -0.1666667), wk =   0.0277778
        k(   22) = (  -0.2500000   0.5833333  -0.2500000), wk =   0.0277778
        k(   23) = (   0.6666667  -0.3333333   0.6666667), wk =   0.0277778
        k(   24) = (   0.5833333  -0.2500000   0.5833333), wk =   0.0277778
        k(   25) = (   0.5000000  -0.1666667   0.5000000), wk =   0.0277778
        k(   26) = (   0.4166667  -0.0833333   0.4166667), wk =   0.0277778
        k(   27) = (   0.3333333   0.0000000   0.3333333), wk =   0.0138889
        k(   28) = (   0.0000000   0.5000000   0.0000000), wk =   0.0069444
        k(   29) = (  -0.0833333   0.5833333  -0.0833333), wk =   0.0277778
        k(   30) = (  -0.1666667   0.6666667  -0.1666667), wk =   0.0277778
        k(   31) = (   0.7500000  -0.2500000   0.7500000), wk =   0.0277778
        k(   32) = (   0.6666667  -0.1666667   0.6666667), wk =   0.0277778
        k(   33) = (   0.5833333  -0.0833333   0.5833333), wk =   0.0277778
        k(   34) = (   0.5000000   0.0000000   0.5000000), wk =   0.0138889
        k(   35) = (   0.0000000   0.6666667   0.0000000), wk =   0.0069444
        k(   36) = (  -0.0833333   0.7500000  -0.0833333), wk =   0.0277778
        k(   37) = (   0.8333333  -0.1666667   0.8333333), wk =   0.0277778
        k(   38) = (   0.7500000  -0.0833333   0.7500000), wk =   0.0277778
        k(   39) = (   0.6666667  -0.0000000   0.6666667), wk =   0.0138889
        k(   40) = (   0.0000000   0.8333333   0.0000000), wk =   0.0069444
        k(   41) = (   0.9166667  -0.0833333   0.9166667), wk =   0.0277778
        k(   42) = (   0.8333333   0.0000000   0.8333333), wk =   0.0138889
        k(   43) = (   0.0000000  -1.0000000   0.0000000), wk =   0.0034722
        k(   44) = (  -0.1666667   0.3333333   0.0000000), wk =   0.0277778
        k(   45) = (  -0.2500000   0.4166667  -0.0833333), wk =   0.0555556
        k(   46) = (  -0.3333333   0.5000000  -0.1666667), wk =   0.0555556
        k(   47) = (   0.5833333  -0.4166667   0.7500000), wk =   0.0555556
        k(   48) = (   0.5000000  -0.3333333   0.6666667), wk =   0.0277778
        k(   49) = (  -0.1666667   0.5000000   0.0000000), wk =   0.0277778
        k(   50) = (  -0.2500000   0.5833333  -0.0833333), wk =   0.0555556
        k(   51) = (   0.6666667  -0.3333333   0.8333333), wk =   0.0555556
        k(   52) = (   0.5833333  -0.2500000   0.7500000), wk =   0.0555556
        k(   53) = (   0.5000000  -0.1666667   0.6666667), wk =   0.0555556
        k(   54) = (   0.4166667  -0.0833333   0.5833333), wk =   0.0555556
        k(   55) = (   0.3333333   0.0000000   0.5000000), wk =   0.0277778
        k(   56) = (  -0.1666667   0.6666667  -0.0000000), wk =   0.0277778
        k(   57) = (   0.7500000  -0.2500000   0.9166667), wk =   0.0555556
        k(   58) = (   0.6666667  -0.1666667   0.8333333), wk =   0.0555556
        k(   59) = (   0.5833333  -0.0833333   0.7500000), wk =   0.0555556
        k(   60) = (   0.5000000   0.0000000   0.6666667), wk =   0.0277778
        k(   61) = (   0.8333333  -0.1666667   1.0000000), wk =   0.0277778
        k(   62) = (   0.7500000  -0.0833333   0.9166667), wk =   0.0555556
        k(   63) = (   0.6666667   0.0000000   0.8333333), wk =   0.0277778
        k(   64) = (  -0.1666667  -1.0000000  -0.0000000), wk =   0.0138889
        k(   65) = (   0.6666667  -0.3333333   1.0000000), wk =   0.0277778
        k(   66) = (   0.5833333  -0.2500000   0.9166667), wk =   0.0555556
        k(   67) = (   0.5000000  -0.1666667   0.8333333), wk =   0.0277778
        k(   68) = (   0.6666667  -0.1666667   1.0000000), wk =   0.0277778
        k(   69) = (   0.5833333  -0.0833333   0.9166667), wk =   0.0555556
        k(   70) = (   0.5000000   0.0000000   0.8333333), wk =   0.0277778
        k(   71) = (  -0.3333333  -1.0000000   0.0000000), wk =   0.0138889
        k(   72) = (  -0.5000000  -1.0000000   0.0000000), wk =   0.0069444

     Dense  grid:    26229 G-vectors     FFT dimensions: (  45,  45,  45)

     Estimated max dynamical RAM per process >       3.04 MB

     Estimated total dynamical RAM >      66.57 MB

     Initial potential from superposition of free atoms

     starting charge      15.9336, renormalised to      16.0000
     Starting wfcs are random

     total cpu time spent up to now is        0.3 secs

     Self-consistent Calculation

     iteration #  1     ecut=   134.00 Ry     beta= 0.70
     Davidson diagonalization with overlap
     ethr =  1.00E-02,  avg # of iterations =  7.7

     total cpu time spent up to now is        1.5 secs

     total energy              =    -140.69952325 Ry
     estimated scf accuracy    <       0.36378301 Ry

     iteration #  2     ecut=   134.00 Ry     beta= 0.70
     Davidson diagonalization with overlap
     ethr =  2.27E-03,  avg # of iterations =  2.0

     total cpu time spent up to now is        1.9 secs

     total energy              =    -140.79424138 Ry
     estimated scf accuracy    <       0.29656860 Ry

     iteration #  3     ecut=   134.00 Ry     beta= 0.70
     Davidson diagonalization with overlap
     ethr =  1.85E-03,  avg # of iterations =  1.7

     total cpu time spent up to now is        2.4 secs

     total energy              =    -140.85278741 Ry
     estimated scf accuracy    <       0.00154937 Ry

     iteration #  4     ecut=   134.00 Ry     beta= 0.70
     Davidson diagonalization with overlap
     ethr =  9.68E-06,  avg # of iterations =  5.2

     total cpu time spent up to now is        2.9 secs

     total energy              =    -140.85313958 Ry
     estimated scf accuracy    <       0.00001442 Ry

     iteration #  5     ecut=   134.00 Ry     beta= 0.70
     Davidson diagonalization with overlap
     ethr =  9.01E-08,  avg # of iterations =  2.3

     total cpu time spent up to now is        3.4 secs

     total energy              =    -140.85314271 Ry
     estimated scf accuracy    <       0.00000142 Ry

     iteration #  6     ecut=   134.00 Ry     beta= 0.70
     Davidson diagonalization with overlap
     ethr =  8.89E-09,  avg # of iterations =  2.0

     total cpu time spent up to now is        3.8 secs

     total energy              =    -140.85314297 Ry
     estimated scf accuracy    <       0.00000013 Ry

     iteration #  7     ecut=   134.00 Ry     beta= 0.70
     Davidson diagonalization with overlap
     ethr =  8.27E-10,  avg # of iterations =  1.0

     total cpu time spent up to now is        4.3 secs

     total energy              =    -140.85314297 Ry
     estimated scf accuracy    <          3.0E-09 Ry

     iteration #  8     ecut=   134.00 Ry     beta= 0.70
     Davidson diagonalization with overlap
     ethr =  1.90E-11,  avg # of iterations =  2.0

     total cpu time spent up to now is        4.7 secs

     total energy              =    -140.85314297 Ry
     estimated scf accuracy    <          1.1E-10 Ry

     iteration #  9     ecut=   134.00 Ry     beta= 0.70
     Davidson diagonalization with overlap
     ethr =  7.17E-13,  avg # of iterations =  1.5

     total cpu time spent up to now is        5.1 secs

     End of self-consistent calculation

          k = 0.0000 0.0000 0.0000 (  3287 PWs)   bands (ev):

   -63.3967 -30.1616 -30.1616 -30.1616  -8.3447   8.9260   8.9260   8.9260
    13.8206  24.9023  24.9023  24.9023  28.7412  30.7343  30.7343  33.5287

          k =-0.0833 0.0833-0.0833 (  3260 PWs)   bands (ev):

   -63.3961 -30.1676 -30.1622 -30.1622  -8.2670   8.4586   8.8782   8.8782
    14.2709  23.9168  25.0740  25.0740  30.0463  30.1613  30.1613  33.5029

          k =-0.1667 0.1667-0.1667 (  3278 PWs)   bands (ev):

   -63.3944 -30.1842 -30.1639 -30.1639  -8.0473   7.4194   8.7507   8.7507
    15.2318  22.5240  25.4802  25.4802  29.4187  29.4187  31.4399  34.4290

          k =-0.2500 0.2500-0.2500 (  3275 PWs)   bands (ev):

   -63.3921 -30.2067 -30.1661 -30.1661  -7.7273   6.2614   8.5832   8.5832
    16.1636  21.6239  25.7709  25.7709  29.3287  29.3287  31.1970  37.0135

          k =-0.3333 0.3333-0.3333 (  3257 PWs)   bands (ev):

   -63.3898 -30.2290 -30.1684 -30.1684  -7.3794   5.2391   8.4226   8.4226
    16.7288  21.3799  25.7034  25.7034  30.0878  30.0878  30.6474  38.4339

          k =-0.4167 0.4167-0.4167 (  3254 PWs)   bands (ev):

   -63.3881 -30.2453 -30.1701 -30.1701  -7.1026   4.5323   8.3091   8.3091
    16.9134  21.5555  25.5196  25.5196  30.2459  31.1583  31.1583  38.0714

          k = 0.5000-0.5000 0.5000 (  3274 PWs)   bands (ev):

   -63.3875 -30.2512 -30.1707 -30.1707  -6.9958   4.2782   8.2684   8.2684
    16.9389  21.6858  25.4393  25.4393  30.1058  31.6933  31.6933  37.7785

          k = 0.0000 0.1667 0.0000 (  3255 PWs)   bands (ev):

   -63.3959 -30.1673 -30.1636 -30.1636  -8.2418   8.4050   8.8175   8.8175
    14.4169  23.6243  25.1442  25.1442  29.2064  30.4914  30.9508  33.8657

          k =-0.0833 0.2500-0.0833 (  3263 PWs)   bands (ev):

   -63.3945 -30.1795 -30.1659 -30.1646  -8.0713   7.6334   8.6809   8.7098
    15.2006  22.5007  25.4613  25.4775  28.1865  30.7104  32.0647  34.3575

          k =-0.1667 0.3333-0.1667 (  3273 PWs)   bands (ev):

   -63.3924 -30.1996 -30.1686 -30.1664  -7.7871   6.5850   8.5106   8.5395
    16.1588  21.5644  25.6007  25.8058  27.8906  30.4978  32.2450  36.5416

          k =-0.2500 0.4167-0.2500 (  3272 PWs)   bands (ev):

   -63.3901 -30.2214 -30.1708 -30.1691  -7.4499   5.5726   8.3336   8.3533
    16.8841  21.1968  25.2433  25.8694  28.6374  30.9072  31.7967  38.6474

          k =-0.3333 0.5000-0.3333 (  3272 PWs)   bands (ev):

   -63.3883 -30.2392 -30.1721 -30.1719  -7.1488   4.7942   8.1484   8.2476
    17.1973  21.3568  24.8525  25.7362  29.7672  31.4407  31.6518  38.5614

          k = 0.5833-0.4167 0.5833 (  3257 PWs)   bands (ev):

   -63.3873 -30.2483 -30.1741 -30.1721  -6.9832   4.4029   8.0290   8.2171
    17.2669  21.5956  24.6597  25.6238  30.6450  31.3781  31.9107  38.4414

          k = 0.5000-0.3333 0.5000 (  3256 PWs)   bands (ev):

   -63.3875 -30.2463 -30.1751 -30.1707  -7.0178   4.4854   8.0018   8.2685
    17.2638  21.5514  24.6948  25.6574  30.9814  31.0907  31.4877  38.5511

          k = 0.4167-0.2500 0.4167 (  3258 PWs)   bands (ev):

   -63.3888 -30.2339 -30.1745 -30.1684  -7.2385   5.0218   8.0743   8.3909
    17.1444  21.3053  24.9263  25.8636  29.6805  30.8665  31.5677  38.7630

          k = 0.3333-0.1667 0.3333 (  3266 PWs)   bands (ev):

   -63.3909 -30.2143 -30.1724 -30.1657  -7.5628   5.8950   8.2351   8.5564
    16.6905  21.3116  25.2341  26.1144  28.4612  30.2851  31.9776  37.5654

          k = 0.2500-0.0833 0.2500 (  3275 PWs)   bands (ev):

   -63.3932 -30.1929 -30.1694 -30.1634  -7.8909   6.9304   8.4556   8.7229
    15.8377  21.9063  25.3838  25.9129  28.2415  29.9794  32.2904  35.4485

          k = 0.1667-0.0000 0.1667 (  3267 PWs)   bands (ev):

   -63.3951 -30.1757 -30.1656 -30.1621  -8.1426   7.8932   8.6955   8.8428
    14.8800  22.9697  25.2584  25.3711  29.0243  30.1890  31.4103  34.2858

          k = 0.0000 0.3333 0.0000 (  3259 PWs)   bands (ev):

   -63.3936 -30.1825 -30.1690 -30.1690  -7.9582   7.3422   8.5371   8.5371
    15.7145  21.7576  25.7767  25.7767  26.8405  31.5933  33.7741  34.8914

          k =-0.0833 0.4167-0.0833 (  3262 PWs)   bands (ev):

   -63.3919 -30.1966 -30.1723 -30.1715  -7.7295   6.6343   8.3409   8.3632
    16.5441  20.9587  25.3923  26.1433  26.6657  31.7434  34.3949  36.2416

          k =-0.1667 0.5000-0.1667 (  3265 PWs)   bands (ev):

   -63.3898 -30.2148 -30.1750 -30.1746  -7.4330   5.8323   8.0572   8.2066
    17.3758  20.5727  24.4395  26.3184  27.4914  31.9957  34.0988  37.8694

          k =-0.2500 0.5833-0.2500 (  3268 PWs)   bands (ev):

   -63.3879 -30.2309 -30.1788 -30.1763  -7.1428   5.1483   7.7410   8.1050
    17.8694  20.7912  23.7486  26.2551  28.3603  32.5057  33.8061  38.0323

          k = 0.6667-0.3333 0.6667 (  3267 PWs)   bands (ev):

   -63.3867 -30.2407 -30.1831 -30.1759  -6.9469   4.7341   7.4802   8.0808
    18.0387  21.2671  23.3730  26.1227  29.1286  32.5764  33.5710  38.3704

          k = 0.5833-0.2500 0.5833 (  3252 PWs)   bands (ev):

   -63.3866 -30.2416 -30.1860 -30.1738  -6.9158   4.6873   7.3416   8.1395
    18.0958  21.4259  23.3198  26.0849  29.8527  31.5317  33.4308  38.9736

          k = 0.5000-0.1667 0.5000 (  3264 PWs)   bands (ev):

   -63.3875 -30.2340 -30.1864 -30.1707  -7.0613   5.0123   7.3683   8.2688
    18.0310  21.1628  23.6050  26.2345  29.8520  30.4573  33.4881  38.8712

          k = 0.4167-0.0833 0.4167 (  3270 PWs)   bands (ev):

   -63.3892 -30.2204 -30.1836 -30.1674  -7.3290   5.6054   7.5855   8.4391
    17.6126  20.9631  24.1770  26.6151  28.2031  30.6129  33.6720  37.6103

          k = 0.3333 0.0000 0.3333 (  3264 PWs)   bands (ev):

   -63.3913 -30.2053 -30.1774 -30.1647  -7.6324   6.2956   7.9850   8.6066
    16.7650  21.2523  24.8649  26.7760  27.3552  30.3322  33.4897  36.0205

          k = 0.0000 0.5000 0.0000 (  3263 PWs)   bands (ev):

   -63.3906 -30.2021 -30.1764 -30.1764  -7.5659   6.2893   8.1865   8.1865
    17.1566  20.1933  24.6398  26.5862  26.5862  32.6354  36.5860  36.5860

          k =-0.0833 0.5833-0.0833 (  3265 PWs)   bands (ev):

   -63.3888 -30.2140 -30.1804 -30.1798  -7.3316   5.7797   7.9268   8.0282
    17.9061  19.7114  23.6810  26.8890  27.1283  33.1232  36.6757  37.0907

          k =-0.1667 0.6667-0.1667 (  3257 PWs)   bands (ev):

   -63.3872 -30.2256 -30.1861 -30.1815  -7.0839   5.3392   7.4930   7.9264
    18.5056  19.8712  22.9190  26.9266  27.6400  33.6069  36.5121  36.9460

          k = 0.7500-0.2500 0.7500 (  3259 PWs)   bands (ev):

   -63.3860 -30.2323 -30.1931 -30.1811  -6.8932   5.0927   7.0023   7.9031
    18.7470  20.6397  22.4073  26.7931  27.9578  33.7023  36.0300  37.3514

          k = 0.6667-0.1667 0.6667 (  3249 PWs)   bands (ev):

   -63.3856 -30.2328 -30.1995 -30.1786  -6.8213   5.0852   6.6262   7.9637
    18.9260  21.2037  22.1877  26.6526  28.3619  32.5750  35.6524  37.9578

          k = 0.5833-0.0833 0.5833 (  3251 PWs)   bands (ev):

   -63.3862 -30.2288 -30.2014 -30.1749  -6.8931   5.2433   6.5516   8.0956
    18.9797  21.0740  22.4504  26.6122  29.2008  30.7643  35.4331  38.2138

          k = 0.5000 0.0000 0.5000 (  3250 PWs)   bands (ev):

   -63.3875 -30.2246 -30.1953 -30.1707  -7.0828   5.4123   6.9200   8.2689
    18.5461  20.8261  23.1628  26.6845  29.1114  30.1691  34.9834  37.9656

          k = 0.0000 0.6667 0.0000 (  3270 PWs)   bands (ev):

   -63.3875 -30.2204 -30.1839 -30.1839  -7.1690   5.4784   7.8669   7.8669
    18.3884  19.0516  22.9908  27.3566  27.3566  34.0014  36.2863  38.6425

          k =-0.0833 0.7500-0.0833 (  3260 PWs)   bands (ev):

   -63.3862 -30.2277 -30.1886 -30.1863  -6.9863   5.2049   7.5811   7.7613
    18.7418  19.0381  22.4476  27.5453  27.6442  34.6804  35.8932  38.8824

          k = 0.8333-0.1667 0.8333 (  3259 PWs)   bands (ev):

   -63.3852 -30.2305 -30.1967 -30.1863  -6.8342   5.1325   7.0211   7.7342
    18.8209  19.8950  22.0322  27.4553  27.6318  35.1463  36.0147  38.2519

          k = 0.7500-0.0833 0.7500 (  3247 PWs)   bands (ev):

   -63.3849 -30.2266 -30.2076 -30.1838  -6.7580   5.3366   6.3403   7.7917
    19.1026  20.8450  21.6712  27.2136  27.5278  34.2531  36.5980  37.6508

          k = 0.6667-0.0000 0.6667 (  3236 PWs)   bands (ev):

   -63.3852 -30.2199 -30.2154 -30.1797  -6.7805   5.6868   5.8504   7.9219
    19.3483  21.2518  21.6461  26.9263  28.0010  32.3600  36.8118  37.4297

          k = 0.0000 0.8333 0.0000 (  3270 PWs)   bands (ev):

   -63.3853 -30.2330 -30.1894 -30.1894  -6.8768   4.9900   7.6496   7.6496
    18.3609  19.0196  22.2405  27.9151  27.9151  35.1532  35.4493  39.9252

          k = 0.9167-0.0833 0.9167 (  3276 PWs)   bands (ev):

   -63.3847 -30.2350 -30.1935 -30.1901  -6.7876   4.9307   7.3842   7.6156
    18.3833  19.3144  22.0926  27.9022  27.9418  35.0663  36.0967  38.8764

          k = 0.8333 0.0000 0.8333 (  3266 PWs)   bands (ev):

   -63.3845 -30.2314 -30.2014 -30.1880  -6.7446   5.0973   6.8265   7.6664
    18.7362  20.0136  21.8758  27.5622  27.6727  35.6871  36.4474  36.8699

          k = 0.0000-1.0000 0.0000 (  3282 PWs)   bands (ev):

   -63.3845 -30.2375 -30.1914 -30.1914  -6.7698   4.8301   7.5731   7.5731
    18.1299  19.1072  22.1557  28.1221  28.1221  34.6567  36.2063  40.0875

          k =-0.1667 0.3333 0.0000 (  3262 PWs)   bands (ev):

   -63.3930 -30.1910 -30.1712 -30.1656  -7.8704   6.9773   8.3812   8.6280
    15.9957  21.6438  25.4146  26.0282  27.3124  30.8191  33.3052  35.2075

          k =-0.2500 0.4167-0.0833 (  3266 PWs)   bands (ev):

   -63.3909 -30.2083 -30.1762 -30.1674  -7.5797   6.1437   8.0582   8.4808
    16.9135  21.0262  24.8898  26.4103  27.4182  30.9690  33.4995  36.7619

          k =-0.3333 0.5000-0.1667 (  3272 PWs)   bands (ev):

   -63.3888 -30.2263 -30.1796 -30.1702  -7.2668   5.3478   7.7991   8.3095
    17.5672  20.9477  24.2541  26.1996  28.5203  31.3391  33.2188  38.5970

          k = 0.5833-0.4167 0.7500 (  3255 PWs)   bands (ev):

   -63.3873 -30.2396 -30.1812 -30.1728  -7.0205   4.7759   7.6357   8.1768
    17.8101  21.2824  23.8156  25.9710  29.6913  31.4746  33.1074  38.7754

          k = 0.5000-0.3333 0.6667 (  3254 PWs)   bands (ev):

   -63.3867 -30.2445 -30.1816 -30.1740  -6.9262   4.5672   7.5803   8.1272
    17.8505  21.4878  23.6664  25.8816  30.3033  31.3178  33.1649  39.0208

          k =-0.1667 0.5000 0.0000 (  3266 PWs)   bands (ev):

   -63.3902 -30.2079 -30.1790 -30.1731  -7.4967   6.0939   7.9900   8.2559
    17.3507  20.3605  24.4365  26.6585  26.8684  32.1439  35.5327  36.6200

          k =-0.2500 0.5833-0.0833 (  3259 PWs)   bands (ev):

   -63.3883 -30.2210 -30.1847 -30.1756  -7.2253   5.5472   7.6007   8.0940
    18.1548  20.2005  23.5327  26.5801  27.7347  32.4135  35.6196  37.6164

          k = 0.6667-0.3333 0.8333 (  3256 PWs)   bands (ev):

   -63.3867 -30.2314 -30.1891 -30.1781  -6.9879   5.1257   7.2376   7.9674
    18.5740  20.6561  22.8931  26.3495  28.5467  32.4372  35.5114  37.8210

          k = 0.5833-0.2500 0.7500 (  3254 PWs)   bands (ev):

   -63.3860 -30.2363 -30.1927 -30.1785  -6.8597   4.9296   6.9798   7.9367
    18.7118  21.1892  22.5814  26.1661  29.1793  31.9102  35.4492  38.0131

          k = 0.5000-0.1667 0.6667 (  3248 PWs)   bands (ev):

   -63.3862 -30.2344 -30.1944 -30.1764  -6.8862   5.0026   6.9057   8.0094
    18.7498  21.1663  22.6548  26.1813  29.7156  30.9242  35.2279  38.3443

          k = 0.4167-0.0833 0.5833 (  3257 PWs)   bands (ev):

   -63.3873 -30.2273 -30.1925 -30.1730  -7.0574   5.2961   7.0769   8.1598
    18.5515  20.7561  23.1350  26.3985  29.0276  30.8780  35.1038  38.3111

          k = 0.3333 0.0000 0.5000 (  3272 PWs)   bands (ev):

   -63.3890 -30.2179 -30.1859 -30.1696  -7.3142   5.7012   7.5010   8.3386
    17.8569  20.6673  23.9352  26.7042  27.7585  31.1440  34.7825  37.2027

          k =-0.1667 0.6667-0.0000 (  3267 PWs)   bands (ev):

   -63.3873 -30.2223 -30.1867 -30.1820  -7.1232   5.4407   7.6347   7.8679
    18.6138  19.3722  22.9141  26.9819  27.6483  33.6540  36.6663  38.0662

          k = 0.7500-0.2500 0.9167 (  3259 PWs)   bands (ev):

   -63.3860 -30.2280 -30.1934 -30.1843  -6.9262   5.2404   7.1682   7.7336
    19.0771  19.7947  22.2983  26.6872  28.2234  33.7499  36.7454  37.7331

          k = 0.6667-0.1667 0.8333 (  3257 PWs)   bands (ev):

   -63.3852 -30.2287 -30.2016 -30.1842  -6.7985   5.2558   6.6102   7.7130
    19.2592  20.7233  21.8653  26.2876  28.5866  33.2211  36.8872  37.5097

          k = 0.5833-0.0833 0.7500 (  3255 PWs)   bands (ev):

   -63.3852 -30.2252 -30.2084 -30.1814  -6.7805   5.4364   6.2045   7.8014
    19.4735  21.1185  21.7662  26.1289  29.0138  31.8918  37.0194  37.4898

          k = 0.5000 0.0000 0.6667 (  3247 PWs)   bands (ev):

   -63.3860 -30.2250 -30.2049 -30.1772  -6.8774   5.4092   6.4125   7.9676
    19.3603  20.8044  22.2596  26.2834  29.8517  30.3041  36.5410  37.7777

          k = 0.8333-0.1667 1.0000 (  3270 PWs)   bands (ev):

   -63.3852 -30.2314 -30.1924 -30.1892  -6.8519   5.0755   7.3935   7.5738
    18.7606  19.3757  22.1101  27.2292  28.2025  35.0098  35.8899  38.2621

          k = 0.7500-0.0833 0.9167 (  3259 PWs)   bands (ev):

   -63.3847 -30.2299 -30.2001 -30.1894  -6.7586   5.1654   6.8713   7.5265
    19.0316  20.0976  21.8094  26.6117  28.5313  34.9351  35.9915  37.2971

          k = 0.6667 0.0000 0.8333 (  3257 PWs)   bands (ev):

   -63.3847 -30.2231 -30.2107 -30.1863  -6.7329   5.4828   6.2141   7.6225
    19.4038  20.9690  21.4651  26.1301  28.6642  33.5797  36.2932  37.7809

          k =-0.1667-1.0000-0.0000 (  3270 PWs)   bands (ev):

   -63.3845 -30.2344 -30.1945 -30.1920  -6.7534   4.9646   7.3088   7.4626
    18.5543  19.5231  22.0038  27.2886  28.4061  35.0998  36.6130  37.3180

          k = 0.6667-0.3333 1.0000 (  3253 PWs)   bands (ev):

   -63.3868 -30.2252 -30.1944 -30.1786  -7.0082   5.3728   7.0685   7.9045
    19.0821  20.1015  22.6850  26.3382  28.6028  32.1061  37.1270  37.5770

          k = 0.5833-0.2500 0.9167 (  3258 PWs)   bands (ev):

   -63.3856 -30.2272 -30.2011 -30.1821  -6.8426   5.3189   6.6298   7.7252
    19.5487  20.5929  22.0863  25.8930  29.5503  31.4766  37.1937  37.7151

          k = 0.5000-0.1667 0.8333 (  3254 PWs)   bands (ev):

   -63.3852 -30.2277 -30.2035 -30.1837  -6.7804   5.3222   6.4497   7.6538
    19.6133  20.9971  21.8678  25.6463  29.9601  31.1857  37.0623  37.6824

          k = 0.6667-0.1667 1.0000 (  3261 PWs)   bands (ev):

   -63.3851 -30.2266 -30.2006 -30.1884  -6.7954   5.3186   6.7781   7.4586
    19.7113  20.1512  21.7683  25.9293  29.1501  33.0755  36.4979  37.7838

          k = 0.5833-0.0833 0.9167 (  3256 PWs)   bands (ev):

   -63.3847 -30.2216 -30.2088 -30.1899  -6.7293   5.5854   6.2699   7.3581
    20.0307  20.8977  21.3913  25.2388  29.8851  32.1765  36.0951  38.1222

          k = 0.5000 0.0000 0.8333 (  3255 PWs)   bands (ev):

   -63.3849 -30.2195 -30.2118 -30.1870  -6.7470   5.6984   6.0767   7.4789
    20.2196  20.7233  21.5651  25.2712  30.5426  30.9352  36.4931  38.3189

          k =-0.3333-1.0000 0.0000 (  3256 PWs)   bands (ev):

   -63.3845 -30.2259 -30.2029 -30.1931  -6.7205   5.3560   6.6766   7.2500
    19.5738  20.5542  21.5250  25.6570  29.3422  33.8427  35.5445  37.6794

          k =-0.5000-1.0000 0.0000 (  3248 PWs)   bands (ev):

   -63.3845 -30.2144 -30.2144 -30.1936  -6.7039   5.9601   5.9601   7.1475
    20.6846  20.6846  21.3090  24.6702  31.1216  31.1216  35.6804  38.2598

     the Fermi energy is    11.0099 ev

!    total energy              =    -140.85314297 Ry
     estimated scf accuracy    <          8.0E-12 Ry
     smearing contrib. (-TS)   =      -0.00000000 Ry
     internal energy E=F+TS    =    -140.85314297 Ry

     The total energy is F=E-TS. E is the sum of the following terms:
     one-electron contribution =     -55.88088731 Ry
     hartree contribution      =      31.43232345 Ry
     xc contribution           =     -21.22980657 Ry
     ewald contribution        =     -95.17477254 Ry

     convergence has been achieved in   9 iterations

     Writing all to output data dir out/mp-1265.save/
 
     init_run     :      0.16s CPU      0.23s WALL (       1 calls)
     electrons    :      4.29s CPU      4.86s WALL (       1 calls)

     Called by init_run:
     wfcinit      :      0.14s CPU      0.16s WALL (       1 calls)
     potinit      :      0.01s CPU      0.01s WALL (       1 calls)
     hinit0       :      0.01s CPU      0.04s WALL (       1 calls)

     Called by electrons:
     c_bands      :      3.64s CPU      4.07s WALL (       9 calls)
     sum_band     :      0.61s CPU      0.71s WALL (       9 calls)
     v_of_rho     :      0.04s CPU      0.04s WALL (      10 calls)
     mix_rho      :      0.01s CPU      0.02s WALL (       9 calls)

     Called by c_bands:
     init_us_2    :      0.04s CPU      0.04s WALL (     684 calls)
     init_us_2:cp :      0.03s CPU      0.04s WALL (     684 calls)
     cegterg      :      3.37s CPU      3.53s WALL (     324 calls)

     Called by *egterg:
     cdiaghg      :      0.34s CPU      0.36s WALL (    1261 calls)
     h_psi        :      2.90s CPU      3.05s WALL (    1297 calls)
     g_psi        :      0.02s CPU      0.02s WALL (     937 calls)

     Called by h_psi:
     h_psi:calbec :      0.04s CPU      0.05s WALL (    1297 calls)
     vloc_psi     :      2.81s CPU      2.95s WALL (    1297 calls)
     add_vuspsi   :      0.03s CPU      0.03s WALL (    1297 calls)

     General routines
     calbec       :      0.04s CPU      0.05s WALL (    1297 calls)
     fft          :      0.02s CPU      0.05s WALL (      99 calls)
     ffts         :      0.00s CPU      0.00s WALL (       9 calls)
     fftw         :      3.07s CPU      3.23s WALL (   34398 calls)
     davcio       :      0.06s CPU      0.35s WALL (    1130 calls)
 
     Parallel routines
 
     PWSCF        :      4.55s CPU      5.35s WALL

 
   This run was terminated on:  19:45:41  15Nov2023            

=------------------------------------------------------------------------------=
   JOB DONE.
=------------------------------------------------------------------------------=
