
     Program PWSCF v.7.1 starts on  5Dec2023 at  4:38:39 

     This program is part of the open-source Quantum ESPRESSO suite
     for quantum simulation of materials; please cite
         "P. Giannozzi et al., J. Phys.:Condens. Matter 21 395502 (2009);
         "P. Giannozzi et al., J. Phys.:Condens. Matter 29 465901 (2017);
         "P. Giannozzi et al., J. Chem. Phys. 152 154105 (2020);
          URL http://www.quantum-espresso.org", 
     in publications or presentations arising from this work. More details at
     http://www.quantum-espresso.org/quote

     Parallel version (MPI), running on    24 processors

     MPI processes distributed on     1 nodes
     121241 MiB available memory on the printing compute node when the environment starts
 
     Reading input from pw_mp-2534_scf_k3000_E62.in
Warning: card &CELL ignored
Warning: card / ignored

     Current dimensions of program PWSCF are:
     Max number of different atomic species (ntypx) = 10
     Max number of k-points (npk) =  40000
     Max angular momentum in pseudopotentials (lmaxx) =  4
 
     K-points division:     npool     =       2
     R & G space division:  proc/nbgrp/npool/nimage =      12
     Subspace diagonalization in iterative solution of the eigenvalue problem:
     a serial algorithm will be used

 
     Parallelization info
     --------------------
     sticks:   dense  smooth     PW     G-vecs:    dense   smooth      PW
     Min          84      84     25                 1765     1765     289
     Max          85      85     26                 1767     1767     292
     Sum        1015    1015    301                21187    21187    3479
 
     Using Slab Decomposition
 


     bravais-lattice index     =            2
     lattice parameter (alat)  =      10.8663  a.u.
     unit-cell volume          =     320.7608 (a.u.)^3
     number of atoms/cell      =            2
     number of atomic types    =            2
     number of electrons       =        18.00
     number of Kohn-Sham states=           18
     kinetic-energy cutoff     =      62.0000  Ry
     charge density cutoff     =     248.0000  Ry
     scf convergence threshold =      1.0E-10
     mixing beta               =       0.7000
     number of iterations used =            8  plain     mixing
     Exchange-correlation= PBE
                           (   1   4   3   4   0   0   0)

     celldm(1)=  10.866269  celldm(2)=   0.000000  celldm(3)=   0.000000
     celldm(4)=   0.000000  celldm(5)=   0.000000  celldm(6)=   0.000000

     crystal axes: (cart. coord. in units of alat)
               a(1) = (  -0.500000   0.000000   0.500000 )  
               a(2) = (   0.000000   0.500000   0.500000 )  
               a(3) = (  -0.500000   0.500000   0.000000 )  

     reciprocal axes: (cart. coord. in units 2 pi/alat)
               b(1) = ( -1.000000 -1.000000  1.000000 )  
               b(2) = (  1.000000  1.000000  1.000000 )  
               b(3) = ( -1.000000  1.000000 -1.000000 )  


     PseudoPot. # 1 for As read from file:
     /usr/scratch4/magr4985/MG/HTDF/pseudo/SG15/As.upf
     MD5 check sum: a2ff92a4799c87c945fff9e6739df4dd
     Pseudo is Norm-conserving, Zval =  5.0
     Generated using ONCVPSP code by D. R. Hamann
     Using radial grid of  602 points,  6 beta functions with: 
                l(1) =   0
                l(2) =   0
                l(3) =   1
                l(4) =   1
                l(5) =   2
                l(6) =   2

     PseudoPot. # 2 for Ga read from file:
     /usr/scratch4/magr4985/MG/HTDF/pseudo/SG15/Ga.upf
     MD5 check sum: 9961a622ff199abf6dfec9a0a10b8555
     Pseudo is Norm-conserving, Zval = 13.0
     Generated using ONCVPSP code by D. R. Hamann
     Using radial grid of  602 points,  6 beta functions with: 
                l(1) =   0
                l(2) =   0
                l(3) =   1
                l(4) =   1
                l(5) =   2
                l(6) =   2

     atomic species   valence    mass     pseudopotential
        As             5.00    74.92160     As( 1.00)
        Ga            13.00    69.72300     Ga( 1.00)

     24 Sym. Ops. (no inversion) found



   Cartesian axes

     site n.     atom                  positions (alat units)
         1           Ga  tau(   1) = (   0.0000000   0.0000000   0.0000000  )
         2           As  tau(   2) = (  -0.2500000   0.2500000   0.2500001  )

     number of k points=    72  Gaussian smearing, width (Ry)=  0.0005
                       cart. coord. in units 2pi/alat
        k(    1) = (   0.0000000   0.0000000   0.0000000), wk =   0.0011574
        k(    2) = (  -0.0833333   0.0833333  -0.0833333), wk =   0.0092593
        k(    3) = (  -0.1666667   0.1666667  -0.1666667), wk =   0.0092593
        k(    4) = (  -0.2500000   0.2500000  -0.2500000), wk =   0.0092593
        k(    5) = (  -0.3333333   0.3333333  -0.3333333), wk =   0.0092593
        k(    6) = (  -0.4166667   0.4166667  -0.4166667), wk =   0.0092593
        k(    7) = (   0.5000000  -0.5000000   0.5000000), wk =   0.0046296
        k(    8) = (   0.0000000   0.1666667   0.0000000), wk =   0.0069444
        k(    9) = (  -0.0833333   0.2500000  -0.0833333), wk =   0.0277778
        k(   10) = (  -0.1666667   0.3333333  -0.1666667), wk =   0.0277778
        k(   11) = (  -0.2500000   0.4166667  -0.2500000), wk =   0.0277778
        k(   12) = (  -0.3333333   0.5000000  -0.3333333), wk =   0.0277778
        k(   13) = (   0.5833333  -0.4166667   0.5833333), wk =   0.0277778
        k(   14) = (   0.5000000  -0.3333333   0.5000000), wk =   0.0277778
        k(   15) = (   0.4166667  -0.2500000   0.4166667), wk =   0.0277778
        k(   16) = (   0.3333333  -0.1666667   0.3333333), wk =   0.0277778
        k(   17) = (   0.2500000  -0.0833333   0.2500000), wk =   0.0277778
        k(   18) = (   0.1666667  -0.0000000   0.1666667), wk =   0.0138889
        k(   19) = (   0.0000000   0.3333333   0.0000000), wk =   0.0069444
        k(   20) = (  -0.0833333   0.4166667  -0.0833333), wk =   0.0277778
        k(   21) = (  -0.1666667   0.5000000  -0.1666667), wk =   0.0277778
        k(   22) = (  -0.2500000   0.5833333  -0.2500000), wk =   0.0277778
        k(   23) = (   0.6666667  -0.3333333   0.6666667), wk =   0.0277778
        k(   24) = (   0.5833333  -0.2500000   0.5833333), wk =   0.0277778
        k(   25) = (   0.5000000  -0.1666667   0.5000000), wk =   0.0277778
        k(   26) = (   0.4166667  -0.0833333   0.4166667), wk =   0.0277778
        k(   27) = (   0.3333333   0.0000000   0.3333333), wk =   0.0138889
        k(   28) = (   0.0000000   0.5000000   0.0000000), wk =   0.0069444
        k(   29) = (  -0.0833333   0.5833333  -0.0833333), wk =   0.0277778
        k(   30) = (  -0.1666667   0.6666667  -0.1666667), wk =   0.0277778
        k(   31) = (   0.7500000  -0.2500000   0.7500000), wk =   0.0277778
        k(   32) = (   0.6666667  -0.1666667   0.6666667), wk =   0.0277778
        k(   33) = (   0.5833333  -0.0833333   0.5833333), wk =   0.0277778
        k(   34) = (   0.5000000   0.0000000   0.5000000), wk =   0.0138889
        k(   35) = (   0.0000000   0.6666667   0.0000000), wk =   0.0069444
        k(   36) = (  -0.0833333   0.7500000  -0.0833333), wk =   0.0277778
        k(   37) = (   0.8333333  -0.1666667   0.8333333), wk =   0.0277778
        k(   38) = (   0.7500000  -0.0833333   0.7500000), wk =   0.0277778
        k(   39) = (   0.6666667  -0.0000000   0.6666667), wk =   0.0138889
        k(   40) = (   0.0000000   0.8333333   0.0000000), wk =   0.0069444
        k(   41) = (   0.9166667  -0.0833333   0.9166667), wk =   0.0277778
        k(   42) = (   0.8333333   0.0000000   0.8333333), wk =   0.0138889
        k(   43) = (   0.0000000  -1.0000000   0.0000000), wk =   0.0034722
        k(   44) = (  -0.1666667   0.3333333   0.0000000), wk =   0.0277778
        k(   45) = (  -0.2500000   0.4166667  -0.0833333), wk =   0.0555556
        k(   46) = (  -0.3333333   0.5000000  -0.1666667), wk =   0.0555556
        k(   47) = (   0.5833333  -0.4166667   0.7500000), wk =   0.0555556
        k(   48) = (   0.5000000  -0.3333333   0.6666667), wk =   0.0277778
        k(   49) = (  -0.1666667   0.5000000   0.0000000), wk =   0.0277778
        k(   50) = (  -0.2500000   0.5833333  -0.0833333), wk =   0.0555556
        k(   51) = (   0.6666667  -0.3333333   0.8333333), wk =   0.0555556
        k(   52) = (   0.5833333  -0.2500000   0.7500000), wk =   0.0555556
        k(   53) = (   0.5000000  -0.1666667   0.6666667), wk =   0.0555556
        k(   54) = (   0.4166667  -0.0833333   0.5833333), wk =   0.0555556
        k(   55) = (   0.3333333   0.0000000   0.5000000), wk =   0.0277778
        k(   56) = (  -0.1666667   0.6666667  -0.0000000), wk =   0.0277778
        k(   57) = (   0.7500000  -0.2500000   0.9166667), wk =   0.0555556
        k(   58) = (   0.6666667  -0.1666667   0.8333333), wk =   0.0555556
        k(   59) = (   0.5833333  -0.0833333   0.7500000), wk =   0.0555556
        k(   60) = (   0.5000000   0.0000000   0.6666667), wk =   0.0277778
        k(   61) = (   0.8333333  -0.1666667   1.0000000), wk =   0.0277778
        k(   62) = (   0.7500000  -0.0833333   0.9166667), wk =   0.0555556
        k(   63) = (   0.6666667   0.0000000   0.8333333), wk =   0.0277778
        k(   64) = (  -0.1666667  -1.0000000  -0.0000000), wk =   0.0138889
        k(   65) = (   0.6666667  -0.3333333   1.0000000), wk =   0.0277778
        k(   66) = (   0.5833333  -0.2500000   0.9166667), wk =   0.0555556
        k(   67) = (   0.5000000  -0.1666667   0.8333333), wk =   0.0277778
        k(   68) = (   0.6666667  -0.1666667   1.0000000), wk =   0.0277778
        k(   69) = (   0.5833333  -0.0833333   0.9166667), wk =   0.0555556
        k(   70) = (   0.5000000   0.0000000   0.8333333), wk =   0.0277778
        k(   71) = (  -0.3333333  -1.0000000   0.0000000), wk =   0.0138889
        k(   72) = (  -0.5000000  -1.0000000   0.0000000), wk =   0.0069444

     Dense  grid:    21187 G-vectors     FFT dimensions: (  40,  40,  40)

     Estimated max dynamical RAM per process >       4.25 MB

     Estimated total dynamical RAM >      96.78 MB

     Initial potential from superposition of free atoms

     starting charge      17.8922, renormalised to      18.0000

     negative rho (up, down):  6.010E-07 0.000E+00
     Starting wfcs are random

     total cpu time spent up to now is        0.2 secs

     Self-consistent Calculation

     iteration #  1     ecut=    62.00 Ry     beta= 0.70
     Davidson diagonalization with overlap
     ethr =  1.00E-02,  avg # of iterations = 10.3

     Threshold (ethr) on eigenvalues was too large:
     Diagonalizing with lowered threshold

     Davidson diagonalization with overlap
     ethr =  4.42E-04,  avg # of iterations =  2.6

     negative rho (up, down):  1.683E-07 0.000E+00

     total cpu time spent up to now is        2.8 secs

     total energy              =    -144.00192866 Ry
     estimated scf accuracy    <       0.07118529 Ry

     iteration #  2     ecut=    62.00 Ry     beta= 0.70
     Davidson diagonalization with overlap
     ethr =  3.95E-04,  avg # of iterations =  2.1

     negative rho (up, down):  7.380E-08 0.000E+00

     total cpu time spent up to now is        3.5 secs

     total energy              =    -144.02063877 Ry
     estimated scf accuracy    <       0.01905485 Ry

     iteration #  3     ecut=    62.00 Ry     beta= 0.70
     Davidson diagonalization with overlap
     ethr =  1.06E-04,  avg # of iterations =  2.2

     total cpu time spent up to now is        4.2 secs

     total energy              =    -144.02435198 Ry
     estimated scf accuracy    <       0.00055273 Ry

     iteration #  4     ecut=    62.00 Ry     beta= 0.70
     Davidson diagonalization with overlap
     ethr =  3.07E-06,  avg # of iterations =  4.4

     total cpu time spent up to now is        5.0 secs

     total energy              =    -144.02442931 Ry
     estimated scf accuracy    <       0.00003363 Ry

     iteration #  5     ecut=    62.00 Ry     beta= 0.70
     Davidson diagonalization with overlap
     ethr =  1.87E-07,  avg # of iterations =  1.8

     total cpu time spent up to now is        5.6 secs

     total energy              =    -144.02443251 Ry
     estimated scf accuracy    <       0.00000223 Ry

     iteration #  6     ecut=    62.00 Ry     beta= 0.70
     Davidson diagonalization with overlap
     ethr =  1.24E-08,  avg # of iterations =  2.0

     total cpu time spent up to now is        6.2 secs

     total energy              =    -144.02443321 Ry
     estimated scf accuracy    <       0.00000004 Ry

     iteration #  7     ecut=    62.00 Ry     beta= 0.70
     Davidson diagonalization with overlap
     ethr =  2.28E-10,  avg # of iterations =  2.0

     total cpu time spent up to now is        7.0 secs

     total energy              =    -144.02443323 Ry
     estimated scf accuracy    <          2.5E-09 Ry

     iteration #  8     ecut=    62.00 Ry     beta= 0.70
     Davidson diagonalization with overlap
     ethr =  1.41E-11,  avg # of iterations =  2.0

     total cpu time spent up to now is        7.9 secs

     End of self-consistent calculation

          k = 0.0000 0.0000 0.0000 (  2685 PWs)   bands (ev):

    -8.1238  -8.1238  -8.1238  -8.0564  -8.0564  -5.7871   6.5787   6.5787
     6.5787   6.7138  10.2990  10.2990  10.2990  14.0207  16.6138  16.6138
    18.0340  18.0340

          k =-0.0833 0.0833-0.0833 (  2688 PWs)   bands (ev):

    -8.1287  -8.1224  -8.1224  -8.0565  -8.0565  -5.7113   5.2907   6.4745
     6.4745   7.6713  10.4235  10.4566  10.4566  14.4708  16.1066  16.1066
    17.6470  18.8425

          k =-0.1667 0.1667-0.1667 (  2671 PWs)   bands (ev):

    -8.1415  -8.1189  -8.1189  -8.0565  -8.0565  -5.4907   3.8761   6.2275
     6.2275   8.0001  10.8137  10.8137  11.1079  15.3537  15.5814  15.5814
    17.2914  20.3195

          k =-0.2500 0.2500-0.2500 (  2650 PWs)   bands (ev):

    -8.1579  -8.1145  -8.1145  -8.0561  -8.0561  -5.1476   2.5349   5.9498
     5.9498   7.8603  11.1252  11.1252  12.2901  15.4552  15.5563  15.5563
    18.2421  22.0596

          k =-0.3333 0.3333-0.3333 (  2659 PWs)   bands (ev):

    -8.1734  -8.1107  -8.1107  -8.0551  -8.0551  -4.7310   1.3751   5.7165
     5.7165   7.6440  11.2375  11.2375  13.5692  15.2370  16.1536  16.1536
    19.6522  22.6847

          k =-0.4167 0.4167-0.4167 (  2629 PWs)   bands (ev):

    -8.1843  -8.1083  -8.1083  -8.0539  -8.0539  -4.3466   0.5343   5.5658
     5.5658   7.4900  11.2200  11.2200  14.2373  15.7796  17.2466  17.2466
    19.4508  20.7874

          k = 0.5000-0.5000 0.5000 (  2638 PWs)   bands (ev):

    -8.1882  -8.1076  -8.1076  -8.0533  -8.0533  -4.1781   0.2120   5.5139
     5.5139   7.4360  11.1984  11.1984  14.2798  16.5962  18.2508  18.2508
    18.6144  19.5142

          k = 0.0000 0.1667 0.0000 (  2685 PWs)   bands (ev):

    -8.1317  -8.1212  -8.1212  -8.0574  -8.0556  -5.6861   5.2140   6.2746
     6.2746   8.0491   9.9613  10.7331  10.7331  14.5994  15.3946  16.7251
    18.2645  18.2645

          k =-0.0833 0.2500-0.0833 (  2672 PWs)   bands (ev):

    -8.1422  -8.1183  -8.1177  -8.0584  -8.0550  -5.5136   4.1589   5.9767
     6.0449   8.5319   9.9380  11.1842  11.2807  14.7168  15.4586  16.4430
    17.8851  19.2179

          k =-0.1667 0.3333-0.1667 (  2654 PWs)   bands (ev):

    -8.1567  -8.1146  -8.1131  -8.0590  -8.0543  -5.2102   2.8968   5.6902
     5.7351   8.5218  10.3798  11.5689  12.0072  14.6578  16.0893  16.2892
    18.0710  20.7955

          k =-0.2500 0.4167-0.2500 (  2647 PWs)   bands (ev):

    -8.1716  -8.1110  -8.1091  -8.0584  -8.0535  -4.8136   1.7182   5.4009
     5.4786   8.3254  10.7878  11.7024  12.8130  15.2362  16.0568  16.7246
    19.3148  22.3331

          k =-0.3333 0.5000-0.3333 (  2647 PWs)   bands (ev):

    -8.1832  -8.1083  -8.1066  -8.0568  -8.0528  -4.4061   0.7808   5.1227
     5.3714   8.1496  10.9329  11.6250  13.7771  15.6079  16.7817  17.6837
    19.4288  20.6191

          k = 0.5833-0.4167 0.5833 (  2639 PWs)   bands (ev):

    -8.1890  -8.1069  -8.1058  -8.0550  -8.0530  -4.1470   0.2759   4.9406
     5.3783   8.0555  11.0003  11.4891  14.4127  16.1555  17.6021  18.2468
    18.7048  19.6552

          k = 0.5000-0.3333 0.5000 (  2642 PWs)   bands (ev):

    -8.1876  -8.1068  -8.1065  -8.0544  -8.0540  -4.2049   0.3843   4.8745
     5.4957   8.0604  11.1126  11.3795  14.3949  16.0830  16.9485  17.9624
    18.9865  20.6290

          k = 0.4167-0.2500 0.4167 (  2642 PWs)   bands (ev):

    -8.1794  -8.1088  -8.1081  -8.0563  -8.0540  -4.5363   1.0591   4.9358
     5.7083   8.1615  11.2552  11.2842  13.6400  15.6716  15.7513  17.6713
    19.3878  21.5193

          k = 0.3333-0.1667 0.3333 (  2635 PWs)   bands (ev):

    -8.1660  -8.1127  -8.1108  -8.0577  -8.0546  -4.9535   2.0923   5.1308
     5.9858   8.3284  11.1090  11.2432  12.5837  15.0273  15.6741  16.7823
    18.8681  21.7715

          k = 0.2500-0.0833 0.2500 (  2648 PWs)   bands (ev):

    -8.1505  -8.1172  -8.1148  -8.0580  -8.0553  -5.3249   3.3000   5.4649
     6.2716   8.4472  10.7753  10.7960  11.8453  14.9136  15.5913  16.1956
    18.0052  19.9386

          k = 0.1667-0.0000 0.1667 (  2675 PWs)   bands (ev):

    -8.1367  -8.1209  -8.1191  -8.0574  -8.0558  -5.5872   4.4828   5.9518
     6.4702   8.2058  10.3632  10.4997  11.1656  15.0859  15.3393  15.9624
    18.1622  18.5275

          k = 0.0000 0.3333 0.0000 (  2649 PWs)   bands (ev):

    -8.1515  -8.1139  -8.1139  -8.0607  -8.0537  -5.3914   3.8293   5.6436
     5.6436   8.9801   9.5445  11.7489  11.7489  14.0322  16.0148  17.0575
    18.9590  18.9590

          k =-0.0833 0.4167-0.0833 (  2646 PWs)   bands (ev):

    -8.1641  -8.1098  -8.1091  -8.0625  -8.0526  -5.1349   2.9553   5.2795
     5.3375   9.0099   9.7301  12.1847  12.2736  14.1001  16.8641  17.0846
    18.8162  20.0006

          k =-0.1667 0.5000-0.1667 (  2645 PWs)   bands (ev):

    -8.1766  -8.1067  -8.1048  -8.0630  -8.0516  -4.7733   1.9393   4.8314
     5.1206   8.9885  10.2177  12.1886  12.5261  15.1471  17.1753  17.3862
    19.3470  21.5885

          k =-0.2500 0.5833-0.2500 (  2652 PWs)   bands (ev):

    -8.1867  -8.1049  -8.1019  -8.0618  -8.0513  -4.3702   1.0267   4.4084
     5.0222   8.8695  10.7668  12.4727  12.5026  16.2283  17.2931  18.1989
    19.4615  20.6067

          k = 0.6667-0.3333 0.6667 (  2642 PWs)   bands (ev):

    -8.1924  -8.1041  -8.1009  -8.0595  -8.0521  -4.0547   0.4234   4.0904
     5.0519   8.7931  10.9732  12.2748  13.4751  16.2617  17.8461  18.2795
    18.9150  20.0069

          k = 0.5833-0.2500 0.5833 (  2641 PWs)   bands (ev):

    -8.1923  -8.1043  -8.1016  -8.0571  -8.0541  -4.0046   0.3377   3.9157
     5.2045   8.8041  11.0901  12.0558  14.2932  15.8882  16.8218  17.5095
    19.9880  21.5016

          k = 0.5000-0.1667 0.5000 (  2639 PWs)   bands (ev):

    -8.1866  -8.1052  -8.1042  -8.0567  -8.0554  -4.2562   0.8038   3.9138
     5.4602   8.8941  11.2651  11.8285  13.4890  15.5627  16.4092  18.1057
    19.5374  21.7010

          k = 0.4167-0.0833 0.4167 (  2644 PWs)   bands (ev):

    -8.1763  -8.1083  -8.1072  -8.0585  -8.0547  -4.6492   1.6188   4.1277
     5.7789   9.0037  11.3829  11.5179  12.4145  14.7816  16.7315  17.9954
    19.3363  20.8057

          k = 0.3333 0.0000 0.3333 (  2643 PWs)   bands (ev):

    -8.1634  -8.1132  -8.1104  -8.0588  -8.0547  -5.0320   2.5237   4.6334
     6.0875   8.9415  10.9795  11.1067  12.1203  14.5952  16.2780  16.9754
    18.9166  20.3043

          k = 0.0000 0.5000 0.0000 (  2650 PWs)   bands (ev):

    -8.1755  -8.1039  -8.1039  -8.0658  -8.0510  -4.9281   2.5195   5.0083
     5.0083   8.5845   9.7032  13.0098  13.0098  13.8559  17.6090  17.7082
    20.1179  20.1179

          k =-0.0833 0.5833-0.0833 (  2647 PWs)   bands (ev):

    -8.1866  -8.0998  -8.0990  -8.0677  -8.0499  -4.6123   1.8025   4.5977
     4.7702   8.6157   9.6547  13.0012  13.5019  14.9771  17.9651  18.3943
    20.1878  21.2275

          k =-0.1667 0.6667-0.1667 (  2643 PWs)   bands (ev):

    -8.1948  -8.0982  -8.0957  -8.0674  -8.0495  -4.2380   1.0666   4.0422
     4.6560   8.7447  10.1562  12.7353  13.5852  16.4344  18.4211  18.6676
    20.0308  20.7351

          k = 0.7500-0.2500 0.7500 (  2645 PWs)   bands (ev):

    -8.1989  -8.0986  -8.0945  -8.0653  -8.0505  -3.9082   0.5069   3.5471
     4.6780   8.7686  11.1195  12.6989  13.3881  16.6376  18.4127  18.8071
    19.3966  20.4004

          k = 0.6667-0.1667 0.6667 (  2633 PWs)   bands (ev):

    -8.1985  -8.1002  -8.0953  -8.0620  -8.0529  -3.7812   0.3174   3.2291
     4.8329   8.8588  11.7437  13.0796  13.3510  15.3933  16.8965  18.9359
    20.3903  21.9105

          k = 0.5833-0.0833 0.5833 (  2638 PWs)   bands (ev):

    -8.1940  -8.1022  -8.0982  -8.0587  -8.0558  -3.9410   0.5706   3.1617
     5.1017   9.0323  11.9344  12.6847  13.3989  15.2942  15.6540  19.0788
    20.6368  22.0910

          k = 0.5000 0.0000 0.5000 (  2642 PWs)   bands (ev):

    -8.1861  -8.1044  -8.1029  -8.0579  -8.0561  -4.2808   1.0862   3.4361
     5.4430   9.1842  12.0526  12.1362  12.2659  14.9401  16.6767  18.9421
    19.6904  20.6263

          k = 0.0000 0.6667 0.0000 (  2626 PWs)   bands (ev):

    -8.1969  -8.0936  -8.0936  -8.0712  -8.0483  -4.3488   1.3323   4.5043
     4.5043   8.2045   9.1961  14.3590  14.3590  14.8873  18.3681  19.2918
    21.7071  21.7072

          k =-0.0833 0.7500-0.0833 (  2646 PWs)   bands (ev):

    -8.2043  -8.0908  -8.0899  -8.0724  -8.0476  -4.0263   0.7882   4.1113
     4.3619   8.3252   9.1241  14.2432  14.7605  16.3001  18.9640  19.3104
    20.8725  21.3711

          k = 0.8333-0.1667 0.8333 (  2643 PWs)   bands (ev):

    -8.2071  -8.0917  -8.0885  -8.0709  -8.0484  -3.7303   0.3678   3.5262
     4.3589   8.4657   9.8628  13.9680  14.6570  16.8313  18.6846  19.0599
    20.5869  21.0166

          k = 0.7500-0.0833 0.7500 (  2630 PWs)   bands (ev):

    -8.2056  -8.0947  -8.0895  -8.0675  -8.0507  -3.5880   0.2081   3.0460
     4.4954   8.5886  11.1104  13.8154  14.2478  15.4583  17.2343  20.0858
    21.1244  22.0776

          k = 0.6667-0.0000 0.6667 (  2644 PWs)   bands (ev):

    -8.2007  -8.0986  -8.0929  -8.0631  -8.0536  -3.6786   0.3296   2.8743
     4.7555   8.8077  12.2279  13.5771  13.8311  14.2115  16.1653  20.4601
    20.9997  22.3118

          k = 0.0000 0.8333 0.0000 (  2658 PWs)   bands (ev):

    -8.2114  -8.0860  -8.0860  -8.0754  -8.0464  -3.7780   0.3928   4.1863
     4.1863   8.0595   8.5958  15.6504  15.6504  16.2686  19.2823  19.7803
    20.6030  20.6030

          k = 0.9167-0.0833 0.9167 (  2640 PWs)   bands (ev):

    -8.2138  -8.0857  -8.0845  -8.0751  -8.0464  -3.5717   0.1153   3.8609
     4.1502   8.2305   8.7148  15.5271  15.8201  16.9800  19.1137  19.1423
    20.4033  20.9282

          k = 0.8333 0.0000 0.8333 (  2634 PWs)   bands (ev):

    -8.2115  -8.0893  -8.0857  -8.0721  -8.0482  -3.4989   0.0732   3.3487
     4.2572   8.3612   9.7359  15.0107  15.2734  16.0277  17.9744  19.7150
    21.5366  21.8533

          k = 0.0000-1.0000 0.0000 (  2650 PWs)   bands (ev):

    -8.2164  -8.0831  -8.0831  -8.0770  -8.0456  -3.5053  -0.0039   4.0780
     4.0780   8.1342   8.2516  16.3461  16.3461  17.0998  19.3751  19.7571
    19.7571  19.9227

          k =-0.1667 0.3333 0.0000 (  2644 PWs)   bands (ev):

    -8.1539  -8.1149  -8.1131  -8.0599  -8.0541  -5.2991   3.3645   5.3006
     5.9609   8.9693   9.8737  11.5288  11.8973  14.3881  16.2271  16.4344
    18.5925  19.3183

          k =-0.2500 0.4167-0.0833 (  2654 PWs)   bands (ev):

    -8.1675  -8.1110  -8.1088  -8.0605  -8.0533  -4.9657   2.3448   4.7756
     5.7303   9.0407  10.3034  11.9283  12.1466  14.7038  16.4742  17.1545
    18.8875  20.8466

          k =-0.3333 0.5000-0.1667 (  2648 PWs)   bands (ev):

    -8.1800  -8.1077  -8.1053  -8.0598  -8.0529  -4.5621   1.3435   4.4502
     5.4558   8.9037  10.7475  11.9976  12.7050  15.4726  16.5429  18.0326
    19.3053  21.3536

          k = 0.5833-0.4167 0.7500 (  2643 PWs)   bands (ev):

    -8.1887  -8.1059  -8.1031  -8.0580  -8.0530  -4.1916   0.5814   4.2771
     5.2500   8.7823  10.8356  11.9994  13.6795  16.0166  16.9894  18.0444
    19.2141  20.7644

          k = 0.5000-0.3333 0.6667 (  2632 PWs)   bands (ev):

    -8.1917  -8.1053  -8.1023  -8.0567  -8.0534  -4.0301   0.2847   4.2235
     5.1745   8.7375  10.8253  11.9870  14.3947  15.9089  17.1735  18.1543
    18.8492  21.0027

          k =-0.1667 0.5000 0.0000 (  2645 PWs)   bands (ev):

    -8.1759  -8.1056  -8.1042  -8.0644  -8.0514  -4.8482   2.2506   4.6657
     5.2015   9.0983   9.8103  12.2231  12.8857  14.6294  17.3895  17.6827
    19.4296  20.5973

          k =-0.2500 0.5833-0.0833 (  2648 PWs)   bands (ev):

    -8.1863  -8.1030  -8.1000  -8.0646  -8.0509  -4.4770   1.4478   4.1541
     4.9654   9.2563  10.2258  11.9870  13.2901  15.5843  17.7513  18.3594
    19.6940  21.1088

          k = 0.6667-0.3333 0.8333 (  2655 PWs)   bands (ev):

    -8.1935  -8.1022  -8.0974  -8.0632  -8.0514  -4.1020   0.7399   3.7786
     4.7928   9.2332  10.8631  12.1088  13.3738  16.3140  17.7281  18.6718
    19.3617  20.9480

          k = 0.5833-0.2500 0.7500 (  2640 PWs)   bands (ev):

    -8.1963  -8.1024  -8.0965  -8.0609  -8.0528  -3.8711   0.3492   3.5379
     4.7760   9.2475  10.9960  12.7129  13.6565  15.4535  18.0577  18.4976
    19.0084  21.6370

          k = 0.5000-0.1667 0.6667 (  2647 PWs)   bands (ev):

    -8.1945  -8.1032  -8.0976  -8.0596  -8.0541  -3.9292   0.4492   3.4574
     4.9196   9.3366  11.0040  12.6309  13.8130  15.2359  16.9146  18.3834
    20.1572  22.1582

          k = 0.4167-0.0833 0.5833 (  2645 PWs)   bands (ev):

    -8.1883  -8.1046  -8.1005  -8.0604  -8.0537  -4.2342   0.9752   3.5895
     5.1858   9.4589  10.9864  12.0486  13.1343  15.4241  16.8663  18.7009
    19.7164  21.1162

          k = 0.3333 0.0000 0.5000 (  2637 PWs)   bands (ev):

    -8.1788  -8.1071  -8.1046  -8.0611  -8.0531  -4.6200   1.6800   4.0135
     5.5004   9.4608  10.5686  11.8625  12.5708  14.8959  17.3083  17.9736
    19.6522  20.4770

          k =-0.1667 0.6667-0.0000 (  2650 PWs)   bands (ev):

    -8.1957  -8.0964  -8.0944  -8.0693  -8.0490  -4.2891   1.2164   4.1834
     4.5417   8.7525   9.5310  13.0017  14.3104  15.7499  18.5890  18.8330
    20.6924  21.0993

          k = 0.7500-0.2500 0.9167 (  2645 PWs)   bands (ev):

    -8.2013  -8.0959  -8.0914  -8.0686  -8.0494  -3.9440   0.6703   3.6847
     4.3630   9.0038  10.0415  12.7209  14.5891  16.5112  18.2293  19.4720
    20.0601  21.2657

          k = 0.6667-0.1667 0.8333 (  2638 PWs)   bands (ev):

    -8.2028  -8.0975  -8.0906  -8.0661  -8.0511  -3.6957   0.3252   3.2369
     4.3654   9.0950  11.1356  12.5527  14.3460  15.7026  18.3403  19.1528
    20.0439  21.8998

          k = 0.5833-0.0833 0.7500 (  2643 PWs)   bands (ev):

    -8.2006  -8.0998  -8.0920  -8.0630  -8.0535  -3.6783   0.3148   2.9981
     4.5361   9.2579  11.8401  12.7455  13.8878  14.7871  16.9651  19.9369
    20.5742  22.6887

          k = 0.5000 0.0000 0.6667 (  2650 PWs)   bands (ev):

    -8.1954  -8.1021  -8.0955  -8.0609  -8.0547  -3.8997   0.5972   3.0875
     4.8336   9.4651  11.8443  11.9984  13.9452  15.0247  16.1403  19.9683
    20.2862  21.6782

          k = 0.8333-0.1667 1.0000 (  2649 PWs)   bands (ev):

    -8.2092  -8.0894  -8.0870  -8.0729  -8.0475  -3.7473   0.3856   3.9084
     4.0893   8.5899   9.0310  14.2201  15.5542  16.7619  18.6543  19.5494
    20.5752  21.3146

          k = 0.7500-0.0833 0.9167 (  2640 PWs)   bands (ev):

    -8.2095  -8.0915  -8.0864  -8.0708  -8.0488  -3.5485   0.1596   3.4253
     4.0505   8.8315   9.8107  13.9290  15.0631  16.5345  18.5553  19.2281
    20.7687  22.2916

          k = 0.6667 0.0000 0.8333 (  2637 PWs)   bands (ev):

    -8.2061  -8.0955  -8.0880  -8.0672  -8.0512  -3.5243   0.1693   3.0233
     4.2253   9.0083  11.1242  13.5462  13.8736  15.8079  17.4906  20.0617
    21.4160  22.5496

          k =-0.1667-1.0000-0.0000 (  2634 PWs)   bands (ev):

    -8.2139  -8.0867  -8.0845  -8.0741  -8.0469  -3.4938   0.0344   3.8497
     3.8997   8.6242   8.7481  15.3792  15.4804  17.1448  18.6893  19.6675
    19.7735  21.7057

          k = 0.6667-0.3333 1.0000 (  2644 PWs)   bands (ev):

    -8.1940  -8.1013  -8.0955  -8.0648  -8.0514  -4.1248   0.9284   3.5815
     4.6721   9.8942  10.3215  11.6628  14.1641  15.7621  17.4518  19.3617
    20.1211  20.7794

          k = 0.5833-0.2500 0.9167 (  2648 PWs)   bands (ev):

    -8.1988  -8.1008  -8.0924  -8.0638  -8.0526  -3.8109   0.4846   3.2557
     4.4003  10.0201  10.8782  11.8318  14.4026  15.3607  17.3962  19.7201
    20.0922  22.1525

          k = 0.5000-0.1667 0.8333 (  2638 PWs)   bands (ev):

    -8.2004  -8.1008  -8.0913  -8.0629  -8.0533  -3.6779   0.3005   3.1551
     4.2944  10.0252  10.9217  12.5937  13.8359  15.0162  18.4425  19.0229
    19.7139  22.9112

          k = 0.6667-0.1667 1.0000 (  2638 PWs)   bands (ev):

    -8.2045  -8.0963  -8.0884  -8.0678  -8.0505  -3.6702   0.3517   3.4003
     3.9703   9.8449  10.1122  12.4058  14.8570  16.2347  17.9796  19.8737
    20.6394  21.8563

          k = 0.5833-0.0833 0.9167 (  2642 PWs)   bands (ev):

    -8.2047  -8.0979  -8.0875  -8.0659  -8.0523  -3.5250   0.2059   3.1504
     3.8413  10.0786  11.1596  12.2020  13.5206  16.3838  18.5676  19.1868
    20.7434  22.3442

          k = 0.5000 0.0000 0.8333 (  2648 PWs)   bands (ev):

    -8.2026  -8.0995  -8.0889  -8.0643  -8.0533  -3.5842   0.2757   3.0468
     4.0295  10.2398  11.5787  11.7944  13.4508  15.9462  17.6434  20.0129
    20.9627  21.9849

          k =-0.3333-1.0000 0.0000 (  2636 PWs)   bands (ev):

    -8.2083  -8.0942  -8.0860  -8.0688  -8.0503  -3.4704   0.1173   3.4566
     3.6006   9.8532   9.9319  13.4907  13.8109  17.2058  18.5219  19.5951
    19.9137  23.3149

          k =-0.5000-1.0000 0.0000 (  2656 PWs)   bands (ev):

    -8.2052  -8.0983  -8.0865  -8.0655  -8.0529  -3.4586   0.1626   3.2795
     3.4707  10.9562  11.2702  11.8285  12.6030  17.2350  18.5059  19.5698
    19.9959  23.1080

     the Fermi energy is     6.6837 ev

!    total energy              =    -144.02443323 Ry
     estimated scf accuracy    <          8.4E-11 Ry
     smearing contrib. (-TS)   =      -0.00000000 Ry
     internal energy E=F+TS    =    -144.02443323 Ry

     The total energy is F=E-TS. E is the sum of the following terms:
     one-electron contribution =     -85.16869663 Ry
     hartree contribution      =      53.79535305 Ry
     xc contribution           =     -21.20158112 Ry
     ewald contribution        =     -91.44950853 Ry

     convergence has been achieved in   8 iterations

     Writing all to output data dir out/mp-2534.save/
 
     init_run     :      0.13s CPU      0.16s WALL (       1 calls)
     electrons    :      4.89s CPU      7.65s WALL (       1 calls)

     Called by init_run:
     wfcinit      :      0.11s CPU      0.12s WALL (       1 calls)
     potinit      :      0.01s CPU      0.01s WALL (       1 calls)
     hinit0       :      0.01s CPU      0.01s WALL (       1 calls)

     Called by electrons:
     c_bands      :      3.98s CPU      5.81s WALL (       9 calls)
     sum_band     :      0.87s CPU      1.70s WALL (       9 calls)
     v_of_rho     :      0.03s CPU      0.03s WALL (       9 calls)
     mix_rho      :      0.01s CPU      0.05s WALL (       9 calls)

     Called by c_bands:
     init_us_2    :      0.05s CPU      0.06s WALL (     684 calls)
     init_us_2:cp :      0.05s CPU      0.05s WALL (     684 calls)
     cegterg      :      3.14s CPU      3.33s WALL (     324 calls)

     Called by *egterg:
     cdiaghg      :      0.49s CPU      0.51s WALL (    1339 calls)
     h_psi        :      2.46s CPU      2.62s WALL (    1411 calls)
     g_psi        :      0.02s CPU      0.02s WALL (    1051 calls)

     Called by h_psi:
     h_psi:calbec :      0.08s CPU      0.09s WALL (    1411 calls)
     vloc_psi     :      2.30s CPU      2.46s WALL (    1411 calls)
     add_vuspsi   :      0.05s CPU      0.06s WALL (    1411 calls)

     General routines
     calbec       :      0.08s CPU      0.09s WALL (    1411 calls)
     fft          :      0.01s CPU      0.02s WALL (      90 calls)
     ffts         :      0.00s CPU      0.00s WALL (       9 calls)
     fftw         :      2.83s CPU      3.03s WALL (   42154 calls)
     davcio       :      0.07s CPU      2.40s WALL (    1112 calls)
 
     Parallel routines
 
     PWSCF        :      5.14s CPU      8.37s WALL

 
   This run was terminated on:   4:38:48   5Dec2023            

=------------------------------------------------------------------------------=
   JOB DONE.
=------------------------------------------------------------------------------=
