
     Program PWSCF v.7.1 starts on 20Dec2023 at 15: 7:49 

     This program is part of the open-source Quantum ESPRESSO suite
     for quantum simulation of materials; please cite
         "P. Giannozzi et al., J. Phys.:Condens. Matter 21 395502 (2009);
         "P. Giannozzi et al., J. Phys.:Condens. Matter 29 465901 (2017);
         "P. Giannozzi et al., J. Chem. Phys. 152 154105 (2020);
          URL http://www.quantum-espresso.org", 
     in publications or presentations arising from this work. More details at
     http://www.quantum-espresso.org/quote

     Parallel version (MPI), running on    24 processors

     MPI processes distributed on     1 nodes
     122947 MiB available memory on the printing compute node when the environment starts
 
     Reading input from pw_mp-315_scf_k3000_E70.in
Warning: card &CELL ignored
Warning: card / ignored

     Current dimensions of program PWSCF are:
     Max number of different atomic species (ntypx) = 10
     Max number of k-points (npk) =  40000
     Max angular momentum in pseudopotentials (lmaxx) =  4
 
     K-points division:     npool     =       2
     R & G space division:  proc/nbgrp/npool/nimage =      12
     Subspace diagonalization in iterative solution of the eigenvalue problem:
     a serial algorithm will be used

 
     Parallelization info
     --------------------
     sticks:   dense  smooth     PW     G-vecs:    dense   smooth      PW
     Min         100     100     30                 2297     2297     372
     Max         101     101     31                 2299     2299     375
     Sum        1201    1201    361                27581    27581    4477
 
     Using Slab Decomposition
 


     bravais-lattice index     =            2
     lattice parameter (alat)  =      11.1794  a.u.
     unit-cell volume          =     349.2998 (a.u.)^3
     number of atoms/cell      =            3
     number of atomic types    =            2
     number of electrons       =        28.00
     number of Kohn-Sham states=           28
     kinetic-energy cutoff     =      70.0000  Ry
     charge density cutoff     =     280.0000  Ry
     scf convergence threshold =      1.0E-10
     mixing beta               =       0.7000
     number of iterations used =            8  plain     mixing
     Exchange-correlation= PBE
                           (   1   4   3   4   0   0   0)

     celldm(1)=  11.179424  celldm(2)=   0.000000  celldm(3)=   0.000000
     celldm(4)=   0.000000  celldm(5)=   0.000000  celldm(6)=   0.000000

     crystal axes: (cart. coord. in units of alat)
               a(1) = (  -0.500000   0.000000   0.500000 )  
               a(2) = (   0.000000   0.500000   0.500000 )  
               a(3) = (  -0.500000   0.500000   0.000000 )  

     reciprocal axes: (cart. coord. in units 2 pi/alat)
               b(1) = ( -1.000000 -1.000000  1.000000 )  
               b(2) = (  1.000000  1.000000  1.000000 )  
               b(3) = ( -1.000000  1.000000 -1.000000 )  


     PseudoPot. # 1 for F  read from file:
     /usr/scratch4/magr4985/MG/HTDF/pseudo/SG15/F.upf
     MD5 check sum: 1d8275f47d602dd53cad6bcdc0eda7dc
     Pseudo is Norm-conserving, Zval =  7.0
     Generated using ONCVPSP code by D. R. Hamann
     Using radial grid of  602 points,  4 beta functions with: 
                l(1) =   0
                l(2) =   0
                l(3) =   1
                l(4) =   1

     PseudoPot. # 2 for Pb read from file:
     /usr/scratch4/magr4985/MG/HTDF/pseudo/SG15/Pb.upf
     MD5 check sum: 7f27c247474026287e0dbe0f3167d60b
     Pseudo is Norm-conserving, Zval = 14.0
     Generated using ONCVPSP code by D. R. Hamann
     Using radial grid of  602 points,  8 beta functions with: 
                l(1) =   0
                l(2) =   0
                l(3) =   1
                l(4) =   1
                l(5) =   2
                l(6) =   2
                l(7) =   3
                l(8) =   3

     atomic species   valence    mass     pseudopotential
        F              7.00    18.99840     F ( 1.00)
        Pb            14.00   207.20000     Pb( 1.00)

     48 Sym. Ops., with inversion, found



   Cartesian axes

     site n.     atom                  positions (alat units)
         1           Pb  tau(   1) = (   0.0000000   0.0000000   0.0000000  )
         2           F   tau(   2) = (  -0.2500000   0.2500000   0.2500001  )
         3           F   tau(   3) = (  -0.7500000   0.7500001   0.7500001  )

     number of k points=    47  Gaussian smearing, width (Ry)=  0.0005
                       cart. coord. in units 2pi/alat
        k(    1) = (   0.0000000   0.0000000   0.0000000), wk =   0.0020000
        k(    2) = (  -0.1000000   0.1000000  -0.1000000), wk =   0.0160000
        k(    3) = (  -0.2000000   0.2000000  -0.2000000), wk =   0.0160000
        k(    4) = (  -0.3000000   0.3000000  -0.3000000), wk =   0.0160000
        k(    5) = (  -0.4000000   0.4000000  -0.4000000), wk =   0.0160000
        k(    6) = (   0.5000000  -0.5000000   0.5000000), wk =   0.0080000
        k(    7) = (   0.0000000   0.2000000   0.0000000), wk =   0.0120000
        k(    8) = (  -0.1000000   0.3000000  -0.1000000), wk =   0.0480000
        k(    9) = (  -0.2000000   0.4000000  -0.2000000), wk =   0.0480000
        k(   10) = (  -0.3000000   0.5000000  -0.3000000), wk =   0.0480000
        k(   11) = (   0.6000000  -0.4000000   0.6000000), wk =   0.0480000
        k(   12) = (   0.5000000  -0.3000000   0.5000000), wk =   0.0480000
        k(   13) = (   0.4000000  -0.2000000   0.4000000), wk =   0.0480000
        k(   14) = (   0.3000000  -0.1000000   0.3000000), wk =   0.0480000
        k(   15) = (   0.2000000   0.0000000   0.2000000), wk =   0.0240000
        k(   16) = (   0.0000000   0.4000000   0.0000000), wk =   0.0120000
        k(   17) = (  -0.1000000   0.5000000  -0.1000000), wk =   0.0480000
        k(   18) = (  -0.2000000   0.6000000  -0.2000000), wk =   0.0480000
        k(   19) = (   0.7000000  -0.3000000   0.7000000), wk =   0.0480000
        k(   20) = (   0.6000000  -0.2000000   0.6000000), wk =   0.0480000
        k(   21) = (   0.5000000  -0.1000000   0.5000000), wk =   0.0480000
        k(   22) = (   0.4000000   0.0000000   0.4000000), wk =   0.0240000
        k(   23) = (   0.0000000   0.6000000   0.0000000), wk =   0.0120000
        k(   24) = (  -0.1000000   0.7000000  -0.1000000), wk =   0.0480000
        k(   25) = (   0.8000000  -0.2000000   0.8000000), wk =   0.0480000
        k(   26) = (   0.7000000  -0.1000000   0.7000000), wk =   0.0480000
        k(   27) = (   0.6000000  -0.0000000   0.6000000), wk =   0.0240000
        k(   28) = (   0.0000000   0.8000000   0.0000000), wk =   0.0120000
        k(   29) = (   0.9000000  -0.1000000   0.9000000), wk =   0.0480000
        k(   30) = (   0.8000000   0.0000000   0.8000000), wk =   0.0240000
        k(   31) = (   0.0000000  -1.0000000   0.0000000), wk =   0.0060000
        k(   32) = (  -0.2000000   0.4000000   0.0000000), wk =   0.0480000
        k(   33) = (  -0.3000000   0.5000000  -0.1000000), wk =   0.0960000
        k(   34) = (   0.6000000  -0.4000000   0.8000000), wk =   0.0960000
        k(   35) = (   0.5000000  -0.3000000   0.7000000), wk =   0.0480000
        k(   36) = (  -0.2000000   0.6000000   0.0000000), wk =   0.0480000
        k(   37) = (   0.7000000  -0.3000000   0.9000000), wk =   0.0960000
        k(   38) = (   0.6000000  -0.2000000   0.8000000), wk =   0.0960000
        k(   39) = (   0.5000000  -0.1000000   0.7000000), wk =   0.0960000
        k(   40) = (   0.4000000   0.0000000   0.6000000), wk =   0.0480000
        k(   41) = (   0.8000000  -0.2000000   1.0000000), wk =   0.0480000
        k(   42) = (   0.7000000  -0.1000000   0.9000000), wk =   0.0960000
        k(   43) = (   0.6000000   0.0000000   0.8000000), wk =   0.0480000
        k(   44) = (  -0.2000000  -1.0000000   0.0000000), wk =   0.0240000
        k(   45) = (   0.6000000  -0.2000000   1.0000000), wk =   0.0480000
        k(   46) = (   0.5000000  -0.1000000   0.9000000), wk =   0.0480000
        k(   47) = (  -0.4000000  -1.0000000   0.0000000), wk =   0.0240000

     Dense  grid:    27581 G-vectors     FFT dimensions: (  45,  45,  45)

     Estimated max dynamical RAM per process >       9.02 MB

     Estimated total dynamical RAM >     209.68 MB

     Initial potential from superposition of free atoms

     starting charge      27.8972, renormalised to      28.0000
     Starting wfcs are random

     total cpu time spent up to now is        1.1 secs

     Self-consistent Calculation

     iteration #  1     ecut=    70.00 Ry     beta= 0.70
     Davidson diagonalization with overlap
     ethr =  1.00E-02,  avg # of iterations =  8.9

     total cpu time spent up to now is        3.0 secs

     total energy              =    -208.46871599 Ry
     estimated scf accuracy    <       0.36210210 Ry

     iteration #  2     ecut=    70.00 Ry     beta= 0.70
     Davidson diagonalization with overlap
     ethr =  1.29E-03,  avg # of iterations =  2.2

     total cpu time spent up to now is        3.6 secs

     total energy              =    -208.53958369 Ry
     estimated scf accuracy    <       0.39243240 Ry

     iteration #  3     ecut=    70.00 Ry     beta= 0.70
     Davidson diagonalization with overlap
     ethr =  1.29E-03,  avg # of iterations =  2.0

     total cpu time spent up to now is        4.2 secs

     total energy              =    -208.62722751 Ry
     estimated scf accuracy    <       0.00509298 Ry

     iteration #  4     ecut=    70.00 Ry     beta= 0.70
     Davidson diagonalization with overlap
     ethr =  1.82E-05,  avg # of iterations =  5.2

     total cpu time spent up to now is        5.0 secs

     total energy              =    -208.62856155 Ry
     estimated scf accuracy    <       0.00018588 Ry

     iteration #  5     ecut=    70.00 Ry     beta= 0.70
     Davidson diagonalization with overlap
     ethr =  6.64E-07,  avg # of iterations =  3.6

     total cpu time spent up to now is        5.7 secs

     total energy              =    -208.62858335 Ry
     estimated scf accuracy    <       0.00000853 Ry

     iteration #  6     ecut=    70.00 Ry     beta= 0.70
     Davidson diagonalization with overlap
     ethr =  3.05E-08,  avg # of iterations =  2.0

     total cpu time spent up to now is        6.3 secs

     total energy              =    -208.62858543 Ry
     estimated scf accuracy    <       0.00000277 Ry

     iteration #  7     ecut=    70.00 Ry     beta= 0.70
     Davidson diagonalization with overlap
     ethr =  9.89E-09,  avg # of iterations =  1.0

     total cpu time spent up to now is        6.8 secs

     total energy              =    -208.62858571 Ry
     estimated scf accuracy    <       0.00000007 Ry

     iteration #  8     ecut=    70.00 Ry     beta= 0.70
     Davidson diagonalization with overlap
     ethr =  2.62E-10,  avg # of iterations =  2.0

     total cpu time spent up to now is        7.4 secs

     total energy              =    -208.62858573 Ry
     estimated scf accuracy    <          5.0E-10 Ry

     iteration #  9     ecut=    70.00 Ry     beta= 0.70
     Davidson diagonalization with overlap
     ethr =  1.78E-12,  avg # of iterations =  2.0

     total cpu time spent up to now is        8.0 secs

     total energy              =    -208.62858573 Ry
     estimated scf accuracy    <          3.3E-10 Ry

     iteration # 10     ecut=    70.00 Ry     beta= 0.70
     Davidson diagonalization with overlap
     ethr =  1.20E-12,  avg # of iterations =  2.0

     total cpu time spent up to now is        8.6 secs

     End of self-consistent calculation

          k = 0.0000 0.0000 0.0000 (  3479 PWs)   bands (ev):

   -15.1633 -14.5324  -8.5319  -8.5319  -8.5319  -8.4793  -8.4793   1.2759
     3.4021   3.4021   3.4021   3.8949   3.8949   3.8949  12.6992  12.6992
    12.6992  16.6069  21.1326  21.1326  23.4793  23.4793  23.4793  23.5241
    23.5241  23.5241  29.8222  31.1193

          k =-0.1000 0.1000-0.1000 (  3467 PWs)   bands (ev):

   -15.1436 -14.5504  -8.5276  -8.5276  -8.5104  -8.4794  -8.4794   1.0922
     3.3093   3.3815   3.3815   3.8791   3.8791   4.1843  12.3260  12.7824
    12.7824  17.2274  20.8249  20.8249  23.0760  23.4533  23.4954  23.4954
    24.0599  24.0599  30.0548  31.1180

          k =-0.2000 0.2000-0.2000 (  3479 PWs)   bands (ev):

   -15.0891 -14.5996  -8.5193  -8.5193  -8.4766  -8.4766  -8.4551   0.7023
     3.1650   3.3281   3.3281   3.8379   3.8379   4.7496  11.6964  13.0024
    13.0024  18.3822  20.3258  20.3258  22.1484  23.5624  23.5624  23.5888
    25.1542  25.1542  29.9463  29.9463

          k =-0.3000 0.3000-0.3000 (  3452 PWs)   bands (ev):

   -15.0122 -14.6681  -8.5158  -8.5158  -8.4663  -8.4663  -8.3889   0.3219
     3.0153   3.2635   3.2635   3.7872   3.7872   5.3157  11.2377  13.2789
    13.2789  19.0839  19.9569  19.9569  21.1853  23.6951  23.6951  24.6319
    26.1059  26.1059  29.1059  29.1059

          k =-0.4000 0.4000-0.4000 (  3449 PWs)   bands (ev):

   -14.9288 -14.7434  -8.5170  -8.5170  -8.4538  -8.4538  -8.3371   0.0621
     2.8953   3.2122   3.2122   3.7464   3.7464   5.7237  11.0061  13.5062
    13.5062  19.1931  19.7620  19.7620  20.4892  23.8883  23.8883  26.1378
    26.1378  26.6466  29.4130  29.4130

          k = 0.5000-0.5000 0.5000 (  3444 PWs)   bands (ev):

   -14.8716 -14.7971  -8.5180  -8.5180  -8.4485  -8.4485  -8.3177  -0.0291
     2.8490   3.1929   3.1929   3.7308   3.7308   5.8721  10.9414  13.5938
    13.5938  19.1687  19.7055  19.7055  20.2341  24.0092  24.0092  25.9101
    25.9101  28.3627  29.8931  29.8931

          k = 0.0000 0.2000 0.0000 (  3459 PWs)   bands (ev):

   -15.1373 -14.5561  -8.5236  -8.5236  -8.5078  -8.4824  -8.4770   1.0313
     3.2603   3.2603   3.4822   3.9634   3.9634   4.1311  12.1879  12.8243
    12.8243  17.3894  20.3466  21.2230  23.0897  23.4703  23.4703  23.7312
    23.7312  24.2581  30.1244  30.9036

          k =-0.1000 0.3000-0.1000 (  3480 PWs)   bands (ev):

   -15.0951 -14.5939  -8.5149  -8.5142  -8.4842  -8.4734  -8.4662   0.7149
     3.1175   3.1385   3.5473   3.8716   3.9922   4.5956  11.6956  12.9710
    13.0045  18.1342  19.9935  21.0024  22.7171  22.9966  23.7192  23.9305
    24.1915  25.3723  29.8195  30.5472

          k =-0.2000 0.4000-0.2000 (  3453 PWs)   bands (ev):

   -15.0270 -14.6541  -8.5090  -8.5090  -8.4767  -8.4641  -8.4060   0.3437
     2.9697   3.0462   3.5459   3.7654   3.9725   5.1630  11.2876  13.1445
    13.2563  18.3296  20.2758  20.5673  21.9505  22.8868  23.9651  24.5856
    25.0524  26.7688  28.8596  29.4801

          k =-0.3000 0.5000-0.3000 (  3461 PWs)   bands (ev):

   -14.9477 -14.7246  -8.5098  -8.5097  -8.4598  -8.4528  -8.3524   0.0545
     2.8430   3.0111   3.4154   3.7793   3.9179   5.6202  11.0874  13.2815
    13.4894  18.1355  20.1980  20.5791  21.2192  23.1519  24.0660  25.6096
    26.0933  27.3757  28.8629  29.1828

          k = 0.6000-0.4000 0.6000 (  3463 PWs)   bands (ev):

   -14.8756 -14.7912  -8.5114  -8.5110  -8.4485  -8.4461  -8.3245  -0.0867
     2.7776   3.0500   3.2642   3.8446   3.8457   5.8535  11.0389  13.3355
    13.6170  18.0500  19.9111  20.6726  20.9096  23.5216  23.8577  26.0688
    26.2218  28.5032  29.6330  29.7104

          k = 0.5000-0.3000 0.5000 (  3455 PWs)   bands (ev):

   -14.8962 -14.7718  -8.5114  -8.5101  -8.4552  -8.4432  -8.3311  -0.0552
     2.8003   3.1593   3.1619   3.7667   3.9240   5.8077  11.0659  13.3060
    13.5857  18.2186  19.7074  20.5208  21.2135  23.5545  23.8960  25.4884
    26.8136  27.8717  29.0647  29.8966

          k = 0.4000-0.2000 0.4000 (  3465 PWs)   bands (ev):

   -14.9741 -14.7011  -8.5101  -8.5083  -8.4696  -8.4518  -8.3696   0.1439
     2.9052   3.1218   3.3254   3.6938   3.9954   5.4968  11.1800  13.2091
    13.4010  18.5787  19.6518  20.4599  21.7337  23.3820  23.7757  25.0100
    25.9604  27.3699  28.3949  29.4382

          k = 0.3000-0.1000 0.3000 (  3460 PWs)   bands (ev):

   -15.0515 -14.6327  -8.5129  -8.5091  -8.4813  -8.4658  -8.4271   0.4736
     3.0566   3.1519   3.4835   3.6497   4.0375   5.0038  11.4604  13.0629
    13.1359  18.6968  19.8234  20.4118  22.4646  23.3110  23.3458  24.2793
    24.7199  26.5430  28.8742  30.0820

          k = 0.2000 0.0000 0.2000 (  3481 PWs)   bands (ev):

   -15.1126 -14.5785  -8.5223  -8.5174  -8.4822  -8.4813  -8.4754   0.8461
     3.2132   3.2368   3.4785   3.7474   4.0120   4.4840  11.9196  12.8992
    12.9041  17.9664  20.2421  20.7035  23.1116  23.2849  23.3962  23.6699
    23.9339  25.1995  30.0524  30.3829

          k = 0.0000 0.4000 0.0000 (  3479 PWs)   bands (ev):

   -15.0680 -14.6172  -8.5016  -8.5016  -8.4910  -8.4708  -8.4462   0.5051
     2.9572   2.9572   3.6975   4.0858   4.0858   4.6484  11.3455  13.1328
    13.1328  17.7788  20.4017  21.4901  22.1813  23.4627  23.4627  24.3284
    24.3284  25.5427  29.3314  30.7876

          k =-0.1000 0.5000-0.1000 (  3467 PWs)   bands (ev):

   -15.0149 -14.6627  -8.4990  -8.4924  -8.4819  -8.4636  -8.4022   0.2008
     2.8003   2.8194   3.8187   3.9984   4.1183   5.0793  11.0431  13.2451
    13.3352  17.3011  21.3455  21.3567  21.8502  23.0377  23.7214  24.8722
    24.8943  26.7467  28.4697  30.1149

          k =-0.2000 0.6000-0.2000 (  3466 PWs)   bands (ev):

   -14.9485 -14.7201  -8.5025  -8.4921  -8.4580  -8.4525  -8.3600  -0.0690
     2.6711   2.7570   3.7719   3.9455   4.0963   5.5279  10.9968  13.1666
    13.5397  16.9575  20.9431  21.6087  22.2382  22.5043  23.8293  25.6350
    26.1636  28.2469  28.3194  28.9257

          k = 0.7000-0.3000 0.7000 (  3454 PWs)   bands (ev):

   -14.8816 -14.7802  -8.5028  -8.4943  -8.4485  -8.4342  -8.3373  -0.2267
     2.5973   2.7895   3.5433   4.0311   4.0449   5.8095  11.1657  12.9287
    13.6761  16.8638  20.5061  21.5452  22.4477  22.6321  23.5134  26.4838
    26.8728  28.7230  28.9737  29.5064

          k = 0.6000-0.2000 0.6000 (  3457 PWs)   bands (ev):

   -14.8592 -14.8019  -8.5007  -8.4952  -8.4560  -8.4205  -8.3396  -0.2368
     2.6073   2.9166   3.3360   3.9351   4.1319   5.8614  11.3446  12.7299
    13.6921  17.0860  20.0582  21.3827  22.6742  23.2040  23.2215  25.7317
    27.4791  28.2327  29.8617  29.8689

          k = 0.5000-0.1000 0.5000 (  3457 PWs)   bands (ev):

   -14.9223 -14.7446  -8.4984  -8.4941  -8.4725  -8.4247  -8.3615  -0.0964
     2.7075   3.1184   3.1865   3.8183   4.1848   5.6872  11.3479  12.7803
    13.5724  17.6188  19.7104  21.2359  22.9149  23.1074  23.6251  24.8008
    26.8737  28.1098  28.4988  29.8619

          k = 0.4000 0.0000 0.4000 (  3467 PWs)   bands (ev):

   -14.9915 -14.6846  -8.4997  -8.4984  -8.4846  -8.4453  -8.3932   0.1647
     2.8742   3.1175   3.3559   3.6887   4.1683   5.3564  11.3241  12.9627
    13.3569  18.3174  19.6103  20.8521  23.0154  23.1793  23.4139  24.2092
    25.6717  27.8377  28.0272  30.1172

          k = 0.0000 0.6000 0.0000 (  3467 PWs)   bands (ev):

   -14.9802 -14.6906  -8.5024  -8.4739  -8.4739  -8.4632  -8.3727  -0.0279
     2.6370   2.6370   3.9794   4.2035   4.2035   5.1972  10.7186  13.4783
    13.4783  16.4740  21.1941  21.9105  22.7954  23.4003  23.4003  25.3845
    25.3845  26.9873  27.7654  30.4694

          k =-0.1000 0.7000-0.1000 (  3456 PWs)   bands (ev):

   -14.9327 -14.7297  -8.5067  -8.4707  -8.4549  -8.4531  -8.3420  -0.2460
     2.5111   2.5378   4.1048   4.1300   4.2249   5.5073  10.6492  13.4511
    13.6325  15.9905  20.9833  21.8282  23.0989  23.4362  23.8980  26.1461
    26.4419  27.3699  28.1091  29.8482

          k = 0.8000-0.2000 0.8000 (  3447 PWs)   bands (ev):

   -14.8832 -14.7726  -8.5062  -8.4733  -8.4479  -8.4268  -8.3315  -0.3834
     2.4373   2.5448   3.9096   4.1870   4.2046   5.7693  10.9267  13.0306
    13.7460  15.9011  21.2654  21.4136  22.7204  23.1548  24.2820  27.0893
    27.6928  27.9631  28.8197  29.5609

          k = 0.7000-0.1000 0.7000 (  3455 PWs)   bands (ev):

   -14.8383 -14.8159  -8.5017  -8.4753  -8.4551  -8.3963  -8.3475  -0.4033
     2.4401   2.6608   3.6405   4.0986   4.2673   5.8800  11.4618  12.4116
    13.7803  16.1606  20.7815  21.7881  22.5592  22.8989  24.3865  26.6807
    27.8078  28.1636  29.0877  30.0427

          k = 0.6000-0.0000 0.6000 (  3456 PWs)   bands (ev):

   -14.8684 -14.7903  -8.4973  -8.4772  -8.4706  -8.3868  -8.3689  -0.2994
     2.5343   2.8660   3.3811   3.9710   4.2715   5.8375  11.7576  12.1694
    13.7176  16.7526  20.1264  21.8094  22.9169  22.9603  24.0234  25.6617
    26.6682  29.2777  29.3851  29.8717

          k = 0.0000 0.8000 0.0000 (  3447 PWs)   bands (ev):

   -14.9073 -14.7484  -8.5124  -8.4571  -8.4510  -8.4510  -8.3152  -0.4070
     2.4010   2.4010   4.2215   4.2896   4.2896   5.6106  10.4124  13.7305
    13.7305  15.3357  20.4575  22.3911  23.3052  23.3052  25.7812  26.5429
    26.9179  26.9179  28.4945  30.1682

          k = 0.9000-0.1000 0.9000 (  3432 PWs)   bands (ev):

   -14.8808 -14.7702  -8.5132  -8.4583  -8.4453  -8.4363  -8.3063  -0.5004
     2.3440   2.3753   4.2038   4.2871   4.2972   5.7588  10.5186  13.5160
    13.8004  15.2062  20.4982  22.3979  22.9699  23.1363  26.3724  26.7373
    27.8815  28.3904  29.1871  29.6313

          k = 0.8000 0.0000 0.8000 (  3440 PWs)   bands (ev):

   -14.8574 -14.7929  -8.5083  -8.4625  -8.4497  -8.4121  -8.3231  -0.4996
     2.3515   2.4673   3.9615   4.2206   4.3159   5.8515  10.9545  12.9166
    13.8195  15.5256  21.0721  21.7456  22.7165  22.8492  25.8620  27.8406
    27.8540  28.1115  28.9492  28.9757

          k = 0.0000-1.0000 0.0000 (  3442 PWs)   bands (ev):

   -14.8791 -14.7701  -8.5164  -8.4547  -8.4421  -8.4421  -8.2937  -0.5433
     2.3149   2.3149   4.3180   4.3213   4.3213   5.7641  10.3415  13.8209
    13.8209  14.8914  20.1857  22.6443  23.2591  23.2591  26.0351  28.0554
    28.7609  28.7609  28.8434  28.8434

          k =-0.2000 0.4000 0.0000 (  3464 PWs)   bands (ev):

   -15.0470 -14.6360  -8.5044  -8.5030  -8.4861  -8.4651  -8.4276   0.4133
     2.9469   3.0238   3.6672   3.7548   4.1103   4.9510  11.3519  13.0903
    13.1763  18.0840  20.3465  20.8271  22.4270  23.3304  23.4763  24.1507
    24.6711  26.5149  28.8233  30.5881

          k =-0.3000 0.5000-0.1000 (  3465 PWs)   bands (ev):

   -14.9798 -14.6943  -8.5011  -8.4975  -8.4767  -8.4487  -8.3813   0.0979
     2.7732   2.9840   3.5439   3.7885   4.1320   5.4021  11.1794  13.0847
    13.4051  17.7244  20.2708  21.1284  22.3642  22.8653  23.8357  24.7208
    25.8114  27.6826  28.2897  29.5897

          k = 0.6000-0.4000 0.8000 (  3457 PWs)   bands (ev):

   -14.9076 -14.7582  -8.5026  -8.4989  -8.4594  -8.4353  -8.3455  -0.1258
     2.6448   3.0209   3.3309   3.8980   4.0840   5.7445  11.1886  12.9960
    13.5881  17.4046  20.0219  21.3824  22.1635  22.9038  23.7535  25.4551
    27.2371  28.1256  28.4174  29.7400

          k = 0.5000-0.3000 0.7000 (  3440 PWs)   bands (ev):

   -14.8555 -14.8068  -8.5030  -8.5001  -8.4511  -8.4310  -8.3323  -0.2055
     2.5972   3.1050   3.1827   3.9916   4.0078   5.8700  11.2275  12.9393
    13.6561  17.2798  19.9421  21.4937  21.9942  23.2531  23.3102  26.1525
    26.7579  29.1683  29.2652  30.0069

          k =-0.2000 0.6000 0.0000 (  3463 PWs)   bands (ev):

   -14.9641 -14.7053  -8.5016  -8.4770  -8.4765  -8.4498  -8.3690  -0.0559
     2.6032   2.7530   3.8968   3.9600   4.2129   5.3881  10.8986  13.2746
    13.4802  16.7348  21.1699  21.5506  22.4290  23.3309  23.5007  25.2387
    25.9723  27.3969  28.2775  30.0893

          k = 0.7000-0.3000 0.9000 (  3455 PWs)   bands (ev):

   -14.9065 -14.7545  -8.5025  -8.4793  -8.4583  -8.4293  -8.3470  -0.2601
     2.4505   2.7842   3.6820   4.0801   4.2229   5.6969  11.0516  13.0050
    13.5987  16.4565  20.7494  21.6882  22.9174  23.1371  23.5347  25.9761
    27.1666  27.9591  29.0687  29.4050

          k = 0.6000-0.2000 0.8000 (  3445 PWs)   bands (ev):

   -14.8524 -14.8039  -8.5006  -8.4819  -8.4513  -8.4089  -8.3447  -0.3537
     2.3843   2.9019   3.4414   4.1472   4.1931   5.8647  11.4084  12.5658
    13.6608  16.4556  20.3723  22.1321  22.7727  22.9839  23.4594  26.7136
    27.3506  28.5827  28.9782  30.4789

          k = 0.5000-0.1000 0.7000 (  3456 PWs)   bands (ev):

   -14.8640 -14.7941  -8.4984  -8.4820  -8.4603  -8.4013  -8.3551  -0.3140
     2.4243   3.0916   3.2215   4.0543   4.2435   5.8466  11.5617  12.4114
    13.6533  16.7040  20.0954  22.2624  22.6394  22.9497  23.7064  25.8986
    27.2696  28.4367  29.6500  30.0616

          k = 0.4000 0.0000 0.6000 (  3461 PWs)   bands (ev):

   -14.9216 -14.7436  -8.4980  -8.4800  -8.4782  -8.4209  -8.3647  -0.1493
     2.5650   3.0571   3.3259   3.9253   4.2380   5.6654  11.3084  12.7695
    13.5611  17.1565  20.0279  21.9065  22.4255  23.3260  23.6674  25.0941
    26.5847  28.0000  29.2514  29.7887

          k = 0.8000-0.2000 1.0000 (  3445 PWs)   bands (ev):

   -14.8954 -14.7600  -8.5088  -8.4637  -8.4519  -8.4352  -8.3251  -0.4012
     2.3486   2.5472   4.0247   4.2073   4.3002   5.7019  10.6993  13.3852
    13.6294  15.6752  20.8976  21.6899  23.0117  23.4632  24.8378  26.8169
    27.0149  27.9625  29.0079  29.7376

          k = 0.7000-0.1000 0.9000 (  3438 PWs)   bands (ev):

   -14.8600 -14.7914  -8.5060  -8.4660  -8.4470  -8.4116  -8.3314  -0.4733
     2.2623   2.6614   3.7871   4.2412   4.3226   5.8476  11.0824  12.8745
    13.6276  15.7812  21.1324  21.3531  22.7487  23.3606  25.0925  27.5141
    27.7608  28.1976  28.7148  29.7123

          k = 0.6000 0.0000 0.8000 (  3446 PWs)   bands (ev):

   -14.8276 -14.8248  -8.5008  -8.4705  -8.4541  -8.3827  -8.3588  -0.4420
     2.2867   2.8536   3.4973   4.1791   4.3158   5.8927  11.6778  12.2074
    13.6567  16.1402  20.5543  22.0362  22.6284  23.0157  24.7171  27.0182
    27.2668  28.6658  29.0817  29.2591

          k =-0.2000-1.0000 0.0000 (  3432 PWs)   bands (ev):

   -14.8688 -14.7806  -8.5119  -8.4588  -8.4421  -8.4290  -8.3090  -0.5271
     2.2562   2.4712   4.0747   4.2823   4.3571   5.8158  10.6680  13.4178
    13.6295  15.3120  20.6590  22.0897  22.6604  23.4373  26.5060  26.9060
    28.5129  28.5486  28.9675  29.1339

          k = 0.6000-0.2000 1.0000 (  3449 PWs)   bands (ev):

   -14.8640 -14.7904  -8.5010  -8.4713  -8.4537  -8.4012  -8.3507  -0.4036
     2.2715   2.9500   3.4461   4.1860   4.3131   5.8420  11.3981  12.5807
    13.5449  16.2529  20.4689  21.8828  22.8171  23.6922  23.9121  26.6761
    27.0799  28.7237  29.3703  29.6847

          k = 0.5000-0.1000 0.9000 (  3442 PWs)   bands (ev):

   -14.8294 -14.8223  -8.4999  -8.4718  -8.4476  -8.3809  -8.3634  -0.4560
     2.2065   3.1786   3.1918   4.2289   4.3335   5.8989  11.8351  12.1094
    13.5065  16.2116  20.3760  22.2911  22.3151  23.8780  24.1058  27.2950
    27.7189  28.1716  28.5696  29.7215

          k =-0.4000-1.0000 0.0000 (  3438 PWs)   bands (ev):

   -14.8417 -14.8080  -8.5026  -8.4675  -8.4421  -8.3937  -8.3479  -0.5002
     2.1632   2.9048   3.5064   4.2592   4.3803   5.8962  11.4838  12.4997
    13.4349  15.9809  20.7063  21.6819  22.4726  23.9743  24.9759  27.6551
    28.1047  28.1957  28.2064  29.2502

     the Fermi energy is     7.9780 ev

!    total energy              =    -208.62858573 Ry
     estimated scf accuracy    <          3.5E-12 Ry
     smearing contrib. (-TS)   =      -0.00000000 Ry
     internal energy E=F+TS    =    -208.62858573 Ry

     The total energy is F=E-TS. E is the sum of the following terms:
     one-electron contribution =     -70.67575041 Ry
     hartree contribution      =      52.85159763 Ry
     xc contribution           =     -32.55816151 Ry
     ewald contribution        =    -158.24627143 Ry

     convergence has been achieved in  10 iterations

     Writing all to output data dir out/mp-315.save/
 
     init_run     :      0.74s CPU      1.01s WALL (       1 calls)
     electrons    :      6.85s CPU      7.57s WALL (       1 calls)

     Called by init_run:
     wfcinit      :      0.70s CPU      0.95s WALL (       1 calls)
     potinit      :      0.01s CPU      0.01s WALL (       1 calls)
     hinit0       :      0.01s CPU      0.02s WALL (       1 calls)

     Called by electrons:
     c_bands      :      5.93s CPU      6.47s WALL (      10 calls)
     sum_band     :      0.86s CPU      0.97s WALL (      10 calls)
     v_of_rho     :      0.04s CPU      0.05s WALL (      11 calls)
     mix_rho      :      0.01s CPU      0.02s WALL (      10 calls)

     Called by c_bands:
     init_us_2    :      0.07s CPU      0.07s WALL (     504 calls)
     init_us_2:cp :      0.07s CPU      0.07s WALL (     504 calls)
     cegterg      :      4.99s CPU      5.15s WALL (     240 calls)

     Called by *egterg:
     cdiaghg      :      0.81s CPU      0.82s WALL (     966 calls)
     h_psi        :      4.41s CPU      4.62s WALL (     990 calls)
     g_psi        :      0.02s CPU      0.02s WALL (     726 calls)

     Called by h_psi:
     h_psi:calbec :      0.11s CPU      0.12s WALL (     990 calls)
     vloc_psi     :      4.19s CPU      4.39s WALL (     990 calls)
     add_vuspsi   :      0.09s CPU      0.09s WALL (     990 calls)

     General routines
     calbec       :      0.11s CPU      0.12s WALL (     990 calls)
     fft          :      0.02s CPU      0.03s WALL (     109 calls)
     ffts         :      0.00s CPU      0.00s WALL (      10 calls)
     fftw         :      4.58s CPU      4.80s WALL (   43864 calls)
     davcio       :      0.07s CPU      0.50s WALL (     874 calls)
 
     Parallel routines
 
     PWSCF        :      7.69s CPU      9.63s WALL

 
   This run was terminated on:  15: 7:59  20Dec2023            

=------------------------------------------------------------------------------=
   JOB DONE.
=------------------------------------------------------------------------------=
