
     Program PWSCF v.7.1 starts on 19Nov2023 at 18:34:11 

     This program is part of the open-source Quantum ESPRESSO suite
     for quantum simulation of materials; please cite
         "P. Giannozzi et al., J. Phys.:Condens. Matter 21 395502 (2009);
         "P. Giannozzi et al., J. Phys.:Condens. Matter 29 465901 (2017);
         "P. Giannozzi et al., J. Chem. Phys. 152 154105 (2020);
          URL http://www.quantum-espresso.org", 
     in publications or presentations arising from this work. More details at
     http://www.quantum-espresso.org/quote

     Parallel version (MPI), running on    24 processors

     MPI processes distributed on     1 nodes
     123316 MiB available memory on the printing compute node when the environment starts
 
     Reading input from pw_mp-1672_nscf_k250_E81.in
Warning: card &IONS ignored
Warning: card / ignored
Warning: card &CELL ignored
Warning: card / ignored

     Current dimensions of program PWSCF are:
     Max number of different atomic species (ntypx) = 10
     Max number of k-points (npk) =  40000
     Max angular momentum in pseudopotentials (lmaxx) =  4

     Atomic positions and unit cell read from directory:
     out/mp-1672.save/
     Atomic positions from file used, from input discarded
 
 
     K-points division:     npool     =       2
     R & G space division:  proc/nbgrp/npool/nimage =      12
     Subspace diagonalization in iterative solution of the eigenvalue problem:
     one sub-group per band group will be used
     scalapack distributed-memory algorithm (size of sub-group:  3*  3 procs)

 
     Parallelization info
     --------------------
     sticks:   dense  smooth     PW     G-vecs:    dense   smooth      PW
     Min         107     107     31                 2568     2568     408
     Max         108     108     32                 2573     2573     410
     Sum        1285    1285    379                30827    30827    4909
 
     Using Slab Decomposition
 


     bravais-lattice index     =            2
     lattice parameter (alat)  =      10.7804  a.u.
     unit-cell volume          =     313.2175 (a.u.)^3
     number of atoms/cell      =            2
     number of atomic types    =            2
     number of electrons       =        16.00
     number of Kohn-Sham states=         1200
     kinetic-energy cutoff     =      81.0000  Ry
     charge density cutoff     =     324.0000  Ry
     Exchange-correlation= PBE
                           (   1   4   3   4   0   0   0)

     celldm(1)=  10.780412  celldm(2)=   0.000000  celldm(3)=   0.000000
     celldm(4)=   0.000000  celldm(5)=   0.000000  celldm(6)=   0.000000

     crystal axes: (cart. coord. in units of alat)
               a(1) = (  -0.500000   0.000000   0.500000 )  
               a(2) = (   0.000000   0.500000   0.500000 )  
               a(3) = (  -0.500000   0.500000   0.000000 )  

     reciprocal axes: (cart. coord. in units 2 pi/alat)
               b(1) = ( -1.000000 -1.000000  1.000000 )  
               b(2) = (  1.000000  1.000000  1.000000 )  
               b(3) = ( -1.000000  1.000000 -1.000000 )  


     PseudoPot. # 1 for Ca read from file:
     /usr/scratch4/magr4985/MG/HTDF/pseudo/SG15/Ca.upf
     MD5 check sum: b43c970dc090f2312d256360aabdb6f1
     Pseudo is Norm-conserving, Zval = 10.0
     Generated using ONCVPSP code by D. R. Hamann
     Using radial grid of  602 points,  6 beta functions with: 
                l(1) =   0
                l(2) =   0
                l(3) =   1
                l(4) =   1
                l(5) =   2
                l(6) =   2

     PseudoPot. # 2 for S  read from file:
     /usr/scratch4/magr4985/MG/HTDF/pseudo/SG15/S.upf
     MD5 check sum: f9d020296ee6110346977bfd66d424f6
     Pseudo is Norm-conserving, Zval =  6.0
     Generated using ONCVPSP code by D. R. Hamann
     Using radial grid of  602 points,  4 beta functions with: 
                l(1) =   0
                l(2) =   0
                l(3) =   1
                l(4) =   1

     atomic species   valence    mass     pseudopotential
        Ca            10.00    40.07800     Ca( 1.00)
        S              6.00    32.06500     S ( 1.00)

     48 Sym. Ops., with inversion, found



   Cartesian axes

     site n.     atom                  positions (alat units)
         1           Ca  tau(   1) = (   0.0000000   0.0000000   0.0000000  )
         2           S   tau(   2) = (  -0.5000000   0.5000000   0.5000000  )

     number of k points=    16  Gaussian smearing, width (Ry)=  0.0005
                       cart. coord. in units 2pi/alat
        k(    1) = (   0.0000000   0.0000000   0.0000000), wk =   0.0092593
        k(    2) = (  -0.1666667   0.1666667  -0.1666667), wk =   0.0740741
        k(    3) = (  -0.3333333   0.3333333  -0.3333333), wk =   0.0740741
        k(    4) = (   0.5000000  -0.5000000   0.5000000), wk =   0.0370370
        k(    5) = (   0.0000000   0.3333333   0.0000000), wk =   0.0555556
        k(    6) = (  -0.1666667   0.5000000  -0.1666667), wk =   0.2222222
        k(    7) = (   0.6666667  -0.3333333   0.6666667), wk =   0.2222222
        k(    8) = (   0.5000000  -0.1666667   0.5000000), wk =   0.2222222
        k(    9) = (   0.3333333   0.0000000   0.3333333), wk =   0.1111111
        k(   10) = (   0.0000000   0.6666667   0.0000000), wk =   0.0555556
        k(   11) = (   0.8333333  -0.1666667   0.8333333), wk =   0.2222222
        k(   12) = (   0.6666667  -0.0000000   0.6666667), wk =   0.1111111
        k(   13) = (   0.0000000  -1.0000000   0.0000000), wk =   0.0277778
        k(   14) = (   0.6666667  -0.3333333   1.0000000), wk =   0.2222222
        k(   15) = (   0.5000000  -0.1666667   0.8333333), wk =   0.2222222
        k(   16) = (  -0.3333333  -1.0000000   0.0000000), wk =   0.1111111

     Dense  grid:    30827 G-vectors     FFT dimensions: (  45,  45,  45)

     Estimated max dynamical RAM per process >     110.18 MB

     Estimated total dynamical RAM >       2.58 GB

     The potential is recalculated from file :
     out/mp-1672.save/charge-density

     Starting wfcs are random

     Band Structure Calculation
     Davidson diagonalization with overlap

     ethr =  5.00E-06,  avg # of iterations = 10.8

     total cpu time spent up to now is      713.2 secs

     End of band structure calculation

          k = 0.0000 0.0000 0.0000 (  3839 PWs)   bands (ev):

   -33.2894 -14.2635 -14.2635 -14.2635  -5.3278   5.9791   5.9791   5.9791
    10.0929  10.1430  10.1430  10.1430  10.7308  10.7308  16.8425  19.0123
    19.0123  19.0123  21.9506  21.9506  22.5872  22.5872  22.5872  29.8697
    31.4581  31.4581  31.4581  32.6291  32.6291  32.6291  33.1981  33.1981
    34.9100  34.9100  34.9100  43.4203  46.3496  46.3496  46.3496  46.8460
    46.8460  47.0177  47.0177  47.0177  47.7108  47.7108  47.7108  49.6563
    49.6563  49.6563  49.7255  50.3848  50.6587  50.6587  50.6587  52.5952
    52.5952  52.5952  53.2352  53.2352  55.4066  60.3290  60.3290  60.3290
    60.6587  60.6587  60.6587  69.5747  69.5747  70.8374  70.9441  70.9441
    70.9441  72.6365  72.6365  72.6365  79.2205  79.2205  79.2205  80.0870
    80.0870  81.7851  82.7015  82.7015  82.7015  83.0021  83.1358  83.1358
    83.1358  85.7612  85.7612  85.7612  86.9340  86.9340  86.9340  87.3906
    87.3906  87.3906  88.1323  88.1323  88.1323  88.5263  88.5263  88.5730
    88.5730  88.5730  88.9202  88.9202  90.2884  90.2884  91.3457  91.3457
    91.3457  92.2379  94.2034  96.1892  96.1892  96.1892  99.7889 100.5153
   101.0227 101.0227 101.0227 104.5719 104.5719 104.5719 105.8533 105.8533
   106.8734 106.8734 106.8734 108.0765 108.0765 108.0765 108.2702 108.2702
   108.2755 108.2755 108.2755 108.4519 108.4519 108.4519 108.8453 108.8453
   108.8453 110.3086 117.2907 117.2907 117.2907 117.8329 118.0633 119.5137
   119.5137 119.5137 120.0261 120.0261 120.0261 121.4395 121.4395 121.4395
   121.8466 121.8466 121.8466 122.5046 122.5046 125.3597 125.3597 125.3597
   126.2438 126.2438 126.3458 126.3458 126.3458 126.5175 128.8046 136.0121
   136.0121 136.0121 138.0302 138.0302 138.0302 138.7290 138.7290 139.0545
   139.0545 139.0545 144.2754 144.2754 146.2615 146.5980 146.5980 146.5980
   146.6390 146.6390 146.6390 150.4486 150.4486 150.4486 152.2495 152.2495
   152.2495 153.2556 153.8080 153.8080 153.8080 154.0367 154.0367 154.5223
   154.5223 154.5223 156.0654 156.0654 156.0654 156.3658 157.1729 157.1729
   157.1729 157.2164 157.2954 157.7542 157.7542 157.7542 159.0415 159.0415
   160.1813 160.1813 160.1813 160.8517 160.8517 160.8517 161.6441 161.6441
   161.6441 162.3078 162.3078 162.3078 162.4384 162.4384 162.5596 162.7970
   162.7970 162.7970 162.9962 162.9962 162.9962 163.2203 163.2203 163.2203
   163.2711 163.2711 163.3218 163.3733 163.3733 163.3733 163.4527 163.4527
   163.6370 163.6370 163.6370 171.2356 171.2356 172.4988 172.4988 172.4988
   173.7284 175.4148 175.4148 175.4148 176.5568 176.5568 176.5568 176.6553
   176.6553 176.6553 177.1163 177.1163 177.1163 178.9672 178.9672 178.9672
   182.6115 182.6115 182.8216 182.8216 182.8216 182.9113 183.6226 183.6226
   186.6714 187.6506 187.6506 187.6506 187.9138 192.4349 192.4349 192.4349
   195.0886 195.0886 195.0886 195.1511 195.1511 195.1511 195.1642 195.1642
   195.1642 195.4556 195.4556 195.4682 195.4682 195.4682 196.3628 196.3628
   197.5019 197.7075 197.9574 197.9574 197.9574 198.2884 198.2884 198.2884
   198.3347 198.3347 198.6086 198.6086 198.6086 198.8305 198.8305 198.8305
   198.8847 198.8847 198.8847 199.7222 199.7222 207.8362 207.8362 207.8362
   207.9177 209.1456 209.1456 209.1456 212.8673 212.8673 212.8673 213.7396
   213.7396 213.7396 214.7686 217.7606 220.1079 220.1079 220.5800 220.5800
   220.5800 221.4909 221.4909 221.4909 222.0266 222.0266 222.0266 222.3744
   222.4679 222.4679 225.7093 225.7093 225.7093 227.5201 227.5201 227.5201
   230.3391 230.3391 230.3391 230.5793 230.5793 230.5793 230.6148 230.6148
   230.6148 230.8781 230.8781 230.8781 233.3263 233.4973 233.6425 233.6425
   233.6425 234.0249 234.0249 234.2399 234.2399 234.2399 234.4728 234.4728
   234.5105 234.5105 234.5105 235.2383 235.2383 235.2383 235.6787 235.6787
   235.6787 235.8501 235.8501 235.8501 236.0112 237.1392 237.1392 237.1392
   237.1395 237.1395 237.1508 243.9536 243.9536 243.9536 245.9511 246.3583
   246.3583 246.3583 247.0324 247.8838 247.8838 248.2717 248.2717 248.2717
   250.6840 250.6840 250.6840 250.8467 250.8467 251.1612 251.1612 251.2185
   251.2185 251.2185 251.4297 251.4297 251.4297 251.7035 251.7035 251.7035
   253.6529 253.6529 253.6529 256.0743 256.0743 256.0743 256.0758 256.0758
   256.0923 256.0923 256.0923 256.1823 256.1823 256.2119 256.2119 256.2119
   256.2275 256.2275 256.2275 257.8301 257.8301 257.8301 257.8387 257.8387
   257.8387 257.8488 257.8743 258.4540 258.4540 258.4540 258.9701 259.2067
   259.8016 259.8016 259.8016 260.4846 260.4846 260.4846 262.6453 262.6453
   262.6453 263.5981 263.7388 263.7388 263.7388 264.0050 264.0050 264.4422
   264.4422 264.4422 264.7045 267.4369 267.4369 267.9474 267.9474 268.7079
   268.7079 268.7079 269.0037 269.0037 269.0037 269.1168 269.1168 269.1168
   269.9091 269.9091 269.9279 269.9279 269.9279 270.1848 270.5230 270.5230
   270.5230 270.5332 270.5332 272.1140 272.1140 272.1140 272.2639 272.2639
   272.2639 272.4502 272.4502 272.4502 272.5802 272.5802 272.5802 273.5012
   273.5539 273.5539 273.5539 273.5760 273.5760 275.7493 275.7493 275.7493
   280.0216 289.5493 289.5493 289.5493 293.9317 293.9317 293.9317 295.8877
   298.3653 298.3653 298.3653 299.0967 299.5799 299.5799 300.2958 300.2958
   302.0024 302.0024 302.0024 302.1292 302.1292 302.1292 303.3526 303.3526
   303.3526 303.5067 303.5067 303.5067 303.7484 303.7484 303.7484 304.1128
   304.1128 304.4004 304.5098 304.7520 304.7520 304.7520 305.4633 305.4633
   305.4633 305.4688 305.4688 305.4688 305.6395 305.6395 305.6395 305.9744
   305.9744 305.9744 306.0979 310.3405 310.3405 310.5674 310.5674 310.5674
   310.5890 310.5890 310.5890 310.6820 310.6820 310.7586 310.7586 310.7586
   310.9052 310.9052 310.9052 311.9895 311.9895 312.0561 312.0561 312.0561
   312.2247 319.3978 319.3978 319.3978 319.5128 319.5128 319.5128 320.1774
   320.6301 320.6301 320.7805 320.7805 320.7805 320.9573 320.9573 320.9573
   323.0775 323.0775 326.4560 326.4560 326.4560 327.2685 327.4932 327.4932
   327.5001 327.5001 327.5001 327.6056 327.6056 327.6755 327.6755 327.6755
   327.8085 327.8085 327.8085 327.8122 327.9767 327.9767 327.9767 328.1438
   328.1438 328.1438 328.8401 328.8401 328.8401 329.4092 329.4092 329.4092
   330.6045 336.8957 336.9737 336.9737 337.8158 337.8158 337.8158 338.3792
   338.3792 338.3792 338.9845 338.9845 338.9845 339.0783 339.0783 339.0783
   339.1539 339.1539 339.1539 339.3098 339.8984 342.6939 342.6939 342.6939
   343.9173 343.9173 343.9173 343.9470 343.9470 344.0796 344.0796 344.0796
   344.2352 344.2352 344.2352 344.3225 344.7980 344.7980 344.7980 345.0216
   345.0216 345.0759 345.4391 345.6434 345.6434 345.6470 345.6470 345.6470
   345.6593 345.6593 345.6593 345.6700 345.6700 345.6700 345.7829 345.7829
   345.7829 346.6325 346.6325 346.6325 346.6614 346.6614 346.6966 346.6966
   346.6966 346.7320 346.7320 346.7320 346.7950 349.8382 349.8382 353.1767
   353.1767 353.1767 354.8625 357.0427 357.0427 359.4790 359.4790 359.4790
   360.6803 360.6803 360.6803 360.8560 360.8560 360.8560 360.9975 360.9975
   360.9975 361.9676 361.9676 361.9676 362.0570 362.0570 362.0570 362.0615
   362.1108 362.1108 362.8269 366.6207 366.6207 366.6207 369.4131 369.7696
   369.7696 369.7696 370.9305 374.2867 374.2867 374.2867 374.5276 374.5276
   374.6088 374.6088 374.6088 375.0084 375.0084 375.0084 375.2342 375.2342
   375.2342 375.5028 375.5028 376.6600 376.6600 376.6600 378.0792 378.0792
   378.0792 378.1814 378.1814 378.1814 378.3345 378.3345 378.3345 378.3349
   378.3349 378.3349 379.1777 379.4046 379.4046 379.7133 379.7133 379.7133
   380.0757 380.0757 380.1122 380.1122 380.1122 380.4210 380.4210 380.4210
   380.5221 380.5221 380.5323 380.5555 380.5555 380.5893 380.5893 380.5893
   380.5924 380.5924 380.5924 380.6420 380.6420 380.6420 380.7162 380.7162
   380.7162 380.8544 380.8544 380.8544 380.8648 380.8648 380.8648 382.3238
   382.3674 382.3674 382.3674 382.3935 382.3935 382.3935 382.4138 384.9726
   384.9943 384.9943 384.9943 385.0055 385.0055 385.3505 385.3505 385.3505
   385.4253 385.4253 385.4467 385.4467 385.4467 385.4703 385.4703 385.4703
   385.4865 385.5030 385.5030 385.5030 385.5306 385.5306 385.6192 385.6192
   385.6192 385.7363 385.7363 385.7363 385.8393 392.9354 392.9354 392.9354
   394.0398 394.1531 394.1531 394.1531 394.2270 401.0594 401.0594 402.9302
   402.9302 402.9302 403.0392 403.0392 403.0392 403.0492 403.0492 403.0729
   403.0729 403.0729 403.3315 403.3315 403.3315 403.3377 403.3377 404.0842
   404.1992 404.1992 404.1992 405.6496 405.6496 405.6496 407.5145 407.5145
   407.5145 407.6633 407.6633 407.6633 408.0109 408.0109 408.0109 412.1169
   412.1169 412.2493 412.2493 412.2493 412.3965 416.9657 417.0447 417.0447
   417.0447 417.1379 417.1379 419.9188 419.9188 419.9188 419.9400 419.9400
   419.9400 419.9730 419.9730 419.9730 419.9743 419.9743 419.9743 421.3066
   421.3066 421.3317 421.3317 421.3317 421.3739 429.9678 430.4663 430.4663
   431.0056 431.0056 431.0056 433.4048 433.4048 433.4048 434.8424 435.4274
   435.4274 435.4274 436.4408 436.4408 436.4408 436.8692 436.8692 436.8692
   437.2941 437.2941 437.2941 437.3230 437.3230 437.3230 437.6618 437.6618
   440.2696 440.2696 440.5617 440.8363 440.8363 440.8363 441.0252 441.0252
   441.0291 441.0291 441.0291 442.8097 442.8097 442.8097 442.9160 444.0274
   444.2031 444.2031 444.2031 446.2080 446.2080 446.2080 446.6206 446.6206
   446.6206 446.8724 448.0177 448.0177 448.4879 448.4879 448.4879 449.0313
   449.0313 449.0313 449.5383 450.0851 450.0851 450.2023 450.2023 450.2023
   450.6729 450.6729 450.6729 450.7775 450.7775 450.9747 450.9747 450.9747
   451.1025 451.1025 451.1025 452.1942 452.1942 452.1942 452.2549 452.4463
   452.4463 452.4463 452.6442 454.6412 454.6412 454.6412 454.6535 454.6535
   454.7186 454.7186 454.7186 454.7646 454.7646 454.7646 454.8131 454.8131
   454.8131 454.8180 454.8180 456.2601 456.2601 456.2601 456.2729 456.2837
   456.2837 456.2837 456.3112 456.3112 456.3173 456.3173 456.3173 457.1157
   457.1157 457.1157 457.1555 457.1555 457.1961 457.1961 457.1961 457.2054
   457.2054 457.2054 457.2902 468.5596 468.5596 469.2205 469.4349 469.4349
   469.4349 469.7031 469.7031 469.7031 470.9217 470.9217 470.9217 471.0317
   471.0317 471.0317 471.0321 471.1902 471.1902 471.1902 471.9830 471.9830
   471.9830 472.5419 472.5419 472.5419 472.5559 472.5559 472.7129 472.7129
   472.7129 472.9851 473.5727 473.5727 473.7789 473.7789 473.7789 473.7957
   473.7957 473.7957 473.8605 473.8605 473.8605 477.5060 477.5060 477.5343
   477.5343 477.5343 477.5938 477.5938 477.5938 477.6073 477.6073 477.6073
   477.6339 477.6651 477.6651 477.7604 477.7604 477.7604 477.7748 477.8213
   477.8213 477.8213 477.8693 477.8693 477.8693 478.5882 478.5882 478.6588
   478.6588 478.6588 478.7698 479.4760 479.4760 479.4760 479.5706 479.5706
   480.9901 481.3480 481.3480 481.3480 481.9508 481.9508 481.9508 482.2463
   482.2463 482.2463 482.3425 482.3425 482.4425 482.4425 482.4425 482.7713
   482.7713 482.7713 482.9175 485.7866 486.5916 486.5916 486.5916 487.4476
   487.4476 487.4476 488.0141 488.0141 488.0209 488.0209 488.0209 488.9704
   489.3828 489.3828 489.3828 489.4708 489.4708 489.4708 489.6039 489.6039
   489.6235 489.6235 489.6235 491.3181 491.3181 491.3181 491.9060 492.0235
   492.0859 492.0859 492.0859 493.1202 493.1202 493.1202 493.1236 493.1236

          k =-0.1667 0.1667-0.1667 (  3825 PWs)   bands (ev):

   -33.2867 -14.3047 -14.2667 -14.2667  -5.1459   4.9423   5.6168   5.6168
    10.1492  10.5264  10.5264  11.3195  11.4209  11.4209  16.8150  18.3045
    18.3045  18.9819  20.3168  20.3168  23.0699  24.9846  24.9846  28.0580
    28.9292  28.9292  31.7402  32.7179  32.7179  33.1076  33.1076  34.4125
    35.2909  38.1044  38.1044  41.8713  42.8833  42.8833  44.3885  44.5302
    45.8265  45.8265  45.9864  45.9864  46.8882  47.4738  47.4738  47.7649
    49.5882  50.2531  50.2531  52.5477  52.5477  52.9050  53.2931  53.2931
    53.7305  56.1033  56.6789  58.6795  58.9073  58.9073  59.2324  59.2324
    62.3702  62.3702  62.9474  67.0664  67.0664  68.4379  69.2845  69.2845
    71.0662  73.2801  73.2801  73.7460  77.0987  77.0987  77.8110  77.8707
    77.8707  79.3467  79.7113  80.3758  80.3758  80.7111  80.7111  82.3324
    82.3324  82.9150  84.7938  84.8420  84.9731  86.4071  86.4071  86.8182
    86.8182  87.6273  88.5621  88.5621  88.9453  88.9453  89.1779  90.1998
    90.1998  90.5989  91.4502  92.8664  92.8664  94.1396  95.4864  95.6064
    95.6064  96.5461  96.5461  97.9955  97.9955  98.1779  98.2678  98.2678
    99.6792 100.3249 100.7947 102.0742 102.0742 102.3935 102.3935 102.7228
   103.7721 103.7721 104.0396 105.7990 105.7990 107.1827 107.3611 108.4411
   108.4411 110.9088 111.4291 111.4291 111.6424 112.2710 112.2710 112.5262
   114.0160 114.0740 114.0740 114.8726 115.1160 115.1160 115.6299 117.7359
   118.2522 118.2522 118.8941 118.8941 120.0765 120.1847 120.1847 122.2445
   122.2445 122.6158 124.7654 124.7654 124.7772 127.3381 127.3381 127.7009
   128.4023 128.4023 128.9794 130.6132 130.6132 132.0520 133.7807 134.9747
   134.9747 135.5947 135.9712 136.2489 136.2489 136.7144 136.7144 139.2637
   139.2637 139.3236 142.6165 142.6165 142.7832 143.2040 144.5449 144.7554
   144.7554 145.7587 145.7587 146.4722 146.9511 147.9334 147.9334 148.6570
   148.6570 149.4718 150.1295 150.1295 150.5698 150.5698 151.0185 152.2889
   152.5926 152.5926 153.3173 153.9381 153.9381 154.6780 155.1764 155.1764
   156.3246 156.6423 156.9424 156.9424 157.6043 157.6043 158.0269 158.4061
   158.4061 159.2768 159.2768 159.5797 159.7595 159.9873 159.9873 160.6364
   160.7732 160.7732 162.8939 163.3423 163.3423 163.5609 164.3075 164.3075
   164.6535 164.9782 164.9782 165.8522 165.8522 166.2033 166.3896 167.0087
   167.0087 167.0842 167.2086 167.2086 168.4481 168.5136 169.2186 169.5095
   169.5095 169.8218 171.1462 171.5554 171.5554 172.1910 172.6337 172.6337
   174.6564 174.6564 175.0832 175.0832 175.1600 176.0294 176.0294 176.1864
   177.6651 177.6651 178.6278 178.6278 179.5354 180.6281 180.8301 180.8301
   182.8958 182.8958 183.3728 183.3728 184.1382 184.1837 184.1837 184.8698
   186.4888 186.4888 187.1361 188.0772 188.4072 188.4072 188.6482 189.1637
   189.1637 189.7506 189.7506 189.9964 190.0810 190.0810 190.1969 192.1390
   193.2131 193.2131 193.4991 193.4991 193.5843 193.6047 194.7281 194.7281
   195.7806 198.5100 199.4390 199.4390 199.7783 200.5589 200.5589 200.9484
   202.6193 202.6552 202.6552 203.3166 203.3349 203.3349 205.0972 205.0972
   205.3909 207.1503 207.3116 207.3116 207.9384 207.9384 208.2870 208.6220
   208.8731 209.7463 209.7463 211.6988 211.6988 212.4892 212.7706 212.7706
   213.8795 213.8795 215.7758 216.7156 216.7156 217.0981 217.0981 217.6669
   218.1304 218.1304 218.5488 219.5786 219.9947 219.9947 220.3475 220.3475
   220.9271 221.7459 221.7459 222.2011 222.5100 222.6504 222.6504 223.1243
   223.6709 223.6709 224.3241 225.7743 225.7743 226.9618 227.3308 227.3459
   227.3459 229.4524 231.1204 231.5273 231.5273 233.0441 233.0441 233.9612
   234.2741 234.2741 234.7892 234.8599 234.8599 235.0320 235.3528 235.3528
   235.7819 235.7819 236.2678 236.8925 237.1690 237.3010 237.3010 238.2203
   238.2203 238.4348 238.4348 238.5719 239.8254 240.8877 241.1273 241.1273
   241.5275 241.5275 241.5860 242.0801 242.0801 242.2007 242.5872 242.5872
   242.8756 244.1827 244.1827 245.3901 246.6383 246.6383 247.1744 247.4129
   247.7243 247.7780 247.7780 248.5507 248.5507 248.8574 248.8985 248.8985
   248.9497 249.6599 249.6599 249.8185 249.8185 250.0065 250.4349 250.4349
   251.0794 251.0794 251.4259 251.5807 251.6288 251.6288 252.6059 252.8439
   252.8439 254.5099 254.8824 255.1286 255.1286 255.6411 256.1748 256.1748
   256.7965 256.8133 256.8133 257.0054 257.0054 257.0887 257.1853 257.1853
   258.1282 258.1282 258.2905 258.6528 258.9663 258.9663 260.0402 260.0402
   260.5077 260.5083 260.9614 260.9614 261.7663 261.7663 262.6511 263.8086
   264.3631 264.3631 264.8171 264.8171 265.0616 265.2043 265.4503 265.4503
   265.6731 266.1409 266.1409 266.5518 267.5014 267.5648 267.5648 268.2298
   268.5586 269.0610 269.0610 269.3397 269.4552 269.4552 270.0210 270.0778
   270.0778 272.6148 272.6148 274.3970 274.3970 274.4659 274.8545 274.8545
   275.3768 276.2466 276.2466 276.6442 277.2516 277.2809 278.4549 278.4549
   279.0944 279.4689 279.4689 280.3177 280.6467 280.6467 281.2799 281.5170
   281.5170 282.2650 283.8774 283.8774 284.2191 284.2191 286.1739 286.1739
   287.2769 287.6611 288.6948 288.6948 288.9292 288.9292 289.1323 289.5248
   289.6167 289.6167 290.4473 290.4473 290.6644 290.6644 290.7866 291.5746
   292.6460 292.6460 293.4600 293.4600 293.9138 293.9684 293.9684 294.3437
   294.9686 300.6939 300.7332 300.7332 300.7765 300.7765 300.7851 301.5773
   301.7788 301.7788 302.1863 302.2754 302.2754 303.2748 303.2748 303.5527
   304.4782 304.4782 304.7357 306.2467 306.2467 306.6920 307.1520 307.1520
   307.9741 310.0735 310.0735 310.1962 311.9394 311.9394 312.4631 312.8011
   312.8011 313.3025 313.6420 313.8692 313.8692 314.6887 314.6887 315.2286
   315.2447 315.2447 315.9389 316.0077 316.0908 316.0908 316.7253 316.9943
   317.4414 317.4414 317.5146 318.6876 318.6876 319.4735 319.4735 319.8584
   319.8584 319.9061 320.2302 320.2554 320.2554 320.2710 320.8326 321.8265
   321.8265 322.3884 322.3964 322.4979 322.4979 323.0406 323.3159 323.3159
   323.7814 323.7814 324.1737 324.7976 324.7976 325.4955 325.4955 325.5996
   325.6491 325.6491 325.9636 326.9213 326.9213 327.1552 328.3720 328.8707
   328.8707 328.9574 329.5513 329.5513 330.1780 332.1516 332.1516 332.3872
   332.3872 332.4211 334.5021 334.5021 334.5408 335.8148 335.8148 337.1631
   337.5674 337.5674 338.7048 339.0450 339.0450 339.4650 339.4650 339.7146
   339.8699 340.1248 340.1248 340.8044 341.0078 341.0078 341.0304 341.6624
   341.7144 341.7144 341.9153 341.9153 342.1217 342.2030 342.2030 342.5972
   342.5980 342.5980 343.1269 343.2257 343.2257 343.7673 343.8046 343.8046
   344.5963 344.7356 344.9545 344.9545 346.3341 346.3341 346.4343 346.7247
   347.1752 347.1752 347.9920 348.4451 348.4451 348.8711 348.8953 348.8953
   348.9235 349.2532 349.2532 349.3809 349.5750 349.6860 349.6860 352.5090
   352.5090 354.4704 354.4704 354.9898 355.3453 355.3453 355.7564 356.6867
   356.6867 357.4142 357.6160 357.7542 357.7542 358.1285 358.1285 359.3699
   359.3699 359.5035 359.6651 359.7872 361.0051 361.0051 361.4166 362.8356
   362.8356 363.4161 363.4161 363.6096 363.7893 363.8330 363.8330 364.1716
   364.3778 364.3778 364.4451 364.4784 364.4784 364.5834 365.3797 365.3797
   365.6922 365.6922 365.7288 365.7288 365.8194 365.9095 366.1163 366.5593
   366.5593 366.5891 367.3077 367.3077 367.3314 367.8438 367.8438 367.9823
   368.4241 368.4241 369.2975 369.4031 369.4031 369.9016 371.1683 371.1683
   371.2596 371.5793 371.9129 371.9288 371.9288 373.9208 373.9208 374.0730
   374.7458 374.7458 374.8949 375.0795 375.0795 375.1778 375.5288 375.5387
   375.5387 377.1229 377.1229 377.4985 378.4747 378.4747 379.0093 379.0093
   379.6202 379.6202 379.6497 379.7003 379.7925 379.7925 379.9331 380.8411
   380.8411 381.0672 381.9763 381.9763 382.6334 382.7323 382.7929 382.7929
   383.5825 383.5825 384.3781 385.7174 385.7790 385.7790 386.1575 386.1575
   386.1767 386.4389 386.4389 386.9989 389.0482 389.0482 389.0692 389.9491
   389.9491 390.1248 390.5784 390.6857 390.6857 391.1002 391.1707 391.1707
   391.5219 391.5219 391.7685 391.9033 391.9033 391.9883 392.5798 392.5798
   392.7953 393.5112 394.5128 394.5359 394.5359 395.1351 395.1351 395.2095
   396.0237 396.1229 396.1229 397.4082 397.5180 397.5180 398.2549 398.2549
   398.8872 398.8872 399.1918 399.7297 399.7297 399.8772 399.8772 399.9147
   399.9174 399.9661 400.0331 400.0331 400.5641 401.2902 401.3524 401.3524
   401.9542 401.9542 402.1225 402.1225 402.3637 403.3578 403.3578 403.3939
   404.0098 404.0098 405.8358 407.2883 407.2883 407.4863 408.4282 409.5640
   409.5640 409.5667 409.7328 409.7328 409.7544 411.9567 411.9567 412.3253
   412.3253 412.3433 413.6348 413.6348 413.9513 414.5135 414.5135 414.6354
   415.5097 417.1140 417.1140 418.3371 418.8614 418.8614 419.1952 420.2497
   421.6543 421.6543 423.2361 423.2361 423.7905 423.7905 424.0018 424.4769
   425.1226 426.2326 426.2326 426.6629 427.1638 427.1638 427.4559 427.4559
   427.7135 427.9371 427.9371 428.1353 428.2396 428.2396 429.0437 429.2357
   429.2357 429.6414 430.2354 430.2354 431.0023 431.0023 431.1618 431.1870
   431.1870 431.7322 434.8595 435.2296 435.2296 435.3630 435.3630 435.5240
   436.0009 436.0009 436.1035 436.5351 436.5351 436.6285 437.1468 437.1873
   437.1873 437.3173 437.3173 437.5444 439.1541 439.1541 439.3150 440.0290
   440.0290 440.0806 440.6454 440.6454 440.6728 440.8243 441.8831 441.8831
   444.0679 444.0679 444.1755 445.2787 445.2787 446.0803 446.6397 446.8115
   446.8115 447.4680 447.5581 447.5581 447.9401 448.0863 448.0863 448.2084
   448.5352 448.5352 449.0153 449.0153 449.0292 449.8206 449.8206 450.2826
   451.9755 451.9755 452.1305 452.1305 452.6863 452.8415 453.4818 453.4818
   453.6127 454.0673 454.0673 454.8327 455.2202 455.2202 455.4064 455.4501
   456.0478 456.0478 456.5081 456.5150 456.5150 456.5625 456.9678 456.9678
   457.0013 457.1872 457.1872 457.9433 458.0525 458.0525 458.3810 458.5397
   458.5397 458.6702 458.8048 458.8048 458.8956 458.9878 458.9878 459.5715
   459.5715 459.6289 460.1429 460.1429 460.4784 461.0046 461.0046 461.2894
   461.4537 462.2122 462.2122 463.1650 463.6230 463.6584 463.6584 463.9309
   463.9309 464.2456 464.2456 464.3640 464.4892 464.4964 464.4964 464.9453
   466.6459 466.6739 466.6739 467.0962 467.1084 467.1084 468.2546 468.2546
   468.2863 469.0158 469.0158 469.0318 469.6689 469.6689 469.8471 470.3692
   470.6523 470.6523 470.7886 472.2668 472.2668 472.3797 473.2979 473.2979
   473.3808 473.4091 473.6580 473.6580 473.8338 473.8464 473.8464 474.1727
   474.1727 474.4892 474.6629 474.6629 475.6201 475.6201 475.7255 476.0320
   476.0320 476.0710 476.2881 476.3200 476.6116 476.6116 476.8284 476.8284
   476.9443 478.2109 478.2109 478.4861 478.9004 478.9004 478.9983 479.1187
   479.1187 479.2602 479.3724 479.3724 479.5238 481.0410 481.0410 481.4620
   481.8631 481.8631 482.1455 482.1455 482.2270 482.2270 482.2467 482.2534
   483.6314 483.6314 483.6982 483.9846 483.9846 484.0934 484.3796 484.3796
   484.4906 485.1283 485.1527 485.1527 486.2219 486.2219 486.2272 487.1181
   487.2722 487.2722 487.5050 487.5050 487.6653 488.7969 488.7969 488.9278
   488.9517 488.9517 489.1540 489.2606 489.2606 489.3080 491.5542 491.5542
   491.5542 492.7088 493.5180 493.5316 493.5316 493.9489 493.9489 493.9825
   495.1806 495.2352 495.2352 495.9442 495.9442 496.7006 496.7006 496.8048

          k =-0.3333 0.3333-0.3333 (  3855 PWs)   bands (ev):

   -33.2812 -14.3850 -14.2730 -14.2730  -4.7515   3.5068   5.0624   5.0624
    10.5120  11.4391  11.4391  12.6060  12.9092  12.9092  16.1787  16.3267
    16.3267  19.6929  19.6929  20.6842  23.8514  24.9889  25.9603  25.9603
    27.8568  27.8568  32.6628  32.6628  33.4365  34.3314  34.3314  35.9944
    36.4321  36.7758  37.4507  37.4507  41.0059  41.1876  41.1876  44.2657
    44.2657  44.3255  46.5623  46.5623  46.6248  46.8134  46.8134  48.3811
    50.0557  51.0973  51.0973  51.4285  56.0601  56.0601  56.6824  57.8603
    57.8603  58.1861  58.1861  58.4363  59.3633  62.3267  62.3267  62.3980
    63.8427  63.8427  63.8552  66.7162  66.7162  67.8617  68.3602  68.3602
    69.7572  69.7572  70.4987  71.7092  71.7092  72.7252  73.6809  74.8465
    74.8465  76.7121  76.7121  76.9014  79.3884  79.3884  79.7986  80.1262
    81.3980  81.3980  82.2721  85.6671  85.6671  85.6732  85.9604  86.3269
    86.3269  87.7437  88.3712  88.3712  90.5914  90.5914  91.0373  91.4590
    91.6151  91.6151  92.3995  94.1135  94.1135  95.3096  95.3317  95.3971
    95.3971  97.1094  97.3621  97.3621  97.9822  99.5820 100.1203 100.1203
   100.4078 100.4078 102.9093 103.7453 103.7453 103.9657 105.0193 105.2705
   105.2705 106.0639 107.4342 107.4342 107.8078 108.2690 108.2690 108.4846
   109.1932 109.1932 109.8802 109.8802 110.2799 110.9562 110.9562 112.0106
   113.2082 113.2082 113.6189 114.4845 114.4845 115.2296 117.6684 117.6684
   119.2780 119.2780 119.9005 120.7849 120.7849 120.9479 122.1898 122.5885
   123.0774 123.0774 126.9790 127.0847 127.0847 128.4135 129.4190 129.4190
   131.1202 131.1202 132.1836 132.3420 132.9274 133.9854 133.9854 134.6853
   134.6853 135.2916 135.2916 135.7792 135.7792 136.1142 137.1896 137.1896
   137.5971 137.8397 137.8397 138.0576 139.2779 140.3426 140.6525 140.6525
   140.6809 141.5625 141.5625 142.5816 142.5816 143.1911 145.0288 145.0753
   145.0753 146.0760 146.0760 146.1043 148.7409 149.6885 149.6885 151.8275
   152.1811 152.3895 152.3895 153.8004 153.8004 154.1371 154.1371 154.4170
   154.7361 155.8270 156.1164 156.1164 156.7403 157.7935 157.7935 157.8764
   158.3994 158.3994 158.6012 158.6012 158.9881 159.4524 159.8074 159.8074
   160.5295 160.5295 160.7374 162.0816 162.0816 162.4711 164.1039 164.1039
   166.8110 166.8497 166.8497 167.2390 167.5520 167.5520 168.5054 168.5054
   168.9247 168.9247 168.9486 169.3252 169.4908 170.0531 170.2266 170.2266
   171.1147 171.1147 171.2197 171.2508 171.7805 171.7805 173.7838 173.7838
   176.7159 176.7314 176.7314 178.2638 179.1024 179.1024 180.0568 180.0568
   180.3888 181.5568 181.6739 181.6740 181.6740 181.9349 182.0567 182.0567
   182.1741 182.1908 183.3884 183.3884 183.5330 186.2166 186.2166 186.9516
   187.5142 187.5142 189.1650 189.4189 189.4189 189.8248 189.8248 190.7228
   191.1157 191.1157 191.5984 192.0880 192.0880 192.7856 193.0510 193.2311
   193.2311 193.3720 193.8144 193.8144 195.1785 195.1785 195.3964 195.5973
   195.5973 198.8937 200.3680 200.3988 200.3988 201.5775 201.5775 203.0587
   204.3960 204.3960 205.4500 205.4500 205.4954 205.5959 205.5959 206.0728
   206.6265 206.8791 206.8791 207.2970 207.6224 207.6224 207.6638 207.7491
   207.7491 208.5868 209.4047 209.4047 209.8726 210.9114 210.9114 211.2918
   212.0765 213.5168 213.5168 213.5456 215.6143 215.9601 215.9601 217.0543
   217.0543 217.4782 217.4782 218.4730 218.6535 218.6535 219.3375 219.7883
   220.0976 220.9022 220.9022 220.9417 220.9417 221.1674 221.1674 222.0552
   222.1755 222.1755 222.6188 223.6311 223.6311 225.0806 225.9036 226.5983
   226.5983 226.9218 228.1855 228.1855 228.8182 229.0163 229.0163 229.6690
   230.0646 230.3315 230.3315 231.0934 231.0934 231.4168 231.4168 232.3845
   232.3845 232.4178 232.4441 232.4441 233.5222 233.5303 235.4902 235.4902
   236.1390 236.6986 236.6986 236.7680 236.8572 236.8572 238.6503 239.2654
   239.2654 239.8175 240.3228 240.3393 240.3393 241.4844 241.4844 242.4596
   242.4596 242.9452 243.3959 243.6407 243.6407 243.9486 245.0201 245.2475
   245.2475 246.0776 246.0776 246.5282 246.9486 247.3484 247.3484 248.2090
   248.2090 248.4848 249.9849 249.9849 250.8191 250.9933 250.9933 252.0177
   252.3072 252.3072 253.0553 253.2695 253.4672 253.4672 254.2762 254.9732
   254.9732 255.4520 255.8127 255.8127 256.1416 256.6298 256.6298 256.8956
   256.8956 257.0046 257.6982 258.1936 258.1936 258.2639 258.8186 259.3124
   259.3124 260.3378 261.6866 261.6866 261.7105 262.0156 262.4314 262.4314
   263.3898 263.3898 263.4830 263.5587 264.7514 264.7514 265.6076 265.6076
   266.0564 266.4939 266.4939 266.5825 266.9123 267.3906 267.3906 267.8669
   267.8669 268.5495 268.5495 268.6201 269.1213 269.1213 269.7630 269.7630
   270.9605 273.5199 273.8010 273.8010 274.4334 275.7863 276.4515 276.4515
   276.7362 276.7362 277.9317 277.9317 278.5767 278.7236 279.6423 279.7567
   279.7567 280.1432 280.1432 280.2361 282.1603 282.1603 282.3607 282.6412
   282.6675 282.6675 282.7550 283.1278 283.1278 283.9329 284.1807 284.1807
   284.6378 284.6378 284.8259 285.8654 285.9346 285.9346 286.3026 287.2238
   287.2238 287.6079 288.2462 288.2571 288.2571 288.8900 288.8900 289.5191
   291.0429 291.0429 291.5971 291.6444 291.9266 291.9266 291.9709 291.9709
   293.2190 293.2190 293.5740 293.7833 293.7833 294.0320 294.0739 294.3030
   294.3030 294.5437 294.5437 295.8747 295.8747 296.2365 296.2495 298.5627
   300.4159 300.7551 300.7551 301.9985 302.0590 302.0590 302.6828 302.7826
   302.7826 303.4278 303.7036 303.7036 304.1929 304.1929 304.3048 304.6943
   304.6943 304.7285 304.9837 304.9837 305.2138 305.3269 305.7374 305.7374
   306.3640 306.3640 306.5797 308.3066 308.4142 308.4142 308.9446 308.9492
   308.9492 310.1675 311.1782 311.1782 312.2429 312.2429 312.4182 314.6685
   314.6685 315.2941 316.8432 316.8432 317.1094 317.6648 317.6648 318.5120
   318.5120 319.4321 319.7830 320.3541 320.3541 320.7720 321.5192 322.0447
   322.0447 323.4598 323.4598 324.2193 324.9670 324.9670 325.2201 325.2201
   326.0758 326.0758 326.2772 326.3954 326.6011 326.6011 326.6490 326.7377
   326.9264 326.9264 327.4189 327.7851 328.1125 328.1125 328.2704 328.5719
   328.7656 328.7656 329.0225 329.0225 330.7065 330.7065 330.8577 330.9814
   331.6005 331.6005 332.6360 334.6692 334.6692 335.9949 335.9949 336.5631
   337.7480 339.2438 339.2438 339.5318 339.5318 339.8583 340.0027 340.0027
   340.2380 340.5185 340.5185 340.7410 340.9212 340.9212 341.3034 341.3034
   341.3672 341.5017 341.7098 342.1315 342.1315 342.3173 342.8604 342.8604
   343.0078 343.0078 343.0556 343.2253 344.1978 344.1978 344.3867 344.6761
   344.6761 344.9558 346.0106 346.0106 347.0311 347.0311 347.0985 347.2359
   348.6584 348.6584 348.6595 349.0115 350.6236 350.6236 350.7512 350.9313
   350.9313 351.6954 351.7084 351.8358 351.8358 352.1424 352.1424 353.0767
   353.0767 353.1089 353.2468 353.4845 353.4845 353.6467 353.6467 353.7544
   353.7544 353.7969 353.9231 353.9848 354.0312 354.0312 354.2262 354.4630
   354.4630 354.6538 354.8007 354.8007 355.0140 355.0140 355.0310 355.5981
   355.5981 355.8546 355.8546 356.2498 359.1665 359.3787 359.3787 360.8468
   360.9779 360.9779 362.5027 362.5552 362.5552 363.7375 363.7375 364.1587
   364.1668 364.1668 364.4367 365.8615 365.8615 366.1496 366.4571 366.4571
   366.8570 366.8600 366.8600 367.0174 368.3761 368.5308 368.5308 370.8108
   370.8108 371.0877 373.2640 373.2640 373.8358 373.8358 374.0140 374.1649
   374.1649 374.8169 374.8169 374.8239 374.9090 375.1144 375.1144 375.1270
   375.3655 375.7948 375.7948 376.4805 377.5967 377.9661 377.9661 378.2584
   378.2584 378.7892 379.2544 379.2600 379.2600 380.7357 380.7357 380.7426
   380.8522 381.5259 381.5259 383.0005 383.0005 383.2898 383.4979 383.4979
   384.0858 384.0858 384.1425 384.4546 384.6617 384.6617 384.7145 385.0074
   385.9119 385.9119 386.0515 386.3219 386.3219 386.3750 387.1067 388.6773
   388.7909 388.7909 389.6104 389.6104 389.7486 389.7486 389.9660 390.6489
   390.6489 390.7456 391.5880 391.8048 391.8048 391.8301 392.1267 392.1267
   392.5659 392.8444 392.8444 393.6187 394.0313 394.0422 394.0422 394.3758
   394.7076 394.7076 396.7511 396.7511 397.1210 397.1210 398.0660 398.0660
   398.7794 398.9637 399.7519 401.3788 401.4940 401.4940 401.7603 402.0976
   402.0976 402.4289 402.4289 402.6193 402.8862 402.8862 403.5155 403.5155
   404.9272 405.1278 405.1278 405.1393 405.1528 405.1722 405.1722 406.0948
   406.0948 406.1114 407.0939 407.0939 407.2508 407.3872 407.3872 407.4965
   408.8055 408.8055 409.5597 409.8525 409.8525 410.0231 410.0231 410.0414
   412.0920 413.2295 413.2295 413.6447 414.5868 414.8868 414.8868 415.2023
   415.2023 415.2861 415.3694 415.9372 415.9490 415.9490 416.0803 416.0803
   416.0858 416.1638 416.1638 416.2218 416.3323 416.3323 417.2708 417.2743
   417.2743 417.5738 421.1290 421.1290 421.7347 422.2107 422.2107 423.1750
   423.5571 423.5571 424.4347 424.4469 424.6482 424.6482 424.8614 424.8614
   424.9556 426.1363 426.1363 427.4870 427.4870 427.6009 427.8951 427.8951
   427.9159 428.2104 428.2104 429.4949 429.4949 429.5835 429.9364 429.9364
   429.9421 430.0836 430.0836 430.2690 430.3489 433.7863 433.9629 433.9629
   433.9984 434.7822 434.7822 434.9496 435.9883 435.9883 436.4754 436.4754
   436.5584 436.7226 436.7226 437.4966 437.4966 437.5698 437.9889 438.0831
   438.3560 438.4231 438.4231 438.8119 439.0645 439.0645 439.5246 439.5246
   439.6708 440.0855 440.0855 440.7114 440.9311 441.0174 441.0174 441.3031
   441.3031 441.3096 441.5465 441.7859 441.7859 442.2107 442.2107 442.3297
   443.4491 443.7229 443.7229 443.7643 444.7300 444.8778 444.8778 445.1014
   445.1014 445.1761 445.1761 445.4445 446.1885 446.7367 446.7367 447.3012
   447.3741 447.3741 447.8342 448.0479 448.0965 448.0965 451.5880 451.5880
   451.7067 452.3247 452.4074 452.4074 452.6467 452.6467 452.8020 453.3948
   453.3948 453.4590 453.9503 453.9503 456.1643 456.2930 456.2930 456.9316
   456.9316 456.9390 457.0417 457.0417 457.0838 458.1110 458.1110 458.1149
   459.5204 459.5431 459.5431 459.8066 459.8066 460.2351 460.5465 460.5465
   460.5956 460.7222 460.7222 460.7344 462.5122 462.5122 462.6793 462.8033
   462.8033 463.3428 463.5100 463.5100 463.7252 464.2530 464.3746 464.3746
   464.5426 464.5426 464.6440 465.4912 465.5931 465.5931 465.7724 465.7724
   465.8329 466.5725 469.7909 469.7934 469.7934 470.1879 470.1879 470.6488
   470.9625 470.9625 471.4744 471.4744 471.6372 472.1410 472.6820 472.6820
   473.2924 473.4238 473.4238 474.0320 474.0320 474.8495 475.2874 475.4073
   475.4073 475.8058 476.0451 476.0451 476.7006 476.7006 476.7270 477.4394
   477.4394 477.4836 477.5446 477.5446 477.7059 477.9475 477.9544 477.9544
   477.9725 478.0216 478.0216 478.9110 478.9110 480.1487 480.1487 480.4482
   480.5752 480.5752 480.7920 480.8423 480.8423 480.8817 481.1532 481.3050
   481.3974 481.3974 481.9056 483.0986 483.1263 483.1263 483.4252 483.4252
   483.4633 483.9941 483.9941 484.5763 484.5763 484.9594 485.6253 485.6253
   486.1884 488.1763 488.3396 488.3396 489.1386 489.1386 489.3031 489.3068
   489.4138 489.4138 491.4829 491.4829 491.7117 492.0889 492.0889 492.4657
   492.4657 492.6666 492.9739 494.0751 494.4543 494.4543 495.1877 495.2720
   495.2720 495.4182 496.9373 496.9373 497.0817 497.9186 498.1204 498.1204
   498.4332 498.4447 498.4447 499.0022 499.0388 499.0388 499.5940 499.5940

          k = 0.5000-0.5000 0.5000 (  3828 PWs)   bands (ev):

   -33.2785 -14.4241 -14.2762 -14.2762  -4.5340   2.9079   4.8352   4.8352
    11.1967  12.0041  12.1352  12.1352  14.0616  14.0616  14.8291  14.8291
    17.1000  19.4349  19.4349  21.6228  21.7567  24.9006  24.9006  27.1139
    29.4027  29.4027  30.6873  33.2553  33.2553  34.6444  34.6444  35.2234
    35.2234  35.2717  38.1808  38.5031  39.7552  40.5455  40.5455  41.8422
    43.6616  43.6616  46.1808  46.1808  46.9951  47.3984  50.2541  50.2541
    50.5476  50.9528  50.9528  54.4204  54.9384  56.4307  56.4307  56.9645
    57.8632  57.8632  61.0504  61.0504  62.5046  62.5046  64.1834  64.1834
    64.2806  64.2806  64.3125  65.7060  65.7699  66.5290  66.7511  67.1051
    67.1051  69.7987  70.8183  70.8183  73.3443  73.3443  74.4022  74.4022
    75.1375  75.3530  75.9004  75.9004  75.9631  75.9631  80.2750  80.2750
    80.6945  80.7505  80.8136  80.8136  81.8702  83.2479  86.4564  86.4564
    86.9998  88.0080  88.0872  88.0872  88.4030  93.0168  93.2445  93.2445
    93.5763  93.5763  93.8658  94.0575  94.0669  94.6221  94.6221  96.4756
    96.4756  96.6648  97.0116  97.0116  98.0998  98.0998 100.0478 100.2764
   100.6593 102.0882 102.7684 102.7684 104.0231 104.0231 104.2898 105.9212
   105.9212 106.7892 106.7892 107.3980 108.6312 108.6312 109.1994 110.7251
   110.8835 110.8835 110.8905 111.2703 111.2703 111.5389 111.5389 113.2642
   115.0550 115.3238 115.3238 116.7421 118.1249 118.1249 118.2433 119.1444
   119.1444 119.7643 119.7643 120.9645 121.0138 121.4129 121.4129 122.1156
   122.1156 123.1021 123.1021 126.1581 126.4259 126.4259 126.5476 129.0166
   129.0166 129.6389 130.1852 130.4204 130.4204 130.5490 131.3174 131.3174
   131.8897 131.8897 132.4417 133.9193 137.2501 137.6501 138.2651 138.2651
   138.7872 140.3054 140.3054 140.6644 140.8950 140.8950 141.7813 141.7813
   142.9586 143.4471 143.9732 143.9732 144.8179 145.2104 145.2104 145.6166
   145.6166 146.3161 146.3852 146.3852 146.5489 148.0450 148.0450 148.1711
   148.1711 148.4455 151.8644 152.3446 152.3446 153.7748 153.8452 153.8452
   154.3359 154.3359 154.7749 154.9278 156.6694 156.6694 156.8173 156.8173
   157.5631 157.6051 157.6051 157.9593 158.4410 158.6814 158.6814 159.0175
   159.0175 159.9744 159.9744 160.3461 162.8406 163.0753 163.0753 164.0003
   164.7686 164.9481 165.4382 165.4544 165.4544 165.5113 165.5113 168.0010
   168.0010 168.7066 171.9897 172.5403 172.5403 173.8023 173.8023 173.8884
   173.9770 173.9770 174.3934 174.9960 174.9960 175.1958 175.3217 175.6941
   175.7615 175.7615 176.1450 176.1450 176.1636 176.6846 176.6846 176.8497
   178.6906 178.6906 180.1043 180.1043 181.0995 181.2841 181.9941 181.9941
   183.4763 183.5513 183.5513 185.8863 189.7323 189.7323 190.7871 191.4902
   191.4902 191.8323 191.8323 192.4930 192.4930 192.5867 192.5867 192.9978
   193.1464 193.1605 193.2180 193.2180 193.2445 193.2903 194.0252 195.4537
   195.4537 195.5054 196.8730 196.8730 198.1132 198.2019 199.9076 199.9076
   200.0598 200.0598 200.4422 200.4422 200.7926 200.9062 201.0090 201.0384
   201.0384 201.1466 201.1466 201.2953 201.2953 201.3628 202.2424 203.4190
   204.7903 204.7903 204.8371 204.8371 206.2345 206.2357 208.3539 208.3539
   210.1090 210.1090 210.8469 210.8469 211.8501 212.2289 212.4875 212.4875
   212.8804 212.8804 212.9373 213.6861 213.6861 214.4968 214.4968 214.6562
   214.9039 214.9039 215.4591 215.4591 216.0815 217.8652 217.9192 217.9192
   218.3111 218.3111 218.3760 219.4842 219.9374 219.9374 220.0643 220.3900
   221.7323 221.8143 221.8143 222.7241 222.7241 223.0224 223.0569 223.0569
   223.7774 224.2587 224.2587 225.7750 227.2784 227.2784 228.5523 228.7330
   228.7330 229.5231 229.8663 229.8663 230.4109 230.4109 230.5664 230.7419
   232.7026 232.7026 234.7293 235.3526 235.6558 235.6558 236.0059 236.0334
   236.0334 236.8940 237.1242 237.1242 237.5827 237.5827 238.3561 239.0157
   239.0157 239.1249 239.7986 239.7986 239.8717 239.8717 239.9684 240.0819
   240.6539 242.4465 242.4465 242.5268 242.5417 244.5784 244.5784 244.6729
   244.6729 244.8440 245.0094 245.3482 245.3482 245.8928 246.3082 246.9387
   246.9387 247.7071 247.7071 249.2050 249.2050 249.5414 249.5414 250.4651
   252.2566 252.2566 252.6099 253.2185 253.2185 253.9737 255.0896 255.0896
   255.6589 256.1266 256.1266 256.2386 258.5110 258.5110 258.6669 258.8296
   258.8296 259.2814 259.3898 259.3898 260.3248 260.3248 260.3415 260.3415
   260.3563 260.4388 260.6511 261.0740 261.5866 261.5866 263.9451 263.9451
   264.4546 264.4546 265.5855 265.5855 265.6432 265.7025 265.8233 267.3683
   268.6307 268.6307 268.8321 268.8882 268.8882 271.4266 272.4451 273.0157
   273.0157 273.0656 273.0656 273.2264 274.2944 274.2944 274.4739 274.4739
   274.9284 275.1955 276.2788 276.4951 276.6743 276.6743 276.7240 276.7240
   277.1999 277.2319 277.2319 277.3249 277.3249 277.4966 277.4966 277.6231
   278.0705 278.1689 278.1689 278.7908 278.7908 279.0970 280.9943 281.0253
   282.9161 283.7575 283.8544 283.8544 284.0499 284.0499 284.1766 284.1766
   284.5592 284.7163 284.7163 285.0281 285.1772 285.1995 285.6382 285.6382
   285.8152 285.8152 286.4077 286.4077 286.5224 286.5224 286.7696 286.7834
   292.4528 292.4528 292.6427 292.9728 292.9728 293.0411 293.7310 293.7310
   294.3781 294.3781 294.5422 294.6263 294.6681 294.6681 295.1006 295.1006
   295.1942 295.3116 296.2025 296.2025 296.9597 296.9597 297.0482 297.0561
   298.7385 298.7385 299.7580 300.9311 300.9598 300.9598 301.0155 301.4176
   301.5235 301.5235 301.9298 301.9298 303.2104 303.5407 305.1709 305.2602
   305.2602 305.6497 305.6497 306.0401 306.0401 307.3136 307.3136 308.5863
   309.1278 309.4336 309.4336 309.7375 309.7636 309.7636 309.7811 310.3636
   310.3636 310.5388 310.5738 310.5738 310.8286 310.8286 314.4531 314.4531
   314.8783 314.8783 315.2740 315.2740 315.3710 316.1514 316.1667 316.1667
   316.6015 316.6031 317.4032 317.4032 317.4436 317.9398 319.0694 319.1788
   320.2869 320.5144 320.5144 320.7199 320.7199 322.0238 322.0238 322.4009
   322.4009 323.8641 324.0748 324.0748 324.6165 324.8441 324.8441 324.8536
   324.8536 325.0341 325.0352 325.5593 326.2540 326.5167 326.5167 326.9186
   332.8726 332.8726 332.9273 332.9273 334.1399 334.1399 334.2184 334.2184
   334.4708 335.6670 335.6670 335.9016 337.0170 337.1755 337.1755 337.4354
   337.4354 337.5900 337.5900 337.7329 338.1371 338.2226 338.8145 338.8145
   338.9067 338.9067 338.9474 339.3308 339.8621 339.8621 340.1387 340.1428
   340.1428 340.2300 340.7811 340.7833 340.7833 340.9589 340.9589 341.0518
   341.1016 341.2457 341.2457 341.2884 341.3327 341.3327 341.8436 341.8436
   341.8821 341.8821 342.0429 342.2621 344.4220 344.4220 344.8818 345.4743
   345.5131 345.5131 345.9330 346.4397 346.4397 346.5097 346.5097 347.1139
   349.4376 350.0255 350.1594 350.1594 350.6929 350.6929 351.4897 351.4897
   351.9498 352.0116 352.1659 352.1659 356.0479 356.0479 356.4660 356.4660
   356.7277 357.4198 357.6513 357.6593 357.8517 357.8517 357.9771 357.9771
   358.2958 358.2958 358.4125 358.4125 358.4606 358.6865 358.7497 358.7497
   359.6175 359.7036 359.8238 359.8238 359.8984 359.8984 360.0496 360.0584
   360.0584 360.2682 362.5293 362.8259 363.9054 363.9054 364.4863 364.8071
   364.8071 365.2403 366.2567 366.3112 366.3112 366.7781 366.7781 368.0204
   368.0204 368.2159 368.2159 368.4323 368.4558 368.5558 368.5558 368.9752
   368.9752 369.0605 369.1057 369.2761 372.9862 372.9862 373.3151 373.3151
   373.3980 373.4810 376.2910 376.2910 376.3122 376.3122 377.9838 377.9838
   378.5893 378.8570 379.0230 379.4008 379.4008 379.4742 379.6299 379.6445
   379.6445 379.7027 379.7027 379.7735 379.8208 379.8208 379.8848 379.8848
   381.1764 381.1764 382.7604 383.0354 383.0354 383.1318 383.1318 383.3565
   383.6226 383.6226 383.6270 384.0134 384.0134 384.2582 384.8939 385.1011
   385.5944 385.5944 386.2166 386.2166 386.4375 386.5897 386.5897 386.8352
   387.8258 387.8258 388.0655 388.0982 388.0982 388.1115 391.9325 391.9325
   394.1554 394.1554 394.7483 394.8637 394.8658 394.8658 395.0377 395.0377
   395.5250 395.5350 395.7437 395.7437 395.9467 396.0520 396.0600 396.0600
   397.2216 397.2216 398.3320 398.3320 398.9349 398.9362 398.9379 398.9491
   398.9491 398.9722 398.9722 398.9899 401.3769 401.7895 402.5605 402.5605
   402.6684 402.6684 403.7675 404.0910 404.0910 404.1120 404.1120 404.1155
   404.1231 404.1455 404.5458 404.5458 404.5469 404.5469 407.7414 407.7414
   407.7518 407.7518 407.8993 407.9002 409.2505 409.2505 410.3604 410.3891
   410.7534 410.7534 411.5857 411.6261 411.6912 411.6912 412.3212 412.4381
   412.6219 412.6219 412.7672 413.0452 413.0452 413.1893 413.1893 413.5123
   417.5567 417.5719 417.5719 417.6296 417.6296 417.8514 418.6481 418.6481
   418.8359 418.8359 419.0409 419.2890 419.2890 419.5455 419.8441 419.8441
   419.9310 419.9327 420.3305 420.3305 421.2011 421.2011 421.2106 421.4021
   421.5315 421.5327 421.5327 421.5487 421.5487 421.5924 422.7289 422.8594
   422.9766 422.9766 422.9926 422.9926 425.1164 425.1164 425.1196 425.1864
   425.1864 425.2650 425.6626 425.6626 425.6994 425.6994 425.7777 425.7791
   431.1099 432.3445 432.3445 432.4496 432.4496 432.6408 433.2302 433.2302
   433.3314 433.3314 433.3995 433.4927 433.8816 433.8816 433.9462 433.9479
   433.9479 433.9852 434.4965 434.6453 434.6453 434.6454 434.6454 435.1969
   437.6856 438.1839 438.1839 438.3452 438.3452 439.1556 439.7077 440.5289
   440.5289 440.6297 440.6297 440.8080 440.8716 440.9343 441.0376 441.0376
   441.5160 441.5160 441.6051 441.6364 441.6364 441.7398 441.7398 441.7800
   441.8175 441.9742 443.2902 443.5355 443.5355 444.3597 444.3597 444.3898
   445.4544 445.7410 445.7410 446.4144 446.4144 446.6268 446.6268 447.0033
   447.0033 447.1545 447.8164 448.1611 448.3660 448.3660 448.8804 448.8804
   451.3891 451.3891 451.3956 451.3956 451.5176 451.5853 451.9253 451.9253
   452.0694 452.0810 452.0810 452.1880 453.2109 453.2109 453.2134 453.2134
   453.3509 453.3509 453.3806 453.3806 453.5091 453.5094 455.1170 455.1172
   459.6924 459.6924 459.7483 459.8323 459.8961 459.8961 460.2937 460.6308
   460.6308 460.9061 460.9061 461.1953 463.4309 463.4309 463.6148 463.8795
   463.8795 464.2657 464.6323 464.6323 464.7160 464.9076 464.9076 465.1505
   465.3733 465.3733 465.7979 465.8543 465.8543 465.9697 465.9697 466.0035
   466.2519 466.4435 466.4435 466.7661 466.9255 466.9255 466.9885 467.1954
   467.1954 467.2839 469.0017 469.1051 469.1051 469.3413 469.3413 469.3751
   470.6558 470.6932 475.9869 475.9869 476.1504 476.1504 476.3349 476.3718
   477.1548 477.1594 477.1594 477.1842 477.1842 477.3550 477.7507 477.7507
   477.7971 477.7971 477.8148 477.8765 478.3064 478.3064 478.3464 478.3464
   478.3515 478.4558 478.7345 478.7345 478.7578 478.7685 478.7685 478.8972
   479.8597 479.8947 479.8947 480.0561 480.0561 480.0799 480.1632 480.1990
   480.1990 480.2470 480.2470 480.2952 480.5360 480.5360 480.5591 480.5591
   482.0805 482.0805 482.0815 482.0815 482.1433 482.1456 483.3880 483.3880
   483.7602 483.7602 483.9828 484.1548 488.0007 488.0007 488.7986 488.7986
   488.9297 489.0153 489.8948 489.8948 489.8956 490.0240 490.0240 490.9611
   495.5230 495.5230 495.8271 495.9536 495.9536 496.0996 496.5067 496.5067
   496.6887 496.8303 496.9659 496.9659 497.3128 497.3128 497.4551 497.5259
   497.5322 497.5322 497.5631 497.5631 497.6831 497.6831 497.6977 497.7591

          k = 0.0000 0.3333 0.0000 (  3847 PWs)   bands (ev):

   -33.2858 -14.3012 -14.2752 -14.2752  -5.1070   4.6761   5.6662   5.6662
     9.5663  10.7186  10.9200  11.0602  11.0602  12.7194  17.2886  17.8857
    17.9195  17.9195  20.1541  22.0103  24.0030  24.0030  24.6067  28.7637
    28.7637  29.1059  29.2484  31.7678  32.5587  33.6685  33.6685  35.7775
    36.6081  36.6081  39.2377  42.6587  42.6587  43.0549  43.8379  44.3405
    44.3405  44.3514  44.8023  46.2823  46.2823  47.1891  48.2802  48.3816
    48.5128  49.0792  51.0545  53.5580  53.5580  53.6675  54.5966  54.5966
    55.5318  56.2967  56.2967  57.5724  57.5724  58.2268  61.0881  61.4027
    62.3273  63.2976  63.2976  65.4503  66.8305  67.3637  67.3637  70.4256
    71.1863  73.9620  73.9620  74.4339  75.5103  75.8936  77.0594  77.0594
    77.6080  78.6840  79.1076  79.1076  79.8198  80.6992  80.6992  81.8049
    81.8319  83.5116  83.5116  84.9142  85.4591  85.4591  85.6700  86.0546
    86.1181  88.0815  88.5488  89.4316  89.4316  89.7729  89.8807  89.8807
    91.7301  92.5139  92.8399  92.8399  93.2120  94.1378  94.8796  96.6274
    96.9533  96.9533  97.7161  98.1163  98.1163  98.2715  98.7198  99.4078
    99.4078 100.1580 101.1627 101.1751 101.1751 101.8634 101.9991 102.8626
   102.8626 102.9767 103.5989 104.4592 104.4592 106.3501 107.1459 107.4064
   107.4064 109.5081 109.5081 111.4023 112.0554 112.7866 113.1297 114.3842
   114.3842 114.6056 114.8974 116.1968 116.2858 116.2858 118.8556 118.8556
   119.2410 119.4396 119.4396 119.6740 119.7009 119.8043 121.8196 122.4981
   122.4981 122.9580 123.0212 125.3187 125.3187 126.4756 127.1221 128.0357
   128.3713 128.3713 129.6716 130.6467 130.6970 130.6970 131.1549 131.5409
   135.0595 135.4718 135.5220 135.5220 135.8771 138.6276 138.6276 139.6660
   139.6660 140.9024 142.1660 142.8314 142.9443 142.9443 143.5354 144.7467
   144.7608 144.7608 145.6353 146.1349 146.1349 146.7770 147.2973 147.7305
   148.4706 148.4706 150.1522 150.7354 150.7354 150.9589 151.6632 151.8235
   152.3704 152.3704 152.3820 152.4282 152.4999 152.4999 153.3814 154.7422
   154.7422 155.0354 155.0695 155.0695 155.6558 155.7739 156.6757 156.8532
   156.8532 157.2132 158.6517 158.6517 159.1919 159.3121 159.6867 160.8026
   160.8026 162.7371 163.0771 163.3840 163.3840 163.5419 163.5419 164.3161
   164.5626 164.9062 165.4735 166.3944 167.1377 167.1377 168.9696 169.9816
   169.9843 169.9843 170.5903 170.5903 170.6565 170.8998 171.7554 172.3790
   173.0052 173.0052 173.0987 173.4609 173.4609 173.9273 174.0811 174.2293
   174.8164 175.2431 175.2431 175.7488 175.9477 177.1968 177.1968 177.3229
   177.3229 177.3527 178.0848 178.5355 178.6515 178.6590 178.6590 179.6523
   180.0516 180.0516 180.1033 181.4994 181.5594 182.3937 183.6183 183.6183
   184.9056 184.9056 185.6376 185.6742 186.4070 186.4070 186.7923 186.9612
   189.3121 189.9791 189.9791 190.6647 190.9391 191.9237 193.0432 193.1074
   193.1074 193.2851 193.2851 193.3952 193.5598 194.8786 194.8786 197.5809
   199.5246 199.8888 199.8888 200.9170 201.7286 202.4548 202.4548 203.4118
   203.7484 203.7952 203.9947 203.9947 204.1474 204.5863 204.5863 204.9555
   205.1565 205.1565 205.2242 205.4824 207.9354 208.4652 208.7263 208.7263
   209.2530 209.2530 209.4661 209.9738 209.9738 210.0253 210.7276 211.1131
   211.1131 211.1530 213.5238 215.8673 215.9880 216.1938 216.1938 216.2718
   218.2648 218.9290 218.9290 218.9422 219.5289 219.6217 220.3213 220.5851
   220.5851 221.2778 221.2778 221.7334 222.5296 224.2474 224.2474 226.1340
   226.1340 226.8149 227.5004 227.5004 228.3609 229.6713 229.9512 230.0166
   230.0166 230.0608 230.2639 230.7241 231.1214 231.2865 231.2865 231.4464
   231.6136 233.7438 233.7438 235.1582 235.1713 235.5149 235.5149 235.7672
   235.9644 235.9644 236.1919 236.3932 236.3932 237.1095 237.2232 237.2232
   237.3145 237.6594 238.3947 238.7345 238.8255 238.8449 238.8449 239.0495
   239.5013 239.5013 240.4574 240.5358 241.0141 241.0141 241.7603 241.7824
   242.1795 242.2601 242.2694 242.2694 243.5602 244.6529 244.6529 246.4974
   247.0591 247.2476 247.2839 247.6113 247.6113 248.6576 249.3607 249.6079
   249.7518 249.7518 250.2908 250.2908 250.3895 250.7644 251.0084 251.0084
   251.0189 251.7067 251.7653 251.7653 251.8877 251.8877 252.1875 252.6456
   252.6456 252.6584 252.8949 253.9398 254.3192 254.4958 254.4958 254.8315
   255.3638 255.3638 255.4482 255.7370 257.8096 257.8096 258.6367 258.6750
   259.1622 259.2425 259.2425 259.4311 259.5784 260.4293 260.4293 260.6395
   261.2883 261.3415 261.3415 261.6828 263.3428 263.8253 263.8253 264.1768
   264.7624 264.7624 264.8518 265.1193 265.5129 265.5129 265.8043 266.8647
   266.9955 266.9955 267.5041 268.3558 268.8474 269.5527 269.9061 270.8235
   270.8235 271.1668 271.3959 271.3959 271.8379 272.4413 273.7575 273.7575
   274.1721 274.2957 274.2957 274.5581 274.5851 274.8049 274.8049 275.4470
   275.5488 275.5488 275.6319 275.6664 276.0391 277.6990 278.0247 278.0247
   279.6043 279.6043 280.9919 281.3443 281.3980 281.3980 281.8054 282.0819
   282.0819 282.4886 282.5371 283.2146 283.6012 284.1738 284.1738 284.4165
   284.4165 284.5124 285.1621 285.5406 285.6784 285.6784 287.3412 287.9095
   291.6583 292.1175 292.1175 292.5346 292.6184 293.5338 294.0086 294.2574
   294.2574 294.4708 294.7644 294.7644 295.1549 295.1549 295.3505 295.5588
   296.0990 297.4524 297.4524 298.0922 298.7809 300.0927 300.3742 300.3742
   300.8276 301.3922 301.6739 302.0148 302.0148 302.9930 302.9930 303.5349
   304.4781 304.5299 304.9982 304.9982 305.1751 305.2910 305.2910 305.7438
   305.7949 306.2459 306.2459 307.3933 308.2747 309.5075 310.4656 310.4656
   311.1997 311.8500 312.2457 312.9250 312.9250 313.3611 313.3611 313.7669
   314.5066 314.5853 315.2137 315.2137 315.8173 318.3593 318.5229 319.1238
   319.1238 320.3763 320.3889 321.0220 321.5257 321.5257 321.8742 321.9978
   321.9978 322.5799 322.6836 322.9335 322.9335 323.1334 323.1402 323.1402
   323.3722 323.4176 323.4176 323.4487 323.8742 324.0242 324.0434 324.0655
   324.1838 324.1838 324.6653 325.0640 325.0640 325.7390 325.9013 325.9013
   326.3444 326.7081 327.4840 327.4840 327.6264 327.7250 327.7843 327.8001
   327.8605 327.8605 328.3696 328.4947 328.4947 329.6146 329.8715 330.7004
   330.7245 330.7245 330.7736 330.8095 330.8095 333.1809 333.6801 333.6801
   333.8114 333.9568 334.2149 334.2374 334.2374 335.4480 336.2344 336.8688
   336.8688 336.9805 338.2028 338.2088 338.2088 338.4012 339.5225 339.5225
   339.6420 339.7804 340.1919 340.1919 340.2500 340.4443 341.6709 341.6709
   342.9025 344.3622 344.5599 345.2040 345.2040 345.8175 347.5264 347.5264
   347.5840 347.9259 348.2943 348.2943 348.3072 348.3179 349.3538 349.3538
   349.9308 351.0693 351.0693 351.2850 351.2893 351.6187 351.8723 352.3754
   352.4235 352.4235 352.6837 352.8796 352.8796 352.9231 353.5903 354.0942
   354.0942 355.2007 355.2007 355.7674 355.8574 355.9605 355.9605 356.4451
   357.7938 358.0506 358.0506 358.0562 358.1460 358.2701 358.8877 358.8877
   359.1426 359.3532 359.6857 360.2102 360.2102 360.6907 360.7052 360.9769
   360.9769 361.1217 361.2032 361.3284 361.3423 361.3423 361.3825 361.5566
   362.0445 362.1777 362.1777 362.2802 362.2802 363.0947 363.0947 363.5057
   363.5632 363.5632 363.5878 364.0762 364.3072 364.5103 364.5876 364.5876
   364.6021 367.4742 367.5735 367.5735 367.7601 367.7719 367.9743 367.9743
   368.0888 368.8756 369.1476 369.1476 369.9020 370.0605 370.1474 370.3327
   370.3327 372.1506 372.1731 372.1753 372.1753 373.3494 373.7304 373.7554
   373.7554 375.4490 376.1352 376.5024 376.5024 376.7197 377.3196 377.3196
   377.4154 377.4834 378.3177 378.3177 378.6323 378.7438 378.7438 378.8027
   378.8083 378.8925 378.8925 378.9754 378.9932 379.1496 379.4161 380.3199
   380.3199 381.2834 382.1214 382.1214 382.7557 384.7739 385.2107 385.2107
   385.4009 385.4009 385.4085 385.4467 386.0509 386.4047 386.5507 386.5507
   386.6330 386.8077 386.8930 387.7235 387.7235 387.9418 388.1674 388.1674
   388.2581 388.3179 388.3527 389.0413 389.0413 389.1027 389.8819 390.1519
   390.1729 390.1778 390.1778 391.6381 391.6381 392.3357 392.5141 392.7519
   392.7519 394.0367 394.1166 394.3402 394.3402 394.4861 396.3391 396.3683
   396.3683 396.4161 396.5221 396.6426 396.6426 396.8354 396.9951 397.8567
   397.8624 397.8624 398.4937 398.4937 398.6615 398.7270 402.9396 402.9396
   402.9928 402.9979 403.8405 403.8405 403.8781 404.4461 404.7768 406.2125
   406.2125 406.5438 406.5438 406.7565 407.1397 407.5981 407.7952 408.2226
   408.2226 409.2620 409.6515 409.6515 410.3127 410.5625 410.6616 410.6616
   410.7203 410.9513 410.9513 411.6893 411.8661 411.8661 411.9301 412.8488
   413.2231 414.1633 415.5617 415.5617 416.0237 416.5252 417.1875 417.4316
   417.4316 417.7897 419.0482 419.0482 419.2053 419.2510 420.0788 420.2089
   420.2089 420.2738 420.9220 421.8681 422.1597 422.1597 422.3281 422.4099
   422.4099 422.4138 422.4193 423.1871 423.1871 423.8122 423.9077 423.9716
   423.9716 424.1176 424.9614 424.9614 425.1607 425.7263 426.4582 426.4582
   426.6092 426.8539 427.2115 427.7520 427.7520 428.0347 429.4615 429.4994
   429.4994 429.5266 431.3082 434.2752 434.2872 434.7252 434.7252 434.8004
   434.9658 434.9658 435.2296 435.3253 435.4767 435.4767 436.5854 436.5854
   436.6167 438.2401 438.2512 438.4581 438.4581 438.5804 439.1097 439.1202
   439.3384 440.1230 440.1230 440.3719 441.2513 441.2513 442.1323 442.1323
   443.0634 443.1319 443.4378 443.4661 443.5427 443.6868 443.6868 444.3552
   444.6154 444.6154 445.2552 447.7142 447.7142 447.9787 448.1800 448.1856
   448.1856 449.0975 449.0975 449.1434 449.5708 449.7575 449.8141 449.8141
   449.8522 450.1554 450.2320 450.3584 450.4643 450.4643 450.4947 450.7833
   450.7833 451.0910 454.0286 454.0286 454.3911 455.4260 455.5287 455.7167
   455.7167 455.8087 457.3233 457.4330 457.4330 457.5284 457.6304 457.6304
   457.7311 457.7519 457.8274 457.9598 457.9598 458.0004 458.0850 458.2016
   458.2016 458.4892 458.8777 460.4368 460.4368 460.9002 460.9033 461.0671
   461.0671 462.0825 463.3376 463.3885 463.3885 463.4552 463.5354 463.7973
   463.9524 463.9524 464.0165 464.4348 464.6271 464.6579 464.6579 464.8024
   465.0063 465.0063 465.3668 465.3668 465.4476 465.6862 466.8916 467.0657
   467.0657 467.1066 467.4120 467.4643 467.4643 467.9731 468.1426 468.2186
   468.2972 468.2972 469.0862 469.0862 469.1394 469.6313 469.7924 469.7924
   469.8158 469.9110 470.0627 470.2063 470.2063 470.3511 471.3479 471.5499
   471.5499 471.6276 471.7743 472.2314 472.5811 472.5811 472.7429 473.2423
   473.2423 473.3406 473.5558 473.6514 473.7410 473.7410 473.8693 473.9787
   474.1784 474.1784 474.6875 477.0066 477.5918 477.9978 477.9978 478.2081
   478.2365 478.2365 478.2694 478.5063 478.5185 478.5429 478.5429 478.9315
   479.4101 479.4101 479.4900 479.5669 479.5669 480.0891 480.3065 480.4421
   480.6636 480.6837 480.6837 481.2067 481.2096 481.2096 481.2831 481.5284
   482.0023 482.0143 482.0143 483.1101 483.2766 483.5493 483.5493 484.2649
   484.2690 484.2870 484.2870 488.7293 488.8760 488.9185 488.9733 488.9733
   488.9864 489.0476 489.0476 491.4231 491.9976 492.3513 492.3513 492.9981
   493.0325 493.0325 493.3553 493.4231 493.7382 493.7965 493.7965 493.9123
   493.9123 494.2296 494.6632 494.6655 494.6719 494.6719 494.8728 496.8508
   497.1605 497.1605 497.4598 497.6164 497.9582 497.9718 497.9718 498.8542

          k =-0.1667 0.5000-0.1667 (  3866 PWs)   bands (ev):

   -33.2813 -14.3573 -14.2843 -14.2832  -4.8323   3.8325   5.0858   5.2754
     9.6491  11.5134  11.5225  12.0288  12.0392  14.0555  15.5200  16.8241
    16.9810  18.6753  21.2784  21.5084  24.0504  24.3663  24.9728  27.0009
    27.4111  29.2412  29.2847  31.1787  32.8899  34.3071  35.3095  35.9020
    36.6207  37.9597  38.8240  40.0817  40.3110  41.2613  42.1272  42.2172
    42.6081  44.2603  44.3189  45.9508  47.2604  48.3933  49.0227  49.2814
    50.2420  50.8674  51.7651  53.0309  53.4340  54.0904  55.0624  56.6327
    57.6794  58.0070  59.1240  60.9897  61.3479  61.8153  62.1673  62.2402
    62.4117  62.9261  64.6762  65.6671  66.2794  66.5929  68.2541  68.6321
    69.5352  70.6955  71.7717  72.6020  72.7501  72.7682  73.7740  74.9553
    74.9911  75.9133  77.7762  78.0931  78.4698  79.1838  79.9288  80.6029
    80.9052  82.0656  82.9269  83.4938  83.9645  85.9552  86.1846  86.9221
    87.1179  87.3165  89.1139  89.2093  89.7189  90.1796  90.5768  90.8912
    91.1716  91.9300  93.9890  94.1552  94.5208  94.9741  95.1582  96.2845
    96.5245  97.0454  97.6007  97.8253  98.5808  98.9107  99.0697  99.5835
    99.8154 100.5273 101.7257 101.7993 103.0087 103.8168 103.9718 104.1365
   104.7985 105.6492 106.2298 106.3048 106.4892 107.4332 108.3846 108.7824
   108.9917 109.4270 109.5594 110.0330 110.6131 111.4051 112.2640 112.3155
   113.1511 113.4294 114.2193 115.4673 116.5329 117.7724 118.2631 119.5072
   119.9289 120.1238 120.8643 121.1938 121.6060 122.7521 123.5154 124.8839
   125.6057 126.1774 126.2202 126.3691 126.6289 126.9391 127.5125 128.7914
   129.6398 129.6589 129.9741 130.8675 131.0968 131.9080 132.1371 132.9397
   133.4732 133.8994 134.9416 135.4977 135.8489 136.0505 136.6349 137.5609
   137.6310 138.0231 139.3097 139.5388 139.8777 140.3515 141.5434 141.6814
   142.0921 142.2258 143.0779 143.5908 144.0923 144.5595 144.7047 145.2512
   145.4385 145.8399 146.3772 146.5242 147.4902 148.4510 149.0811 149.4948
   150.1082 151.1551 151.2807 151.3895 152.1766 152.2749 153.5269 153.7845
   154.0778 154.8392 154.9850 155.1140 155.3153 155.6567 155.6856 156.4498
   156.6431 158.0336 158.1446 159.3968 159.4480 159.8317 160.6967 161.1136
   161.7402 162.7669 162.8986 163.5298 165.0999 165.7930 165.8312 166.2563
   166.3280 166.8124 167.3789 167.4455 167.4963 167.6755 168.2849 168.7018
   168.8989 169.3978 169.7302 170.7523 170.8248 171.7396 171.9801 172.2311
   172.7169 172.8840 173.5922 174.1072 174.2918 174.6931 175.0301 176.3795
   176.8193 177.5500 177.5806 178.0071 178.1941 178.5905 178.8191 179.2945
   179.3810 179.8888 180.0140 180.4088 180.5901 180.9007 180.9738 181.4899
   182.3428 182.9308 183.1992 183.4822 184.0566 184.4335 184.6960 184.9960
   185.2084 185.4413 185.6365 186.6904 187.4509 188.7542 188.8834 188.9511
   189.3428 189.6477 190.9234 191.4941 191.6313 192.0476 192.7674 193.0841
   193.5603 195.3499 195.3658 196.0822 196.9410 197.0188 197.5892 198.1518
   198.4720 198.6193 198.9599 199.3418 199.6409 199.8190 200.5929 200.7069
   201.2623 201.5655 202.8835 203.3500 203.7114 204.1537 204.7046 204.9980
   205.6012 205.7814 206.0196 206.3436 206.5087 207.0073 207.7042 208.0676
   208.1901 208.6912 210.2204 210.7977 211.1194 211.8111 212.5417 212.8855
   213.9888 214.2625 214.9217 215.1228 216.6943 217.1394 217.5153 217.8131
   218.0338 218.9092 219.4067 219.4413 219.8775 220.1411 220.2701 220.3423
   220.5818 220.8516 221.3494 221.6432 221.7728 221.8050 222.5764 223.1356
   223.1781 223.5701 223.6021 224.2721 224.4699 224.4933 225.0406 225.0536
   225.8017 226.1285 226.7994 227.4780 229.9620 230.1197 230.1344 230.2916
   230.3573 230.6019 230.8525 231.0919 231.5782 232.0422 232.5845 232.7937
   232.8406 233.3793 233.4647 233.5968 234.1287 234.8540 235.4046 235.8822
   236.1627 236.5898 236.6910 236.9616 237.2639 237.6442 238.0389 238.0865
   238.2881 238.7921 238.8448 239.8778 240.0250 240.3584 240.5006 241.1443
   241.5986 242.0992 242.1683 242.8844 243.5913 243.7966 243.8433 244.3021
   244.5712 244.9919 245.3972 246.1312 246.8663 247.3130 247.6878 247.8778
   248.4262 248.4727 248.9426 249.8206 249.8459 250.1703 250.5363 250.7462
   250.8932 251.0782 251.3899 251.6717 252.1157 252.3853 252.4692 252.8565
   252.9163 253.2228 253.2747 254.4910 255.2916 255.5316 255.5935 256.5767
   256.8010 257.9311 257.9503 258.3046 258.9509 259.5264 260.5049 260.6605
   260.7549 260.9652 262.2183 262.3035 262.8513 263.2454 263.7462 264.1032
   264.1249 264.3002 265.1143 265.5033 265.5611 266.3526 266.3715 266.6361
   266.8208 267.0300 267.4399 267.6721 267.7132 268.2465 268.5149 268.7363
   268.8022 268.8948 269.6845 269.7096 270.8810 270.9464 271.2348 271.4527
   271.7739 273.0719 273.4033 273.7439 274.3650 274.9422 275.1558 275.7691
   275.9123 276.1144 276.3611 276.4146 276.8524 276.9253 277.3954 277.4282
   278.0486 278.0818 278.8343 279.2663 279.9023 280.2727 280.7263 281.0477
   281.2555 281.6484 281.9880 282.7305 283.3266 283.4957 283.6523 284.5186
   284.8962 285.0636 285.9391 286.4376 286.5775 286.5834 287.0080 287.1319
   287.3977 287.7517 288.1411 288.3622 288.6429 288.7190 289.1732 289.4879
   289.8983 290.3097 290.4720 290.6828 290.9307 292.0826 292.1244 292.1296
   292.5473 293.0074 294.4163 294.4468 294.7538 294.8257 294.9947 295.2094
   295.9958 296.6883 296.8222 296.9509 298.0578 298.0966 298.1394 298.4344
   299.7317 300.5885 300.6507 301.3298 302.0047 302.0385 302.2910 302.6083
   302.7774 303.3304 303.4659 303.5825 303.9787 304.6827 305.2493 305.5985
   305.9644 305.9941 306.2493 306.3728 306.5250 306.7917 306.8834 307.5041
   307.8713 308.1432 309.1331 309.1532 309.2404 309.7664 310.0325 310.4278
   310.7089 311.6338 311.7767 312.1802 312.4842 312.6407 312.6745 313.1134
   313.2927 313.9543 314.0627 314.4842 314.8267 316.2683 317.0818 318.2300
   318.6779 319.0677 319.0898 319.4362 320.1601 320.2195 320.9540 321.2370
   321.8892 322.2057 322.4689 322.8643 322.8975 323.4621 323.6676 324.0348
   324.2273 324.5435 324.9574 325.2443 326.0099 326.4863 327.2985 327.7204
   327.9914 328.3412 328.4463 329.1372 329.2105 329.2275 330.1812 330.2374
   330.3576 330.7313 330.7420 331.3591 331.4973 331.6178 331.6645 332.1648
   332.8708 333.0803 333.3151 333.9475 334.5063 334.7472 334.9406 335.1175
   335.1437 335.4218 335.8454 335.8566 336.1523 336.4748 336.9625 337.1652
   337.5967 337.6893 338.3131 338.3751 338.4728 338.8130 338.9874 339.1680
   340.4743 340.4776 340.5632 340.6872 340.7188 340.8688 341.5888 342.3733
   342.5680 342.7306 342.8558 343.4331 343.5709 344.1388 344.1866 344.5938
   344.7744 345.3346 345.4157 345.5804 345.7113 346.2848 346.3625 347.1477
   347.2688 348.5006 348.8768 349.4740 349.5223 349.9235 350.0949 350.2629
   350.3231 350.7063 351.1419 351.4254 351.5166 351.6496 351.8344 352.0432
   352.5647 352.7068 352.9355 353.2298 354.0378 354.7058 355.1280 355.3332
   355.4552 355.7107 356.2208 357.1053 357.4617 357.9576 358.1484 358.1731
   358.2123 358.4091 358.6501 358.7332 358.8918 359.1472 359.2879 359.7171
   360.1968 360.9222 360.9837 360.9995 361.5691 361.7466 361.8049 362.0611
   362.4105 362.8627 363.0061 363.4388 363.6309 363.9717 364.4329 364.9124
   365.1295 365.1733 365.5110 365.7751 365.9562 366.0179 366.5673 366.5839
   366.8572 367.4146 367.5841 367.6974 368.6543 368.9454 369.2634 369.5675
   369.6918 369.9884 370.2101 370.3143 370.4801 370.5713 370.5958 371.4139
   371.7230 371.7413 371.9571 372.1170 372.9222 373.1569 373.9343 374.2243
   374.3301 374.4975 374.8074 375.0173 375.0491 376.3251 376.6903 376.7356
   377.3396 377.8274 378.0662 378.2095 378.4636 378.4858 379.9838 380.2465
   380.3811 380.5923 380.8197 381.1278 381.8108 381.9625 382.0441 382.3204
   382.4664 382.8899 384.5707 384.7128 384.8291 385.1932 385.1991 385.3288
   385.6380 385.6873 386.3765 386.5856 386.7299 386.8010 387.2499 387.3083
   387.3564 387.4351 388.0101 388.1173 388.8354 389.7799 390.0225 390.9087
   391.0629 391.9699 392.1473 392.3599 392.7498 392.8872 393.0891 393.4071
   394.0992 394.2213 394.3071 394.3411 394.4932 395.0764 395.1141 395.5565
   395.7175 396.0867 396.4167 396.5393 396.6257 397.7272 398.5999 398.6492
   398.8807 399.2181 399.2817 400.6321 401.1070 401.1392 401.6016 402.1564
   402.3861 402.7589 402.7819 402.9481 402.9628 403.0279 403.3268 404.4220
   404.5458 404.8997 405.4778 405.8015 406.4102 406.6435 407.0861 407.7022
   408.3795 409.0359 409.1091 409.2110 409.2733 409.5459 409.8475 410.2011
   410.3058 410.4459 412.1712 412.3228 412.4779 412.5946 412.8120 412.8163
   413.1963 413.5119 413.6696 413.7382 414.4549 414.4618 414.5547 414.9568
   415.3102 415.7155 415.9054 416.0699 416.2557 416.3327 416.5549 416.8194
   417.0334 417.1405 417.1855 417.9832 418.1911 418.2304 418.4246 418.6964
   418.9321 419.0050 419.7927 420.3573 420.6884 420.7453 420.8142 421.1799
   421.3268 421.3870 421.7746 422.1379 422.5824 422.6815 423.6275 424.2974
   424.8572 425.1598 425.2663 425.2729 425.5051 425.6328 426.2298 426.3828
   426.4677 426.4914 426.8459 426.9409 427.0576 427.1845 427.2884 427.2981
   427.3576 428.2755 428.6767 429.1326 430.4317 430.5061 430.6361 430.9692
   431.8597 432.2330 432.2347 432.9695 433.2163 433.3412 433.7124 433.8624
   433.9048 434.1696 434.3865 434.7548 434.8812 434.9191 436.0069 436.3885
   436.4657 436.5862 436.7808 437.0207 437.2583 437.6556 438.4334 438.9668
   439.7262 440.2023 440.3345 440.3682 440.3738 440.7632 440.9780 441.3722
   441.4805 441.8495 442.4358 443.5353 443.9965 444.6273 444.8650 444.9687
   445.1881 445.6062 445.6240 445.9371 446.4147 446.5997 446.7585 446.9010
   447.4208 447.5967 447.6678 447.8458 448.2223 448.3766 448.6217 448.7757
   448.9977 449.0718 449.1197 449.5753 449.9418 450.2521 450.3582 450.5016
   450.8121 451.0957 451.2916 451.6771 451.6890 452.0252 452.1239 452.9944
   453.2743 455.1336 455.2544 455.3916 455.4759 455.9239 455.9645 456.1951
   456.3024 457.5244 457.6633 457.8928 458.1401 458.1641 458.5284 458.5483
   459.0585 459.2000 459.6980 459.7656 459.8303 459.8570 460.4241 460.4870
   460.5687 460.6417 460.7594 460.8282 461.2031 462.0300 462.0624 462.3006
   462.7789 463.0853 463.3865 463.4069 464.1324 464.1837 464.6313 464.7189
   464.8512 466.0007 466.0623 466.1749 466.6367 467.5441 467.5709 468.1667
   468.6487 468.7820 468.7955 469.0332 469.0921 469.1293 469.8417 469.8758
   470.5338 471.6943 472.0581 472.0758 472.1784 473.1181 473.3864 473.6567
   474.2426 474.5262 474.6142 474.7910 474.8342 474.8984 475.0008 475.0691
   475.1594 475.1731 475.2547 475.4157 475.6135 475.8879 476.3700 477.4500
   477.4810 479.1847 479.1856 479.6463 479.6508 479.6916 479.7835 480.1239
   480.6067 480.7269 481.1875 481.3667 481.4058 481.6008 481.7286 481.9867
   482.5473 482.7321 482.7787 482.9938 483.1043 483.9491 484.6551 485.0322
   485.1621 485.4448 485.4515 485.4847 485.7740 485.7783 485.9156 485.9212
   485.9902 486.0045 486.2928 486.9025 487.2918 487.9930 488.2976 488.4472
   488.5576 488.5577 488.8528 489.1736 489.2098 489.5726 489.7127 489.7711
   489.7806 489.7926 489.9497 489.9859 490.3712 490.4609 490.7339 491.1662
   491.4798 491.5103 491.7782 491.7809 492.2781 492.3683 492.6334 492.7509
   492.8176 493.0238 493.2592 493.2817 493.6499 494.5135 494.5914 494.8308
   494.9227 495.0020 495.1482 495.2575 495.4185 496.5690 497.0885 497.1731

          k = 0.6667-0.3333 0.6667 (  3864 PWs)   bands (ev):

   -33.2777 -14.4026 -14.2962 -14.2848  -4.5797   3.2434   4.6213   4.9138
    10.5192  12.0455  12.2590  12.5475  13.0055  13.9921  14.6751  16.0905
    16.6544  19.9453  19.9625  21.6882  22.7366  24.2152  25.1536  27.3034
    28.7354  29.6504  30.3838  30.5009  32.9230  33.4036  34.5647  35.1086
    36.4888  37.0473  37.3147  39.3252  40.2057  40.4992  40.6181  41.4081
    43.1646  44.5043  44.8418  45.4384  47.6825  48.2935  50.7738  51.3783
    51.6383  52.1235  53.6711  53.8940  54.5506  55.3705  55.6977  56.4057
    56.7011  58.0141  58.6595  60.0448  60.5197  62.4045  63.8158  64.1544
    64.1965  64.2721  65.9756  66.7850  66.7880  67.2836  67.6502  68.5785
    69.3916  69.5216  70.6672  71.0334  71.8979  72.0355  73.0089  74.0636
    74.2836  74.4703  76.1442  76.5244  77.5562  78.1227  78.6095  79.2458
    80.0552  81.1602  82.0082  82.0323  83.5195  83.6494  83.7792  85.0981
    86.2309  87.3243  88.3594  89.5269  90.2380  90.3736  90.7388  90.9373
    91.3638  92.0407  92.6322  92.6590  93.5301  94.0497  94.5371  95.2501
    97.5862  97.9960  98.3196  99.3665  99.6043  99.9113  99.9501 100.9743
   101.5739 101.8040 102.5103 104.2562 104.3938 104.5505 104.8467 104.9991
   105.1898 106.7671 107.0000 107.6061 107.7226 108.1321 109.0539 109.6216
   109.8418 110.8643 111.8351 111.8897 112.2144 112.8342 113.7368 114.7811
   115.4930 116.0596 117.1501 117.6698 117.7128 118.6378 118.8752 119.3055
   119.9947 120.3315 120.7241 120.8366 121.2523 121.6199 121.7085 122.5646
   122.9368 124.0549 124.2008 125.0580 125.4300 126.3045 127.3547 128.2648
   128.5002 128.9559 129.4695 129.6109 129.9520 131.3860 131.5933 132.0277
   132.5707 133.6171 134.0539 134.2599 134.3868 134.6171 135.4329 136.7468
   137.0206 137.9501 139.2175 139.6283 139.9057 140.5629 141.0764 141.3225
   141.3995 141.5129 142.1801 142.5837 144.2629 144.5830 144.7818 145.0460
   145.5555 146.7377 146.8041 147.5324 147.9355 148.6598 148.7476 149.4798
   150.0750 150.6310 151.0275 151.6439 152.0005 152.4926 152.5492 152.9171
   153.2197 153.8972 154.0883 154.5210 154.6404 154.9182 155.6290 156.0914
   156.2989 156.6821 157.8196 158.1489 158.6735 159.0039 160.1624 160.6749
   160.6910 161.3375 161.4022 161.7813 162.7071 163.0109 163.3897 164.2145
   165.2550 165.5035 165.9146 167.1095 167.4147 167.4914 167.9333 168.0963
   169.1121 169.1426 169.5774 169.6559 170.4115 171.2382 172.3402 172.5164
   173.0359 173.7089 174.4680 174.6577 174.7050 175.3749 175.7448 175.8299
   176.7023 177.6800 177.9228 178.1875 178.2682 178.8695 180.5251 180.9102
   181.0426 181.0976 182.1691 182.3518 182.4854 182.5699 183.1573 184.3650
   185.4452 185.6787 185.7467 186.0201 186.6462 187.1651 187.9664 188.4058
   189.0185 189.3683 189.6167 189.6879 190.4263 190.9200 191.6288 192.0690
   192.1061 192.2760 192.6741 192.7336 192.8900 193.2239 193.5517 193.9951
   194.9704 195.3323 195.6729 195.9496 196.6765 197.9070 198.4635 198.5707
   198.7142 199.3317 199.3725 200.5454 200.7261 200.8510 201.6983 201.7346
   202.8937 202.9091 203.3869 203.6032 204.0090 204.0931 205.4746 205.8953
   205.9898 206.2299 206.6071 207.3125 207.3441 207.6894 208.2252 208.3913
   208.5973 208.6860 209.0491 209.1134 209.5878 210.1377 211.0268 211.5154
   211.6967 211.9156 211.9826 212.5073 212.5382 212.7857 213.9509 214.2087
   215.1717 215.3913 215.8922 216.0907 216.9168 217.0173 217.2936 218.6218
   218.6331 219.3208 219.8431 219.9800 220.2275 221.2895 221.2946 221.5183
   222.2682 222.3814 222.8864 222.9027 223.0763 223.5031 223.9899 224.0724
   224.1971 225.7042 225.7072 226.3214 226.3382 226.7614 226.7778 227.0207
   227.1451 228.0899 228.3426 228.5096 229.1027 229.4585 230.6297 230.8145
   231.1415 231.5423 231.8593 232.5931 232.8948 233.9655 234.8896 235.5032
   235.5963 235.7580 236.1931 236.9011 237.6965 238.4563 238.9130 238.9473
   239.2173 239.6849 239.9156 239.9818 240.2700 240.3231 240.5599 240.7924
   241.4276 241.6359 242.9111 243.0721 243.2791 243.3388 243.7363 244.1400
   244.9023 244.9271 245.4378 246.0463 246.3091 246.5469 246.6609 247.7121
   248.1971 248.4591 248.8994 251.1166 251.4400 251.8860 252.3537 252.6285
   252.6945 252.7852 252.9970 253.0543 253.2678 253.8618 253.9530 253.9789
   254.4995 254.7487 255.3476 255.5446 256.0716 256.8673 256.9739 257.1400
   257.6755 258.1438 258.6700 258.7337 259.0454 259.0936 260.6180 260.9500
   261.1724 261.4761 261.9631 262.9551 263.2327 263.8160 263.8688 264.3792
   264.9018 265.1325 265.7011 265.8144 266.5840 266.8429 267.1872 267.5658
   267.8065 268.8735 269.1492 269.3606 269.4436 269.7659 270.5949 270.7045
   271.6721 271.9045 271.9873 272.4126 272.6908 272.8866 273.1213 273.5420
   274.0075 274.0907 274.8103 275.0226 275.1068 275.2050 275.6813 276.0098
   276.1065 276.4627 276.4890 276.8450 277.9141 278.1115 278.2253 278.3558
   278.4837 278.7850 279.0052 280.0173 280.6005 280.9979 281.8018 282.0295
   282.0393 282.6520 282.9199 283.2579 284.2044 284.2085 284.5069 285.0090
   285.6964 285.7537 285.8352 286.2305 286.8455 287.2335 287.4659 287.6370
   287.8041 288.2626 289.2540 289.3162 289.4671 289.7357 289.9802 290.1035
   290.1955 290.5556 290.7930 291.4470 291.6040 292.4654 293.2831 293.3411
   293.5360 294.0952 294.1951 294.9075 295.1296 295.6384 295.8300 296.3286
   296.6916 296.7934 297.0705 297.0737 297.6084 298.5640 298.6238 298.8548
   299.3275 299.6156 299.9191 300.5279 300.7308 301.1432 301.1578 301.2723
   301.2915 301.5589 301.9079 302.0973 303.4105 303.7301 304.1784 304.5697
   304.8621 305.8088 305.8640 306.0976 306.5173 307.1520 307.3604 307.5032
   308.3302 308.8145 309.0024 309.5410 309.8080 309.9383 310.1592 311.3170
   311.5774 311.9432 312.1293 312.4623 312.5219 313.5329 313.5936 313.9364
[...]
   267.3615 267.6920 267.8358 267.9881 268.4260 269.3816 270.1379 270.2657
   271.0443 271.0811 271.7187 272.0298 272.4459 272.4755 273.0197 273.1902
   273.5895 274.0602 274.2362 274.6751 274.7902 274.9211 275.7201 276.6456
   277.5070 277.8081 277.9028 278.4984 278.5468 279.1647 279.1714 279.2488
   279.5524 279.6177 280.0435 280.8030 281.6602 282.3673 282.7732 283.1313
   283.1535 283.3967 284.3949 284.7144 284.8281 285.1350 285.5118 285.5564
   285.7734 286.2407 286.7051 286.8268 287.4266 287.7902 287.8649 288.5625
   288.6275 288.9446 289.0517 289.2171 289.6892 289.8543 290.0120 290.3223
   290.5422 290.5601 290.6167 290.6453 290.7732 290.9677 291.2029 292.1532
   294.0741 294.6841 295.7860 296.2866 296.6204 296.9658 297.4312 297.8842
   298.0553 298.0667 299.2231 300.0294 300.1633 300.2394 300.8753 301.2079
   301.8969 302.1656 302.1889 302.3422 302.7718 303.0902 303.4407 303.7474
   303.7960 303.8197 304.4748 304.5318 304.6882 304.8776 305.6989 305.9699
   306.2296 306.4442 306.6245 306.9062 307.5049 307.5402 307.6896 307.7488
   308.4459 308.5336 308.8357 308.9519 310.4726 310.7941 310.9346 311.3320
   311.4389 311.7293 311.7591 312.0329 312.2240 312.3091 312.6353 312.8005
   313.4172 313.7353 313.8670 314.3010 314.3147 315.1800 315.4265 315.8396
   316.4508 316.6428 316.7256 317.0876 317.1511 317.2904 317.8105 318.1474
   319.2933 319.6805 319.9299 320.1599 320.1948 320.4511 320.4559 320.7016
   320.8253 320.9788 321.5482 321.6773 321.9243 322.0917 322.1517 322.4321
   322.7459 322.7689 322.8892 323.0860 324.0519 324.1471 325.5694 325.6017
   326.7455 327.0169 327.2521 327.5816 327.7692 328.3295 328.6268 328.6752
   329.1498 329.2506 330.1722 330.3398 330.9410 331.3085 331.7994 331.8194
   332.0100 332.1685 332.3869 332.8404 333.2055 333.2971 333.7383 333.7943
   334.4004 335.2829 336.0546 336.2531 336.6390 336.7702 336.9611 336.9826
   337.2429 337.3011 337.7660 338.5330 338.6403 339.5267 339.5556 340.4833
   340.8484 340.8783 341.5437 341.8755 342.1551 342.5877 343.3285 343.6242
   343.8158 343.8258 344.4829 344.4942 344.9618 345.0743 345.3306 345.5293
   346.5450 346.7170 346.8633 346.9949 347.0854 347.5079 348.3217 348.3380
   348.9763 349.1786 349.6740 349.7269 350.8764 350.9307 351.8362 352.1308
   352.7639 352.8179 353.0728 353.4481 355.4181 355.5524 355.9919 356.0289
   356.3975 356.7364 357.5218 357.6568 357.9112 357.9728 358.2152 358.5011
   358.5483 359.9644 360.3099 360.9601 360.9631 361.4175 361.4374 361.8204
   362.3378 362.7284 363.8051 363.8809 364.4010 364.4027 364.5411 364.7151
   365.1413 365.2449 365.7928 366.0115 366.1803 366.5284 368.0754 368.2178
   368.5631 368.6186 368.8187 369.0398 369.1331 369.4467 369.5345 369.5381
   369.7649 369.8482 370.0509 370.0763 370.4444 370.7429 371.3356 371.5835
   371.9815 372.0261 372.3365 372.3485 372.9731 373.0162 373.9243 373.9269
   375.6248 375.7151 376.3580 376.6479 376.9181 377.2163 377.7200 378.0984
   378.1795 378.4772 378.5805 378.8021 378.9365 379.3925 379.5173 379.8914
   380.1819 380.3267 380.5722 380.5950 380.8838 381.0098 381.7564 381.9437
   382.1110 382.7565 382.8257 382.8708 383.2926 383.7517 384.0225 384.0400
   384.2016 384.5133 384.6991 384.7492 384.8021 384.9257 386.4157 386.5367
   386.8457 387.1294 388.3941 388.4005 389.2369 389.4174 390.8590 390.9362
   391.5027 391.8509 392.1957 392.1971 392.8202 392.8487 393.0013 393.0204
   393.3812 393.3935 393.9052 394.1112 394.1623 394.4572 394.8276 394.9585
   395.0219 395.2491 395.4021 395.9769 396.0915 396.3997 396.5503 396.7413
   397.1441 397.2728 397.3930 397.6027 397.8035 398.0261 398.3602 398.5184
   398.5973 399.0664 399.3120 400.0702 400.4308 400.4656 400.6680 400.7926
   400.8322 400.8656 401.5033 401.8487 403.1145 403.2928 404.5040 404.5255
   404.7856 404.8266 405.3156 405.3479 405.5518 405.5758 405.6382 405.7894
   405.8464 405.9163 406.0488 406.3300 406.9239 407.2470 407.5399 407.5506
   408.2327 408.7531 409.5063 409.5286 410.7190 410.7947 411.5205 411.6789
   411.7557 411.8816 413.1415 413.2344 413.8168 413.8520 414.5540 414.7739
   414.9761 415.0597 415.6403 415.8690 415.9817 416.0348 416.1717 416.6425
   417.1990 417.2294 418.0185 418.0326 418.0997 418.1191 418.3473 418.6076
   418.9118 418.9609 419.3656 419.5126 419.6324 419.6596 420.4573 420.4676
   420.4894 420.9369 422.4781 422.5076 422.9441 423.5449 423.9899 424.1690
   424.4514 424.5940 425.4286 425.5792 426.1483 426.1514 426.5156 426.5313
   427.2807 427.3260 427.4736 427.5350 427.5447 427.7070 427.9829 428.6016
   429.4254 429.4436 430.0011 430.3402 430.6796 430.8999 431.0097 431.1406
   431.3942 431.4273 431.8767 432.1217 432.1851 432.7288 433.0257 433.2488
   434.1912 434.2480 434.5502 434.6411 434.8638 435.0590 435.4748 435.4990
   435.9536 436.0236 436.1622 436.1817 437.2159 437.4238 437.9821 438.0731
   438.6499 438.7063 439.6364 439.8097 440.2757 440.2841 440.6942 440.7243
   440.9917 441.0343 441.3825 441.4942 441.5318 441.7547 442.0814 442.0904
   442.5314 442.8102 443.0738 443.1243 443.7621 443.7783 444.3052 444.6041
   444.7574 444.9414 445.6996 446.0149 446.0678 446.3086 446.5781 446.6906
   447.6026 447.6123 447.6347 447.7078 447.8243 447.8873 448.3549 448.9624
   449.4005 449.5048 449.8096 450.1483 450.3367 450.3619 451.5315 451.6382
   451.6857 451.8300 452.4695 452.4974 453.0473 453.1282 453.4339 453.6966
   454.7675 454.7807 455.0188 455.0700 455.1496 455.2245 455.4018 455.4774
   455.9703 455.9789 457.1001 457.2461 457.9700 458.0365 458.2043 458.2502
   458.5518 458.7279 459.4952 460.3980 460.4300 460.9682 461.0320 461.2974
   461.4375 461.8515 462.0406 462.2046 462.3813 462.4910 463.1424 463.1770
   463.7224 463.7422 464.0851 464.1194 464.4716 464.5103 464.9704 464.9766
   465.4814 465.5084 466.4198 466.6128 466.8679 467.0307 467.3784 467.6575
   468.5309 468.6202 469.0367 469.1640 469.6467 470.0685 470.4441 470.5213
   471.3395 471.3875 472.0344 472.2476 472.6854 472.6924 473.3214 473.4108
   473.4544 473.5450 474.1326 475.0784 475.1887 475.2137 475.2852 475.4405
   477.6476 477.8281 477.9358 477.9480 478.0391 478.1612 478.8400 478.9798
   478.9961 479.0774 479.3372 479.4108 479.4151 479.5106 480.0286 480.0990
   480.1563 480.2438 481.1866 481.3903 482.0487 482.1082 482.4253 482.4262
   482.8407 483.1449 483.6856 483.8136 484.1451 484.3423 484.8575 485.1600
   485.4396 485.7448 485.8301 486.1243 486.1362 486.3908 486.4319 488.4844
   488.6093 488.6842 488.8572 488.9555 488.9878 489.2523 489.4726 489.6007
   489.7349 490.2144 490.4479 490.8217 491.2014 491.2602 491.8186 491.8802
   491.9711 492.1091 492.2514 492.2560 492.3239 492.3868 493.4959 493.5418
   494.4101 494.4465 494.7885 494.7943 495.3269 495.4582 495.5399 495.5913
   497.8762 498.3132 498.7176 498.7284 499.7587 499.7785 500.2228 500.2891

          k =-0.3333-1.0000 0.0000 (  3864 PWs)   bands (ev):

   -33.2750 -14.3640 -14.3283 -14.3177  -4.6271   3.9283   4.5822   4.6081
     9.6561  11.8570  11.8637  12.4672  12.7217  13.7926  15.9357  16.7352
    17.5895  20.2952  20.4769  20.5045  23.3379  25.7978  26.0963  26.9021
    28.2531  28.3837  29.8076  29.8256  31.4846  32.4199  33.4575  34.0856
    35.0655  36.7418  37.5078  37.9286  39.6507  41.1188  42.5138  42.8535
    45.0398  45.9981  46.1610  47.2111  47.7514  48.3116  49.8319  50.0603
    51.6762  52.0934  54.2705  54.9292  55.6127  55.6491  56.2769  56.6856
    56.8544  56.9563  58.9858  59.5833  61.6933  62.2250  62.7356  63.4096
    63.8295  65.1028  65.1364  65.4927  65.7635  66.5289  68.0568  68.5520
    68.6517  70.6076  71.1200  71.4717  72.7476  73.3000  73.6218  74.0410
    75.4174  75.4810  76.4240  77.0186  77.5388  78.0351  78.5594  79.4815
    79.6037  81.0676  82.1277  82.3292  83.0612  83.1858  83.4283  84.3260
    84.8955  86.3156  86.3379  86.4901  86.8919  87.8539  88.4635  88.9242
    89.2755  90.5495  90.9495  91.3970  92.6539  93.4337  95.2935  95.4283
    97.9193  98.2032  98.6101  99.1254  99.5129 100.4935 101.4067 101.7491
   102.6233 103.7032 104.0068 104.0286 105.3078 105.5801 106.3138 106.4800
   106.7318 107.7218 108.4453 108.9542 109.5630 109.8811 110.3545 110.5929
   111.0918 111.4483 111.5457 112.7336 114.6567 114.8869 115.3930 115.5503
   115.8339 116.8352 118.4786 119.2291 119.2470 119.4966 120.1078 120.2983
   120.8237 121.3047 121.4475 122.0448 122.1561 122.4569 122.5222 122.9421
   124.1831 124.7683 125.0546 125.1177 125.5863 125.7430 126.2691 127.1987
   128.0102 128.2653 128.6053 128.9572 129.1277 129.5638 130.1757 131.8863
   131.9761 132.1798 132.6661 133.0075 133.8887 134.7659 135.1277 135.4604
   137.3189 137.9922 138.0211 138.7868 138.9365 139.1066 139.4585 139.7289
   140.1805 140.9558 141.2497 141.6511 141.6618 141.9190 142.0312 142.0684
   142.5046 142.6045 143.1786 143.5731 143.7311 144.6732 146.0644 148.7300
   149.0696 149.7143 150.3860 151.1775 151.6109 152.0787 152.8496 153.1566
   153.7594 154.1444 154.2944 154.3478 154.7638 154.9729 155.8073 157.5626
   157.5722 157.6712 158.1332 159.3400 160.1097 160.3849 160.8131 160.9504
   161.8503 162.1408 162.4723 162.8649 164.0837 164.2579 164.4772 165.0876
   166.1210 166.4441 167.4496 167.4902 167.9530 168.1672 168.3814 169.2475
   169.6641 170.4288 170.4424 171.1164 171.5738 171.6817 171.9933 173.2023
   173.9393 174.6259 175.0782 175.7263 176.6182 176.7466 177.2365 177.9611
   178.2221 178.7064 178.8094 179.6433 180.3766 180.5622 180.5776 180.6392
   180.8050 180.9935 181.4078 182.3786 182.6519 183.0005 183.0449 184.0136
   185.0022 185.2504 186.6280 186.6731 187.2003 188.4553 188.4979 188.6396
   189.3164 189.7349 190.2237 190.6401 190.8350 190.8768 191.3685 193.1684
   193.4389 193.5361 193.7343 193.9610 194.5779 195.0335 195.0575 195.8855
   196.2881 196.4405 196.8053 196.8214 197.1905 197.6837 197.8810 198.0943
   198.1740 199.1693 199.6626 199.9364 200.5412 200.7438 200.9758 201.3013
   201.3905 201.6170 201.8042 203.0724 203.0733 203.8612 204.1052 204.1129
   205.6097 206.4011 206.6192 206.9447 207.1363 207.2450 207.4603 207.6878
   208.0476 208.2602 208.5227 208.8081 209.4017 209.4509 209.7212 209.8028
   210.0396 210.2924 210.7197 211.9878 212.3097 213.5158 214.2625 214.6970
   214.7237 215.0491 215.4598 215.7765 215.8349 215.9664 215.9776 216.2257
   216.4587 216.4870 216.9523 216.9673 217.2507 219.4034 219.7984 220.2733
   220.8791 221.3202 222.2140 222.4124 223.9574 224.1816 224.5952 224.6551
   225.0766 226.1781 226.5098 226.7288 227.0433 227.2533 227.5286 227.6182
   228.1147 229.0721 229.3538 229.6060 229.7130 230.2021 230.3649 230.5774
   231.8318 231.9171 232.2358 233.1602 233.2663 233.6020 234.3157 234.6192
   234.7894 235.9875 236.2492 236.4458 236.9013 237.1846 237.1943 237.2011
   238.0325 238.3408 238.3614 238.8514 239.2411 239.4790 239.7248 239.9020
   241.2340 241.3764 241.4418 241.5416 241.6966 241.8324 242.0902 243.0300
   243.5249 245.0983 245.2654 245.7782 248.3291 248.8593 249.4178 249.6733
   249.9629 250.2873 250.5374 250.6270 251.7428 251.7609 252.2737 252.4226
   252.4963 252.8719 253.2008 253.2209 253.7075 253.8928 254.1364 254.7243
   254.7748 255.3239 255.8939 256.0292 256.8121 257.8439 257.8888 258.1046
   258.2610 258.2743 258.3433 259.6066 259.7405 259.9280 260.1875 260.2997
   260.4333 260.7856 261.1200 261.4924 261.8705 262.5060 262.9729 263.0300
   263.6037 263.6505 264.2671 264.6675 266.5220 266.7711 267.4106 267.6223
   267.9675 268.4639 268.8761 269.0542 269.1023 269.7215 270.2333 270.3087
   270.3899 270.4408 270.7985 271.1489 271.5904 272.0234 272.3954 272.8320
   272.8387 272.9966 273.0580 273.4442 273.9766 274.8876 275.9164 276.2146
   276.6228 277.5189 277.6357 277.7168 279.8168 279.8761 280.4943 280.7212
   280.9669 281.4810 281.5952 282.1558 282.2183 283.4044 283.5227 283.5458
   284.1419 284.4744 285.1348 285.2736 285.4199 285.7994 286.1867 286.3942
   286.4081 287.0937 288.0378 288.4559 288.4566 288.7494 288.8650 289.0078
   289.4827 289.7681 290.1510 290.9417 291.9723 292.3542 292.4685 292.5750
   292.6156 293.4624 293.6138 293.6722 293.8798 294.0185 294.9356 295.2192
   295.5770 296.0472 297.2579 297.9369 297.9919 298.2070 298.4314 298.5640
   298.5668 299.2842 299.6788 300.0222 300.1344 300.1887 300.7267 300.8778
   300.9738 301.0332 301.0397 301.1565 301.2092 301.4565 301.6350 301.8047
   301.8171 302.1919 302.6506 302.8029 303.3784 303.5328 304.1511 304.5834
   304.6419 305.0580 305.1366 305.1438 305.1519 305.2848 305.8687 306.1552
   307.8973 307.9097 308.0452 309.0430 309.1252 309.1978 309.2053 309.2840
   309.6609 309.7330 309.8302 311.2368 311.3287 311.6660 311.6876 311.8848
   311.9860 313.0607 313.2048 313.5116 313.5146 313.5162 314.2256 314.4886
   314.9147 315.0326 315.6285 315.6992 315.8897 317.3817 317.5427 318.2940
   318.5333 318.7123 318.8351 319.0352 319.2690 319.4536 320.1056 322.4792
   322.5150 322.6386 322.9283 323.0189 323.5958 323.6200 324.4676 324.7310
   324.8579 325.1260 325.8773 325.8857 326.1376 326.4349 326.5352 326.6606
   326.9139 327.4099 327.4145 327.4817 327.5508 328.2797 328.3834 328.6057
   328.6765 329.2041 329.2489 329.3903 329.8993 330.2287 330.2860 330.3765
   330.5108 330.5589 332.1902 332.9641 333.3146 333.3616 333.4454 333.4920
   333.4990 333.5389 334.3794 334.3893 334.5363 336.9492 337.4812 337.6532
   337.8369 337.8654 338.0698 338.2210 338.4830 338.5606 338.9040 340.9234
   341.0381 341.1818 341.2036 341.5421 341.7653 341.7841 341.9735 342.3148
   342.8325 343.9281 343.9312 344.1038 344.4063 344.8794 345.1410 345.4698
   345.6313 346.6689 347.0882 348.1414 348.3801 348.5550 348.8072 349.5864
   349.9987 350.0856 350.9669 350.9845 350.9912 351.1167 351.3209 351.5822
   352.0781 352.4011 352.6420 353.0190 353.5229 354.2416 354.6016 354.6946
   355.1954 355.3459 355.3463 355.8129 355.9709 356.2723 356.5100 356.9728
   357.2181 357.5973 357.6241 358.1384 358.8500 358.9164 359.7615 359.8911
   359.9463 360.4744 360.5452 360.7542 361.5930 361.6152 362.2751 363.0117
   363.3527 364.3239 364.7872 364.9335 367.4138 368.1772 368.2783 368.4360
   368.6966 368.8834 369.5265 369.9228 370.0726 370.6397 371.1853 371.9437
   372.8702 373.3283 374.1100 374.2539 374.6581 374.7529 375.0426 375.2975
   375.5955 375.7083 375.7504 375.9721 376.2984 376.3376 376.4940 376.9816
   377.2820 377.4441 377.5753 377.7421 378.0501 378.1719 378.2738 379.0373
   379.1181 379.1906 379.4087 380.3730 380.8329 380.9494 381.0454 381.5045
   381.7829 381.7954 381.9500 381.9939 382.1777 382.5191 382.8468 382.9556
   383.8086 383.9897 384.0417 384.9298 385.1214 385.2418 385.2653 385.3261
   385.5863 385.8916 386.0307 386.0867 386.1951 386.4590 386.6023 386.9707
   387.1006 387.1765 387.4579 387.8992 387.9694 388.0785 388.1360 388.1927
   388.1996 389.1066 389.3909 389.7885 389.8271 392.0213 392.1817 392.6483
   392.6979 392.9350 393.0969 394.5233 394.9927 395.4063 395.5205 396.4383
   396.4679 396.4792 396.5214 397.2625 397.3406 397.3611 397.8404 397.8541
   398.5019 398.5159 398.6403 399.0433 399.1985 399.4031 399.5760 399.6696
   399.7091 399.9288 399.9673 400.0708 400.1722 400.6227 400.6511 400.8881
   401.0256 401.3429 401.3991 401.4163 401.5130 401.7570 401.9129 402.4649
   402.5532 402.6713 402.9505 403.0721 403.1464 403.5329 403.7962 404.1209
   404.1741 404.4612 404.9603 405.0750 406.4596 406.6603 406.9103 407.1807
   407.5637 407.6191 410.8346 411.0875 411.4224 411.5089 411.6521 413.1381
   413.1904 413.1928 413.2089 413.6656 414.4781 414.7315 414.9699 415.0168
   415.4837 415.8718 415.8844 415.8999 415.9036 416.4619 416.8276 417.4605
   417.5844 417.6173 417.6841 417.8663 417.9185 417.9894 418.0665 419.3739
   419.3874 419.5162 419.7873 419.8617 419.9274 420.1757 420.3756 420.7179
   420.7239 420.7255 421.2335 421.5150 421.9856 422.0065 422.5446 422.9196
   422.9958 423.0322 423.1841 423.9815 424.1279 424.3760 424.4188 424.4584
   424.5886 424.6268 424.6764 425.6456 426.2540 426.5491 427.0897 427.7434
   428.2311 429.3036 430.0719 430.4870 430.5154 430.5951 430.8308 430.8474
   430.8693 430.9507 431.1347 431.1906 431.2088 431.3118 431.3669 431.9015
   432.2181 432.3851 432.5615 433.3778 435.6426 435.9477 435.9705 436.2420
   436.5616 436.6249 436.7426 437.4950 437.6095 437.6849 437.8369 438.3827
   438.9613 438.9843 439.0121 439.1112 439.6253 439.7006 439.8856 439.9874
   440.1285 440.5827 440.6954 441.0320 441.0592 441.2276 441.2860 441.3135
   441.5828 441.6052 442.1167 442.3164 443.3661 443.9218 444.0533 444.0992
   444.2251 444.9409 445.2758 445.3776 447.5810 447.6238 448.1346 448.6282
   448.8272 448.8580 449.0711 449.0877 449.1572 449.2139 449.7690 449.8020
   450.0277 450.0881 450.2062 450.2132 450.3452 450.4947 451.6588 451.9581
   452.2429 452.6605 452.8371 453.2509 453.2904 453.2916 453.3036 453.4314
   454.7000 454.9181 454.9972 455.0327 455.2527 455.5057 455.6681 455.7458
   456.2000 456.2367 456.3698 456.5523 456.6391 457.0212 457.1176 457.2447
   457.3431 457.3943 457.3996 457.4069 458.2158 458.2780 458.4679 458.6628
   462.4721 462.8043 463.7078 463.7660 463.7950 464.0120 464.0774 464.1105
   464.1298 464.6094 464.9511 464.9873 465.1021 465.3346 465.9730 466.0243
   466.2515 466.3818 466.5064 466.5325 466.8490 467.0821 467.2564 467.2633
   468.6158 468.8041 469.3565 469.4244 470.1052 470.2933 472.2571 472.3891
   472.6168 472.6386 473.0021 473.1005 473.1079 473.2430 473.9036 474.2253
   474.3025 474.4627 474.4810 474.4906 474.9008 474.9758 474.9800 475.2409
   475.2454 475.5888 475.7153 476.0028 476.2515 477.7717 477.9523 478.2898
   478.3931 478.4049 478.4908 479.4585 479.5105 479.9483 480.1308 480.5369
   480.6887 480.8182 480.8198 481.0153 481.0975 481.2179 481.2252 481.9221
   482.2264 483.2024 483.2856 483.5883 483.8615 485.3418 485.6882 486.0454
   486.3295 486.6974 486.7819 487.0474 487.0691 487.3235 487.3428 487.4745
   487.8215 487.9489 488.1646 488.6716 488.7233 488.8115 488.9784 489.0230
   489.0968 490.6672 490.6855 490.7634 491.2307 491.3798 491.5384 491.7345
   491.7941 492.8727 492.9836 493.0558 493.4562 493.6518 493.6565 494.9098
   495.0275 495.5736 495.9935 496.1675 496.4164 496.4389 497.8648 497.8958
   497.9030 498.4059 499.4657 499.5261 500.2177 500.2212 500.2491 500.2573

     the Fermi energy is     6.3881 ev
     (compare with:     7.6065 eV, computed in scf)

     Writing all to output data dir out/mp-1672.save/
 
     init_run     :      0.03s CPU      0.06s WALL (       1 calls)
     electrons    :    672.36s CPU    712.84s WALL (       1 calls)

     Called by init_run:
     wfcinit      :      0.00s CPU      0.00s WALL (       1 calls)
     potinit      :      0.01s CPU      0.01s WALL (       1 calls)
     hinit0       :      0.01s CPU      0.04s WALL (       1 calls)

     Called by electrons:
     c_bands      :    672.35s CPU    712.81s WALL (       1 calls)
     v_of_rho     :      0.00s CPU      0.00s WALL (       1 calls)

     Called by c_bands:
     init_us_2    :      0.00s CPU      0.00s WALL (       8 calls)
     init_us_2:cp :      0.00s CPU      0.00s WALL (       8 calls)
     cegterg      :    647.20s CPU    685.81s WALL (       8 calls)

     Called by *egterg:
     cdiaghg      :    599.98s CPU    637.30s WALL (      97 calls)
     h_psi        :     12.51s CPU     12.99s WALL (     105 calls)
     g_psi        :      0.10s CPU      0.10s WALL (      89 calls)

     Called by h_psi:
     h_psi:calbec :      0.23s CPU      0.24s WALL (     105 calls)
     vloc_psi     :     11.93s CPU     12.38s WALL (     105 calls)
     add_vuspsi   :      0.16s CPU      0.16s WALL (     105 calls)

     General routines
     calbec       :      0.23s CPU      0.24s WALL (     105 calls)
     fft          :      0.00s CPU      0.03s WALL (      10 calls)
     fftw         :     10.90s CPU     11.31s WALL (  121368 calls)
 
     Parallel routines
 
     PWSCF        :  11m13.22s CPU  11m54.48s WALL

 
   This run was terminated on:  18:46: 6  19Nov2023            

=------------------------------------------------------------------------------=
   JOB DONE.
=------------------------------------------------------------------------------=
