
     Program PWSCF v.7.1 starts on 19Nov2023 at 13:22:52 

     This program is part of the open-source Quantum ESPRESSO suite
     for quantum simulation of materials; please cite
         "P. Giannozzi et al., J. Phys.:Condens. Matter 21 395502 (2009);
         "P. Giannozzi et al., J. Phys.:Condens. Matter 29 465901 (2017);
         "P. Giannozzi et al., J. Chem. Phys. 152 154105 (2020);
          URL http://www.quantum-espresso.org", 
     in publications or presentations arising from this work. More details at
     http://www.quantum-espresso.org/quote

     Parallel version (MPI), running on     8 processors

     MPI processes distributed on     1 nodes
     123608 MiB available memory on the printing compute node when the environment starts
 
     Reading input from pw_mp-1672_nscf_k60_E81.in
Warning: card &IONS ignored
Warning: card / ignored
Warning: card &CELL ignored
Warning: card / ignored

     Current dimensions of program PWSCF are:
     Max number of different atomic species (ntypx) = 10
     Max number of k-points (npk) =  40000
     Max angular momentum in pseudopotentials (lmaxx) =  4

     Atomic positions and unit cell read from directory:
     out/mp-1672.save/
     Atomic positions from file used, from input discarded
 
 
     R & G space division:  proc/nbgrp/npool/nimage =       8
     Subspace diagonalization in iterative solution of the eigenvalue problem:
     one sub-group per band group will be used
     scalapack distributed-memory algorithm (size of sub-group:  2*  2 procs)

 
     Parallelization info
     --------------------
     sticks:   dense  smooth     PW     G-vecs:    dense   smooth      PW
     Min         160     160     45                 3850     3850     585
     Max         161     161     46                 3855     3855     587
     Sum        1285    1285    367                30827    30827    4693
 
     Using Slab Decomposition
 


     bravais-lattice index     =            2
     lattice parameter (alat)  =      10.7804  a.u.
     unit-cell volume          =     313.2175 (a.u.)^3
     number of atoms/cell      =            2
     number of atomic types    =            2
     number of electrons       =        16.00
     number of Kohn-Sham states=         1200
     kinetic-energy cutoff     =      81.0000  Ry
     charge density cutoff     =     324.0000  Ry
     Exchange-correlation= PBE
                           (   1   4   3   4   0   0   0)

     celldm(1)=  10.780412  celldm(2)=   0.000000  celldm(3)=   0.000000
     celldm(4)=   0.000000  celldm(5)=   0.000000  celldm(6)=   0.000000

     crystal axes: (cart. coord. in units of alat)
               a(1) = (  -0.500000   0.000000   0.500000 )  
               a(2) = (   0.000000   0.500000   0.500000 )  
               a(3) = (  -0.500000   0.500000   0.000000 )  

     reciprocal axes: (cart. coord. in units 2 pi/alat)
               b(1) = ( -1.000000 -1.000000  1.000000 )  
               b(2) = (  1.000000  1.000000  1.000000 )  
               b(3) = ( -1.000000  1.000000 -1.000000 )  


     PseudoPot. # 1 for Ca read from file:
     /usr/scratch4/magr4985/MG/HTDF/pseudo/SG15/Ca.upf
     MD5 check sum: b43c970dc090f2312d256360aabdb6f1
     Pseudo is Norm-conserving, Zval = 10.0
     Generated using ONCVPSP code by D. R. Hamann
     Using radial grid of  602 points,  6 beta functions with: 
                l(1) =   0
                l(2) =   0
                l(3) =   1
                l(4) =   1
                l(5) =   2
                l(6) =   2

     PseudoPot. # 2 for S  read from file:
     /usr/scratch4/magr4985/MG/HTDF/pseudo/SG15/S.upf
     MD5 check sum: f9d020296ee6110346977bfd66d424f6
     Pseudo is Norm-conserving, Zval =  6.0
     Generated using ONCVPSP code by D. R. Hamann
     Using radial grid of  602 points,  4 beta functions with: 
                l(1) =   0
                l(2) =   0
                l(3) =   1
                l(4) =   1

     atomic species   valence    mass     pseudopotential
        Ca            10.00    40.07800     Ca( 1.00)
        S              6.00    32.06500     S ( 1.00)

     48 Sym. Ops., with inversion, found



   Cartesian axes

     site n.     atom                  positions (alat units)
         1           Ca  tau(   1) = (   0.0000000   0.0000000   0.0000000  )
         2           S   tau(   2) = (  -0.5000000   0.5000000   0.5000000  )

     number of k points=     8  Gaussian smearing, width (Ry)=  0.0005
                       cart. coord. in units 2pi/alat
        k(    1) = (   0.0000000   0.0000000   0.0000000), wk =   0.0312500
        k(    2) = (  -0.2500000   0.2500000  -0.2500000), wk =   0.2500000
        k(    3) = (   0.5000000  -0.5000000   0.5000000), wk =   0.1250000
        k(    4) = (   0.0000000   0.5000000   0.0000000), wk =   0.1875000
        k(    5) = (   0.7500000  -0.2500000   0.7500000), wk =   0.7500000
        k(    6) = (   0.5000000   0.0000000   0.5000000), wk =   0.3750000
        k(    7) = (   0.0000000  -1.0000000   0.0000000), wk =   0.0937500
        k(    8) = (  -0.5000000  -1.0000000   0.0000000), wk =   0.1875000

     Dense  grid:    30827 G-vectors     FFT dimensions: (  45,  45,  45)

     Estimated max dynamical RAM per process >     185.67 MB

     Estimated total dynamical RAM >       1.45 GB

     The potential is recalculated from file :
     out/mp-1672.save/charge-density

     Starting wfcs are random

     Band Structure Calculation
     Davidson diagonalization with overlap

     ethr =  5.00E-06,  avg # of iterations = 10.0

     total cpu time spent up to now is     1051.0 secs

     End of band structure calculation

          k = 0.0000 0.0000 0.0000 (  3839 PWs)   bands (ev):

   -33.2894 -14.2635 -14.2635 -14.2635  -5.3278   5.9791   5.9791   5.9791
    10.0929  10.1431  10.1431  10.1431  10.7308  10.7308  16.8425  19.0123
    19.0123  19.0123  21.9506  21.9506  22.5872  22.5872  22.5872  29.8697
    31.4581  31.4581  31.4581  32.6291  32.6291  32.6291  33.1981  33.1981
    34.9100  34.9100  34.9100  43.4203  46.3496  46.3496  46.3496  46.8460
    46.8460  47.0177  47.0177  47.0177  47.7108  47.7108  47.7108  49.6563
    49.6563  49.6563  49.7255  50.3848  50.6587  50.6587  50.6587  52.5952
    52.5952  52.5952  53.2352  53.2352  55.4066  60.3290  60.3290  60.3290
    60.6587  60.6587  60.6587  69.5747  69.5747  70.8374  70.9441  70.9441
    70.9441  72.6365  72.6365  72.6365  79.2205  79.2205  79.2205  80.0870
    80.0870  81.7851  82.7015  82.7015  82.7015  83.0021  83.1358  83.1358
    83.1358  85.7612  85.7612  85.7612  86.9340  86.9340  86.9340  87.3906
    87.3906  87.3906  88.1323  88.1323  88.1323  88.5263  88.5263  88.5730
    88.5730  88.5730  88.9202  88.9202  90.2884  90.2884  91.3457  91.3457
    91.3457  92.2379  94.2034  96.1892  96.1892  96.1892  99.7889 100.5153
   101.0227 101.0227 101.0227 104.5719 104.5719 104.5719 105.8533 105.8533
   106.8734 106.8734 106.8734 108.0765 108.0765 108.0765 108.2702 108.2702
   108.2755 108.2755 108.2755 108.4519 108.4519 108.4519 108.8453 108.8453
   108.8453 110.3086 117.2907 117.2907 117.2907 117.8329 118.0633 119.5137
   119.5137 119.5137 120.0261 120.0261 120.0261 121.4395 121.4395 121.4395
   121.8466 121.8466 121.8466 122.5046 122.5046 125.3597 125.3597 125.3597
   126.2438 126.2438 126.3458 126.3458 126.3458 126.5175 128.8046 136.0121
   136.0121 136.0121 138.0302 138.0302 138.0302 138.7290 138.7290 139.0545
   139.0545 139.0545 144.2754 144.2754 146.2615 146.5980 146.5980 146.5980
   146.6390 146.6390 146.6390 150.4486 150.4486 150.4486 152.2495 152.2495
   152.2495 153.2556 153.8080 153.8080 153.8080 154.0367 154.0367 154.5223
   154.5223 154.5223 156.0654 156.0654 156.0654 156.3658 157.1729 157.1729
   157.1729 157.2164 157.2954 157.7542 157.7542 157.7542 159.0415 159.0415
   160.1813 160.1813 160.1813 160.8517 160.8517 160.8517 161.6441 161.6441
   161.6441 162.3078 162.3078 162.3078 162.4384 162.4384 162.5596 162.7970
   162.7970 162.7970 162.9962 162.9962 162.9962 163.2203 163.2203 163.2203
   163.2711 163.2711 163.3218 163.3733 163.3733 163.3733 163.4527 163.4527
   163.6370 163.6370 163.6370 171.2356 171.2356 172.4988 172.4988 172.4988
   173.7284 175.4148 175.4148 175.4148 176.5568 176.5568 176.5568 176.6553
   176.6553 176.6553 177.1163 177.1163 177.1163 178.9672 178.9672 178.9672
   182.6115 182.6115 182.8216 182.8216 182.8216 182.9113 183.6226 183.6226
   186.6714 187.6506 187.6506 187.6506 187.9138 192.4349 192.4349 192.4349
   195.0886 195.0886 195.0886 195.1511 195.1511 195.1511 195.1642 195.1642
   195.1642 195.4556 195.4556 195.4682 195.4682 195.4682 196.3628 196.3628
   197.5019 197.7075 197.9574 197.9574 197.9574 198.2884 198.2884 198.2884
   198.3347 198.3347 198.6086 198.6086 198.6086 198.8305 198.8305 198.8305
   198.8847 198.8847 198.8847 199.7222 199.7222 207.8362 207.8362 207.8362
   207.9177 209.1456 209.1456 209.1456 212.8673 212.8673 212.8673 213.7396
   213.7396 213.7396 214.7686 217.7606 220.1079 220.1079 220.5800 220.5800
   220.5800 221.4909 221.4909 221.4909 222.0266 222.0266 222.0266 222.3744
   222.4679 222.4679 225.7093 225.7093 225.7093 227.5201 227.5201 227.5201
   230.3391 230.3391 230.3391 230.5793 230.5793 230.5793 230.6148 230.6148
   230.6148 230.8781 230.8781 230.8781 233.3263 233.4973 233.6425 233.6425
   233.6425 234.0249 234.0249 234.2399 234.2399 234.2399 234.4728 234.4728
   234.5105 234.5105 234.5105 235.2383 235.2383 235.2383 235.6787 235.6787
   235.6787 235.8501 235.8501 235.8501 236.0112 237.1392 237.1392 237.1392
   237.1395 237.1395 237.1508 243.9536 243.9536 243.9536 245.9511 246.3583
   246.3583 246.3583 247.0324 247.8838 247.8838 248.2717 248.2717 248.2717
   250.6839 250.6839 250.6839 250.8467 250.8467 251.1612 251.1612 251.2185
   251.2185 251.2185 251.4297 251.4297 251.4297 251.7035 251.7035 251.7035
   253.6529 253.6529 253.6529 256.0743 256.0743 256.0743 256.0758 256.0758
   256.0923 256.0923 256.0923 256.1823 256.1823 256.2119 256.2119 256.2119
   256.2275 256.2275 256.2275 257.8301 257.8301 257.8301 257.8387 257.8387
   257.8387 257.8488 257.8743 258.4540 258.4540 258.4540 258.9701 259.2067
   259.8016 259.8016 259.8016 260.4846 260.4846 260.4846 262.6453 262.6453
   262.6453 263.5981 263.7388 263.7388 263.7388 264.0050 264.0050 264.4422
   264.4422 264.4422 264.7045 267.4369 267.4369 267.9474 267.9474 268.7079
   268.7079 268.7079 269.0037 269.0037 269.0037 269.1168 269.1168 269.1168
   269.9091 269.9091 269.9279 269.9279 269.9279 270.1848 270.5230 270.5230
   270.5230 270.5332 270.5332 272.1140 272.1140 272.1140 272.2639 272.2639
   272.2639 272.4502 272.4502 272.4502 272.5802 272.5802 272.5802 273.5012
   273.5539 273.5539 273.5539 273.5760 273.5760 275.7493 275.7493 275.7493
   280.0216 289.5493 289.5493 289.5493 293.9317 293.9317 293.9317 295.8877
   298.3653 298.3653 298.3653 299.0967 299.5799 299.5799 300.2958 300.2958
   302.0024 302.0024 302.0024 302.1292 302.1292 302.1292 303.3526 303.3526
   303.3526 303.5067 303.5067 303.5067 303.7484 303.7484 303.7484 304.1128
   304.1128 304.4004 304.5098 304.7520 304.7520 304.7520 305.4633 305.4633
   305.4633 305.4688 305.4688 305.4688 305.6395 305.6395 305.6395 305.9744
   305.9744 305.9744 306.0979 310.3405 310.3405 310.5674 310.5674 310.5674
   310.5890 310.5890 310.5890 310.6820 310.6820 310.7586 310.7586 310.7586
   310.9052 310.9052 310.9052 311.9895 311.9895 312.0561 312.0561 312.0561
   312.2247 319.3978 319.3978 319.3978 319.5128 319.5128 319.5128 320.1774
   320.6301 320.6301 320.7805 320.7805 320.7805 320.9573 320.9573 320.9573
   323.0775 323.0775 326.4560 326.4560 326.4560 327.2685 327.4932 327.4932
   327.5001 327.5001 327.5001 327.6056 327.6056 327.6755 327.6755 327.6755
   327.8085 327.8085 327.8085 327.8122 327.9767 327.9767 327.9767 328.1438
   328.1438 328.1438 328.8401 328.8401 328.8401 329.4092 329.4092 329.4092
   330.6045 336.8957 336.9737 336.9737 337.8158 337.8158 337.8158 338.3792
   338.3792 338.3792 338.9845 338.9845 338.9845 339.0783 339.0783 339.0783
   339.1539 339.1539 339.1539 339.3098 339.8984 342.6939 342.6939 342.6939
   343.9173 343.9173 343.9173 343.9470 343.9470 344.0796 344.0796 344.0796
   344.2352 344.2352 344.2352 344.3225 344.7980 344.7980 344.7980 345.0216
   345.0216 345.0759 345.4391 345.6434 345.6434 345.6470 345.6470 345.6470
   345.6593 345.6593 345.6593 345.6700 345.6700 345.6700 345.7829 345.7829
   345.7829 346.6325 346.6325 346.6325 346.6614 346.6614 346.6966 346.6966
   346.6966 346.7320 346.7320 346.7320 346.7950 349.8382 349.8382 353.1767
   353.1767 353.1767 354.8625 357.0427 357.0427 359.4790 359.4790 359.4790
   360.6803 360.6803 360.6803 360.8560 360.8560 360.8560 360.9975 360.9975
   360.9975 361.9676 361.9676 361.9676 362.0570 362.0570 362.0570 362.0615
   362.1108 362.1108 362.8269 366.6207 366.6207 366.6207 369.4131 369.7696
   369.7696 369.7696 370.9305 374.2867 374.2867 374.2867 374.5276 374.5276
   374.6088 374.6088 374.6088 375.0084 375.0084 375.0084 375.2342 375.2342
   375.2342 375.5028 375.5028 376.6600 376.6600 376.6600 378.0792 378.0792
   378.0792 378.1814 378.1814 378.1814 378.3345 378.3345 378.3345 378.3349
   378.3349 378.3349 379.1777 379.4046 379.4046 379.7133 379.7133 379.7133
   380.0757 380.0757 380.1122 380.1122 380.1122 380.4210 380.4210 380.4210
   380.5221 380.5221 380.5323 380.5555 380.5555 380.5893 380.5893 380.5893
   380.5924 380.5924 380.5924 380.6420 380.6420 380.6420 380.7162 380.7162
   380.7162 380.8544 380.8544 380.8544 380.8648 380.8648 380.8648 382.3238
   382.3674 382.3674 382.3674 382.3935 382.3935 382.3935 382.4138 384.9726
   384.9943 384.9943 384.9943 385.0055 385.0055 385.3505 385.3505 385.3505
   385.4253 385.4253 385.4467 385.4467 385.4467 385.4703 385.4703 385.4703
   385.4865 385.5030 385.5030 385.5030 385.5306 385.5306 385.6192 385.6192
   385.6192 385.7363 385.7363 385.7363 385.8393 392.9354 392.9354 392.9354
   394.0398 394.1531 394.1531 394.1531 394.2270 401.0594 401.0594 402.9302
   402.9302 402.9302 403.0392 403.0392 403.0392 403.0492 403.0492 403.0729
   403.0729 403.0729 403.3315 403.3315 403.3315 403.3377 403.3377 404.0842
   404.1992 404.1992 404.1992 405.6496 405.6496 405.6496 407.5145 407.5145
   407.5145 407.6633 407.6633 407.6633 408.0109 408.0109 408.0109 412.1169
   412.1169 412.2493 412.2493 412.2493 412.3965 416.9657 417.0447 417.0447
   417.0447 417.1379 417.1379 419.9188 419.9188 419.9188 419.9400 419.9400
   419.9400 419.9730 419.9730 419.9730 419.9743 419.9743 419.9743 421.3066
   421.3066 421.3317 421.3317 421.3317 421.3739 429.9678 430.4663 430.4663
   431.0056 431.0056 431.0056 433.4048 433.4048 433.4048 434.8424 435.4274
   435.4274 435.4274 436.4408 436.4408 436.4408 436.8692 436.8692 436.8692
   437.2941 437.2941 437.2941 437.3230 437.3230 437.3230 437.6618 437.6618
   440.2696 440.2696 440.5617 440.8363 440.8363 440.8363 441.0252 441.0252
   441.0291 441.0291 441.0291 442.8097 442.8097 442.8097 442.9160 444.0274
   444.2031 444.2031 444.2031 446.2080 446.2080 446.2080 446.6206 446.6206
   446.6206 446.8724 448.0177 448.0177 448.4879 448.4879 448.4879 449.0313
   449.0313 449.0313 449.5383 450.0851 450.0851 450.2023 450.2023 450.2023
   450.6729 450.6729 450.6729 450.7775 450.7775 450.9747 450.9747 450.9747
   451.1025 451.1025 451.1025 452.1942 452.1942 452.1942 452.2549 452.4463
   452.4463 452.4463 452.6442 454.6412 454.6412 454.6412 454.6535 454.6535
   454.7186 454.7186 454.7186 454.7646 454.7646 454.7646 454.8131 454.8131
   454.8131 454.8180 454.8180 456.2601 456.2601 456.2601 456.2729 456.2837
   456.2837 456.2837 456.3112 456.3112 456.3173 456.3173 456.3173 457.1157
   457.1157 457.1157 457.1555 457.1555 457.1961 457.1961 457.1961 457.2054
   457.2054 457.2054 457.2902 468.5596 468.5596 469.2205 469.4349 469.4349
   469.4349 469.7031 469.7031 469.7031 470.9217 470.9217 470.9217 471.0317
   471.0317 471.0317 471.0321 471.1902 471.1902 471.1902 471.9830 471.9830
   471.9830 472.5419 472.5419 472.5419 472.5559 472.5559 472.7129 472.7129
   472.7129 472.9851 473.5727 473.5727 473.7789 473.7789 473.7789 473.7957
   473.7957 473.7957 473.8605 473.8605 473.8605 477.5060 477.5060 477.5343
   477.5343 477.5343 477.5938 477.5938 477.5938 477.6073 477.6073 477.6073
   477.6339 477.6651 477.6651 477.7604 477.7604 477.7604 477.7748 477.8213
   477.8213 477.8213 477.8693 477.8693 477.8693 478.5882 478.5882 478.6588
   478.6588 478.6588 478.7698 479.4760 479.4760 479.4760 479.5706 479.5706
   480.9901 481.3480 481.3480 481.3480 481.9508 481.9508 481.9508 482.2463
   482.2463 482.2463 482.3425 482.3425 482.4425 482.4425 482.4425 482.7713
   482.7713 482.7713 482.9175 485.7866 486.5916 486.5916 486.5916 487.4476
   487.4476 487.4476 488.0141 488.0141 488.0209 488.0209 488.0209 488.9704
   489.3828 489.3828 489.3828 489.4708 489.4708 489.4708 489.6039 489.6039
   489.6235 489.6235 489.6235 491.3181 491.3181 491.3181 491.9060 492.0235
   492.0859 492.0859 492.0859 493.1202 493.1202 493.1202 493.1236 493.1236

          k =-0.2500 0.2500-0.2500 (  3831 PWs)   bands (ev):

   -33.2840 -14.3452 -14.2699 -14.2699  -4.9545   4.1674   5.3189   5.3189
    10.2602  10.9387  10.9387  12.1332  12.1332  12.1976  16.3046  17.3690
    17.3690  19.7819  19.9290  19.9290  23.5820  26.1695  26.2955  26.2955
    27.4331  27.4331  32.6501  32.6501  33.1093  33.6608  33.6608  35.0786
    35.7668  38.8285  38.9213  38.9213  41.3949  41.3949  42.6101  45.0313
    45.0313  45.0554  45.7019  45.7019  46.5343  47.0267  47.0267  48.1441
    49.2064  50.5087  50.5087  52.4432  54.2923  54.2923  55.6482  55.6482
    56.4475  56.5588  58.0214  58.6420  58.6420  60.1684  62.5175  62.5175
    62.9582  62.9582  64.1752  65.3900  65.3900  66.9670  68.2581  68.2581
    71.1343  72.0852  72.0852  74.3572  74.8353  74.8353  75.8241  75.8241
    75.9378  76.3224  78.6002  78.6002  79.2753  79.2753  79.5236  81.7982
    81.7982  82.1793  83.3664  85.4961  86.1659  86.4359  86.4359  86.7744
    87.7741  87.7741  89.4913  89.4913  89.6939  89.6939  89.9649  90.3616
    91.1546  91.1546  92.5168  92.5168  93.2442  94.1767  94.1767  94.4862
    96.5615  96.8606  96.8606  98.7310  99.0464  99.5133  99.9694  99.9694
   100.2198 101.1562 101.1562 102.8189 102.8189 103.2459 103.2459 104.0138
   104.9428 104.9428 105.1924 105.5713 105.9201 105.9201 107.5645 108.0385
   108.0385 109.2065 109.2362 110.0703 110.0703 112.1044 112.1044 113.2915
   113.6668 113.9930 113.9930 116.0433 116.1569 116.1569 117.0085 117.0085
   118.2561 118.4213 118.6217 118.6217 119.3659 119.9666 119.9666 123.5194
   123.9186 123.9186 125.2038 127.2252 127.2252 127.8028 127.8028 130.3305
   131.0211 131.0211 131.8864 131.8919 132.1989 132.1989 132.7073 133.7305
   133.7305 134.5669 134.5669 136.8010 137.7466 139.0028 139.0028 139.3497
   139.3497 139.9150 139.9779 140.0705 140.0705 141.4004 141.6998 141.6998
   142.1179 142.3086 142.3086 143.7350 144.2604 144.2604 144.7717 145.3714
   145.3714 146.1697 146.1697 146.9335 147.1933 150.1431 150.1431 152.9616
   153.2384 153.2384 153.6866 154.4065 154.4065 154.4922 155.4256 155.6726
   155.6726 157.0385 157.0385 157.4627 157.9499 158.3423 158.3423 158.4710
   158.4710 159.1228 159.3299 159.4278 159.4278 159.7083 159.9558 159.9558
   160.5374 160.5374 161.4823 161.4823 161.9728 163.2754 163.9120 163.9120
   165.7042 165.9884 165.9884 166.3313 166.9633 167.3257 167.7722 167.7722
   167.8386 167.8386 168.5397 168.8004 168.8597 168.8597 170.5731 170.5731
   171.7797 171.7797 172.2107 172.3828 172.6065 172.6065 174.2960 174.3475
   174.3475 176.2247 176.4261 176.4261 176.7197 176.9008 176.9008 177.5395
   179.0463 179.0463 179.4614 180.3045 180.3045 182.1472 182.1472 182.5315
   182.5315 183.3215 184.6608 184.6608 184.7019 184.7544 185.5579 185.9657
   186.1003 186.1003 186.3211 186.3211 186.7716 186.8488 186.8488 188.3559
   188.3559 188.8337 189.9588 189.9588 190.0740 191.4637 192.6419 192.6419
   193.2173 193.5067 193.5067 193.5363 193.7277 193.7277 197.6810 197.8745
   197.8745 198.6972 199.1072 199.1072 199.6916 200.2458 200.2458 201.8290
   202.5606 202.7080 202.7080 203.6734 203.6734 205.5620 205.8484 205.8484
   207.0609 207.5658 207.7013 207.7013 208.0695 209.8446 209.8446 211.3399
   211.4569 211.4569 211.7858 211.7858 212.5743 212.7831 212.7831 213.1966
   213.2912 213.2912 213.6570 214.0686 214.2076 214.2076 214.6972 215.5613
   215.5613 216.6218 218.1920 218.7769 218.7769 220.0020 220.0020 221.0202
   221.0202 221.2373 221.4882 221.4882 221.8712 222.4694 223.3710 223.3710
   223.4073 223.4073 223.4934 224.4072 224.4072 225.3038 225.3038 225.9263
   226.2444 226.2444 226.4102 226.7063 229.5406 229.5406 230.9297 231.1211
   231.3837 231.3837 232.3504 232.3504 232.8818 234.3729 234.3729 235.1731
   235.6585 235.6585 235.7635 235.8120 235.8120 237.1532 237.1608 237.1608
   237.6254 237.7513 237.8566 237.8566 238.5310 238.5310 238.6355 239.4573
   240.4520 240.4520 240.5309 240.9685 241.4857 241.4857 244.0302 244.0302
   244.5641 245.0351 245.0351 245.5084 245.5084 246.0655 246.0723 246.4682
   246.4682 246.8263 246.8263 247.2657 247.2657 247.3380 248.0644 248.2478
   248.2478 248.6385 248.6385 249.0404 249.4089 249.7285 250.8255 250.8255
   251.1035 251.3245 251.3245 252.5491 252.9168 252.9168 253.0144 253.9331
   253.9331 254.0795 254.9245 254.9310 254.9310 255.5144 255.5144 256.1832
   256.1936 256.1936 257.4703 257.4703 257.5485 257.7801 258.3561 258.3561
   258.7154 258.7273 258.7273 259.0638 259.0638 259.4989 260.1055 261.0055
   261.0055 261.4130 262.4899 262.4899 263.0094 263.2083 263.2083 263.2876
   263.5757 263.5757 263.8671 265.2681 265.2681 265.4315 265.4536 265.4957
   265.4957 267.0293 267.0968 267.0968 270.4136 271.4381 271.4381 271.5881
   272.1343 273.3102 273.3102 273.3328 273.4802 273.9878 273.9878 275.5798
   275.5798 275.8194 276.6243 276.6243 277.2202 277.2202 277.2549 277.9212
   278.2775 278.2775 279.5116 279.5116 280.1229 280.1229 281.2923 281.3586
   281.3586 281.9935 282.0561 282.5542 282.5542 283.3427 283.3427 284.3999
   284.3999 284.6574 284.8016 284.8016 285.2531 285.4265 285.5842 285.5842
   286.3251 286.6448 286.8119 286.8119 287.2777 287.2777 288.2912 288.2912
   288.5444 288.5444 288.7259 289.3096 290.4553 290.8519 290.9623 290.9623
   293.3531 294.3159 294.3159 295.3152 295.3152 295.8518 295.9962 296.0545
   296.3199 296.3199 297.0483 297.4530 297.4530 297.7192 297.7192 297.7199
   298.0237 299.0305 299.0305 300.6584 300.6584 300.6761 300.6761 301.4067
   301.6313 301.6313 302.0275 304.0150 304.0150 304.4208 304.6382 304.6382
   306.2073 306.7001 306.7001 306.8151 308.2531 309.6286 309.6286 310.0487
   310.0487 310.1884 310.3211 310.9807 310.9807 311.8308 313.0404 314.6296
   314.6296 315.9811 315.9811 316.2671 316.2671 316.7709 317.2684 317.2684
   317.5988 317.6138 317.8548 318.2589 318.2589 318.4975 318.4975 319.3079
   319.3079 319.7077 320.4858 320.4858 320.5219 321.5216 321.8267 321.8673
   321.8673 322.0267 322.2664 322.2664 322.7039 322.8816 322.8816 323.0661
   323.0661 323.6008 323.8425 324.0063 324.0063 325.3882 325.3882 325.3980
   325.5885 325.5885 325.8379 326.9062 326.9062 327.9132 329.3327 329.7466
   329.7466 330.4348 330.8270 330.8270 331.4598 332.7419 332.7419 333.1162
   333.1162 333.5862 334.1050 334.6338 334.6338 334.8875 335.1769 335.1769
   336.4907 337.3322 337.8687 337.8687 338.1466 339.7929 339.7929 340.0574
   340.0574 340.1560 340.6887 341.3614 341.3614 341.3834 341.6776 341.6776
   341.8418 341.8418 342.1311 342.1311 342.1351 342.2110 342.3995 342.3995
   342.4160 343.1456 343.1456 345.4452 345.4452 345.5188 346.5730 346.5730
   346.6605 346.8238 346.8238 347.3716 348.0938 348.0938 348.5139 348.5139
   348.6091 348.8538 349.1721 349.3462 349.3462 350.0044 350.0044 350.3093
   350.3093 350.3707 351.1029 351.3703 351.3703 351.5687 351.9739 351.9739
   352.3446 352.3446 352.6737 352.8210 352.9106 352.9106 353.5169 353.8654
   353.8654 353.9993 354.2252 354.2252 354.3836 354.9206 355.4710 355.4710
   356.2573 356.2573 356.4444 357.2489 357.2489 357.5221 357.5592 358.0849
   358.0849 358.3910 359.1250 359.1250 359.5893 359.5893 359.8355 359.9747
   360.1361 360.1361 360.4301 364.6611 364.6611 365.2760 366.0630 366.0630
   366.2754 366.3160 366.3160 366.9016 367.1878 367.1878 367.2904 367.2904
   367.4509 368.4195 368.4195 368.5254 369.0846 369.0846 369.5519 370.3010
   370.6065 370.6065 370.7197 370.7197 370.7650 370.9041 371.4958 371.4958
   371.6176 372.4464 372.4464 373.1157 373.1157 373.9541 374.5882 374.5882
   374.6469 375.3265 375.3265 375.4154 375.9998 376.0766 376.0800 376.0800
   376.8621 376.8621 377.5108 377.7065 377.7065 378.0633 378.3668 378.3668
   378.6276 379.1884 379.1884 379.3964 379.4068 379.4068 380.1683 381.6017
   381.6261 381.6261 382.4108 382.4108 382.5842 382.9584 382.9584 383.5138
   385.7098 385.7098 385.7497 387.3759 387.3759 388.0496 388.0496 388.3911
   389.0629 389.6780 389.6780 389.9019 390.1643 390.1643 390.3338 390.5327
   390.5327 390.5572 391.0759 391.0759 391.1259 391.5738 391.5738 391.6035
   392.4044 392.4044 392.5215 394.6632 394.6639 394.6639 394.9745 394.9884
   394.9884 395.6912 395.6912 395.7521 396.6240 396.6240 396.6803 396.6970
   397.0894 397.0894 397.3136 397.5427 397.5427 397.9576 398.6984 398.8965
   398.8965 399.8293 399.8419 399.8419 400.5228 400.5228 402.4169 402.4169
   402.5026 402.8338 404.4907 404.4907 404.5774 405.0310 405.4344 405.4344
   405.8181 407.2184 407.2184 407.7495 407.7495 407.8922 407.8922 408.0011
   408.0194 408.0714 408.0714 408.2243 408.6005 408.6005 408.6016 410.1827
   410.3888 410.3888 411.8894 412.4201 412.4201 413.3203 413.3203 413.3355
   414.2128 414.2128 414.6131 414.6131 415.1847 415.9853 415.9853 416.4951
   416.4951 417.8446 417.9800 418.1960 418.1960 418.5228 418.5228 418.7125
   418.7391 418.9664 418.9664 419.3711 419.4251 419.7633 419.7633 420.8477
   420.8477 420.9727 421.1716 421.1716 421.5666 423.6038 423.6038 424.4368
   424.5791 424.5791 424.5929 425.7064 425.8711 425.8711 427.5537 427.5537
   428.1436 430.3985 430.3985 430.5710 430.8857 431.8893 431.8893 432.0205
   433.1574 433.1574 433.1614 433.8364 433.8364 434.0988 435.0684 435.7164
   435.7164 435.9224 436.2539 436.2539 436.2624 436.8516 436.8516 437.5383
   437.5383 437.8158 438.4329 438.5437 438.5437 438.7282 438.7282 438.9348
   440.7917 440.7968 440.8226 440.8226 441.0002 441.0002 441.4107 441.4107
   441.8930 441.8991 441.8991 443.9310 443.9310 444.0625 444.2375 444.2375
   444.9683 445.3746 445.3746 445.7769 446.0482 446.0482 446.3103 446.5044
   446.5044 446.6530 446.8406 446.9630 446.9692 446.9692 447.2335 447.4163
   447.4163 447.6361 447.6361 447.9643 448.0604 448.0604 450.1575 450.1575
   450.2167 450.3934 450.3934 450.7571 450.8577 450.8577 451.0473 451.1187
   452.1427 452.1427 452.3167 452.3167 452.4939 452.6678 453.4511 453.5107
   453.5107 455.5853 455.5853 456.1885 456.2579 456.2579 456.7023 457.3475
   457.3475 457.4874 458.2024 458.2024 458.2381 458.2878 458.2878 458.2887
   458.5249 458.7436 458.7436 459.8971 459.8971 459.9533 460.3054 460.3054
   460.3448 461.0604 461.0604 461.0702 462.2561 462.2561 462.3548 463.2039
   463.2039 463.2472 464.6921 464.6921 465.0001 465.2002 465.2002 465.4212
   465.5436 465.5436 466.4839 466.4881 466.4881 466.8464 466.8975 466.8975
   467.2544 469.8181 469.8525 469.8525 470.0234 471.4743 471.4743 471.4887
   471.8422 471.8974 471.8974 472.0227 472.0227 472.6354 472.7642 472.7642
   473.3725 473.3725 473.5063 473.7562 473.9620 473.9893 473.9893 474.1054
   474.1054 474.9003 474.9003 474.9441 475.6906 475.6906 475.8205 475.8422
   476.0928 476.0928 476.3862 476.3862 476.4555 477.2414 477.2414 477.2910
   478.7250 478.7358 478.7358 479.6846 480.6664 480.6664 480.8713 481.0007
   481.0007 481.6473 481.9588 481.9652 481.9652 482.4215 482.4215 482.4292
   482.6331 483.4066 483.4066 484.9591 485.0323 485.0323 485.0867 485.2154
   485.2424 485.2424 485.6788 485.6788 485.8565 485.8838 485.8838 485.9202
   486.1533 486.1533 486.8667 486.8667 488.3841 489.7330 489.7330 489.9011
   489.9011 489.9822 490.0003 490.0003 490.0848 490.0974 490.1409 490.2494
   490.2494 491.5270 491.5270 491.6655 491.9760 491.9760 492.4089 492.4089
   492.5509 493.8078 493.8078 493.9789 493.9919 494.4423 494.4423 494.4823
   494.4823 494.5143 495.4322 495.4322 495.8858 496.0954 496.0954 496.1862

          k = 0.5000-0.5000 0.5000 (  3828 PWs)   bands (ev):

   -33.2785 -14.4241 -14.2762 -14.2762  -4.5340   2.9079   4.8352   4.8352
    11.1967  12.0041  12.1352  12.1352  14.0616  14.0616  14.8291  14.8291
    17.1000  19.4349  19.4349  21.6228  21.7567  24.9006  24.9006  27.1139
    29.4027  29.4027  30.6873  33.2553  33.2553  34.6444  34.6444  35.2234
    35.2234  35.2717  38.1808  38.5031  39.7552  40.5455  40.5455  41.8422
    43.6616  43.6616  46.1808  46.1808  46.9951  47.3984  50.2541  50.2541
    50.5476  50.9528  50.9528  54.4204  54.9384  56.4307  56.4307  56.9645
    57.8632  57.8632  61.0504  61.0504  62.5046  62.5046  64.1834  64.1834
    64.2806  64.2806  64.3125  65.7060  65.7699  66.5290  66.7511  67.1051
    67.1051  69.7987  70.8183  70.8183  73.3443  73.3443  74.4022  74.4022
    75.1375  75.3530  75.9004  75.9004  75.9631  75.9631  80.2750  80.2750
    80.6945  80.7505  80.8136  80.8136  81.8702  83.2479  86.4564  86.4564
    86.9998  88.0080  88.0872  88.0872  88.4030  93.0168  93.2445  93.2445
    93.5763  93.5763  93.8658  94.0575  94.0669  94.6221  94.6221  96.4756
    96.4756  96.6648  97.0116  97.0116  98.0998  98.0998 100.0478 100.2764
   100.6593 102.0882 102.7684 102.7684 104.0231 104.0231 104.2898 105.9212
   105.9212 106.7892 106.7892 107.3980 108.6312 108.6312 109.1994 110.7251
   110.8835 110.8835 110.8905 111.2703 111.2703 111.5389 111.5389 113.2642
   115.0550 115.3238 115.3238 116.7421 118.1249 118.1249 118.2433 119.1444
   119.1444 119.7643 119.7643 120.9645 121.0138 121.4129 121.4129 122.1156
   122.1156 123.1021 123.1021 126.1581 126.4259 126.4259 126.5476 129.0166
   129.0166 129.6389 130.1852 130.4204 130.4204 130.5490 131.3174 131.3174
   131.8897 131.8897 132.4417 133.9193 137.2501 137.6501 138.2651 138.2651
   138.7872 140.3054 140.3054 140.6644 140.8950 140.8950 141.7813 141.7813
   142.9586 143.4471 143.9732 143.9732 144.8179 145.2104 145.2104 145.6166
   145.6166 146.3161 146.3852 146.3852 146.5489 148.0450 148.0450 148.1711
   148.1711 148.4455 151.8644 152.3446 152.3446 153.7748 153.8452 153.8452
   154.3359 154.3359 154.7749 154.9278 156.6694 156.6694 156.8173 156.8173
   157.5631 157.6051 157.6051 157.9593 158.4410 158.6814 158.6814 159.0175
   159.0175 159.9744 159.9744 160.3461 162.8406 163.0753 163.0753 164.0003
   164.7686 164.9481 165.4382 165.4544 165.4544 165.5113 165.5113 168.0010
   168.0010 168.7066 171.9897 172.5403 172.5403 173.8023 173.8023 173.8884
   173.9770 173.9770 174.3934 174.9960 174.9960 175.1958 175.3217 175.6941
   175.7615 175.7615 176.1450 176.1450 176.1636 176.6846 176.6846 176.8497
   178.6906 178.6906 180.1043 180.1043 181.0995 181.2841 181.9941 181.9941
   183.4763 183.5513 183.5513 185.8863 189.7323 189.7323 190.7871 191.4902
   191.4902 191.8323 191.8323 192.4930 192.4930 192.5867 192.5867 192.9978
   193.1464 193.1605 193.2180 193.2180 193.2445 193.2903 194.0252 195.4537
   195.4537 195.5054 196.8730 196.8730 198.1132 198.2019 199.9076 199.9076
   200.0598 200.0598 200.4422 200.4422 200.7926 200.9062 201.0090 201.0384
   201.0384 201.1466 201.1466 201.2953 201.2953 201.3628 202.2424 203.4190
   204.7903 204.7903 204.8371 204.8371 206.2345 206.2357 208.3539 208.3539
   210.1090 210.1090 210.8469 210.8469 211.8501 212.2289 212.4875 212.4875
   212.8804 212.8804 212.9373 213.6861 213.6861 214.4968 214.4968 214.6562
   214.9039 214.9039 215.4591 215.4591 216.0815 217.8652 217.9192 217.9192
   218.3111 218.3111 218.3760 219.4842 219.9374 219.9374 220.0643 220.3900
   221.7323 221.8143 221.8143 222.7241 222.7241 223.0224 223.0569 223.0569
   223.7774 224.2587 224.2587 225.7750 227.2784 227.2784 228.5523 228.7330
   228.7330 229.5231 229.8663 229.8663 230.4109 230.4109 230.5664 230.7419
   232.7026 232.7026 234.7293 235.3526 235.6558 235.6558 236.0059 236.0334
   236.0334 236.8940 237.1242 237.1242 237.5827 237.5827 238.3561 239.0157
   239.0157 239.1249 239.7986 239.7986 239.8717 239.8717 239.9684 240.0819
   240.6539 242.4465 242.4465 242.5268 242.5417 244.5784 244.5784 244.6729
   244.6729 244.8440 245.0094 245.3482 245.3482 245.8928 246.3082 246.9387
   246.9387 247.7071 247.7071 249.2050 249.2050 249.5414 249.5414 250.4651
   252.2566 252.2566 252.6099 253.2185 253.2185 253.9737 255.0896 255.0896
   255.6589 256.1266 256.1266 256.2386 258.5110 258.5110 258.6668 258.8296
   258.8296 259.2814 259.3898 259.3898 260.3248 260.3248 260.3415 260.3415
   260.3563 260.4388 260.6511 261.0740 261.5866 261.5866 263.9451 263.9451
   264.4546 264.4546 265.5855 265.5855 265.6432 265.7025 265.8233 267.3683
   268.6307 268.6307 268.8321 268.8882 268.8882 271.4266 272.4451 273.0157
   273.0157 273.0656 273.0656 273.2264 274.2944 274.2944 274.4739 274.4739
   274.9284 275.1955 276.2788 276.4951 276.6743 276.6743 276.7240 276.7240
   277.1999 277.2319 277.2319 277.3249 277.3249 277.4966 277.4966 277.6231
   278.0705 278.1689 278.1689 278.7908 278.7908 279.0970 280.9943 281.0253
   282.9161 283.7575 283.8544 283.8544 284.0499 284.0499 284.1766 284.1766
   284.5592 284.7163 284.7163 285.0281 285.1772 285.1995 285.6382 285.6382
   285.8152 285.8152 286.4077 286.4077 286.5224 286.5224 286.7696 286.7834
   292.4528 292.4528 292.6427 292.9728 292.9728 293.0411 293.7310 293.7310
   294.3781 294.3781 294.5422 294.6263 294.6681 294.6681 295.1006 295.1006
   295.1942 295.3116 296.2025 296.2025 296.9597 296.9597 297.0482 297.0561
   298.7385 298.7385 299.7580 300.9311 300.9598 300.9598 301.0155 301.4176
   301.5235 301.5235 301.9298 301.9298 303.2104 303.5407 305.1709 305.2602
   305.2602 305.6497 305.6497 306.0401 306.0401 307.3136 307.3136 308.5863
   309.1278 309.4336 309.4336 309.7375 309.7636 309.7636 309.7811 310.3636
   310.3636 310.5387 310.5738 310.5738 310.8286 310.8286 314.4531 314.4531
   314.8783 314.8783 315.2740 315.2740 315.3710 316.1514 316.1667 316.1667
   316.6015 316.6031 317.4032 317.4032 317.4436 317.9398 319.0694 319.1788
   320.2869 320.5144 320.5144 320.7199 320.7199 322.0238 322.0238 322.4009
   322.4009 323.8641 324.0748 324.0748 324.6165 324.8441 324.8441 324.8536
   324.8536 325.0341 325.0352 325.5593 326.2540 326.5167 326.5167 326.9186
   332.8726 332.8726 332.9273 332.9273 334.1399 334.1399 334.2184 334.2184
   334.4708 335.6670 335.6670 335.9016 337.0170 337.1755 337.1755 337.4354
   337.4354 337.5900 337.5900 337.7329 338.1371 338.2226 338.8145 338.8145
   338.9067 338.9067 338.9474 339.3308 339.8621 339.8621 340.1387 340.1428
   340.1428 340.2300 340.7811 340.7833 340.7833 340.9589 340.9589 341.0518
   341.1016 341.2457 341.2457 341.2884 341.3327 341.3327 341.8436 341.8436
   341.8821 341.8821 342.0429 342.2621 344.4220 344.4220 344.8818 345.4743
   345.5131 345.5131 345.9330 346.4397 346.4397 346.5097 346.5097 347.1139
   349.4376 350.0255 350.1594 350.1594 350.6929 350.6929 351.4897 351.4897
   351.9498 352.0116 352.1659 352.1659 356.0479 356.0479 356.4660 356.4660
   356.7277 357.4198 357.6513 357.6593 357.8517 357.8517 357.9771 357.9771
   358.2958 358.2958 358.4125 358.4125 358.4606 358.6865 358.7497 358.7497
   359.6175 359.7036 359.8238 359.8238 359.8984 359.8984 360.0496 360.0584
   360.0584 360.2682 362.5293 362.8259 363.9054 363.9054 364.4863 364.8071
   364.8071 365.2403 366.2567 366.3112 366.3112 366.7781 366.7781 368.0204
   368.0204 368.2159 368.2159 368.4323 368.4558 368.5558 368.5558 368.9752
   368.9752 369.0605 369.1057 369.2761 372.9862 372.9862 373.3151 373.3151
   373.3980 373.4810 376.2910 376.2910 376.3122 376.3122 377.9838 377.9838
   378.5893 378.8570 379.0230 379.4008 379.4008 379.4742 379.6299 379.6445
   379.6445 379.7027 379.7027 379.7735 379.8208 379.8208 379.8848 379.8848
   381.1764 381.1764 382.7604 383.0354 383.0354 383.1318 383.1318 383.3565
   383.6226 383.6226 383.6270 384.0134 384.0134 384.2582 384.8940 385.1011
   385.5944 385.5944 386.2166 386.2166 386.4375 386.5897 386.5897 386.8352
   387.8258 387.8258 388.0655 388.0982 388.0982 388.1115 391.9325 391.9325
   394.1554 394.1554 394.7483 394.8637 394.8658 394.8658 395.0377 395.0377
   395.5250 395.5350 395.7437 395.7437 395.9467 396.0520 396.0600 396.0600
   397.2216 397.2216 398.3320 398.3320 398.9349 398.9362 398.9379 398.9491
   398.9491 398.9722 398.9722 398.9899 401.3769 401.7895 402.5605 402.5605
   402.6684 402.6684 403.7675 404.0910 404.0910 404.1120 404.1120 404.1155
   404.1231 404.1455 404.5458 404.5458 404.5469 404.5469 407.7414 407.7414
   407.7518 407.7518 407.8993 407.9002 409.2505 409.2505 410.3604 410.3891
   410.7534 410.7534 411.5857 411.6261 411.6912 411.6912 412.3212 412.4381
   412.6219 412.6219 412.7672 413.0452 413.0452 413.1893 413.1893 413.5123
   417.5567 417.5719 417.5719 417.6296 417.6296 417.8514 418.6481 418.6481
   418.8359 418.8359 419.0409 419.2890 419.2890 419.5455 419.8441 419.8441
   419.9310 419.9327 420.3305 420.3305 421.2011 421.2011 421.2106 421.4021
   421.5315 421.5327 421.5327 421.5487 421.5487 421.5924 422.7289 422.8594
   422.9766 422.9766 422.9926 422.9926 425.1164 425.1164 425.1196 425.1864
   425.1864 425.2650 425.6626 425.6626 425.6994 425.6994 425.7777 425.7791
   431.1099 432.3445 432.3445 432.4496 432.4496 432.6408 433.2302 433.2302
   433.3314 433.3314 433.3995 433.4927 433.8816 433.8816 433.9462 433.9479
   433.9479 433.9852 434.4965 434.6453 434.6453 434.6454 434.6454 435.1969
   437.6856 438.1839 438.1839 438.3452 438.3452 439.1556 439.7077 440.5289
   440.5289 440.6297 440.6297 440.8080 440.8716 440.9343 441.0376 441.0376
   441.5160 441.5160 441.6051 441.6364 441.6364 441.7398 441.7398 441.7800
   441.8175 441.9742 443.2902 443.5355 443.5355 444.3597 444.3597 444.3898
   445.4544 445.7410 445.7410 446.4144 446.4144 446.6268 446.6268 447.0033
   447.0033 447.1545 447.8164 448.1611 448.3660 448.3660 448.8804 448.8804
   451.3891 451.3891 451.3956 451.3956 451.5176 451.5853 451.9253 451.9253
   452.0694 452.0810 452.0810 452.1880 453.2109 453.2109 453.2134 453.2134
   453.3509 453.3509 453.3806 453.3806 453.5091 453.5094 455.1170 455.1172
   459.6924 459.6924 459.7483 459.8323 459.8961 459.8961 460.2937 460.6308
   460.6308 460.9061 460.9061 461.1953 463.4309 463.4309 463.6148 463.8795
   463.8795 464.2657 464.6323 464.6323 464.7160 464.9076 464.9076 465.1505
   465.3733 465.3733 465.7979 465.8543 465.8543 465.9697 465.9697 466.0035
   466.2519 466.4435 466.4435 466.7661 466.9255 466.9255 466.9885 467.1954
   467.1954 467.2839 469.0017 469.1051 469.1051 469.3413 469.3413 469.3751
   470.6558 470.6932 475.9869 475.9869 476.1504 476.1504 476.3349 476.3718
   477.1548 477.1594 477.1594 477.1842 477.1842 477.3550 477.7507 477.7507
   477.7971 477.7971 477.8148 477.8765 478.3064 478.3064 478.3464 478.3464
   478.3515 478.4558 478.7345 478.7345 478.7578 478.7685 478.7685 478.8972
   479.8597 479.8947 479.8947 480.0561 480.0561 480.0799 480.1632 480.1990
   480.1990 480.2470 480.2470 480.2952 480.5360 480.5360 480.5591 480.5591
   482.0805 482.0805 482.0815 482.0815 482.1433 482.1456 483.3880 483.3880
   483.7602 483.7602 483.9828 484.1548 488.0007 488.0007 488.7986 488.7986
   488.9297 489.0153 489.8948 489.8948 489.8956 490.0240 490.0240 490.9611
   495.5230 495.5230 495.8271 495.9536 495.9536 496.0996 496.5067 496.5067
   496.6887 496.8303 496.9659 496.9659 497.3128 497.3128 497.4551 497.5259
   497.5322 497.5322 497.5631 497.5631 497.6831 497.6831 497.6977 497.7591

          k = 0.0000 0.5000 0.0000 (  3895 PWs)   bands (ev):

   -33.2822 -14.3333 -14.2870 -14.2870  -4.9246   4.0303   5.4495   5.4495
     9.1003  11.1203  11.1420  11.8469  11.8469  14.3376  15.8439  17.4534
    17.4534  17.5067  21.6414  22.1177  24.4719  24.5543  24.5543  27.3071
    27.6179  27.6179  28.6167  32.4078  33.0439  34.0305  34.0305  36.4745
    36.4745  37.4073  40.3083  40.8014  41.1924  42.3398  42.3398  42.7469
    43.3361  43.3361  44.9608  45.6008  45.6008  47.6190  48.2524  48.4043
    49.6698  50.4395  51.4991  54.1647  54.1647  55.6815  56.0900  56.0900
    57.2297  57.2297  57.5713  58.7848  61.0357  61.0357  61.6922  62.3620
    64.1496  64.1496  64.2128  64.2205  65.1985  65.1985  67.3748  69.7308
    69.7405  72.2518  73.6187  73.6682  73.6682  74.8913  74.8913  75.3719
    75.6615  75.8516  76.3958  76.3958  77.2478  80.0590  80.0590  80.1322
    80.3866  83.2849  83.2849  83.4116  85.8393  85.8393  86.4136  87.1075
    87.4886  87.8044  88.9890  89.2594  89.2594  90.4116  90.7573  91.5032
    91.5032  92.4381  92.4381  93.1027  95.3559  96.0611  96.0611  96.4043
    96.6452  96.7872  98.1348  98.1348  98.5798  99.3298  99.6975  99.8230
   100.5300 100.5300 100.7771 100.7810 102.0164 102.0164 103.1702 103.1702
   103.5248 103.7558 103.7558 104.2293 104.5295 105.8956 105.8956 106.0496
   107.6837 110.1541 110.4914 110.4914 110.7019 113.7562 114.2362 114.5171
   115.5171 115.5171 117.1027 118.0268 118.0268 118.4835 118.4835 118.5298
   118.7024 119.8081 119.9801 119.9801 121.8737 121.9286 122.9795 124.8123
   125.2046 125.2046 126.1497 126.1923 126.1923 126.2459 126.7959 128.2707
   129.1816 129.1816 129.6735 129.8733 131.2058 131.9823 132.0313 132.0313
   132.7469 135.0613 135.1948 135.1948 135.6124 138.3581 138.4267 138.4267
   138.5138 139.1587 139.1770 139.1770 140.3814 140.5490 140.5490 141.3899
   142.3491 143.5460 143.5460 144.5850 144.5850 145.1715 145.8054 145.8054
   146.1164 146.3174 146.9465 147.4806 147.8847 147.8847 148.9246 149.5820
   149.5820 150.4429 150.4846 151.1327 151.5446 151.5446 153.7050 153.7050
   153.8733 153.9720 153.9720 154.0255 154.7906 154.9400 154.9400 156.2562
   156.3549 157.1684 157.1684 158.3131 159.2878 159.9327 160.8564 161.1791
   162.9054 162.9054 164.5623 164.9199 165.3560 165.3560 166.7779 166.7779
   166.8262 167.0231 167.6723 167.9525 167.9525 168.4638 169.4670 169.9958
   170.6525 171.0740 171.0740 171.4922 171.6921 171.6921 173.5137 174.1252
   174.2276 174.2276 175.1595 175.1705 175.6553 175.8073 176.0364 176.0364
   176.6486 176.6486 177.0382 177.1043 177.6899 178.0510 178.1747 178.1747
   178.8532 178.8931 178.8931 179.0811 179.6411 179.7474 179.7474 181.5166
   182.4415 182.4415 182.6305 182.8114 182.8114 182.8457 183.0284 183.0916
   183.4286 185.4118 185.4118 186.3479 186.3479 186.8365 188.1578 188.2544
   188.4938 189.2376 189.5322 190.0996 190.0996 191.1013 191.3630 191.3723
   191.3723 192.3723 192.3723 194.1890 194.8218 195.4066 195.4066 198.0283
   198.9118 200.2560 200.2560 200.8995 201.1774 201.6271 201.6271 201.9896
   201.9896 203.1574 203.6278 204.3115 204.3695 204.5874 204.5874 205.4459
   205.8892 207.5729 207.5729 207.7773 208.0742 208.0742 208.6172 209.3935
   209.3935 210.4330 210.7822 210.7930 211.0434 211.0563 211.0563 211.7101
   212.1343 212.1343 212.5828 213.8745 214.0112 214.4026 214.9594 214.9594
   217.0857 217.0857 217.4083 217.7660 218.1372 220.1765 220.1765 220.7030
   221.4095 221.7483 221.7483 222.2359 223.8841 224.1955 224.1955 225.3948
   225.5923 225.5923 226.7363 227.0555 227.0555 228.6400 228.7145 228.9221
   228.9221 228.9563 229.2054 229.3513 229.4750 229.4750 230.9648 230.9648
   231.2289 231.5233 232.1567 232.6716 232.6716 233.3911 233.9017 233.9688
   235.2671 235.2671 235.4470 235.4621 235.4711 235.8767 236.0715 236.0715
   236.2287 236.3223 236.3223 236.9510 237.3260 237.4665 237.5144 237.5144
   237.6251 237.9400 237.9400 239.5399 240.0033 240.6198 240.6599 240.6599
   240.8611 240.9971 240.9971 241.5418 241.9908 242.1714 242.7109 242.7109
   244.1954 244.3644 244.3644 244.9087 245.1944 245.6719 245.6719 246.3584
   246.5133 246.5133 246.9764 247.2871 248.5112 248.6170 248.6170 248.6521
   248.7059 249.1579 249.1579 249.5554 251.1974 251.3493 253.9304 253.9304
   254.5010 256.9791 257.2735 257.3826 257.4432 257.4432 257.5029 257.9797
   257.9797 258.3451 258.7168 259.0533 259.0533 259.1277 259.2512 259.7228
   259.7228 260.9706 261.3528 261.3528 261.6929 261.9970 262.0477 262.0477
   262.0705 262.3561 263.5246 263.5246 265.2481 265.2481 265.2764 265.3337
   266.0070 266.0070 268.1751 268.5291 268.5291 268.9459 269.9376 270.3626
   270.8540 270.9116 271.1419 271.1419 271.7397 272.3873 272.3873 272.4793
   273.0934 273.0934 273.2760 273.5940 273.8951 273.8951 274.1187 274.3248
   274.3248 274.6921 275.9532 276.1294 276.3045 277.2995 277.2995 277.4575
   277.7036 277.8311 277.8311 278.0499 278.8442 279.3317 279.4877 279.4877
   280.4747 280.4992 280.4992 281.4474 284.9689 285.2015 285.2293 285.2293
   285.3789 286.3654 286.3654 286.5654 286.6027 286.8675 286.8675 287.6172
   287.9543 287.9543 288.2379 288.2574 288.9003 289.4743 289.4743 289.8091
   289.8610 290.3924 290.3924 291.3772 291.4058 291.4348 291.5468 291.5468
   291.9101 292.4903 292.9017 292.9017 293.2624 293.2667 293.2667 293.3242
   293.7250 294.8990 294.8990 295.0998 295.5102 295.5102 295.9220 297.4617
   297.4617 298.2402 298.3016 299.6677 299.8936 299.9835 299.9835 300.0667
   301.1684 302.9791 304.3267 304.3267 305.5475 305.6538 305.6538 306.0567
   306.1825 306.4691 306.4691 306.9725 308.2335 309.8401 312.4418 312.4418
   312.8335 312.8661 313.8866 313.8866 313.9569 313.9569 314.0214 314.0917
   314.2784 314.7251 314.7251 315.0943 315.1530 316.1624 316.6859 316.7067
   316.7151 316.7151 317.5113 317.7116 317.7116 318.2175 318.4860 318.7787
   318.8425 318.8425 318.9116 319.0345 319.0690 319.0690 319.5331 320.0013
   320.0013 320.4595 320.7188 320.7188 320.7916 320.8501 320.8923 321.1144
   321.1144 321.9318 323.4377 323.4377 323.5539 323.5628 323.6387 323.6387
   323.9375 324.2440 324.3498 325.2325 325.7888 325.7888 326.7197 327.8962
   328.1994 328.1994 329.4882 329.8580 329.8580 330.1191 334.1244 334.5863
   334.5863 335.3914 335.9088 335.9088 336.6681 336.8632 337.0718 337.0718
   337.1993 337.3439 337.3439 337.3812 337.4827 337.7543 337.7543 337.7873
   337.9835 338.2841 338.2841 338.3280 338.3314 338.3600 338.3838 338.3838
   341.0642 341.2842 341.2842 341.3996 341.7929 342.1475 342.1475 342.5304
   343.3571 343.3571 343.7848 344.1680 344.2467 344.2545 344.2545 344.6710
   344.7502 345.7728 345.7728 345.8130 346.0321 348.1343 348.3079 348.3079
   348.5129 348.9285 348.9285 349.1570 349.4289 349.6746 349.6904 349.6904
   349.9016 350.0805 350.0870 350.0870 350.5226 351.1014 351.8274 352.3667
   352.3667 352.5328 352.5328 352.7267 353.8031 353.9036 354.8780 354.8780
   355.4523 355.4523 355.7019 356.0633 356.1050 356.6127 357.3508 357.3508
   357.5254 358.9615 359.8011 360.2811 360.2811 360.5221 361.0889 361.3747
   361.9740 361.9740 362.9766 362.9766 363.0198 363.2726 363.6917 363.9421
   363.9560 363.9560 364.2188 364.2188 364.9516 365.2068 365.3809 365.4309
   365.4856 365.4856 365.5706 365.6549 365.7472 365.7472 366.9614 366.9614
   368.0653 368.0985 368.0985 368.1179 368.7948 369.2237 369.2237 369.2479
   369.2860 369.3874 369.3874 369.5198 369.6403 369.6403 369.8486 369.9282
   371.8316 373.0524 373.0524 373.6453 373.7137 373.8419 374.3328 374.3328
   374.4301 375.9896 376.0005 376.0558 376.0558 376.1228 376.2101 376.2214
   376.2214 376.3774 376.7762 376.8933 376.9495 376.9495 376.9854 376.9854
   377.0250 377.0591 378.7556 378.8687 378.8687 379.0926 379.3794 379.3794
   379.4263 379.4815 379.5458 379.5458 380.8955 381.0873 381.3988 381.3988
   381.5665 384.2867 384.4044 384.4418 384.4418 385.9546 387.1314 387.1314
   388.0177 388.3196 388.7603 388.7603 388.9553 390.8755 391.1212 391.6962
   391.6962 392.0898 392.2881 392.2881 392.3142 392.4576 392.6501 393.0491
   394.1386 394.1386 394.3210 394.3210 394.4604 394.4894 395.0667 397.7873
   397.7873 399.4622 399.4622 399.8525 399.8667 400.4359 400.4359 400.7319
   401.0255 401.2670 401.8457 401.9341 402.2004 402.2004 402.4627 402.7072
   402.9000 402.9000 403.0435 403.2274 403.2712 403.2712 403.2866 403.5269
   404.4102 404.4102 404.7524 406.1389 406.1389 406.5688 407.3629 407.5083
   408.0289 408.0289 408.4841 408.8541 408.9366 408.9366 409.2459 409.5560
   409.5560 409.5570 409.7997 410.2708 411.7387 411.7387 412.3487 413.0719
   413.0719 414.2219 414.2508 414.2508 414.2857 414.6134 414.6717 415.2700
   415.5780 416.0167 416.0167 416.3800 416.5949 416.5949 417.4808 418.5077
   418.6768 418.7643 418.7643 419.2093 419.4734 419.4734 419.4934 419.5636
   419.9300 419.9431 419.9431 420.0414 420.2094 420.2096 420.2096 421.0662
   421.0662 421.6642 421.8540 421.8540 421.8941 423.4970 423.5622 423.5622
   423.6462 424.5172 424.7870 424.9036 424.9036 424.9959 425.5824 425.6461
   425.6461 425.6867 426.4939 426.4939 426.9427 427.0900 427.2681 427.4051
   427.4051 427.6994 427.6994 427.7099 428.1432 428.3574 428.3574 428.4223
   428.4712 431.3710 431.5435 431.5435 431.6429 431.8695 432.0703 432.0703
   432.1723 433.4631 434.5618 434.6330 434.6330 434.6689 436.4721 437.2673
   437.3208 437.7684 437.7684 437.8219 438.0535 438.0535 438.6242 438.6850
   438.7622 438.7622 439.3687 439.3687 439.4807 439.5159 439.7751 440.1959
   440.9653 441.2132 441.2132 441.2443 441.9000 441.9000 442.5616 443.1210
   443.9475 443.9475 444.6776 446.1371 448.3537 448.3537 448.4105 448.8070
   448.9868 449.0335 449.0335 449.0912 449.1440 449.2852 449.2852 449.4227
   449.4227 449.5731 449.6460 449.6460 449.6895 451.9990 452.3083 452.3083
   452.6641 454.7118 455.2697 455.2697 455.6800 455.7496 455.7563 456.1054
   456.1054 456.2098 456.3244 456.3855 456.3953 456.3953 456.9428 457.4654
   457.4654 457.7452 458.2969 458.3132 458.3527 458.3527 458.3945 458.6331
   458.6331 458.6774 459.7533 461.1440 461.3201 461.3686 461.3686 462.6783
   462.6783 463.2259 463.5331 463.5331 464.0769 464.1063 464.1534 464.2334
   464.3610 464.3610 464.5417 465.7274 465.7274 465.8375 465.9390 465.9390
   465.9634 466.0534 467.0158 467.0407 467.0407 467.1065 469.5474 469.5474
   469.6042 469.9270 470.0350 470.0350 470.1199 470.3346 471.2814 471.3656
   471.3656 471.4110 471.9877 472.2186 472.2186 472.3573 472.4263 473.1747
   473.1747 473.3209 473.7087 474.2027 474.2153 474.2153 474.3820 474.5557
   475.0610 475.0610 475.5832 476.2246 476.2246 476.8660 478.0045 478.3506
   478.6160 478.6160 478.7539 479.3676 479.3676 479.8191 479.8191 479.9634
   480.4682 481.3210 481.4822 481.5709 481.6093 481.6093 481.7206 481.9156
   482.1214 482.1214 482.7465 482.8897 482.9268 483.2673 483.2673 483.4875
   483.5857 483.5857 483.9001 483.9110 483.9110 483.9661 484.9793 485.2398
   485.2398 485.4525 486.8056 486.8418 486.9594 486.9594 486.9768 487.0233
   487.2016 487.2016 487.9094 487.9176 487.9339 487.9339 487.9562 487.9562
   487.9645 487.9820 488.3102 489.6055 489.6367 489.6514 489.6514 489.7203
   489.9264 489.9264 490.6299 491.7839 492.0259 492.0259 492.4566 493.4239
   494.6602 494.6602 494.7112 495.1065 495.3843 495.4879 495.5280 495.5280
   495.5600 495.8672 495.8672 496.0487 496.1394 496.1959 496.1959 496.2165

          k = 0.7500-0.2500 0.7500 (  3863 PWs)   bands (ev):

   -33.2768 -14.3838 -14.3131 -14.2934  -4.6243   3.5522   4.5245   4.9962
     9.7989  12.2348  12.3420  12.4860  12.7059  13.6014  14.8438  16.7954
    16.9970  19.8649  20.4185  21.7726  23.6262  23.9224  25.2067  27.3400
    27.7511  29.7185  29.8111  30.1386  32.0182  33.8643  34.8566  34.9155
    35.2377  35.8012  38.5724  38.9738  40.3806  41.1886  41.5388  41.8610
    43.2615  44.0329  45.1571  45.3536  47.5613  49.5230  50.9660  51.5414
    52.2338  52.8271  53.4335  53.8503  53.8537  55.1502  55.6081  55.6481
    56.9833  57.4072  59.3790  59.6350  61.1405  61.8741  63.8034  64.0782
    64.2648  64.8516  65.4675  66.0507  67.1006  67.8919  68.4166  68.8881
    68.9943  69.5181  69.9134  70.0711  71.6918  71.9894  73.3623  74.4140
    74.5777  76.1259  76.8401  77.2405  77.4723  78.1337  78.2313  78.3426
    78.4795  81.5246  82.1064  82.2341  83.2302  83.2869  84.0818  84.9863
    86.3278  87.4068  87.9087  88.6833  88.8552  89.1856  90.1661  91.0138
    91.3790  91.7730  92.0549  92.7020  93.0758  93.6409  95.0198  95.1523
    96.2755  96.9583  97.9462  98.2741  99.8177  99.8679 100.1145 101.2687
   102.3666 102.7494 103.2237 103.4090 103.9552 104.5449 105.5075 106.0732
   106.7168 106.9479 107.7064 108.5016 108.5288 108.7169 109.6729 109.8124
   110.5642 111.1055 112.2768 112.3768 112.6287 112.7849 114.3120 114.4253
   114.8198 116.0994 116.3905 116.8288 118.3557 119.4315 119.5668 119.6595
   120.0058 120.8820 120.9319 121.4874 122.4287 122.4608 122.7486 123.3193
   124.2135 124.6770 125.4663 125.6239 126.3034 126.6665 127.3379 128.1550
   128.9870 129.1630 129.7531 129.8417 130.3618 130.5912 131.0619 131.4272
   132.0417 133.3839 133.4805 134.0759 134.5238 135.0574 135.4757 136.0123
   136.3428 136.6169 137.0950 137.6253 137.9914 138.6249 139.4377 139.5208
   140.0593 140.8321 142.1318 142.2436 142.8137 143.4059 144.0463 144.8477
   144.9719 145.3621 145.8912 146.2222 146.7378 146.8520 148.4769 149.3975
   150.1211 150.1728 151.0187 151.5648 151.8191 152.5283 152.9434 153.0186
   153.7162 153.9012 154.5883 154.7818 154.8018 155.8623 156.1917 156.3432
   157.2408 157.8451 158.2344 158.6138 158.9317 159.3335 159.9003 160.1503
   160.6617 161.4125 161.5909 161.7297 161.7671 162.3786 163.4114 163.4752
   164.7966 165.5740 166.8012 167.0172 168.1117 168.8352 168.8972 170.3553
   170.5052 170.8680 171.0868 171.4232 171.5962 171.8172 172.1761 173.1079
   173.3156 173.4919 173.6684 174.9282 175.2838 175.7317 177.2501 177.5901
   177.8466 178.7484 179.0223 179.3369 179.6895 180.1404 180.6589 180.7870
   181.4327 181.7995 181.8306 182.0992 182.4380 182.6348 183.3827 183.7143
   184.4469 184.5029 184.5977 185.1882 186.5461 187.5622 187.8468 187.8875
   188.4013 189.1032 189.8896 189.9057 190.6324 190.9004 191.4844 191.7848
   191.9946 192.5916 192.9923 193.0607 193.5201 193.8016 194.3364 195.2958
   195.4263 195.9234 196.2759 196.5956 196.8185 197.1403 197.2065 197.4086
   197.5905 198.4094 198.5270 198.5784 198.9244 199.6391 199.6423 200.2265
   200.9088 201.0747 202.2965 202.8725 203.6806 203.6931 204.3492 205.1065
   205.3545 205.3969 205.8588 206.9104 207.7208 207.9708 208.0822 208.6942
   208.8015 209.3507 209.9619 210.0628 210.0925 210.4939 211.0549 211.1491
   212.0322 212.8459 213.3476 214.0371 214.1543 214.9801 215.3219 215.3679
   215.7789 216.2031 216.5759 217.3721 217.9557 218.0887 218.4347 218.8202
   218.9053 219.0418 219.2890 219.6107 220.0921 220.4519 220.8638 220.9781
   221.2894 221.5502 222.0101 222.0297 222.0778 223.1419 223.5320 223.6427
   224.1130 224.7295 225.0281 225.7878 225.8748 226.5975 226.6292 227.0764
   227.8854 228.3923 228.7528 228.8477 229.0707 229.2174 229.2671 230.3389
   230.6243 231.2161 231.6735 232.8123 233.1031 234.2951 234.6806 235.3171
   235.7930 236.7650 236.9810 237.1385 237.9073 238.2686 238.3020 238.5611
   239.0379 239.3447 239.4574 239.9048 240.0190 240.2425 240.2938 240.6052
   240.8222 240.8325 241.1440 242.6448 243.3511 243.8010 244.4818 244.9770
   245.2677 245.3129 245.9919 246.6547 247.0042 247.1356 247.2935 248.0041
   248.4465 248.5167 248.6674 249.0555 249.8706 249.8770 250.0511 250.2694
   250.3333 250.9095 251.6587 251.9943 252.0093 252.7378 252.8399 253.7496
   254.5776 254.7026 255.3303 256.9302 257.1104 258.1595 258.4156 258.6904
   259.2868 259.4294 260.0774 260.3123 260.5630 260.5790 261.2491 261.4545
   262.1244 262.3187 262.5228 262.6709 263.4592 263.5063 263.8216 263.8880
   264.0748 265.2658 265.6033 266.0414 266.3835 266.6224 266.7749 266.8776
   267.7606 267.8814 268.2804 268.6058 268.7264 269.3004 269.7173 269.8732
   270.1074 270.1220 270.3606 270.4728 271.1824 271.2628 272.3619 272.8494
   273.0799 273.7109 274.8746 275.0416 275.3582 275.6218 275.9357 275.9817
   276.4774 277.1800 277.7859 278.4993 279.6256 279.6946 279.7000 280.2717
   280.4009 280.6684 281.1964 281.5831 281.8135 282.5647 282.6775 282.8257
   283.4439 283.6477 283.7551 284.3338 284.3650 284.7356 285.1238 285.7943
   286.0179 286.5728 286.9957 287.3189 287.3980 287.4554 287.5708 288.0501
   288.4874 288.6981 289.0170 289.0683 289.2225 289.3639 290.1716 290.5402
   290.5452 291.0022 292.3128 292.3623 292.5809 293.2828 293.3626 293.5164
   293.9085 294.3638 294.6486 294.8648 295.3777 295.7091 295.9867 296.2907
   296.5886 296.7590 297.5971 297.8747 298.0222 298.0817 298.4792 298.5904
   299.0504 299.5036 299.6674 300.4291 301.1662 301.7567 302.0488 302.2667
   302.4512 302.9734 303.0428 303.2248 303.6596 304.0766 304.2239 304.3610
   304.7063 305.4424 305.6016 306.4980 306.5142 307.2676 307.6688 308.4140
   308.6683 308.8124 309.2329 309.2347 309.6147 309.6220 310.0130 310.1888
   310.4678 311.6281 312.0367 312.3349 312.9956 313.7554 314.2399 314.2677
   314.7357 314.8438 315.1773 315.5009 315.6267 316.4392 316.4791 316.9739
   317.1223 317.2499 317.3548 317.6868 317.8448 318.0436 318.1616 318.5979
   318.8821 319.0671 319.5412 319.6646 319.8829 320.9381 321.1891 321.5408
   321.9558 321.9586 322.1835 322.7190 323.1283 323.7312 324.0896 324.2795
   324.6717 325.2618 325.3921 325.6597 325.7698 325.8593 326.2535 326.8694
   326.9957 327.3889 327.7699 328.2904 328.8267 329.2893 329.3253 329.4861
   330.2892 330.4738 330.7055 331.5061 331.7154 332.2921 332.3620 332.4391
   332.9144 332.9898 333.1135 333.1185 334.3095 335.2024 335.5538 335.7684
   335.8589 336.0249 336.0776 336.6134 336.7268 336.8579 336.8665 337.1710
   337.2977 337.4967 337.5324 338.0318 338.5238 339.1908 339.8701 339.9058
   339.9696 340.2504 341.1593 341.8153 342.0742 342.2367 342.9900 343.1972
   343.6648 343.6909 343.8822 345.5618 346.0181 346.2881 346.3171 346.6036
   347.0002 347.0527 347.3271 347.6517 349.6589 350.1775 350.1812 350.5856
   351.2699 351.5597 351.6017 351.7726 352.7264 352.7832 352.9398 353.3025
   353.4517 353.6475 353.9262 354.3712 355.1368 355.1666 355.4163 355.4366
   355.4892 355.7563 355.8434 356.0450 356.2183 356.4184 356.7692 356.7941
   356.8077 356.8571 358.0578 358.1836 358.1989 359.3817 361.6908 361.8036
   362.1083 362.3059 362.4626 363.1958 363.8898 364.4442 364.5349 364.8674
   364.9292 364.9799 365.5939 365.5946 365.9704 366.1671 366.1914 366.6121
   366.7228 366.8846 367.2340 367.4517 367.7748 367.9650 368.6241 368.7726
   368.8468 369.3330 369.5382 370.0651 370.5269 370.6200 371.8722 371.9252
   371.9636 372.0778 372.1700 372.3781 372.6587 373.1133 373.3825 373.8687
   373.9426 374.1215 374.2207 374.3316 374.3872 375.5001 375.9662 376.0395
   376.0727 376.5736 376.6288 376.8567 377.3963 377.8780 378.0023 378.7142
   378.8694 379.7764 379.8638 379.8889 379.9362 380.8307 380.9446 381.8356
   381.8758 381.9432 382.1063 382.5577 382.7930 383.1182 384.1264 384.1413
   384.4015 384.7177 384.8128 385.1878 385.6514 385.8195 385.9828 386.1820
   386.4141 386.4228 386.8497 387.5502 388.1386 388.7387 388.8019 390.1065
   390.4257 390.6008 390.7351 390.9651 391.2501 391.3635 391.7979 392.3911
   392.4001 392.5439 393.2661 394.2778 394.6522 394.8661 394.9100 395.7269
   395.7798 396.6075 396.8558 397.0346 397.3260 397.7296 397.7503 397.8430
   398.1717 398.6267 399.2770 399.4105 399.6558 400.1347 400.3045 400.4268
   400.4945 400.8866 400.9416 401.2212 401.3615 401.9971 402.2604 402.8493
   402.8829 403.0545 403.6108 403.7203 404.2396 404.8812 404.8814 405.1587
   405.2778 405.4727 405.6848 406.1919 406.2024 406.2675 406.4259 406.7724
   406.9046 407.5352 407.7630 408.0092 408.4713 408.6737 409.1494 409.3078
   409.5307 409.7183 409.8067 409.9175 410.3252 410.3590 410.8955 411.3140
   411.7154 411.7304 412.6440 412.8983 413.0735 413.2635 413.2740 413.5745
   413.6298 413.8384 413.8707 414.0988 414.1576 414.4511 414.7076 414.9132
   414.9765 415.4405 417.9500 418.3185 418.8071 419.0043 419.2220 419.7556
   420.0232 420.1545 420.5868 420.7194 421.4198 421.8061 422.0747 422.1529
   422.8471 422.8944 422.9603 423.2988 423.3076 423.3753 423.5638 423.7029
   423.7207 423.8679 424.5373 424.6989 425.0197 425.0459 425.3447 425.3772
   425.6226 426.3542 426.4673 426.5472 426.6786 427.0376 427.2587 427.4981
   427.6888 428.0940 428.1439 428.4759 428.6676 429.2813 429.2879 429.5378
   429.5603 429.9710 430.6798 430.7008 431.1361 431.3248 432.6900 433.4984
   433.6211 433.6911 434.0531 434.2516 434.7550 434.9184 435.1035 435.3542
   435.7284 435.7385 435.8528 435.9454 436.6309 436.7668 437.2956 437.6164
   437.9935 438.3724 438.6607 439.0329 439.0767 439.7613 440.1967 440.3799
   440.5093 441.0427 441.0782 441.1068 441.5273 441.6148 441.6421 441.7581
   441.8484 441.8785 442.4778 443.5558 443.7223 444.1574 445.1198 445.5573
   445.6936 445.7670 445.8390 446.0410 446.7242 446.7258 447.3548 447.5332
   447.6555 447.8291 448.1654 449.0004 449.7171 450.0893 450.1286 450.2030
   450.6070 450.6781 450.6980 450.7697 450.9135 451.1101 451.2075 451.5279
   451.7999 451.8724 452.0454 452.3227 452.4141 453.2353 453.3620 454.4596
   454.6223 454.8330 454.8952 455.3438 456.2946 456.3228 457.5072 457.6092
   457.6239 457.7931 458.3512 458.3801 459.4777 459.5055 459.9989 460.0713
   460.0843 460.5980 460.6344 460.8406 461.3427 461.6128 462.0026 462.0314
   462.1817 462.1908 462.3966 462.6360 462.8326 463.7527 463.8946 464.7970
   464.8129 464.9283 465.0870 465.3432 465.4196 465.6679 465.8948 466.0279
   466.2640 466.7705 467.1377 467.2830 467.5026 467.5252 467.7081 467.7245
   467.9944 468.8877 468.9208 469.7260 470.4991 470.9449 471.1897 471.4200
   471.4361 471.5016 471.6274 471.6987 471.9268 472.1129 472.1959 472.2311
   472.7288 473.5857 473.6296 473.8701 474.2731 475.6310 476.1584 476.2600
   476.5555 476.5668 476.7796 477.8050 477.8370 478.1860 478.2670 478.6300
   478.6572 478.9340 479.2280 479.3034 480.0400 480.2130 480.3627 480.5504
   480.6744 480.9992 481.5017 481.7261 482.2795 482.2926 482.3935 482.6205
   482.7779 482.8216 483.1825 483.1882 483.2198 483.2401 483.7309 486.3244
   486.5631 487.4331 487.4834 487.6489 487.7722 487.8194 488.8415 488.9062
   489.1237 489.8809 490.4850 490.5658 490.7140 490.7678 491.1168 491.3022
   491.6845 491.7414 491.8262 492.1018 492.1262 492.6804 493.2313 493.6954
   493.8269 493.9110 493.9495 494.0618 494.5402 494.7460 494.9066 495.1094
   495.4620 495.5607 495.7984 496.2608 497.4012 497.4099 497.5317 497.8709
   498.1071 498.3613 498.4508 498.5809 498.8891 498.9632 499.1232 499.1508

          k = 0.5000 0.0000 0.5000 (  3845 PWs)   bands (ev):

   -33.2786 -14.3758 -14.3165 -14.2763  -4.6521   3.5320   4.6435   4.8959
    11.0999  11.4315  11.5844  11.9932  13.1166  14.0453  15.8503  16.0988
    16.2875  18.5928  20.3592  23.2165  23.5394  24.6683  24.7970  25.3740
    28.9672  29.0987  29.5466  31.4180  33.2137  34.2838  35.0522  35.6117
    36.0371  36.2008  37.6491  38.6498  40.5317  40.9497  40.9987  41.4464
    43.1121  44.7687  45.9200  46.6050  47.1643  48.5698  49.2581  49.6250
    50.6409  51.1515  53.5472  53.8841  53.9360  55.5469  56.5934  57.1088
    57.7899  58.9964  59.6141  60.0459  60.7864  61.0434  61.3235  62.2489
    63.4321  64.5157  65.1164  65.6124  66.3150  66.9995  67.3174  69.4145
    70.2268  70.5369  70.9318  71.7180  72.2584  73.0000  74.1309  74.1492
    75.7565  76.0985  76.5428  77.5485  77.6005  78.7626  78.8544  80.1525
    80.1933  80.3927  80.7135  81.7352  82.4121  83.5454  83.8402  84.2779
    85.7632  88.2536  88.3806  88.8126  88.8386  90.7192  91.2900  91.3648
    91.5096  92.3640  93.5446  94.0877  94.3069  95.8073  95.8626  97.1360
    97.3208  97.4783  97.8697  98.0350  98.5516  98.9380  99.8955 100.1809
   100.2305 100.8249 103.1961 103.5059 103.8678 104.1750 104.3072 105.5078
   105.9452 106.3207 106.5009 106.5867 107.5273 108.1848 108.3178 109.3727
   109.4347 110.2443 110.8123 110.8981 111.1874 111.6980 113.3170 115.4135
   115.5088 116.6727 117.2890 117.9147 118.0965 118.7788 118.7860 118.9600
   119.9463 120.3735 120.9048 121.6132 121.7731 121.9968 122.1724 123.2451
   123.5959 123.7034 124.4481 124.5904 125.1865 125.6036 126.0455 126.8737
   127.0994 128.2748 128.6660 129.7382 130.6071 132.3357 132.8969 133.6679
   134.1015 135.0993 135.2280 135.3482 135.4746 136.4550 137.3808 137.6646
   137.8520 138.3344 138.5366 138.5483 139.2736 139.9464 140.4415 140.5099
   140.9252 141.8961 142.0987 142.1610 142.6389 143.5363 143.9011 144.5910
   144.8210 146.4263 147.0233 147.7724 148.0042 148.6912 149.3144 149.8412
   150.1808 150.8833 151.1625 151.2619 151.9431 152.5164 153.1562 153.3485
   153.5322 153.7299 153.8511 154.2917 154.5607 154.9300 154.9641 155.6766
   156.8024 157.5190 158.6428 158.6636 159.2318 160.0206 160.9345 161.0442
   161.4893 161.6927 162.1385 163.4393 163.4587 163.8936 163.9702 164.3826
   164.6115 164.8128 164.8207 165.7256 167.5091 168.0174 168.9423 169.5018
   169.5018 169.8433 169.8640 170.8860 170.9738 171.4233 172.4163 172.8395
   173.3792 174.0088 174.1843 174.1868 175.0206 175.2600 175.4645 175.8064
   176.1608 176.7354 177.1295 177.2328 178.5594 178.7072 179.7187 180.3315
   180.3686 180.3957 181.0228 181.4095 182.4644 182.6075 182.6467 183.0670
   184.0070 184.1729 184.5781 184.7304 184.8731 186.2018 186.5984 187.0740
   187.7748 187.8538 188.0698 188.2803 189.6505 189.8632 190.2191 191.4266
   192.1359 192.2287 192.7898 193.2961 193.3510 194.3035 195.1484 195.2141
   195.5726 196.1034 196.7294 197.5041 197.6581 197.8660 198.6574 198.7699
   198.8654 199.5595 199.6186 200.0341 200.3981 200.6449 201.3101 201.4325
   201.5627 201.6691 202.0352 202.8992 202.9276 204.0690 204.4153 204.5718
   204.7678 205.5438 205.5737 205.7924 206.2173 206.7254 207.1505 208.1593
   208.9363 209.1360 209.2976 209.5656 211.5778 211.5902 212.4496 213.1772
   213.3594 213.8957 214.2340 214.4931 214.5135 214.8682 215.0523 215.7691
   216.0074 216.0447 216.8982 216.9712 217.2367 217.3177 217.5898 217.8472
   218.2722 219.0694 219.6675 219.8331 220.3832 220.4043 220.5770 220.8107
   220.8542 220.8788 221.2550 221.5948 222.0449 224.3380 224.4343 224.4536
   225.2897 226.6875 227.2409 227.2982 228.1116 228.2498 228.3513 229.0999
   229.7684 230.0841 230.1510 230.4517 231.0457 231.1776 231.5602 231.5711
   231.7368 231.8213 232.9443 233.2642 234.1258 234.2231 234.2368 235.1100
   235.1322 235.1747 235.9742 236.0436 236.1056 236.3297 236.6389 236.8397
   236.9768 239.5034 239.7010 239.8622 239.9004 240.2001 240.8860 241.1514
   242.1062 242.4031 242.6424 242.7731 242.9297 243.4443 243.4683 244.2581
   244.6528 245.5099 246.3948 246.4070 246.4143 246.6034 246.9548 246.9820
   247.1009 247.5157 248.0063 248.2927 248.8627 249.3245 250.1829 250.4033
   250.5935 252.7535 253.2268 253.7579 254.0912 254.3786 254.9123 255.1903
   256.4115 256.7059 256.9908 258.3627 259.0024 259.1373 259.6827 260.1724
   260.2554 260.4107 260.5416 260.9907 260.9967 261.2128 261.3322 261.4800
   261.9484 262.1893 262.1976 262.6830 262.8325 262.8461 263.1372 263.3580
   264.7472 264.9172 264.9180 265.1014 265.3036 265.8259 266.1402 266.1588
   266.3701 266.3759 266.9162 267.3620 268.0055 268.0564 268.4182 268.6842
   269.5713 269.7776 269.8075 270.0202 270.4725 270.6945 270.7786 271.6591
   273.2151 273.8409 273.8748 273.9844 274.7107 274.7296 274.7785 275.1628
   275.4935 275.8887 275.8959 276.0366 276.6147 277.4768 278.2046 278.6126
   279.1341 279.2401 279.3692 279.4369 280.3129 280.7707 280.8062 281.1008
   281.5844 282.2879 282.2985 283.6477 284.1540 284.3233 284.4404 284.8110
   284.8147 285.2816 285.3501 285.9901 286.1803 286.2933 286.7973 287.3627
   287.4849 288.9464 289.7302 290.2341 290.2413 290.4934 290.9669 291.2809
   291.3608 291.4749 291.4853 291.5000 291.7967 292.4711 292.6448 292.6955
   292.9175 293.4180 293.5230 294.7794 295.3055 296.0842 296.2822 296.3304
   296.8908 297.5566 298.1813 298.2330 299.1749 299.2022 299.6241 299.8355
   300.2893 300.4298 300.8352 301.2136 301.4895 301.8650 302.5178 302.5623
   302.5685 302.7945 303.8163 303.9863 304.6579 304.7544 305.2979 305.4745
   305.7712 305.8894 306.4972 306.8949 306.9642 307.6673 307.9699 308.6899
   309.0629 309.1849 309.2613 309.5511 310.3491 310.3862 310.6120 310.6923
   311.0929 311.4464 312.1306 312.1558 312.2285 312.3596 313.0125 313.0937
   313.1851 313.4054 313.8385 313.9359 314.3787 314.7355 315.5766 315.7464
   316.5527 316.6641 316.8910 316.9228 318.0152 318.7065 318.9788 319.1231
   319.7326 319.7556 319.9316 320.1230 320.2889 320.7858 321.3210 322.0613
   322.8957 322.9649 323.3986 323.8541 324.0274 324.3721 324.9190 325.0155
   325.9503 326.3397 326.3895 326.4467 326.4510 326.6004 326.6104 326.9647
   327.6971 328.5153 328.6757 329.1750 329.4154 329.6635 330.0500 330.4230
   330.9133 330.9548 331.3124 331.3565 331.5218 332.0993 332.2727 333.0404
   333.8932 334.3705 335.7426 336.0260 336.6978 337.0992 337.1196 337.3078
   337.6511 338.3527 339.0854 339.1742 339.4213 339.4431 339.6632 340.1988
   340.4490 340.4929 340.5207 340.7021 340.7552 340.9103 341.5538 341.7580
   342.4143 342.8868 343.4384 343.9107 344.2890 344.6889 344.9821 345.1658
   345.3147 345.3328 345.9548 346.2384 346.2830 346.6657 347.2342 347.4405
   347.6208 347.8798 347.9861 348.1845 348.8335 349.1460 349.1951 349.2044
   349.2126 349.4768 350.3079 351.3561 351.5088 351.6603 351.7199 353.1026
   353.6074 353.7459 353.8791 354.0442 354.1347 354.1839 354.9655 355.4209
   355.5291 355.6529 355.8136 356.2273 356.2320 356.4098 356.6407 356.9042
   356.9492 357.0846 358.0832 358.1666 358.6376 358.6879 358.7760 358.7981
   358.8829 358.9939 359.1184 359.3379 359.3709 359.4463 359.4562 359.8235
   361.1433 361.1589 364.0124 364.3094 366.4427 366.7537 366.7551 366.9846
   367.0540 367.0609 367.2912 367.3411 367.3577 367.8273 367.9363 367.9656
   368.0841 368.2361 369.1834 369.1870 369.8016 370.1113 370.1701 370.4587
   370.5178 370.8742 371.0502 371.0679 371.7237 371.7765 372.4410 372.4614
   372.9884 373.5999 374.2363 374.6279 374.6280 375.2077 375.3665 375.5453
   375.8356 377.6544 377.8021 378.6913 379.0146 379.2932 379.6283 379.6692
   379.8842 380.0102 380.0845 380.7047 380.9934 381.3017 381.4232 381.4267
   381.4762 381.5819 381.7669 382.0554 382.2700 382.5379 383.0229 384.3086
   384.3470 384.7906 385.0753 385.2571 385.3235 385.3468 385.3761 386.1923
   386.5047 386.6482 386.8688 386.9986 387.0348 388.4152 388.6226 388.8822
   388.9812 389.7071 389.9835 390.0083 390.0220 391.0405 391.0843 391.0926
   391.4667 391.7682 392.4329 392.6436 392.7799 393.7462 394.1956 394.2388
   394.3987 395.5637 395.6483 395.8030 395.8281 395.9671 395.9727 396.5577
   396.6689 396.7658 397.3686 397.8513 397.8748 398.0959 398.2306 399.2698
   399.5783 399.8590 399.9359 400.0388 400.0636 400.5810 400.6665 401.3082
   401.5733 401.6061 401.6701 401.6755 401.9365 401.9536 402.0464 402.1702
   402.9847 403.0009 404.4031 404.8542 404.8785 405.1830 405.2124 406.8406
   407.1865 407.4683 407.8319 408.1147 408.4675 408.7375 408.8900 409.6512
   409.7295 410.1810 410.5233 410.5730 410.8406 411.6783 411.7468 412.1651
   412.1708 412.2462 412.8394 413.8608 414.3792 414.8021 415.1058 415.1570
   415.1823 415.1877 415.2611 415.2979 415.3015 415.3560 415.5159 417.6588
   417.7578 417.9347 418.3234 418.6955 419.3375 419.4284 419.5772 419.8427
   420.6452 420.8534 421.0984 421.2470 421.4045 421.4680 421.7761 422.4127
   422.8480 423.3634 423.7209 424.2606 424.2806 424.7892 424.8413 425.0661
   425.2525 425.3643 425.6668 425.9711 426.1250 426.4339 427.1719 427.2068
   427.2142 427.2719 427.3585 427.5927 427.6066 427.8657 428.1060 428.2334
   428.5433 428.9240 429.3540 429.4489 429.8973 430.1249 430.3588 430.9029
   431.2341 431.2967 431.4243 431.5983 431.6719 432.2235 432.2629 433.4183
   433.9861 434.6576 435.1192 435.1426 435.7281 437.1791 437.4577 437.7222
   438.1107 438.1189 438.2662 438.4169 438.4454 438.8194 438.8412 439.2649
   439.3628 439.3889 439.8343 440.0055 440.1100 440.5323 440.7528 440.8303
   441.0727 441.2041 441.2196 441.3629 441.3713 441.6359 441.8750 442.0094
   442.0847 442.1478 442.2838 442.3366 442.3404 442.8152 443.6546 443.8094
   443.8899 444.0724 444.3193 444.8578 445.1166 445.3805 445.3840 446.2743
   446.8683 447.0936 447.1777 448.5863 448.9110 448.9757 448.9835 450.0507
   450.5703 450.5862 451.1132 451.4155 451.5496 451.7385 451.7744 452.3138
   452.4090 455.2050 455.2576 455.2686 455.3160 455.5465 455.5819 455.6076
   455.6220 457.0417 457.2038 457.2053 457.5130 458.3164 458.4858 458.6189
   458.8055 458.8992 458.9549 458.9597 459.1196 459.1489 459.1764 459.3080
   459.4267 459.5280 459.8351 459.9389 460.4348 460.5708 460.7955 461.3931
   462.0701 462.1185 462.5870 463.0435 463.1285 463.1942 463.2977 463.6024
   464.0789 464.3523 464.3849 464.4465 464.4617 465.0042 465.8461 466.0009
   466.0542 466.3370 466.7139 467.4883 467.6646 467.7409 467.8471 468.1832
   468.5088 469.0812 469.4481 469.4715 469.5341 470.8417 471.2423 471.3396
   471.7147 471.7888 471.8504 472.7219 473.0803 473.1628 473.1658 473.2871
   473.6741 474.9844 474.9911 475.0680 475.0772 475.3351 475.7863 476.5569
   476.8330 476.8521 476.8612 476.9303 476.9459 477.3293 477.3922 478.9259
   478.9507 479.2669 479.7428 479.7644 480.0704 480.3609 480.7168 480.7895
   481.2453 481.7012 481.8488 481.8509 481.8658 482.2164 482.2424 482.2490
   482.3959 484.0484 484.1414 486.0931 486.2181 486.5855 486.6292 486.7067
   486.8193 486.8445 486.9413 487.0918 487.2509 487.7444 487.8519 488.3413
   489.2610 489.2971 489.5944 489.7231 490.0158 490.0726 490.5356 490.5715
   490.6335 491.1908 491.5518 491.8369 492.1037 492.1632 492.3984 492.4422
   492.9476 493.2591 493.3738 493.6123 493.7771 493.7833 494.1700 494.1723
   494.6853 495.4770 495.5703 496.1106 496.1592 496.3290 496.5416 496.6890
   496.7100 497.3623 497.4199 497.5571 497.6484 497.6813 497.6851 497.6857

          k = 0.0000-1.0000 0.0000 (  3892 PWs)   bands (ev):

   -33.2751 -14.3818 -14.3105 -14.3105  -4.7107   3.7097   5.1747   5.1747
     8.3566  11.5621  11.9898  12.7065  12.7156  12.7156  16.2981  17.7444
    19.8619  19.8619  20.3677  20.3677  23.0455  23.7645  25.2721  27.5803
    29.1538  29.4242  29.4242  29.5147  30.6317  32.8426  32.8426  34.5915
    34.5915  35.0109  38.8901  40.4781  40.5696  41.8626  41.8626  42.8894
    44.5826  44.5826  45.8809  46.5696  47.7886  48.7225  48.7225  50.0093
    50.0093  52.3656  53.9876  55.5011  55.6093  55.6093  56.2679  56.3795
    57.5965  59.9044  60.0225  61.1236  61.3938  62.9462  62.9462  63.9826
    63.9826  64.1924  64.1924  64.4458  65.4901  65.5213  66.3946  66.3946
    67.2354  71.7333  72.6571  73.2334  73.2334  73.5212  74.9040  74.9040
    76.2419  76.5490  76.5490  76.9274  77.1131  77.1131  77.6258  78.0995
    78.5449  78.5449  78.5724  80.9259  82.4005  83.9394  83.9394  84.4348
    84.5224  85.0066  85.0066  89.4462  90.2012  90.6854  90.6854  90.8349
    91.9196  91.9196  92.8093  94.6052  95.0658  95.4503  96.0427  96.4622
    96.5825  96.5825  96.6967  96.6967  97.2984  99.0927  99.6534  99.6534
    99.7112 101.1548 102.5892 102.5892 103.0217 103.7074 103.8156 103.8156
   107.3848 107.5467 107.6366 108.1929 108.1929 109.7969 109.7969 110.5711
   111.7891 111.9238 112.1292 115.6184 116.8111 117.5077 117.5716 117.5716
   117.6989 118.0218 118.0218 119.4698 119.4698 119.4785 119.6173 119.6173
   120.8351 120.9055 122.2238 122.7049 124.4149 124.4149 124.4518 124.7132
   124.7132 124.8568 127.2342 127.6205 127.6205 127.6567 127.6888 128.0892
   128.0892 128.1255 128.5737 128.8503 130.7090 130.7416 130.7416 131.1775
   131.1878 131.2247 131.2247 131.9335 131.9335 132.3560 132.4612 132.7156
   136.2830 136.5543 136.5543 136.8408 136.8559 136.8559 137.1058 137.2769
   137.7102 139.2946 141.2567 141.2567 141.6595 141.7405 141.7405 143.8459
   145.8778 145.8778 146.7052 146.7052 147.3655 147.5010 147.5899 147.9178
   148.1720 148.1720 150.1238 150.6373 150.6373 150.9975 151.0041 151.0041
   151.0723 151.1441 151.4974 152.1444 152.9388 152.9578 153.0296 153.0296
   154.5113 155.2446 155.2446 157.1426 158.7128 158.7128 162.7989 164.2482
   164.5882 164.5973 164.5973 167.5676 167.7333 167.7623 167.8840 168.3674
   169.3667 169.3667 169.4466 169.4466 170.3256 170.3256 170.9804 170.9804
   171.7135 172.1739 172.1739 172.3088 172.3088 172.4519 172.7303 174.0235
   174.7364 175.0522 176.8325 176.8325 176.9987 177.0082 177.4693 177.4693
   177.9226 178.1001 178.3880 179.2073 179.2073 179.2189 180.7172 180.7172
   181.1448 181.5784 182.1896 182.2270 182.5022 182.5022 183.1621 183.1621
   183.2671 183.9114 184.4719 184.4719 184.7689 186.8674 187.8961 187.8961
   187.8982 188.3572 188.4294 188.8136 188.8136 188.9685 189.5095 190.5110
   192.3067 192.3067 192.4713 192.7418 192.7418 192.9821 193.0376 194.6889
   195.0147 195.6663 195.6663 197.5734 198.3789 198.3789 198.4171 198.5254
   198.5697 199.0615 199.0615 199.3446 199.6801 199.8802 200.5294 200.5294
   201.4093 201.4093 201.5478 201.5478 201.6223 202.0730 204.8327 204.9012
   204.9413 204.9660 205.4137 205.4137 205.4460 205.4460 205.6399 205.8466
   205.8812 208.4351 208.4351 208.7970 209.5157 209.6648 209.9222 211.5142
   211.5142 211.9064 211.9064 211.9950 213.3490 213.3620 214.9796 214.9796
   216.4024 216.4024 217.6775 218.5072 218.9686 219.1724 219.1724 219.4725
   220.0669 220.0669 221.0298 221.2620 221.3041 221.3041 221.3374 221.3374
   221.5861 221.7684 221.8198 222.5054 223.6152 223.6152 223.7782 225.0962
   225.9665 227.1031 227.1316 227.2032 227.2111 227.2111 227.2975 227.2975
   227.3893 227.7841 228.3437 228.3437 228.6344 228.8700 228.9966 228.9966
   232.6798 232.6798 233.2841 233.6060 235.6053 235.6490 235.6490 236.1832
   236.1832 237.0960 237.4337 237.5219 237.5219 237.5641 237.8874 238.0521
   239.5081 239.5081 240.7971 241.1781 241.1781 242.0073 242.0515 242.3200
   242.5500 242.5500 242.7452 242.7984 242.8313 243.6318 243.6318 243.9585
   244.0975 244.0975 244.1181 244.1294 244.1294 244.1408 244.2792 244.7020
   245.0782 245.0782 245.0830 245.0995 247.6832 247.9203 247.9203 248.0271
   248.5030 248.5030 248.5141 248.5242 248.5242 248.5434 251.8905 252.0602
   252.8134 252.8134 253.7556 254.6120 254.7275 257.2717 258.4066 258.4481
   258.5467 258.9235 258.9235 258.9870 259.1716 259.2184 259.4870 259.4870
   259.5441 259.5441 260.3901 260.3901 260.5591 261.5093 262.6883 262.6883
   264.7140 265.5610 265.5610 266.2944 266.2944 267.7316 268.8382 269.3303
   271.0710 271.4615 272.1232 272.1232 272.8587 273.0568 273.5159 273.5159
   274.0403 274.0582 274.0582 274.4531 275.6271 276.5705 276.5705 276.6825
   277.1584 277.7660 278.1873 278.3645 278.4931 278.4931 278.5347 278.6610
   278.9850 278.9850 279.4711 279.7627 279.7627 280.0205 280.2124 280.5543
   280.6734 280.6734 280.8288 280.8852 280.8852 281.0239 281.6278 281.8396
   282.0608 282.0608 284.6963 284.7280 284.8572 284.8572 284.9964 284.9964
   285.2872 285.3195 288.3476 288.3476 288.5065 289.2172 290.1264 290.1264
   291.5842 291.7110 291.8521 291.8521 292.2537 292.7659 293.2440 293.6468
   293.6807 293.6807 294.1676 294.2226 294.4137 294.4137 294.5510 294.5510
   294.7048 294.9580 294.9797 295.5164 295.5164 296.1021 296.3133 296.3186
   296.3298 296.4140 296.4140 296.9415 296.9415 297.2041 297.2041 297.5313
   297.9448 297.9698 297.9698 297.9937 298.0026 298.2754 299.5209 299.5209
   299.6226 299.6226 302.2312 303.8102 303.8279 303.8279 303.8914 303.8930
   303.9231 303.9231 303.9770 305.8397 305.8397 306.3770 306.3774 306.8318
   306.9581 307.4296 308.2349 308.2349 309.9454 309.9454 310.0832 310.4296
   310.5175 310.6405 310.6408 310.6408 312.3057 312.3057 313.0892 313.5631
   313.9732 314.4704 314.4704 314.9198 316.0992 316.0992 316.2135 316.2420
   316.3548 316.3548 316.3869 316.3921 316.5484 316.5484 316.7304 316.7538
   317.7034 317.7034 317.7156 317.7346 318.9926 319.2457 319.7907 319.7907
   319.8572 319.8591 319.8608 319.8608 319.9263 319.9263 320.0802 320.0899
   320.7149 322.7668 325.6050 327.0745 327.1574 327.1574 327.4033 327.7366
   327.7366 328.5533 328.5533 328.6461 328.8348 328.8348 329.1627 329.4279
   329.5965 329.5965 330.0145 333.8361 333.9243 334.1515 334.1515 334.2822
   334.3968 334.8760 334.8760 335.1018 335.1018 335.3062 336.0708 336.0757
   336.1293 336.1304 336.1362 336.1362 336.2321 336.2949 336.2949 336.4008
   337.9169 337.9247 337.9247 337.9360 338.5782 338.5812 340.1562 340.6294
   340.6294 341.4018 341.4018 341.4301 341.4301 342.7740 342.7744 343.0936
   343.0979 343.0979 343.6956 344.0800 346.5929 346.7912 347.8543 347.8543
   348.3490 348.8108 349.3197 349.3197 349.3968 349.4177 349.9650 350.1354
   350.1354 350.4254 350.9291 351.1476 351.1476 351.3187 352.2040 352.2040
   352.2535 352.6703 352.7845 353.0704 353.0704 353.2060 353.2179 353.2451
   353.2627 353.2627 353.2846 353.4380 353.4380 353.5796 353.6947 355.9564
   355.9564 356.6479 357.5622 357.5720 357.5720 357.6037 357.7384 358.2166
   358.2166 358.3051 359.8634 361.5378 361.8632 361.8632 362.2067 363.0428
   363.3546 363.3546 365.7485 365.7485 366.5706 366.5706 366.8457 366.9919
   367.8266 367.8844 367.8844 367.9641 368.2087 368.2909 368.8435 368.8435
   369.5282 369.5723 369.6151 369.6151 370.8120 371.3967 371.9015 371.9015
   372.6014 372.9047 373.1241 373.2104 373.2104 373.2563 373.7660 373.7893
   373.7893 373.8239 375.5458 376.0296 376.0296 376.1000 376.7407 376.9781
   376.9781 377.7189 378.0951 378.1436 378.1436 378.1846 378.3995 378.3995
   381.6480 381.7171 381.7327 383.6777 383.6777 384.2708 384.3782 384.7199
   384.7705 384.7705 384.9843 384.9843 386.1829 386.2143 386.2385 386.2385
   386.3631 387.2958 387.7224 387.9513 387.9513 388.0906 388.9930 388.9930
   389.2375 389.2375 390.1449 390.1584 390.8005 390.8014 394.5197 394.9137
   394.9137 394.9930 395.6972 395.7619 395.7619 395.8233 396.1572 396.1993
   396.1993 396.2702 396.4805 396.4805 396.4845 396.4986 398.0189 398.6055
   398.6055 399.6515 400.1859 400.1859 400.2816 400.5762 400.5863 401.2907
   402.6991 402.7131 402.7131 402.8759 403.1325 403.1325 403.2414 403.2744
   403.2744 403.7687 403.7687 404.2707 404.3036 404.4508 404.6975 404.6978
   404.8605 405.1682 405.3238 405.3238 405.4369 405.4572 405.4572 405.6350
   405.6425 405.7908 405.7908 405.9846 405.9846 406.0295 406.1179 406.1870
   406.4376 406.4718 406.4718 406.6293 406.7136 406.7333 406.7333 406.7660
   406.8394 406.8394 407.0526 407.0675 407.0675 407.3074 407.3551 407.3990
   407.5425 407.5425 407.5753 407.6128 407.6128 407.7168 407.9276 407.9764
   407.9764 408.2036 408.7999 408.9307 408.9307 408.9865 412.0029 412.0245
   412.0245 412.1098 412.2104 412.2909 412.2909 412.2925 414.3307 414.3513
   414.5059 414.5059 414.5705 414.5705 414.7775 414.7952 423.9290 424.0339
   424.0339 424.0706 424.1179 424.3343 424.4232 424.5463 424.5918 424.5918
   424.6663 424.6663 424.6774 424.6774 424.7028 424.7200 425.8333 425.8333
   426.1302 426.6832 427.0978 427.2940 427.3971 427.4587 427.4587 427.5635
   427.9297 427.9297 427.9772 427.9772 428.2704 428.3130 428.3797 429.0030
   429.0030 429.1869 429.2111 429.2111 429.2853 429.2911 429.4486 429.4754
   429.4866 429.4866 429.5032 429.7011 429.7011 429.8528 433.8159 435.7540
   436.1312 437.0084 437.0084 437.2106 438.2913 438.2913 438.3972 438.8509
   438.8509 439.4824 439.4945 440.0228 440.2040 440.2040 440.2873 440.3445
   440.3886 440.3886 440.5223 440.7337 441.1016 441.1016 441.4036 441.4297
   441.7365 442.0231 442.0797 442.0797 443.8885 443.8885 444.1463 444.1473
   444.5167 444.5167 444.6157 444.8997 445.3878 445.3878 446.4973 446.7023
   446.7303 448.9082 448.9082 449.1197 449.8752 449.8752 449.8796 449.8858
   449.9180 449.9202 449.9202 449.9369 451.7168 451.7633 451.7737 451.7877
   451.7877 451.8038 451.8038 451.8416 454.7361 454.7361 455.4417 455.5340
   455.8133 455.9424 455.9424 456.7766 458.6701 458.8415 458.8415 458.9046
   460.6728 460.6741 460.8112 460.8112 460.8867 460.8867 461.0341 461.1520
   462.2296 462.2701 462.3606 462.3606 462.4778 462.4778 462.5699 462.5738
   463.3303 463.3303 463.3707 463.6014 463.7376 463.9416 463.9416 464.0536
   464.2427 464.5675 464.5794 464.6010 464.6010 464.6152 464.6152 464.7063
   464.7197 465.0978 465.0978 465.1970 465.2923 465.3217 465.5768 465.5768
   465.8691 465.8691 466.0087 466.0087 466.7496 466.7703 466.7703 466.7921
   472.0106 472.2461 472.2889 472.2889 472.7791 472.7808 473.4549 474.0025
   475.1312 475.1312 476.8643 476.8643 477.6446 477.7557 477.7958 477.9646
   478.1323 478.5428 478.5428 478.6427 478.8350 478.8350 478.9560 479.0484
   479.0484 479.1486 479.4338 479.4450 480.4298 480.7246 480.7246 480.7352
   481.1306 481.1306 481.9113 481.9113 482.5202 482.6634 483.2246 483.2246
   483.2479 483.6830 483.7449 483.7449 483.8423 483.9414 484.0178 484.0686
   484.1604 484.1733 484.1733 484.1892 484.2663 484.2940 484.2940 484.4121
   484.4121 484.4975 489.3335 492.4743 492.7889 492.7889 493.9738 494.0412
   494.3255 494.3541 494.5269 494.5269 494.8668 494.8668 495.0029 495.0029
   495.0505 495.2988 495.4856 495.5605 495.5605 495.7646 495.7646 495.9587
   496.3491 497.2451 497.2499 497.2499 497.4757 497.8425 497.8425 497.8848
   499.6166 499.6481 500.4774 500.5315 500.5315 500.5337 500.5966 500.6118

          k =-0.5000-1.0000 0.0000 (  3852 PWs)   bands (ev):

   -33.2750 -14.3462 -14.3462 -14.3200  -4.5986   4.2061   4.2061   4.4427
    10.7949  10.7949  11.9631  12.3626  12.7237  15.2401  16.0422  16.1764
    16.1764  20.2716  20.5922  20.5922  23.3856  26.0380  27.1272  27.1272
    28.2604  28.3374  28.3374  30.1361  31.0335  32.1846  34.6281  34.6281
    36.1453  36.1453  37.0176  37.4851  37.7661  41.8261  41.8261  44.7749
    45.6151  46.0364  46.4379  46.4379  46.8682  47.0406  51.2267  52.0791
    52.1507  52.1507  52.7671  54.6085  54.6085  55.1028  56.3891  56.3891
    57.0230  58.3246  58.3246  59.6253  61.9650  61.9650  63.2677  63.2677
    63.4043  63.7049  65.0975  65.9238  67.2491  67.5672  67.5672  68.7001
    68.8862  68.8862  69.6325  71.3918  71.6858  74.7532  74.7532  75.1261
    76.2324  76.7092  76.9060  76.9060  78.0994  78.0994  78.7067  78.8124
    80.6023  81.0237  81.0275  81.4415  81.4415  82.5475  82.8327  82.8327
    85.3941  86.0174  86.7865  87.5147  87.5147  87.8502  88.3829  88.3829
    89.0845  91.8952  91.9467  92.1452  92.2272  92.2272  92.5069  95.3301
    95.3301  98.7207  99.1818  99.2669  99.2758  99.2758 103.1490 103.5101
   103.5101 104.7548 105.4154 105.4154 105.7342 106.0797 106.0797 106.4083
   107.0232 108.7513 108.7513 109.2153 109.7759 109.7759 110.4158 110.4158
   110.7275 111.4853 111.9453 113.5029 114.1309 114.1309 115.4745 115.6426
   115.6697 116.6164 117.2716 117.2716 118.9297 119.1915 119.1915 119.5195
   119.5384 119.8628 121.0315 121.8012 121.8012 122.0780 123.5623 123.5623
   124.0274 124.0899 124.0899 124.3959 125.3734 125.4633 125.6379 127.4813
   127.4813 128.0060 128.6284 129.4732 129.4732 130.1793 130.6795 132.3632
   132.3632 133.3229 134.0959 134.5505 134.5505 134.6408 135.7993 135.7993
   136.7534 137.3176 138.0769 138.8762 138.8762 138.8770 138.9588 139.6095
   140.3646 140.3646 140.4080 141.2565 141.2565 141.3776 141.4142 141.6171
   141.6171 142.5093 145.1727 145.1727 146.5948 147.4117 147.9979 147.9979
   148.2196 149.2002 149.2002 151.1903 151.2977 151.8727 152.5017 152.5017
   153.2837 154.5859 155.0481 155.0481 156.6786 156.6786 156.7027 157.8065
   158.0011 158.0011 158.0671 158.7068 159.8477 159.8477 159.8620 160.5816
   162.1229 162.1676 162.7677 162.7677 163.0786 164.4361 164.4361 165.2417
   165.3488 166.0336 166.0336 167.3639 167.6168 168.3742 168.8220 169.1584
   169.1584 170.7913 170.7913 170.8600 170.9914 172.2604 172.4035 172.4035
   172.4305 172.8211 172.9353 173.5687 173.9621 173.9621 175.6260 176.4175
   176.5717 179.7915 179.7915 180.1080 180.1080 180.7313 180.9126 180.9932
   180.9932 181.4365 181.4365 181.6112 183.7111 183.7111 183.8347 184.3274
   185.0674 185.3035 185.7287 186.8447 186.8447 189.3583 189.6347 189.6347
   191.5605 192.4017 192.4978 192.4978 192.7843 192.8018 194.1981 194.6740
   194.8068 194.8157 194.8157 195.1924 195.3829 195.5675 195.5675 195.6153
   195.7439 195.7439 196.7151 196.8433 196.8433 197.3105 197.8425 197.8425
   198.3141 198.6006 198.6006 200.4061 200.5586 201.0605 201.0605 201.2079
   201.2956 202.0995 202.1357 202.1586 202.1586 202.5401 202.7457 203.0016
   203.0016 203.3304 203.3562 203.3562 204.2939 207.1798 207.1798 207.8856
   208.8345 208.9373 208.9373 210.7593 211.4850 211.9465 211.9465 212.0073
   212.4181 212.4181 212.4832 212.7405 213.0353 213.2436 213.2905 213.2905
   213.7093 213.9655 213.9655 215.0864 215.8840 215.8840 216.9060 216.9060
   216.9468 217.0591 217.2502 217.2855 218.3660 218.4731 218.5711 218.5711
   220.8100 220.8100 221.7576 222.2892 222.4861 222.4861 222.5596 222.7972
   225.6699 226.1004 226.1004 226.5510 226.8229 227.3361 227.3997 227.3997
   227.9738 228.2051 228.7065 228.7065 228.7362 228.9384 229.5993 229.8305
   229.8305 229.9884 230.9478 230.9478 231.8497 233.1056 233.1056 234.0645
   234.1825 234.3503 235.4411 235.4411 236.0803 237.2975 237.2975 237.7302
   237.8096 237.8096 237.8867 239.0222 239.1033 240.0449 242.5402 242.5402
   243.6535 243.6535 244.5733 245.6551 246.0665 247.0420 247.1380 247.1380
   247.6718 248.0078 248.6590 248.6590 248.7790 248.9788 249.0566 249.1980
   249.5332 249.5332 249.9470 250.0067 250.0549 250.0549 250.7691 250.7827
   250.7827 250.9640 251.2456 251.3166 251.3463 251.3563 251.3563 251.8385
   251.8385 253.0931 255.7069 255.7566 257.2581 257.2581 257.7018 258.6119
   258.8385 258.8385 260.6121 261.1788 261.1788 261.8583 261.9939 261.9939
   262.5117 263.2331 263.3563 263.3563 263.8545 264.0384 264.0384 264.2429
   264.4066 265.4287 265.8958 265.8958 265.9299 267.0656 267.0908 267.0908
   267.8748 267.8953 267.8953 268.2393 268.3923 269.5640 270.0541 270.0541
   270.1879 270.4841 270.4841 270.6269 272.0295 272.0295 272.2667 272.6459
   272.6764 272.8242 272.8242 273.3019 273.5617 274.2322 274.3386 274.3386
   275.3396 275.3784 275.3784 275.7082 275.7082 275.7220 275.9553 276.2573
   276.6969 278.2304 278.2304 278.5206 280.8250 280.8250 281.9252 281.9589
   285.8966 285.9483 285.9483 286.5624 286.6496 286.7944 287.2987 287.2987
   289.5573 289.8226 289.8226 290.2139 290.6365 290.7825 290.8782 291.0223
   291.0223 291.3238 291.8284 291.8284 292.5066 292.5066 293.1336 293.1336
   293.2099 293.7169 294.0306 294.2897 294.8047 294.8086 294.8328 294.8328
   295.8558 295.8558 296.1309 296.2940 296.3226 296.3226 296.3925 296.9966
   297.7993 297.7993 297.9598 298.1126 298.4961 298.5309 298.5309 299.6678
   302.1004 302.1188 302.1801 302.1801 303.8953 304.4616 304.4616 304.7002
   304.7882 305.0076 305.0076 305.0240 305.0369 305.1016 305.2932 305.2932
   305.4725 305.6405 305.8108 305.8108 306.3228 306.8132 306.8132 306.9626
   307.0511 307.1840 307.2079 307.2079 308.4818 308.6285 308.6285 308.9589
   309.9892 310.0049 310.0131 310.0131 310.6646 310.7056 311.2344 311.2344
   311.3693 311.6082 312.2555 312.2555 313.2289 313.5412 313.6169 313.6169
   313.8573 315.2576 316.0571 316.0571 316.7712 316.7986 319.0521 319.2153
   319.2153 319.2832 320.0711 320.0711 320.5720 320.6346 320.6359 321.5503
   321.5503 322.7360 322.8024 322.8024 323.0141 323.4561 324.1058 324.1058
   324.1425 324.2813 324.3419 324.3419 324.7293 324.7846 325.2213 326.1160
   326.1211 326.2020 326.2020 326.8150 326.8509 326.8509 327.7484 328.4851
   328.4851 328.9972 329.7570 330.1241 330.5062 330.5062 332.2648 332.2648
   332.2758 332.4643 332.6961 332.6961 332.7472 332.9539 333.9595 334.0101
   334.0364 334.0364 334.1631 334.1921 334.1921 334.4293 335.5901 335.5901
   337.0024 337.0024 337.1404 337.1448 338.8904 339.1336 339.1336 340.0765
   341.4293 341.4293 342.1546 342.1762 342.3231 342.3787 342.3787 343.1332
   343.2438 343.2605 343.2605 343.4286 343.6765 343.7077 343.7301 343.7301
   345.0510 346.1147 346.1147 347.3162 347.4476 347.5057 347.5057 347.8917
   349.9155 350.0837 350.1346 350.2249 350.2249 350.5578 350.5578 351.8883
   353.2394 353.5508 353.5508 353.6842 354.8686 354.8686 355.1443 355.1443
   355.6068 355.7644 355.7827 355.8944 356.1172 356.1191 356.1398 356.1398
   357.2239 358.6456 359.0612 359.0836 359.0836 359.9260 360.0306 360.0306
   363.5217 363.5217 363.8059 364.0473 364.1537 364.2352 365.6046 365.6046
   365.7238 365.7238 366.2131 366.2817 366.4893 366.4893 366.5637 367.1702
   367.6242 367.8145 367.8971 367.8971 368.8287 369.0869 369.0869 369.5957
   370.1762 370.2618 370.3474 370.3474 375.3265 376.1412 376.1412 376.4753
   376.4898 376.9083 376.9083 376.9127 377.5833 377.5833 377.5834 377.6971
   377.7618 377.8356 377.8356 378.0070 378.1133 378.6341 378.6341 378.9940
   379.7833 379.8462 379.8462 379.9032 380.0961 380.9817 381.7208 381.7208
   381.9635 382.3978 383.2041 383.2041 384.3197 384.5979 384.9958 384.9958
   385.7463 385.8191 385.8557 385.8557 386.6152 386.8867 386.9654 387.2007
   387.2979 387.2979 387.6252 387.6252 387.7316 387.7727 387.7727 388.0264
   388.3204 388.3501 388.3972 388.3972 388.6626 388.6641 388.6838 388.6848
   388.6848 388.7892 388.7892 388.8357 389.2631 389.2631 389.3023 389.3417
   389.5293 389.6578 389.6578 389.7813 392.2753 392.3644 392.3644 392.3840
   395.5035 395.5035 395.5778 395.7100 395.7691 396.0744 396.0744 396.1391
   396.4784 397.2315 397.3692 397.3883 397.3883 397.5454 397.7064 397.7794
   397.7794 398.0214 398.3538 398.4039 398.4039 398.7252 399.2227 399.3654
   399.3987 399.4336 399.4336 399.4366 399.5079 399.5079 401.3081 401.7368
   401.7368 402.4436 402.6182 402.8528 403.0721 403.0857 403.0857 403.8449
   404.0173 404.0173 406.8847 406.8847 407.9387 408.1168 410.9926 410.9926
   411.2649 411.3639 411.4256 411.4256 411.9561 412.5364 412.5489 412.5489
   413.1800 413.2479 414.2623 414.6578 414.6933 414.6933 415.4917 415.5288
   415.5288 415.5538 416.1438 416.1867 416.2505 416.2505 416.7059 416.7329
   416.7329 416.8555 416.8712 417.0842 417.0842 417.2252 417.7942 417.8095
   417.8998 417.9214 417.9338 417.9338 417.9711 417.9711 418.6812 418.6812
   420.5133 420.7283 420.8690 420.8690 423.8066 424.0159 424.2467 424.2467
   424.2715 424.3724 424.3724 424.6769 427.5802 427.5802 428.3109 428.4204
   429.0800 429.0830 429.0830 429.1755 429.2466 429.2466 429.7947 430.2634
   431.2744 431.3930 431.3930 431.6610 431.8737 432.0182 432.0182 432.1982
   433.3826 433.3826 433.7518 433.8086 433.9455 434.0969 434.0969 434.2358
   434.9030 435.0904 435.0904 435.0927 435.2032 435.2177 435.3319 435.3319
   437.4873 437.4873 437.5734 437.6645 438.4785 438.4785 438.6203 438.7778
   438.7870 438.7870 438.8966 438.9288 438.9647 439.2203 439.4488 439.4488
   439.7473 439.9534 440.3094 440.3094 441.7024 441.9159 441.9159 442.1987
   442.6881 442.7001 443.1627 443.2788 443.2788 443.3159 443.3963 443.3963
   443.6452 443.7900 443.7923 443.8574 443.8574 443.8829 443.9236 443.9236
   443.9672 444.2252 444.2252 444.2356 444.2486 444.2515 444.2808 444.2808
   444.4099 444.4833 444.4833 444.4991 444.5545 445.3753 445.7930 445.7930
   450.3686 450.4025 450.7707 450.7707 454.9684 455.0044 455.0044 455.0292
   455.0380 455.0472 455.0591 455.0591 457.0355 457.4193 457.4193 457.5319
   459.0673 459.1006 459.6383 459.6383 460.0009 460.0009 460.0668 460.8999
   461.9604 462.0062 462.0062 462.1316 462.2143 462.3457 462.3789 462.3789
   462.6335 462.6335 462.7009 462.7451 463.1184 463.1184 463.2467 463.3104
   464.5518 464.6504 464.6619 464.6619 466.5063 466.6009 466.6009 466.9491
   467.5349 467.6812 467.7640 467.7640 467.7883 468.2027 468.2027 468.3559
   469.9163 470.1025 470.1025 470.5265 470.7086 470.7105 470.7883 470.7883
   471.0332 471.0429 471.3913 471.3913 471.6463 471.6463 471.6577 471.6852
   472.4584 472.4584 472.4772 472.4956 472.5809 472.5967 472.5967 472.6563
   473.9092 474.2591 474.4517 474.4517 476.2336 476.2444 476.2658 476.2658
   479.1073 479.3305 479.3305 479.8756 479.9307 480.0006 480.0155 480.0918
   480.0918 480.1248 480.1924 480.1924 481.6297 481.6427 481.6427 481.6598
   481.8410 481.9561 481.9561 482.0484 482.6039 483.3679 483.7281 483.7281
   483.7393 483.8122 484.0227 484.0227 490.0930 490.0930 490.1187 490.1743
   490.2527 490.2655 490.2655 490.2694 490.3133 490.6483 490.6985 491.3685
   491.4871 491.4871 493.5873 493.5873 493.6987 493.8769 493.9075 493.9075
   493.9095 494.5406 494.5504 494.5938 494.6073 494.6073 494.7393 495.0306
   495.7475 495.7475 495.8149 496.4933 496.5335 496.5335 496.7087 496.9794
   496.9794 497.2405 497.3771 497.7990 497.7990 497.8835 498.9249 498.9249

     the Fermi energy is     6.2828 ev
     (compare with:     7.6065 eV, computed in scf)

     Writing all to output data dir out/mp-1672.save/
 
     init_run     :      0.07s CPU      0.09s WALL (       1 calls)
     electrons    :    974.35s CPU   1050.65s WALL (       1 calls)

     Called by init_run:
     wfcinit      :      0.00s CPU      0.00s WALL (       1 calls)
     potinit      :      0.01s CPU      0.02s WALL (       1 calls)
     hinit0       :      0.02s CPU      0.04s WALL (       1 calls)

     Called by electrons:
     c_bands      :    974.35s CPU   1050.64s WALL (       1 calls)
     v_of_rho     :      0.01s CPU      0.01s WALL (       1 calls)

     Called by c_bands:
     init_us_2    :      0.00s CPU      0.00s WALL (       8 calls)
     init_us_2:cp :      0.00s CPU      0.00s WALL (       8 calls)
     cegterg      :    953.61s CPU   1028.69s WALL (       8 calls)

     Called by *egterg:
     cdiaghg      :    892.07s CPU    965.99s WALL (      88 calls)
     h_psi        :     17.42s CPU     17.94s WALL (      96 calls)
     g_psi        :      0.12s CPU      0.12s WALL (      80 calls)

     Called by h_psi:
     h_psi:calbec :      0.27s CPU      0.29s WALL (      96 calls)
     vloc_psi     :     16.85s CPU     17.34s WALL (      96 calls)
     add_vuspsi   :      0.20s CPU      0.20s WALL (      96 calls)

     General routines
     calbec       :      0.27s CPU      0.29s WALL (      96 calls)
     fft          :      0.01s CPU      0.03s WALL (      10 calls)
     fftw         :     15.26s CPU     15.69s WALL (  121078 calls)
 
     Parallel routines
 
     PWSCF        :  16m15.26s CPU  17m32.22s WALL

 
   This run was terminated on:  13:40:24  19Nov2023            

=------------------------------------------------------------------------------=
   JOB DONE.
=------------------------------------------------------------------------------=
