
     Program PWSCF v.7.1 starts on 18Nov2023 at 22: 3: 6 

     This program is part of the open-source Quantum ESPRESSO suite
     for quantum simulation of materials; please cite
         "P. Giannozzi et al., J. Phys.:Condens. Matter 21 395502 (2009);
         "P. Giannozzi et al., J. Phys.:Condens. Matter 29 465901 (2017);
         "P. Giannozzi et al., J. Chem. Phys. 152 154105 (2020);
          URL http://www.quantum-espresso.org", 
     in publications or presentations arising from this work. More details at
     http://www.quantum-espresso.org/quote

     Parallel version (MPI), running on    24 processors

     MPI processes distributed on     1 nodes
     123649 MiB available memory on the printing compute node when the environment starts
 
     Reading input from aiida_scf.in

     Current dimensions of program PWSCF are:
     Max number of different atomic species (ntypx) = 10
     Max number of k-points (npk) =  40000
     Max angular momentum in pseudopotentials (lmaxx) =  4
     Message from routine setup:
     using ibrav=0 with symmetry is DISCOURAGED, use correct ibrav instead
 
     R & G space division:  proc/nbgrp/npool/nimage =      24
     Subspace diagonalization in iterative solution of the eigenvalue problem:
     a serial algorithm will be used

 
     Parallelization info
     --------------------
     sticks:   dense  smooth     PW     G-vecs:    dense   smooth      PW
     Min          24      24      6                 1454     1454     225
     Max          25      25      8                 1469     1469     241
     Sum         583     583    169                35075    35075    5677
 
     Using Slab Decomposition
 


     bravais-lattice index     =            0
     lattice parameter (alat)  =       4.7478  a.u.
     unit-cell volume          =     284.3249 (a.u.)^3
     number of atoms/cell      =            4
     number of atomic types    =            2
     number of electrons       =        16.00
     number of Kohn-Sham states=           40
     kinetic-energy cutoff     =      94.0000  Ry
     charge density cutoff     =     376.0000  Ry
     scf convergence threshold =      1.0E-07
     mixing beta               =       0.6000
     number of iterations used =            8  plain     mixing
     Exchange-correlation= PBE
                           (   1   4   3   4   0   0   0)

     celldm(1)=   4.747801  celldm(2)=   0.000000  celldm(3)=   0.000000
     celldm(4)=   0.000000  celldm(5)=   0.000000  celldm(6)=   0.000000

     crystal axes: (cart. coord. in units of alat)
               a(1) = (   1.000000   0.000000   0.000000 )  
               a(2) = (  -0.500000   0.866025   0.000000 )  
               a(3) = (   0.000000   0.000000   3.067656 )  

     reciprocal axes: (cart. coord. in units 2 pi/alat)
               b(1) = (  1.000000  0.577350  0.000000 )  
               b(2) = (  0.000000  1.154701  0.000000 )  
               b(3) = (  0.000000  0.000000  0.325982 )  


     PseudoPot. # 1 for B  read from file:
     /usr/scratch4/magr4985/MG/HTDF/ref/mp-984_SG15_1/B_ONCV_PBE-1.0.upf
     MD5 check sum: f05edf8c971e04823dee017857963640
     Pseudo is Norm-conserving, Zval =  3.0
     Generated using ONCVPSP code by D. R. Hamann
     Using radial grid of  602 points,  4 beta functions with: 
                l(1) =   0
                l(2) =   0
                l(3) =   1
                l(4) =   1

     PseudoPot. # 2 for N  read from file:
     /usr/scratch4/magr4985/MG/HTDF/ref/mp-984_SG15_1/N_ONCV_PBE-1.0.upf
     MD5 check sum: c6a64d3c2a7834d2aaeab55701bfabdb
     Pseudo is Norm-conserving, Zval =  5.0
     Generated using ONCVPSP code by D. R. Hamann
     Using radial grid of  602 points,  4 beta functions with: 
                l(1) =   0
                l(2) =   0
                l(3) =   1
                l(4) =   1

     atomic species   valence    mass     pseudopotential
        B              3.00    10.81000     B ( 1.00)
        N              5.00    14.00700     N ( 1.00)

     12 Sym. Ops., with inversion, found


                                    s                        frac. trans.

      isym =  1     identity                                     

 cryst.   s( 1) = (     1          0          0      )
                  (     0          1          0      )
                  (     0          0          1      )

 cart.    s( 1) = (  1.0000000  0.0000000  0.0000000 )
                  (  0.0000000  1.0000000  0.0000000 )
                  (  0.0000000  0.0000000  1.0000000 )


      isym =  2     180 deg rotation - cart. axis [1,0,0]        

 cryst.   s( 2) = (     1          0          0      )
                  (    -1         -1          0      )
                  (     0          0         -1      )

 cart.    s( 2) = (  1.0000000  0.0000000  0.0000000 )
                  (  0.0000000 -1.0000000  0.0000000 )
                  (  0.0000000  0.0000000 -1.0000000 )


      isym =  3     120 deg rotation - cryst. axis [0,0,1]       

 cryst.   s( 3) = (     0          1          0      )
                  (    -1         -1          0      )
                  (     0          0          1      )

 cart.    s( 3) = ( -0.5000000 -0.8660254  0.0000000 )
                  (  0.8660254 -0.5000000  0.0000000 )
                  (  0.0000000  0.0000000  1.0000000 )


      isym =  4     120 deg rotation - cryst. axis [0,0,-1]      

 cryst.   s( 4) = (    -1         -1          0      )
                  (     1          0          0      )
                  (     0          0          1      )

 cart.    s( 4) = ( -0.5000000  0.8660254  0.0000000 )
                  ( -0.8660254 -0.5000000  0.0000000 )
                  (  0.0000000  0.0000000  1.0000000 )


      isym =  5     180 deg rotation - cryst. axis [0,1,0]       

 cryst.   s( 5) = (    -1         -1          0      )
                  (     0          1          0      )
                  (     0          0         -1      )

 cart.    s( 5) = ( -0.5000000 -0.8660254  0.0000000 )
                  ( -0.8660254  0.5000000  0.0000000 )
                  (  0.0000000  0.0000000 -1.0000000 )


      isym =  6     180 deg rotation - cryst. axis [1,1,0]       

 cryst.   s( 6) = (     0          1          0      )
                  (     1          0          0      )
                  (     0          0         -1      )

 cart.    s( 6) = ( -0.5000000  0.8660254  0.0000000 )
                  (  0.8660254  0.5000000  0.0000000 )
                  (  0.0000000  0.0000000 -1.0000000 )


      isym =  7     inversion                                    

 cryst.   s( 7) = (    -1          0          0      )
                  (     0         -1          0      )
                  (     0          0         -1      )

 cart.    s( 7) = ( -1.0000000  0.0000000  0.0000000 )
                  (  0.0000000 -1.0000000  0.0000000 )
                  (  0.0000000  0.0000000 -1.0000000 )


      isym =  8     inv. 180 deg rotation - cart. axis [1,0,0]   

 cryst.   s( 8) = (    -1          0          0      )
                  (     1          1          0      )
                  (     0          0          1      )

 cart.    s( 8) = ( -1.0000000  0.0000000  0.0000000 )
                  (  0.0000000  1.0000000  0.0000000 )
                  (  0.0000000  0.0000000  1.0000000 )


      isym =  9     inv. 120 deg rotation - cryst. axis [0,0,1]  

 cryst.   s( 9) = (     0         -1          0      )
                  (     1          1          0      )
                  (     0          0         -1      )

 cart.    s( 9) = (  0.5000000  0.8660254  0.0000000 )
                  ( -0.8660254  0.5000000  0.0000000 )
                  (  0.0000000  0.0000000 -1.0000000 )


      isym = 10     inv. 120 deg rotation - cryst. axis [0,0,-1] 

 cryst.   s(10) = (     1          1          0      )
                  (    -1          0          0      )
                  (     0          0         -1      )

 cart.    s(10) = (  0.5000000 -0.8660254  0.0000000 )
                  (  0.8660254  0.5000000  0.0000000 )
                  (  0.0000000  0.0000000 -1.0000000 )


      isym = 11     inv. 180 deg rotation - cryst. axis [0,1,0]  

 cryst.   s(11) = (     1          1          0      )
                  (     0         -1          0      )
                  (     0          0          1      )

 cart.    s(11) = (  0.5000000  0.8660254  0.0000000 )
                  (  0.8660254 -0.5000000  0.0000000 )
                  (  0.0000000  0.0000000  1.0000000 )


      isym = 12     inv. 180 deg rotation - cryst. axis [1,1,0]  

 cryst.   s(12) = (     0         -1          0      )
                  (    -1          0          0      )
                  (     0          0          1      )

 cart.    s(12) = (  0.5000000 -0.8660254  0.0000000 )
                  ( -0.8660254 -0.5000000  0.0000000 )
                  (  0.0000000  0.0000000  1.0000000 )


   Cartesian axes

     site n.     atom                  positions (alat units)
         1           B   tau(   1) = (   0.5000000   0.2886751   2.3007418  )
         2           B   tau(   2) = (  -0.0000000   0.5773503   0.7669139  )
         3           N   tau(   3) = (   0.5000000   0.2886751   0.7669139  )
         4           N   tau(   4) = (  -0.0000000   0.5773503   2.3007418  )

   Crystallographic axes

     site n.     atom                  positions (cryst. coord.)
         1           B   tau(   1) = (  0.6666667  0.3333333  0.7500000  )
         2           B   tau(   2) = (  0.3333333  0.6666667  0.2500000  )
         3           N   tau(   3) = (  0.6666667  0.3333333  0.2500000  )
         4           N   tau(   4) = (  0.3333333  0.6666667  0.7500000  )

     number of k points=    14
                       cart. coord. in units 2pi/alat
        k(    1) = (   0.0000000   0.0000000   0.0000000), wk =   0.0277778
        k(    2) = (   0.0000000   0.0000000  -0.1629909), wk =   0.0277778
        k(    3) = (   0.0000000   0.1924501   0.0000000), wk =   0.1666667
        k(    4) = (   0.0000000   0.1924501  -0.1629909), wk =   0.1666667
        k(    5) = (   0.0000000   0.3849002   0.0000000), wk =   0.1666667
        k(    6) = (   0.0000000   0.3849002  -0.1629909), wk =   0.1666667
        k(    7) = (   0.0000000  -0.5773503   0.0000000), wk =   0.0833333
        k(    8) = (   0.0000000  -0.5773503  -0.1629909), wk =   0.0833333
        k(    9) = (   0.1666667   0.2886751   0.0000000), wk =   0.1666667
        k(   10) = (   0.1666667   0.2886751  -0.1629909), wk =   0.1666667
        k(   11) = (   0.1666667   0.4811252   0.0000000), wk =   0.3333333
        k(   12) = (   0.1666667   0.4811252  -0.1629909), wk =   0.3333333
        k(   13) = (   0.3333333   0.5773503   0.0000000), wk =   0.0555556
        k(   14) = (   0.3333333   0.5773503  -0.1629909), wk =   0.0555556

                       cryst. coord.
        k(    1) = (   0.0000000   0.0000000   0.0000000), wk =   0.0277778
        k(    2) = (   0.0000000   0.0000000  -0.5000000), wk =   0.0277778
        k(    3) = (   0.0000000   0.1666667   0.0000000), wk =   0.1666667
        k(    4) = (   0.0000000   0.1666667  -0.5000000), wk =   0.1666667
        k(    5) = (   0.0000000   0.3333333   0.0000000), wk =   0.1666667
        k(    6) = (   0.0000000   0.3333333  -0.5000000), wk =   0.1666667
        k(    7) = (   0.0000000  -0.5000000   0.0000000), wk =   0.0833333
        k(    8) = (   0.0000000  -0.5000000  -0.5000000), wk =   0.0833333
        k(    9) = (   0.1666667   0.1666667   0.0000000), wk =   0.1666667
        k(   10) = (   0.1666667   0.1666667  -0.5000000), wk =   0.1666667
        k(   11) = (   0.1666667   0.3333333   0.0000000), wk =   0.3333333
        k(   12) = (   0.1666667   0.3333333  -0.5000000), wk =   0.3333333
        k(   13) = (   0.3333333   0.3333333   0.0000000), wk =   0.0555556
        k(   14) = (   0.3333333   0.3333333  -0.5000000), wk =   0.0555556

     Dense  grid:    35075 G-vectors     FFT dimensions: (  30,  30,  90)

     Dynamical RAM for                 wfc:       0.11 MB

     Dynamical RAM for     wfc (w. buffer):       1.67 MB

     Dynamical RAM for           str. fact:       0.04 MB

     Dynamical RAM for           local pot:       0.00 MB

     Dynamical RAM for          nlocal pot:       0.09 MB

     Dynamical RAM for                qrad:       0.89 MB

     Dynamical RAM for          rho,v,vnew:       0.15 MB

     Dynamical RAM for               rhoin:       0.05 MB

     Dynamical RAM for            rho*nmix:       0.36 MB

     Dynamical RAM for           G-vectors:       0.09 MB

     Dynamical RAM for          h,s,v(r/c):       0.29 MB

     Dynamical RAM for          <psi|beta>:       0.02 MB

     Dynamical RAM for                 psi:       0.22 MB

     Dynamical RAM for                hpsi:       0.22 MB

     Dynamical RAM for      wfcinit/wfcrot:       0.26 MB

     Estimated static dynamical RAM per process >       3.19 MB

     Estimated max dynamical RAM per process >       4.30 MB

     Estimated total dynamical RAM >     103.16 MB

     Initial potential from superposition of free atoms

     starting charge      15.9606, renormalised to      16.0000
     Starting wfcs are random

     total cpu time spent up to now is        0.6 secs

     Self-consistent Calculation

     iteration #  1     ecut=    94.00 Ry     beta= 0.60
     Davidson diagonalization with overlap

---- Real-time Memory Report at c_bands before calling an iterative solver
            40 MiB given to the printing process from OS
             0 MiB allocation reported by mallinfo(arena+hblkhd)
        122994 MiB available memory on the node where the printing process lives
------------------
     c_bands:  1 eigenvalues not converged
     c_bands:  2 eigenvalues not converged
     ethr =  5.00E-06,  avg # of iterations = 17.3

     total cpu time spent up to now is        2.0 secs

     total energy              =     -51.32671339 Ry
     estimated scf accuracy    <       0.72833856 Ry

     iteration #  2     ecut=    94.00 Ry     beta= 0.60
     Davidson diagonalization with overlap

---- Real-time Memory Report at c_bands before calling an iterative solver
            43 MiB given to the printing process from OS
             0 MiB allocation reported by mallinfo(arena+hblkhd)
        122836 MiB available memory on the node where the printing process lives
------------------
     ethr =  4.55E-03,  avg # of iterations =  2.1

     total cpu time spent up to now is        2.3 secs

     total energy              =     -51.48800904 Ry
     estimated scf accuracy    <       0.17959441 Ry

     iteration #  3     ecut=    94.00 Ry     beta= 0.60
     Davidson diagonalization with overlap

---- Real-time Memory Report at c_bands before calling an iterative solver
            44 MiB given to the printing process from OS
             0 MiB allocation reported by mallinfo(arena+hblkhd)
        122836 MiB available memory on the node where the printing process lives
------------------
     ethr =  1.12E-03,  avg # of iterations =  1.4

     total cpu time spent up to now is        2.6 secs

     total energy              =     -51.52382070 Ry
     estimated scf accuracy    <       0.00573900 Ry

     iteration #  4     ecut=    94.00 Ry     beta= 0.60
     Davidson diagonalization with overlap

---- Real-time Memory Report at c_bands before calling an iterative solver
            44 MiB given to the printing process from OS
             0 MiB allocation reported by mallinfo(arena+hblkhd)
        122836 MiB available memory on the node where the printing process lives
------------------
     ethr =  3.59E-05,  avg # of iterations =  3.7

     total cpu time spent up to now is        2.9 secs

     total energy              =     -51.52437420 Ry
     estimated scf accuracy    <       0.00018229 Ry

     iteration #  5     ecut=    94.00 Ry     beta= 0.60
     Davidson diagonalization with overlap

---- Real-time Memory Report at c_bands before calling an iterative solver
            44 MiB given to the printing process from OS
             0 MiB allocation reported by mallinfo(arena+hblkhd)
        122836 MiB available memory on the node where the printing process lives
------------------
     ethr =  1.14E-06,  avg # of iterations =  4.9

     total cpu time spent up to now is        3.3 secs

     total energy              =     -51.52438900 Ry
     estimated scf accuracy    <       0.00000272 Ry

     iteration #  6     ecut=    94.00 Ry     beta= 0.60
     Davidson diagonalization with overlap

---- Real-time Memory Report at c_bands before calling an iterative solver
            44 MiB given to the printing process from OS
             0 MiB allocation reported by mallinfo(arena+hblkhd)
        122833 MiB available memory on the node where the printing process lives
------------------
     ethr =  1.70E-08,  avg # of iterations =  5.0

     total cpu time spent up to now is        3.7 secs

     End of self-consistent calculation

          k = 0.0000 0.0000 0.0000 (  4395 PWs)   bands (ev):

   -14.3905 -14.3045  -2.4315  -1.4652   1.8403   1.8403   1.8476   1.8476
     7.8580  11.7839  14.1983  14.7247  14.7247  14.7579  14.7579  15.7999
    17.1684  17.9287  21.0650  26.7665  28.4188  28.8628  32.1985  32.1985
    34.3231  34.3231  34.4708  34.8505  34.8505  36.1105  38.0961  38.0961
    38.1048  38.1048  38.9675  38.9675  40.4165  40.6204  41.3358  42.5823

     occupation numbers 
     1.0000   1.0000   1.0000   1.0000   1.0000   1.0000   1.0000   1.0000
     0.0000   0.0000   0.0000   0.0000   0.0000   0.0000   0.0000   0.0000
     0.0000   0.0000   0.0000   0.0000   0.0000   0.0000   0.0000   0.0000
     0.0000   0.0000   0.0000   0.0000   0.0000   0.0000   0.0000   0.0000
     0.0000   0.0000   0.0000   0.0000   0.0000   0.0000   0.0000   0.0000

          k = 0.0000 0.0000-0.1630 (  4376 PWs)   bands (ev):

   -14.3480 -14.3480  -1.9846  -1.9846   1.8439   1.8439   1.8440   1.8440
     9.4543   9.4543  14.7412  14.7412  14.7412  14.7412  15.3258  15.3258
    17.4617  17.4617  23.7227  23.7227  28.7061  28.7061  32.9859  32.9859
    32.9859  32.9859  35.4556  35.4556  35.7920  35.7920  35.7920  35.7920
    40.7618  40.7619  40.8927  40.8927  40.8927  40.8927  41.6210  41.6210

     occupation numbers 
     1.0000   1.0000   1.0000   1.0000   1.0000   1.0000   1.0000   1.0000
     0.0000   0.0000   0.0000   0.0000   0.0000   0.0000   0.0000   0.0000
     0.0000   0.0000   0.0000   0.0000   0.0000   0.0000   0.0000   0.0000
     0.0000   0.0000   0.0000   0.0000   0.0000   0.0000   0.0000   0.0000
     0.0000   0.0000   0.0000   0.0000   0.0000   0.0000   0.0000   0.0000

          k = 0.0000 0.1925 0.0000 (  4395 PWs)   bands (ev):

   -13.8662 -13.7865  -1.7079  -0.7854  -0.1104  -0.1048   0.9537   0.9641
     8.7539  11.8719  14.0008  14.1849  14.5123  15.9398  16.7397  16.8995
    16.9330  18.7230  22.0237  25.2518  27.2683  28.8414  28.9744  30.0712
    31.4805  31.9794  32.0499  33.6771  34.3660  36.1839  37.2608  38.3891
    39.3872  39.7167  40.3328  40.9816  41.6050  42.6786  44.5664  45.2796

     occupation numbers 
     1.0000   1.0000   1.0000   1.0000   1.0000   1.0000   1.0000   1.0000
     0.0000   0.0000   0.0000   0.0000   0.0000   0.0000   0.0000   0.0000
     0.0000   0.0000   0.0000   0.0000   0.0000   0.0000   0.0000   0.0000
     0.0000   0.0000   0.0000   0.0000   0.0000   0.0000   0.0000   0.0000
     0.0000   0.0000   0.0000   0.0000   0.0000   0.0000   0.0000   0.0000

          k = 0.0000 0.1925-0.1630 (  4378 PWs)   bands (ev):

   -13.8268 -13.8268  -1.2826  -1.2826  -0.1029  -0.1029   0.9589   0.9589
    10.1799  10.1799  14.1443  14.1443  14.7801  14.7801  16.9161  16.9161
    18.2956  18.2956  23.6710  23.6710  28.1180  28.1181  29.8462  29.8463
    30.1760  30.1760  33.4973  33.4974  35.9270  35.9270  37.4846  37.4846
    39.1503  39.1503  40.8741  40.8741  42.8114  42.8114  44.4792  44.4792

     occupation numbers 
     1.0000   1.0000   1.0000   1.0000   1.0000   1.0000   1.0000   1.0000
     0.0000   0.0000   0.0000   0.0000   0.0000   0.0000   0.0000   0.0000
     0.0000   0.0000   0.0000   0.0000   0.0000   0.0000   0.0000   0.0000
     0.0000   0.0000   0.0000   0.0000   0.0000   0.0000   0.0000   0.0000
     0.0000   0.0000   0.0000   0.0000   0.0000   0.0000   0.0000   0.0000

          k = 0.0000 0.3849 0.0000 (  4379 PWs)   bands (ev):

   -12.4563 -12.3972  -3.6481  -3.6320  -0.4006  -0.3872   0.2937   1.0489
    10.1525  10.5916  10.9873  13.4026  14.2543  16.3671  18.2966  21.3725
    21.5708  21.6083  21.6653  21.7564  24.2101  26.4131  26.5622  28.9859
    30.3530  31.2354  31.5925  31.8399  32.0031  34.2076  36.0211  37.7272
    39.1619  39.9814  40.8182  42.2680  44.3290  44.4527  44.5037  46.2196

     occupation numbers 
     1.0000   1.0000   1.0000   1.0000   1.0000   1.0000   1.0000   1.0000
     0.0000   0.0000   0.0000   0.0000   0.0000   0.0000   0.0000   0.0000
     0.0000   0.0000   0.0000   0.0000   0.0000   0.0000   0.0000   0.0000
     0.0000   0.0000   0.0000   0.0000   0.0000   0.0000   0.0000   0.0000
     0.0000   0.0000   0.0000   0.0000   0.0000   0.0000   0.0000   0.0000

          k = 0.0000 0.3849-0.1630 (  4348 PWs)   bands (ev):

   -12.4269 -12.4269  -3.6408  -3.6408  -0.3939  -0.3939   0.6527   0.6527
    10.1798  10.1798  12.6437  12.6437  14.5463  14.5463  20.2172  20.2172
    21.6293  21.6293  21.6348  21.6348  26.1546  26.1546  27.3109  27.3109
    29.5405  29.5405  31.8974  31.8974  35.0434  35.0434  35.4670  35.4670
    38.5730  38.5730  43.3717  43.3718  44.2728  44.2729  46.0209  46.0209

     occupation numbers 
     1.0000   1.0000   1.0000   1.0000   1.0000   1.0000   1.0000   1.0000
     0.0000   0.0000   0.0000   0.0000   0.0000   0.0000   0.0000   0.0000
     0.0000   0.0000   0.0000   0.0000   0.0000   0.0000   0.0000   0.0000
     0.0000   0.0000   0.0000   0.0000   0.0000   0.0000   0.0000   0.0000
     0.0000   0.0000   0.0000   0.0000   0.0000   0.0000   0.0000   0.0000

          k = 0.0000-0.5774 0.0000 (  4372 PWs)   bands (ev):

   -11.3083 -11.2897  -5.6421  -5.6235  -0.9532  -0.9389   2.1141   2.5238
     7.7327   8.3984  12.6907  13.1777  15.4606  16.2560  17.7260  19.4673
    21.8110  22.4485  23.2907  24.6488  24.7762  25.5481  28.1338  28.2978
    28.5912  29.1023  31.0249  31.1385  32.5189  33.7720  34.0373  37.4650
    37.6966  40.4521  41.1892  41.5151  42.3697  43.4238  44.3624  45.9479

     occupation numbers 
     1.0000   1.0000   1.0000   1.0000   1.0000   1.0000   1.0000   1.0000
     0.0000   0.0000   0.0000   0.0000   0.0000   0.0000   0.0000   0.0000
     0.0000   0.0000   0.0000   0.0000   0.0000   0.0000   0.0000   0.0000
     0.0000   0.0000   0.0000   0.0000   0.0000   0.0000   0.0000   0.0000
     0.0000   0.0000   0.0000   0.0000   0.0000   0.0000   0.0000   0.0000

          k = 0.0000-0.5774-0.1630 (  4396 PWs)   bands (ev):

   -11.2990 -11.2990  -5.6334  -5.6334  -0.9460  -0.9460   2.3197   2.3197
     8.0051   8.0051  13.0147  13.0147  16.1381  16.1381  18.1049  18.1049
    21.5726  21.5727  24.6841  24.6841  26.0620  26.0620  26.4945  26.4945
    30.4137  30.4137  30.6782  30.6782  34.1228  34.1228  34.6454  34.6454
    36.9874  36.9874  41.2514  41.2515  44.2987  44.2987  47.6341  47.6341

     occupation numbers 
     1.0000   1.0000   1.0000   1.0000   1.0000   1.0000   1.0000   1.0000
     0.0000   0.0000   0.0000   0.0000   0.0000   0.0000   0.0000   0.0000
     0.0000   0.0000   0.0000   0.0000   0.0000   0.0000   0.0000   0.0000
     0.0000   0.0000   0.0000   0.0000   0.0000   0.0000   0.0000   0.0000
     0.0000   0.0000   0.0000   0.0000   0.0000   0.0000   0.0000   0.0000

          k = 0.1667 0.2887 0.0000 (  4381 PWs)   bands (ev):

   -12.8860 -12.8193  -2.2989  -2.2926  -0.7303  -0.7160  -0.3313   0.4887
    10.4083  11.1057  11.7151  15.5011  15.5814  15.9818  16.0338  17.6930
    20.2181  22.1029  22.1308  22.7136  23.1038  26.7934  27.2033  28.1643
    31.3158  31.5269  32.6955  32.7533  35.5562  35.9300  36.5999  36.6602
    38.2789  38.7286  39.5494  41.8116  42.0124  45.4482  45.8175  46.4758

     occupation numbers 
     1.0000   1.0000   1.0000   1.0000   1.0000   1.0000   1.0000   1.0000
     0.0000   0.0000   0.0000   0.0000   0.0000   0.0000   0.0000   0.0000
     0.0000   0.0000   0.0000   0.0000   0.0000   0.0000   0.0000   0.0000
     0.0000   0.0000   0.0000   0.0000   0.0000   0.0000   0.0000   0.0000
     0.0000   0.0000   0.0000   0.0000   0.0000   0.0000   0.0000   0.0000

          k = 0.1667 0.2887-0.1630 (  4370 PWs)   bands (ev):

   -12.8529 -12.8529  -2.2973  -2.2973  -0.7242  -0.7242   0.0578   0.0578
    10.8450  10.8450  12.9932  12.9932  15.5873  15.5873  17.4544  17.4544
    21.1844  21.1844  22.1697  22.1697  25.3374  25.3374  28.5548  28.5548
    30.2123  30.2123  32.8510  32.8510  34.3233  34.3233  36.7048  36.7048
    39.8408  39.8408  41.8094  41.8094  44.8906  44.8906  46.1815  46.1815

     occupation numbers 
     1.0000   1.0000   1.0000   1.0000   1.0000   1.0000   1.0000   1.0000
     0.0000   0.0000   0.0000   0.0000   0.0000   0.0000   0.0000   0.0000
     0.0000   0.0000   0.0000   0.0000   0.0000   0.0000   0.0000   0.0000
     0.0000   0.0000   0.0000   0.0000   0.0000   0.0000   0.0000   0.0000
     0.0000   0.0000   0.0000   0.0000   0.0000   0.0000   0.0000   0.0000

          k = 0.1667 0.4811 0.0000 (  4375 PWs)   bands (ev):

   -11.4066 -11.3716  -4.8273  -4.8073  -2.1106  -2.0941   1.9031   2.4246
     8.5559   8.8903  13.3137  15.2672  16.0070  16.0845  17.8122  19.6391
    20.5502  20.8426  21.5271  23.0336  24.0283  24.4013  26.2086  28.6670
    30.1365  31.1504  31.7590  32.0421  32.5689  34.2701  34.3999  35.6610
    39.6960  41.3916  42.4973  43.2846  44.0790  45.0897  46.7557  46.8538

     occupation numbers 
     1.0000   1.0000   1.0000   1.0000   1.0000   1.0000   1.0000   1.0000
     0.0000   0.0000   0.0000   0.0000   0.0000   0.0000   0.0000   0.0000
     0.0000   0.0000   0.0000   0.0000   0.0000   0.0000   0.0000   0.0000
     0.0000   0.0000   0.0000   0.0000   0.0000   0.0000   0.0000   0.0000
     0.0000   0.0000   0.0000   0.0000   0.0000   0.0000   0.0000   0.0000

          k = 0.1667 0.4811-0.1630 (  4364 PWs)   bands (ev):

   -11.3892 -11.3892  -4.8178  -4.8178  -2.1027  -2.1027   2.1595   2.1595
     8.6741   8.6741  14.4531  14.4531  15.9320  15.9320  18.6080  18.6080
    20.0430  20.0430  22.9614  22.9614  24.4039  24.4039  27.9310  27.9310
    30.1433  30.1433  31.4500  31.4500  32.4058  32.4058  36.9148  36.9148
    40.3733  40.3733  42.8126  42.8126  44.2481  44.2482  45.7550  45.7550

     occupation numbers 
     1.0000   1.0000   1.0000   1.0000   1.0000   1.0000   1.0000   1.0000
     0.0000   0.0000   0.0000   0.0000   0.0000   0.0000   0.0000   0.0000
     0.0000   0.0000   0.0000   0.0000   0.0000   0.0000   0.0000   0.0000
     0.0000   0.0000   0.0000   0.0000   0.0000   0.0000   0.0000   0.0000
     0.0000   0.0000   0.0000   0.0000   0.0000   0.0000   0.0000   0.0000

          k = 0.3333 0.5774 0.0000 (  4371 PWs)   bands (ev):

   -10.7242 -10.7242  -4.6860  -4.6412  -3.9375  -3.9375   3.2054   3.2054
     7.9351   7.9351  14.5150  16.3028  16.3028  17.2036  18.1476  20.3842
    20.8264  20.8264  21.5041  21.5041  22.0603  22.0603  24.5209  30.1192
    30.1192  30.4239  30.5386  30.8135  32.4069  33.7877  33.7877  41.7001
    41.7001  44.4123  44.4123  44.4438  45.0366  46.5503  46.5503  46.6396

     occupation numbers 
     1.0000   1.0000   1.0000   1.0000   1.0000   1.0000   1.0000   1.0000
     0.0000   0.0000   0.0000   0.0000   0.0000   0.0000   0.0000   0.0000
     0.0000   0.0000   0.0000   0.0000   0.0000   0.0000   0.0000   0.0000
     0.0000   0.0000   0.0000   0.0000   0.0000   0.0000   0.0000   0.0000
     0.0000   0.0000   0.0000   0.0000   0.0000   0.0000   0.0000   0.0000

          k = 0.3333 0.5774-0.1630 (  4356 PWs)   bands (ev):

   -10.7242 -10.7242  -4.6637  -4.6637  -3.9381  -3.9381   3.2167   3.2167
     7.8915   7.8915  15.3758  15.3758  16.6769  16.6769  19.8135  19.8136
    19.9869  19.9869  21.2361  21.2361  22.6886  22.6886  26.3211  26.3211
    30.5541  30.5541  31.7449  31.7449  32.1776  32.1776  38.6472  38.6472
    41.8744  41.8744  42.8536  42.8536  45.6008  45.6008  47.2641  47.2641

     occupation numbers 
     1.0000   1.0000   1.0000   1.0000   1.0000   1.0000   1.0000   1.0000
     0.0000   0.0000   0.0000   0.0000   0.0000   0.0000   0.0000   0.0000
     0.0000   0.0000   0.0000   0.0000   0.0000   0.0000   0.0000   0.0000
     0.0000   0.0000   0.0000   0.0000   0.0000   0.0000   0.0000   0.0000
     0.0000   0.0000   0.0000   0.0000   0.0000   0.0000   0.0000   0.0000

     highest occupied, lowest unoccupied level (ev):     3.2167    7.7327

!    total energy              =     -51.52438940 Ry
     estimated scf accuracy    <       0.00000009 Ry

     The total energy is the sum of the following terms:
     one-electron contribution =     -28.51121039 Ry
     hartree contribution      =      21.55231840 Ry
     xc contribution           =     -14.73290543 Ry
     ewald contribution        =     -29.83259198 Ry

     convergence has been achieved in   6 iterations

     Writing all to output data dir ./out/aiida.save/
 
     init_run     :      0.13s CPU      0.24s WALL (       1 calls)
     electrons    :      3.04s CPU      3.24s WALL (       1 calls)

     Called by init_run:
     wfcinit      :      0.09s CPU      0.13s WALL (       1 calls)
     wfcinit:wfcr :      0.08s CPU      0.13s WALL (      14 calls)
     potinit      :      0.01s CPU      0.01s WALL (       1 calls)
     hinit0       :      0.03s CPU      0.06s WALL (       1 calls)

     Called by electrons:
     c_bands      :      2.82s CPU      2.96s WALL (       6 calls)
     sum_band     :      0.20s CPU      0.21s WALL (       6 calls)
     v_of_rho     :      0.01s CPU      0.01s WALL (       7 calls)
     v_h          :      0.00s CPU      0.00s WALL (       7 calls)
     v_xc         :      0.01s CPU      0.01s WALL (       7 calls)
     mix_rho      :      0.00s CPU      0.00s WALL (       6 calls)

     Called by c_bands:
     init_us_2    :      0.01s CPU      0.01s WALL (     182 calls)
     init_us_2:cp :      0.01s CPU      0.01s WALL (     182 calls)
     cegterg      :      2.79s CPU      2.92s WALL (      84 calls)

     Called by sum_band:
     sum_band:wei :      0.00s CPU      0.00s WALL (       6 calls)
     sum_band:loo :      0.20s CPU      0.20s WALL (       6 calls)
     sum_band:buf :      0.00s CPU      0.00s WALL (      84 calls)
     sum_band:ini :      0.00s CPU      0.00s WALL (      84 calls)

     Called by *egterg:
     cdiaghg      :      1.02s CPU      1.07s WALL (     564 calls)
     cegterg:over :      0.13s CPU      0.14s WALL (     480 calls)
     cegterg:upda :      0.04s CPU      0.05s WALL (     480 calls)
     cegterg:last :      0.07s CPU      0.07s WALL (     283 calls)
     h_psi        :      1.51s CPU      1.61s WALL (     578 calls)
     g_psi        :      0.01s CPU      0.01s WALL (     480 calls)

     Called by h_psi:
     h_psi:calbec :      0.05s CPU      0.06s WALL (     578 calls)
     vloc_psi     :      1.43s CPU      1.52s WALL (     578 calls)
     add_vuspsi   :      0.03s CPU      0.03s WALL (     578 calls)

     General routines
     calbec       :      0.04s CPU      0.05s WALL (     578 calls)
     fft          :      0.01s CPU      0.04s WALL (      69 calls)
     ffts         :      0.00s CPU      0.00s WALL (       6 calls)
     fftw         :      1.49s CPU      1.57s WALL (   30166 calls)
 
     Parallel routines
 
     PWSCF        :      3.33s CPU      4.23s WALL

 
   This run was terminated on:  22: 3:11  18Nov2023            

=------------------------------------------------------------------------------=
   JOB DONE.
=------------------------------------------------------------------------------=
