
     Program PWSCF v.7.1 starts on  5Apr2024 at 23:44:49 

     This program is part of the open-source Quantum ESPRESSO suite
     for quantum simulation of materials; please cite
         "P. Giannozzi et al., J. Phys.:Condens. Matter 21 395502 (2009);
         "P. Giannozzi et al., J. Phys.:Condens. Matter 29 465901 (2017);
         "P. Giannozzi et al., J. Chem. Phys. 152 154105 (2020);
          URL http://www.quantum-espresso.org", 
     in publications or presentations arising from this work. More details at
     http://www.quantum-espresso.org/quote

     Parallel version (MPI), running on     8 processors

     MPI processes distributed on     1 nodes
     236382 MiB available memory on the printing compute node when the environment starts
 
     Reading input from pw_CdI2_nscf_k0_E56.in
Warning: card &IONS ignored
Warning: card / ignored
Warning: card &CELL ignored
Warning: card / ignored

     Current dimensions of program PWSCF are:
     Max number of different atomic species (ntypx) = 10
     Max number of k-points (npk) =  40000
     Max angular momentum in pseudopotentials (lmaxx) =  4

     Atomic positions and unit cell read from directory:
     out/CdI2.save/
     Atomic positions from file used, from input discarded
 
 
     R & G space division:  proc/nbgrp/npool/nimage =       8
     Subspace diagonalization in iterative solution of the eigenvalue problem:
     one sub-group per band group will be used
     scalapack distributed-memory algorithm (size of sub-group:  2*  2 procs)

 
     Parallelization info
     --------------------
     sticks:   dense  smooth     PW     G-vecs:    dense   smooth      PW
     Min         126     126     31                17763    17763    2225
     Max         128     128     32                17775    17775    2244
     Sum        1015    1015    253               142153   142153   17889
 
     Using Slab Decomposition
 


     bravais-lattice index     =            4
     lattice parameter (alat)  =       8.0815  a.u.
     unit-cell volume          =    2509.9427 (a.u.)^3
     number of atoms/cell      =            3
     number of atomic types    =            2
     number of electrons       =        54.00
     number of Kohn-Sham states=         1200
     kinetic-energy cutoff     =      56.0000  Ry
     charge density cutoff     =     224.0000  Ry
     Exchange-correlation= PBE
                           (   1   4   3   4   0   0   0)

     celldm(1)=   8.081496  celldm(2)=   0.000000  celldm(3)=   5.491082
     celldm(4)=   0.000000  celldm(5)=   0.000000  celldm(6)=   0.000000

     crystal axes: (cart. coord. in units of alat)
               a(1) = (   1.000000   0.000000   0.000000 )  
               a(2) = (  -0.500000   0.866025   0.000000 )  
               a(3) = (   0.000000   0.000000   5.491082 )  

     reciprocal axes: (cart. coord. in units 2 pi/alat)
               b(1) = (  1.000000  0.577350  0.000000 )  
               b(2) = (  0.000000  1.154701  0.000000 )  
               b(3) = (  0.000000  0.000000  0.182113 )  


     PseudoPot. # 1 for Cd read from file:
     /usr/scratch4/magr4985/FGWC/FGWC/pseudo/SG15/Cd.upf
     MD5 check sum: 810a600e5a5ac944c8c8f48f0d721646
     Pseudo is Norm-conserving, Zval = 20.0
     Generated using ONCVPSP code by D. R. Hamann
     Using radial grid of  602 points,  6 beta functions with: 
                l(1) =   0
                l(2) =   0
                l(3) =   1
                l(4) =   1
                l(5) =   2
                l(6) =   2

     PseudoPot. # 2 for I  read from file:
     /usr/scratch4/magr4985/FGWC/FGWC/pseudo/SG15/I.upf
     MD5 check sum: 8277ef51204d8074ead4596f3b37a2aa
     Pseudo is Norm-conserving, Zval = 17.0
     Generated using ONCVPSP code by D. R. Hamann
     Using radial grid of  602 points,  6 beta functions with: 
                l(1) =   0
                l(2) =   0
                l(3) =   1
                l(4) =   1
                l(5) =   2
                l(6) =   2

     atomic species   valence    mass     pseudopotential
        Cd            20.00   112.41100     Cd( 1.00)
        I             17.00   126.90450     I ( 1.00)

     12 Sym. Ops., with inversion, found



   Cartesian axes

     site n.     atom                  positions (alat units)
         1           Cd  tau(   1) = (   0.0000000   0.0000000   2.7455410  )
         2           I   tau(   2) = (   0.5000000   0.2886752   3.1557127  )
         3           I   tau(   3) = (   0.0000000   0.5773502   2.3353693  )

     number of k points=     1  Gaussian smearing, width (Ry)=  0.0005
                       cart. coord. in units 2pi/alat
        k(    1) = (   0.0000000   0.0000000   0.0000000), wk =   2.0000000

     Dense  grid:   142153 G-vectors     FFT dimensions: (  40,  40, 216)

     Estimated max dynamical RAM per process >     280.34 MB

     Estimated total dynamical RAM >       2.19 GB

     The potential is recalculated from file :
     out/CdI2.save/charge-density

     Starting wfcs are random

     Band Structure Calculation
     Davidson diagonalization with overlap

     ethr =  5.00E-06,  avg # of iterations = 12.0

     total cpu time spent up to now is       98.1 secs

     End of band structure calculation

          k = 0.0000 0.0000 0.0000 ( 17889 PWs)   bands (ev):

  -103.9432 -64.9726 -64.9726 -64.9665 -46.1265 -46.1265 -46.1262 -46.1262
   -46.1117 -46.1117 -46.1113 -46.1113 -46.1059 -46.1056 -14.2172 -13.7714
    -9.9022  -9.9022  -9.7968  -9.7320  -9.7320  -5.6104  -3.2365  -2.6434
    -2.6434  -2.3922  -2.3922   0.3859   2.1692   3.5766   3.6179   3.9656
     3.9656   4.2684   4.9019   5.7522   6.0108   6.6142   6.6142   6.7503
     7.5903   8.1861   8.6520   8.6520   8.7990   8.9601   8.9819   8.9819
    10.5859  11.0787  11.4295  11.4295  12.8384  12.8705  12.8705  13.0968
    13.9323  14.0979  14.1504  14.1504  14.3903  14.3903  14.7225  14.7271
    15.0032  15.0032  15.0920  15.0920  15.1646  15.1649  15.1649  15.2602
    15.2709  15.2709  15.3294  15.5387  16.1940  16.2547  16.2547  16.3403
    16.3403  16.4030  16.5511  16.5511  16.6337  16.6337  16.7638  17.1536
    17.6304  17.7373  18.2978  18.2978  18.3511  18.3511  18.6205  18.6205
    18.7885  18.7970  18.7970  18.9393  19.1811  19.4786  20.8521  20.9200
    20.9200  20.9352  21.0558  21.0558  21.2759  21.2759  21.6235  21.6235
    21.8964  21.9093  22.2875  22.6641  22.7475  23.1215  23.1215  23.4731
    23.9767  23.9767  24.3602  24.3793  24.3793  24.5697  24.6396  24.6396
    24.6495  24.6495  24.8002  24.8002  25.2304  25.2304  25.3059  25.5967
    25.5967  25.6700  26.9991  27.0543  27.1469  27.5997  27.8059  27.8059
    28.2446  28.2809  28.2809  28.4398  28.4398  28.8468  28.9685  28.9685
    29.5157  29.6862  30.3619  30.4731  30.4735  30.4735  30.7772  30.7772
    30.8583  31.1970  31.1970  31.7036  31.8513  32.6591  32.6591  32.8796
    32.8796  32.9348  33.1663  33.1663  33.2132  33.4086  33.4086  33.9877
    34.0048  34.1819  34.1930  34.1930  34.4891  34.7768  34.8377  35.5270
    35.5270  35.6809  36.3234  36.3234  36.3594  36.3594  36.5993  36.5993
    36.6915  36.7810  36.7810  36.7960  36.9928  36.9950  36.9950  37.0195
    37.0523  37.0523  37.1051  37.1051  37.2310  37.2310  37.2736  37.2736
    37.2968  37.6370  37.7834  37.7834  37.9156  38.0161  38.0161  38.0710
    38.0710  38.1868  38.2727  38.3086  38.3086  38.3715  38.4207  38.4207
    38.5411  38.5411  38.9325  38.9362  38.9362  39.1812  39.1812  39.3350
    39.4164  39.8137  40.1340  40.1340  40.1847  40.2266  40.2862  40.2862
    40.3206  40.4431  40.5207  40.5329  40.5329  40.9016  40.9016  41.7120
    41.7120  41.8203  41.9643  41.9643  42.3889  42.4643  42.5537  42.5537
    42.5908  42.5908  42.9377  42.9377  42.9737  42.9860  43.3464  43.3464
    43.4174  43.6725  43.8129  43.8129  44.0141  44.0400  44.0400  44.3003
    44.3003  44.4166  44.4166  44.4590  44.5599  44.6912  44.6912  44.8920
    44.9277  44.9277  45.2415  46.1891  46.2867  46.2895  46.3816  46.4204
    46.4204  46.6226  46.6226  46.6791  46.9207  46.9207  47.0873  47.0873
    47.1343  47.2231  47.4100  47.5148  47.5148  47.6315  47.6315  47.7725
    47.8960  47.8960  47.9892  48.0447  48.0447  48.0783  48.1703  48.1844
    48.1844  48.2436  48.2436  48.4099  48.5172  48.5172  48.8926  48.8926
    48.9809  48.9809  48.9896  49.1118  49.3804  49.3804  49.3853  49.6276
    49.6276  49.6828  49.6857  49.6857  49.8080  49.8080  49.9228  49.9228
    49.9941  50.0567  50.2799  50.3875  50.3875  50.5448  50.6550  50.6590
    50.9907  50.9907  51.0753  51.0753  51.2385  51.3088  51.3088  51.5803
    51.5803  51.6317  51.7409  51.7755  51.7755  51.8928  51.9135  51.9135
    52.0770  52.0777  52.0777  52.7225  53.0557  53.0557  53.1566  53.7176
    53.7633  53.7633  53.7795  53.7795  53.9295  53.9445  53.9445  54.0961
    54.2489  54.3632  54.4575  54.4575  54.4649  54.7622  54.7622  55.0938
    55.1948  55.1948  55.3480  55.3480  55.5097  55.5097  55.7982  55.9613
    56.5301  56.5301  56.5435  56.5932  56.6010  56.7710  56.7710  57.0713
    57.1224  57.1224  57.1821  57.1821  57.7115  57.7569  57.8267  57.8293
    57.8293  57.8635  57.8635  57.9689  57.9689  58.1420  58.4120  58.4120
    58.4207  59.1991  59.2646  59.5069  59.5069  59.8462  59.8462  60.1948
    60.1948  60.2489  60.2935  60.4957  60.5199  60.7765  60.7765  61.3026
    61.3266  61.4061  61.4061  61.6287  61.6287  61.7827  61.8225  61.8408
    61.8408  62.0662  62.0702  62.0702  62.6551  63.0742  63.0742  63.3648
    63.4401  63.4401  63.8408  63.8408  63.9659  64.0901  64.2403  64.2730
    64.3566  64.3566  64.7642  64.7642  65.0148  65.0148  65.2700  65.2700
    65.4895  65.4895  65.5324  65.5572  65.6139  65.9189  65.9189  65.9603
    65.9603  66.2007  66.2050  66.3040  66.3040  66.3701  66.8647  66.8647
    66.9403  67.0207  67.0207  67.2180  67.2180  67.4474  67.5398  67.5398
    67.6947  68.0938  68.4951  68.4951  68.7975  69.2752  69.2752  69.3976
    69.6314  69.6314  69.9107  69.9423  69.9423  69.9614  69.9614  70.1953
    70.1953  70.4267  70.5376  70.8927  70.8927  70.9386  70.9386  71.2866
    71.3639  71.3890  71.6615  71.9424  71.9424  71.9594  71.9594  72.0788
    72.0895  72.1378  72.2586  72.2586  72.3504  72.3504  72.5000  72.5000
    72.5431  72.9612  72.9612  73.0394  73.0394  73.0676  73.0847  73.0847
    73.2086  73.2393  73.2393  73.4039  73.4039  73.4445  73.8829  73.8829
    74.1915  74.1998  74.2193  74.5284  74.5284  75.0922  75.3171  75.3171
    75.3869  75.6163  75.6163  76.1179  76.2161  76.2161  76.6638  76.6638
    76.7155  76.8750  77.1535  77.1535  77.4251  77.4251  77.7842  77.7842
    77.8176  77.8626  77.8915  78.2154  78.3016  78.4211  78.4211  78.5408
    78.5408  78.6589  78.7528  78.7528  78.8455  78.9284  78.9284  78.9851
    79.1841  79.1841  79.2075  79.2838  79.4619  79.6591  79.6883  79.8353
    79.8353  79.9447  79.9447  79.9557  79.9792  80.0616  80.0748  80.0748
    80.1191  80.1191  80.3553  80.3553  80.4126  80.4126  80.4744  80.5401
    80.5787  80.5787  80.6938  80.7083  80.7083  80.7298  80.7834  80.7834
    80.7872  80.8223  80.8661  80.8661  80.8921  80.8921  80.9183  80.9441
    80.9535  80.9535  80.9688  80.9688  80.9881  81.0348  81.0348  81.1623
    81.1623  81.1635  81.1635  81.3448  81.4352  81.6325  81.7309  81.7357
    81.7503  81.7503  81.7578  81.7578  81.7882  81.9105  81.9105  81.9451
    81.9451  82.0883  82.0883  82.1971  82.2078  82.2104  82.2104  82.2327
    82.3091  82.3289  82.3289  82.5714  82.5714  82.5722  82.6593  82.6593
    82.7923  82.7923  82.8521  82.8521  83.1160  83.2091  83.2091  83.3028
    83.6156  83.6375  83.7027  83.7027  83.7433  83.9044  83.9044  83.9677
    84.0229  84.1030  84.1587  84.1587  84.1760  84.1760  84.2366  84.2636
    84.2749  84.2749  84.3315  84.3315  84.5822  84.7311  84.7311  84.8325
    84.8999  84.8999  84.9923  85.0059  85.0059  85.4943  85.4943  85.7233
    85.7472  85.7472  85.7778  85.7778  85.8668  85.9019  85.9019  85.9948
    86.0012  86.3535  86.3685  86.3838  86.3838  86.4329  86.4472  86.4472
    86.4566  86.7839  86.7839  87.0843  87.0843  87.0938  87.0998  87.0998
    87.1613  87.1954  87.2689  87.3086  87.3086  87.5393  87.5393  87.6030
    87.6361  87.6361  87.9698  87.9698  88.1701  88.1701  88.2095  88.2402
    88.2913  88.4266  88.6563  88.6563  88.7380  88.7380  88.7573  89.2288
    89.2288  89.4040  89.4040  89.4492  89.5125  89.5543  89.5600  89.5600
    89.6548  89.7037  89.7037  89.8407  89.8771  89.8771  89.8898  90.0781
    90.0781  90.2374  90.2374  90.2805  90.2805  90.2957  90.2957  90.3301
    90.3858  90.3858  90.3949  90.5104  90.7208  90.8659  90.9246  90.9246
    91.0611  91.1754  91.1754  91.2029  91.2029  91.7130  91.7130  91.7450
    91.8506  91.8506  92.0060  92.4708  92.5065  92.5065  92.7192  92.7192
    92.8660  92.9941  92.9941  93.2872  93.2891  93.2891  93.4592  93.4592
    93.4693  93.6179  93.6455  93.7278  93.8364  93.8364  93.8630  93.8630
    94.1789  94.3543  94.3676  94.3676  94.5342  94.5342  94.6174  94.6174
    94.6197  94.7045  94.7045  94.7944  94.8290  94.8803  95.0916  95.0916
    95.2317  95.2933  95.2933  95.7459  95.7459  96.0845  96.3237  96.5921
    96.5921  96.6837  96.6837  96.9592  96.9592  96.9994  97.1805  97.2144
    97.2144  97.4246  97.5765  97.7377  98.0504  98.0587  98.0860  98.0860
    98.2093  98.2093  98.2614  98.3432  98.3432  98.5185  98.5185  98.6536
    98.6536  98.6728  98.6946  98.7392  98.8004  98.9833  98.9833  99.0034
    99.1186  99.1186  99.1959  99.1959  99.2766  99.2821  99.2821  99.3452
    99.3452  99.3619  99.3619  99.4529  99.4529  99.6074 100.0071 100.1495
   100.1495 100.2624 100.4504 100.4504 100.5607 100.6302 100.6302 101.0899
   101.1857 101.2334 101.2334 101.6575 101.6575 101.8284 101.8284 102.0470
   102.0470 102.0738 102.0738 102.0803 102.1996 102.3045 102.3439 102.5734
   102.5996 102.5996 102.6851 102.7371 102.7371 102.7456 102.7456 102.7538
   102.7730 102.8280 102.8280 102.9464 102.9914 103.0068 103.0068 103.0491
   103.0491 103.0708 103.2808 103.3260 103.3260 103.6891 103.6891 103.6897
   103.7241 103.7241 103.7880 103.7909 103.7909 103.8184 103.8850 103.8850
   103.9165 103.9165 103.9714 103.9714 104.0300 104.0318 104.1233 104.5235
   104.5235 104.5502 104.5502 104.5550 104.7466 104.9138 104.9138 104.9215
   104.9662 104.9667 104.9667 105.0290 105.0290 105.4996 105.5198 105.5198
   105.5518 105.5757 105.5757 105.6501 105.6947 105.6947 105.9713 105.9713
   106.1304 106.1835 106.2200 106.2200 106.5430 106.6161 106.6191 106.6191
   106.6655 106.7606 106.7606 107.3461 107.3461 107.3530 107.3822 107.5594
   107.5594 107.7689 107.9145 108.1217 108.1217 108.1915 108.3096 108.3219
   108.3219 108.3819 108.3819 108.6173 108.6605 108.6605 108.6770 108.8671
   108.8671 108.9916 108.9916 109.0331 109.0389 109.0862 109.1461 109.1995
   109.1995 109.2243 109.2243 109.3477 109.3477 109.6227 109.6227 109.6442
   109.7466 109.7466 109.7483 109.8875 110.1143 110.1143 110.2527 110.2527
   110.3780 110.5650 110.5650 110.5902 110.5902 110.6799 111.0941 111.0991
   111.0991 111.1789 111.1789 111.2691 111.2691 111.3057 111.3382 111.4496
   111.5187 111.5187 111.7282 111.7314 111.7344 111.7344 111.9258 111.9258
   112.0002 112.0002 112.0849 112.2331 112.5238 112.5238 112.6303 112.6303
   112.6570 112.9932 112.9932 113.3500 113.3834 113.4939 113.4939 113.5830
   113.7288 113.7288 113.8676 113.9069 113.9069 114.4877 114.5354 114.6505
   114.6505 114.8211 114.8211 115.1146 115.1737 115.1972 115.2516 115.2712
   115.2712 115.3780 115.4764 115.6466 115.8396 115.8396 115.8583 115.8583
   115.9590 116.0959 116.1275 116.1275 116.1360 116.1360 116.4064 116.5331
   116.5331 116.6701 116.7552 116.7552 116.8488 116.8772 116.8772 116.9655
   117.0485 117.0485 117.2987 117.2987 117.4315 117.4315 117.4720 117.9125
   117.9242 117.9242 118.2002 118.5973 118.6055 118.6055 118.8018 118.8018
   119.2608 119.2608 119.4523 119.5509 119.5509 119.9603 120.0862 120.0862
   120.0949 120.0949 120.1219 120.5385 120.5385 120.6809 120.7349 120.7976
   120.7976 120.8608 120.8933 120.8933 121.1204 121.1205 121.1920 121.3421
   121.3421 121.4189 121.4931 121.4931 121.6019 121.6146 121.6146 121.6353
   121.7832 121.8292 121.8292 121.8634 121.8634 121.9170 122.0983 122.1848
   122.3202 122.3202 122.7831 122.8151 122.8151 122.8989 122.8989 122.9754
   123.0691 123.0691 123.1206 123.1911 123.1911 123.3277 123.4509 123.4509
   123.5774 123.6054 123.9435 123.9435 124.0873 124.0873 124.1262 124.2163
   124.3066 124.3066 124.8542 124.8542 124.8843 125.0933 125.2797 125.4640

     the Fermi energy is     0.0011 ev
     (compare with:    -1.4831 eV, computed in scf)

     Writing all to output data dir out/CdI2.save/
 
     init_run     :      0.42s CPU      0.48s WALL (       1 calls)
     electrons    :     94.89s CPU     97.35s WALL (       1 calls)

     Called by init_run:
     wfcinit      :      0.00s CPU      0.00s WALL (       1 calls)
     potinit      :      0.04s CPU      0.05s WALL (       1 calls)
     hinit0       :      0.05s CPU      0.10s WALL (       1 calls)

     Called by electrons:
     c_bands      :     94.89s CPU     97.35s WALL (       1 calls)
     v_of_rho     :      0.03s CPU      0.04s WALL (       1 calls)

     Called by c_bands:
     init_us_2    :      0.00s CPU      0.00s WALL (       1 calls)
     init_us_2:cp :      0.00s CPU      0.00s WALL (       1 calls)
     cegterg      :     92.14s CPU     94.52s WALL (       1 calls)

     Called by *egterg:
     cdiaghg      :     71.43s CPU     73.66s WALL (      13 calls)
     h_psi        :      3.91s CPU      3.96s WALL (      14 calls)
     g_psi        :      0.04s CPU      0.04s WALL (      12 calls)

     Called by h_psi:
     h_psi:calbec :      0.15s CPU      0.15s WALL (      14 calls)
     vloc_psi     :      3.53s CPU      3.57s WALL (      14 calls)
     add_vuspsi   :      0.18s CPU      0.19s WALL (      14 calls)

     General routines
     calbec       :      0.15s CPU      0.15s WALL (      14 calls)
     fft          :      0.03s CPU      0.07s WALL (      10 calls)
     fftw         :      3.10s CPU      3.14s WALL (   19962 calls)
 
     Parallel routines
 
     PWSCF        :   1m35.82s CPU   1m38.67s WALL

 
   This run was terminated on:  23:46:27   5Apr2024            

=------------------------------------------------------------------------------=
   JOB DONE.
=------------------------------------------------------------------------------=
