
     Program PWSCF v.7.1 starts on  6Apr2024 at  1:47:51 

     This program is part of the open-source Quantum ESPRESSO suite
     for quantum simulation of materials; please cite
         "P. Giannozzi et al., J. Phys.:Condens. Matter 21 395502 (2009);
         "P. Giannozzi et al., J. Phys.:Condens. Matter 29 465901 (2017);
         "P. Giannozzi et al., J. Chem. Phys. 152 154105 (2020);
          URL http://www.quantum-espresso.org", 
     in publications or presentations arising from this work. More details at
     http://www.quantum-espresso.org/quote

     Parallel version (MPI), running on     8 processors

     MPI processes distributed on     1 nodes
     236529 MiB available memory on the printing compute node when the environment starts
 
     Reading input from pw_CdI2_nscf_k69_E56.in
Warning: card &IONS ignored
Warning: card / ignored
Warning: card &CELL ignored
Warning: card / ignored

     Current dimensions of program PWSCF are:
     Max number of different atomic species (ntypx) = 10
     Max number of k-points (npk) =  40000
     Max angular momentum in pseudopotentials (lmaxx) =  4

     Atomic positions and unit cell read from directory:
     out/CdI2.save/
     Atomic positions from file used, from input discarded
 
 
     R & G space division:  proc/nbgrp/npool/nimage =       8
     Subspace diagonalization in iterative solution of the eigenvalue problem:
     one sub-group per band group will be used
     scalapack distributed-memory algorithm (size of sub-group:  2*  2 procs)

 
     Parallelization info
     --------------------
     sticks:   dense  smooth     PW     G-vecs:    dense   smooth      PW
     Min         126     126     36                17763    17763    2719
     Max         128     128     37                17775    17775    2727
     Sum        1015    1015    295               142153   142153   21779
 
     Using Slab Decomposition
 


     bravais-lattice index     =            4
     lattice parameter (alat)  =       8.0815  a.u.
     unit-cell volume          =    2509.9427 (a.u.)^3
     number of atoms/cell      =            3
     number of atomic types    =            2
     number of electrons       =        54.00
     number of Kohn-Sham states=         1200
     kinetic-energy cutoff     =      56.0000  Ry
     charge density cutoff     =     224.0000  Ry
     Exchange-correlation= PBE
                           (   1   4   3   4   0   0   0)

     celldm(1)=   8.081496  celldm(2)=   0.000000  celldm(3)=   5.491082
     celldm(4)=   0.000000  celldm(5)=   0.000000  celldm(6)=   0.000000

     crystal axes: (cart. coord. in units of alat)
               a(1) = (   1.000000   0.000000   0.000000 )  
               a(2) = (  -0.500000   0.866025   0.000000 )  
               a(3) = (   0.000000   0.000000   5.491082 )  

     reciprocal axes: (cart. coord. in units 2 pi/alat)
               b(1) = (  1.000000  0.577350  0.000000 )  
               b(2) = (  0.000000  1.154701  0.000000 )  
               b(3) = (  0.000000  0.000000  0.182113 )  


     PseudoPot. # 1 for Cd read from file:
     /usr/scratch4/magr4985/FGWC/FGWC/pseudo/SG15/Cd.upf
     MD5 check sum: 810a600e5a5ac944c8c8f48f0d721646
     Pseudo is Norm-conserving, Zval = 20.0
     Generated using ONCVPSP code by D. R. Hamann
     Using radial grid of  602 points,  6 beta functions with: 
                l(1) =   0
                l(2) =   0
                l(3) =   1
                l(4) =   1
                l(5) =   2
                l(6) =   2

     PseudoPot. # 2 for I  read from file:
     /usr/scratch4/magr4985/FGWC/FGWC/pseudo/SG15/I.upf
     MD5 check sum: 8277ef51204d8074ead4596f3b37a2aa
     Pseudo is Norm-conserving, Zval = 17.0
     Generated using ONCVPSP code by D. R. Hamann
     Using radial grid of  602 points,  6 beta functions with: 
                l(1) =   0
                l(2) =   0
                l(3) =   1
                l(4) =   1
                l(5) =   2
                l(6) =   2

     atomic species   valence    mass     pseudopotential
        Cd            20.00   112.41100     Cd( 1.00)
        I             17.00   126.90450     I ( 1.00)

     12 Sym. Ops., with inversion, found



   Cartesian axes

     site n.     atom                  positions (alat units)
         1           Cd  tau(   1) = (   0.0000000   0.0000000   2.7455410  )
         2           I   tau(   2) = (   0.5000000   0.2886752   3.1557127  )
         3           I   tau(   3) = (   0.0000000   0.5773502   2.3353693  )

     number of k points=     7  Gaussian smearing, width (Ry)=  0.0005
                       cart. coord. in units 2pi/alat
        k(    1) = (   0.0000000   0.0000000   0.0000000), wk =   0.0555556
        k(    2) = (   0.0000000   0.1924501   0.0000000), wk =   0.3333333
        k(    3) = (   0.0000000   0.3849002   0.0000000), wk =   0.3333333
        k(    4) = (   0.0000000  -0.5773503   0.0000000), wk =   0.1666667
        k(    5) = (   0.1666667   0.2886751   0.0000000), wk =   0.3333333
        k(    6) = (   0.1666667   0.4811252   0.0000000), wk =   0.6666667
        k(    7) = (   0.3333333   0.5773503   0.0000000), wk =   0.1111111

     Dense  grid:   142153 G-vectors     FFT dimensions: (  40,  40, 216)

     Estimated max dynamical RAM per process >     564.89 MB

     Estimated total dynamical RAM >       4.41 GB

     The potential is recalculated from file :
     out/CdI2.save/charge-density

     Starting wfcs are random

     Band Structure Calculation
     Davidson diagonalization with overlap

     ethr =  5.00E-06,  avg # of iterations = 11.0

     total cpu time spent up to now is      725.5 secs

     End of band structure calculation

          k = 0.0000 0.0000 0.0000 ( 17889 PWs)   bands (ev):

  -103.9432 -64.9726 -64.9726 -64.9665 -46.1265 -46.1265 -46.1262 -46.1262
   -46.1117 -46.1117 -46.1113 -46.1113 -46.1059 -46.1056 -14.2172 -13.7714
    -9.9022  -9.9022  -9.7968  -9.7320  -9.7320  -5.6104  -3.2365  -2.6434
    -2.6434  -2.3922  -2.3922   0.3859   2.1692   3.5766   3.6179   3.9656
     3.9656   4.2684   4.9019   5.7522   6.0108   6.6142   6.6142   6.7503
     7.5903   8.1861   8.6520   8.6520   8.7990   8.9601   8.9819   8.9819
    10.5859  11.0787  11.4295  11.4295  12.8384  12.8705  12.8705  13.0968
    13.9323  14.0979  14.1504  14.1504  14.3903  14.3903  14.7225  14.7271
    15.0032  15.0032  15.0920  15.0920  15.1646  15.1649  15.1649  15.2602
    15.2709  15.2709  15.3294  15.5387  16.1940  16.2547  16.2547  16.3403
    16.3403  16.4030  16.5511  16.5511  16.6337  16.6337  16.7638  17.1536
    17.6304  17.7373  18.2978  18.2978  18.3511  18.3511  18.6205  18.6205
    18.7885  18.7970  18.7970  18.9393  19.1811  19.4786  20.8521  20.9200
    20.9200  20.9352  21.0558  21.0558  21.2759  21.2759  21.6235  21.6235
    21.8964  21.9093  22.2875  22.6641  22.7475  23.1215  23.1215  23.4731
    23.9767  23.9767  24.3602  24.3793  24.3793  24.5697  24.6396  24.6396
    24.6495  24.6495  24.8002  24.8002  25.2304  25.2304  25.3059  25.5967
    25.5967  25.6700  26.9991  27.0543  27.1469  27.5997  27.8059  27.8059
    28.2446  28.2809  28.2809  28.4398  28.4398  28.8468  28.9685  28.9685
    29.5157  29.6862  30.3619  30.4731  30.4735  30.4735  30.7772  30.7772
    30.8583  31.1970  31.1970  31.7036  31.8513  32.6591  32.6591  32.8796
    32.8796  32.9348  33.1663  33.1663  33.2132  33.4086  33.4086  33.9877
    34.0048  34.1819  34.1930  34.1930  34.4891  34.7768  34.8377  35.5270
    35.5270  35.6809  36.3234  36.3234  36.3594  36.3594  36.5993  36.5993
    36.6915  36.7810  36.7810  36.7960  36.9928  36.9950  36.9950  37.0195
    37.0523  37.0523  37.1051  37.1051  37.2310  37.2310  37.2736  37.2736
    37.2968  37.6370  37.7834  37.7834  37.9156  38.0161  38.0161  38.0710
    38.0710  38.1868  38.2727  38.3086  38.3086  38.3715  38.4207  38.4207
    38.5411  38.5411  38.9325  38.9362  38.9362  39.1812  39.1812  39.3350
    39.4164  39.8137  40.1340  40.1340  40.1847  40.2266  40.2862  40.2862
    40.3206  40.4431  40.5207  40.5329  40.5329  40.9016  40.9016  41.7120
    41.7120  41.8203  41.9643  41.9643  42.3889  42.4643  42.5537  42.5537
    42.5908  42.5908  42.9377  42.9377  42.9737  42.9860  43.3464  43.3464
    43.4174  43.6725  43.8129  43.8129  44.0141  44.0400  44.0400  44.3003
    44.3003  44.4166  44.4166  44.4590  44.5599  44.6912  44.6912  44.8920
    44.9277  44.9277  45.2415  46.1891  46.2867  46.2895  46.3816  46.4204
    46.4204  46.6226  46.6226  46.6791  46.9207  46.9207  47.0873  47.0873
    47.1343  47.2231  47.4100  47.5148  47.5148  47.6315  47.6315  47.7725
    47.8960  47.8960  47.9892  48.0447  48.0447  48.0783  48.1703  48.1844
    48.1844  48.2436  48.2436  48.4099  48.5172  48.5172  48.8926  48.8926
    48.9809  48.9809  48.9896  49.1118  49.3804  49.3804  49.3853  49.6276
    49.6276  49.6828  49.6857  49.6857  49.8080  49.8080  49.9228  49.9228
    49.9941  50.0567  50.2799  50.3875  50.3875  50.5448  50.6550  50.6590
    50.9907  50.9907  51.0753  51.0753  51.2385  51.3088  51.3088  51.5803
    51.5803  51.6317  51.7409  51.7755  51.7755  51.8928  51.9135  51.9135
    52.0770  52.0777  52.0777  52.7225  53.0557  53.0557  53.1566  53.7176
    53.7633  53.7633  53.7795  53.7795  53.9295  53.9445  53.9445  54.0961
    54.2489  54.3632  54.4575  54.4575  54.4649  54.7622  54.7622  55.0938
    55.1948  55.1948  55.3480  55.3480  55.5097  55.5097  55.7982  55.9613
    56.5301  56.5301  56.5435  56.5932  56.6010  56.7710  56.7710  57.0713
    57.1224  57.1224  57.1821  57.1821  57.7115  57.7569  57.8267  57.8293
    57.8293  57.8635  57.8635  57.9689  57.9689  58.1420  58.4120  58.4120
    58.4207  59.1991  59.2646  59.5069  59.5069  59.8462  59.8462  60.1948
    60.1948  60.2489  60.2935  60.4957  60.5199  60.7765  60.7765  61.3026
    61.3266  61.4061  61.4061  61.6287  61.6287  61.7827  61.8225  61.8408
    61.8408  62.0662  62.0702  62.0702  62.6551  63.0742  63.0742  63.3648
    63.4401  63.4401  63.8408  63.8408  63.9659  64.0901  64.2403  64.2730
    64.3566  64.3566  64.7642  64.7642  65.0148  65.0148  65.2700  65.2700
    65.4895  65.4895  65.5324  65.5572  65.6139  65.9189  65.9189  65.9603
    65.9603  66.2007  66.2050  66.3040  66.3040  66.3701  66.8647  66.8647
    66.9403  67.0207  67.0207  67.2180  67.2180  67.4474  67.5398  67.5398
    67.6947  68.0938  68.4951  68.4951  68.7975  69.2752  69.2752  69.3976
    69.6314  69.6314  69.9107  69.9423  69.9423  69.9614  69.9614  70.1953
    70.1953  70.4267  70.5376  70.8927  70.8927  70.9386  70.9386  71.2866
    71.3639  71.3890  71.6615  71.9424  71.9424  71.9594  71.9594  72.0788
    72.0895  72.1378  72.2586  72.2586  72.3504  72.3504  72.5000  72.5000
    72.5431  72.9612  72.9612  73.0394  73.0394  73.0676  73.0847  73.0847
    73.2086  73.2393  73.2393  73.4039  73.4039  73.4445  73.8829  73.8829
    74.1915  74.1998  74.2193  74.5284  74.5284  75.0922  75.3171  75.3171
    75.3869  75.6163  75.6163  76.1179  76.2161  76.2161  76.6638  76.6638
    76.7155  76.8750  77.1535  77.1535  77.4251  77.4251  77.7842  77.7842
    77.8176  77.8626  77.8915  78.2154  78.3016  78.4211  78.4211  78.5408
    78.5408  78.6589  78.7528  78.7528  78.8455  78.9284  78.9284  78.9851
    79.1841  79.1841  79.2075  79.2838  79.4619  79.6591  79.6883  79.8353
    79.8353  79.9447  79.9447  79.9557  79.9792  80.0616  80.0748  80.0748
    80.1191  80.1191  80.3553  80.3553  80.4126  80.4126  80.4744  80.5401
    80.5787  80.5787  80.6938  80.7083  80.7083  80.7298  80.7834  80.7834
    80.7872  80.8223  80.8661  80.8661  80.8921  80.8921  80.9183  80.9441
    80.9535  80.9535  80.9688  80.9688  80.9881  81.0348  81.0348  81.1623
    81.1623  81.1635  81.1635  81.3448  81.4352  81.6325  81.7309  81.7357
    81.7503  81.7503  81.7578  81.7578  81.7882  81.9105  81.9105  81.9451
    81.9451  82.0883  82.0883  82.1971  82.2078  82.2104  82.2104  82.2327
    82.3091  82.3289  82.3289  82.5714  82.5714  82.5722  82.6593  82.6593
    82.7923  82.7923  82.8521  82.8521  83.1160  83.2091  83.2091  83.3028
    83.6156  83.6375  83.7027  83.7027  83.7433  83.9044  83.9044  83.9677
    84.0229  84.1030  84.1587  84.1587  84.1760  84.1760  84.2366  84.2636
    84.2749  84.2749  84.3315  84.3315  84.5822  84.7311  84.7311  84.8325
    84.8999  84.8999  84.9923  85.0059  85.0059  85.4943  85.4943  85.7233
    85.7472  85.7472  85.7778  85.7778  85.8668  85.9019  85.9019  85.9948
    86.0012  86.3535  86.3685  86.3838  86.3838  86.4329  86.4472  86.4472
    86.4566  86.7839  86.7839  87.0843  87.0843  87.0938  87.0998  87.0998
    87.1613  87.1954  87.2689  87.3086  87.3086  87.5393  87.5393  87.6030
    87.6361  87.6361  87.9698  87.9698  88.1701  88.1701  88.2095  88.2402
    88.2913  88.4266  88.6563  88.6563  88.7380  88.7380  88.7573  89.2288
    89.2288  89.4040  89.4040  89.4492  89.5125  89.5543  89.5600  89.5600
    89.6548  89.7037  89.7037  89.8407  89.8771  89.8771  89.8898  90.0781
    90.0781  90.2374  90.2374  90.2805  90.2805  90.2957  90.2957  90.3301
    90.3858  90.3858  90.3949  90.5104  90.7208  90.8659  90.9246  90.9246
    91.0611  91.1754  91.1754  91.2029  91.2029  91.7130  91.7130  91.7450
    91.8506  91.8506  92.0060  92.4708  92.5065  92.5065  92.7192  92.7192
    92.8660  92.9941  92.9941  93.2872  93.2891  93.2891  93.4592  93.4592
    93.4693  93.6179  93.6455  93.7278  93.8363  93.8364  93.8630  93.8630
    94.1789  94.3543  94.3676  94.3676  94.5342  94.5342  94.6174  94.6174
    94.6197  94.7045  94.7045  94.7944  94.8290  94.8803  95.0916  95.0916
    95.2317  95.2933  95.2933  95.7459  95.7459  96.0845  96.3237  96.5921
    96.5921  96.6837  96.6837  96.9592  96.9592  96.9994  97.1805  97.2144
    97.2144  97.4246  97.5765  97.7377  98.0504  98.0587  98.0860  98.0860
    98.2093  98.2093  98.2614  98.3432  98.3432  98.5185  98.5185  98.6536
    98.6536  98.6728  98.6946  98.7392  98.8004  98.9833  98.9833  99.0034
    99.1186  99.1186  99.1959  99.1959  99.2766  99.2821  99.2821  99.3452
    99.3452  99.3619  99.3619  99.4529  99.4529  99.6074 100.0071 100.1495
   100.1495 100.2624 100.4504 100.4504 100.5607 100.6302 100.6302 101.0899
   101.1857 101.2334 101.2334 101.6575 101.6575 101.8284 101.8284 102.0470
   102.0470 102.0738 102.0738 102.0803 102.1996 102.3045 102.3439 102.5734
   102.5996 102.5996 102.6851 102.7371 102.7371 102.7456 102.7456 102.7538
   102.7730 102.8280 102.8280 102.9464 102.9914 103.0068 103.0068 103.0491
   103.0491 103.0708 103.2808 103.3260 103.3260 103.6891 103.6891 103.6897
   103.7241 103.7241 103.7880 103.7909 103.7909 103.8184 103.8850 103.8850
   103.9165 103.9165 103.9714 103.9714 104.0300 104.0318 104.1233 104.5235
   104.5235 104.5502 104.5502 104.5550 104.7466 104.9138 104.9138 104.9215
   104.9662 104.9667 104.9667 105.0290 105.0290 105.4996 105.5198 105.5198
   105.5518 105.5757 105.5757 105.6501 105.6947 105.6947 105.9713 105.9713
   106.1304 106.1835 106.2200 106.2200 106.5430 106.6161 106.6191 106.6191
   106.6655 106.7606 106.7606 107.3461 107.3461 107.3530 107.3822 107.5594
   107.5594 107.7689 107.9145 108.1217 108.1217 108.1915 108.3096 108.3219
   108.3219 108.3819 108.3819 108.6173 108.6605 108.6605 108.6770 108.8671
   108.8671 108.9916 108.9916 109.0331 109.0389 109.0862 109.1461 109.1995
   109.1995 109.2243 109.2243 109.3477 109.3477 109.6227 109.6227 109.6442
   109.7466 109.7466 109.7483 109.8875 110.1143 110.1143 110.2527 110.2527
   110.3780 110.5650 110.5650 110.5902 110.5902 110.6799 111.0941 111.0991
   111.0991 111.1789 111.1789 111.2691 111.2691 111.3057 111.3382 111.4496
   111.5187 111.5187 111.7282 111.7314 111.7344 111.7344 111.9258 111.9258
   112.0002 112.0002 112.0849 112.2331 112.5238 112.5238 112.6303 112.6303
   112.6570 112.9932 112.9932 113.3500 113.3834 113.4939 113.4939 113.5830
   113.7288 113.7288 113.8676 113.9069 113.9069 114.4877 114.5354 114.6505
   114.6505 114.8211 114.8211 115.1146 115.1737 115.1972 115.2516 115.2712
   115.2712 115.3780 115.4764 115.6466 115.8396 115.8396 115.8583 115.8583
   115.9590 116.0959 116.1275 116.1275 116.1360 116.1360 116.4064 116.5331
   116.5331 116.6701 116.7552 116.7552 116.8488 116.8772 116.8772 116.9655
   117.0485 117.0485 117.2987 117.2987 117.4315 117.4315 117.4720 117.9125
   117.9242 117.9242 118.2002 118.5973 118.6055 118.6055 118.8018 118.8018
   119.2608 119.2608 119.4523 119.5509 119.5509 119.9603 120.0862 120.0862
   120.0949 120.0949 120.1219 120.5385 120.5385 120.6809 120.7349 120.7976
   120.7976 120.8608 120.8933 120.8933 121.1204 121.1205 121.1920 121.3421
   121.3421 121.4189 121.4931 121.4931 121.6019 121.6146 121.6146 121.6353
   121.7832 121.8292 121.8292 121.8634 121.8634 121.9170 122.0983 122.1848
   122.3202 122.3202 122.7831 122.8151 122.8151 122.8989 122.8989 122.9754
   123.0691 123.0691 123.1206 123.1911 123.1911 123.3277 123.4509 123.4509
   123.5774 123.6054 123.9435 123.9435 124.0873 124.0873 124.1262 124.2163
   124.3066 124.3066 124.8542 124.8542 124.8843 125.0933 125.2797 125.4640

          k = 0.0000 0.1925 0.0000 ( 17791 PWs)   bands (ev):

  -103.9432 -64.9727 -64.9726 -64.9664 -46.1265 -46.1264 -46.1262 -46.1261
   -46.1117 -46.1117 -46.1114 -46.1113 -46.1059 -46.1056 -14.1000 -13.7381
    -9.8853  -9.8537  -9.7737  -9.7362  -9.7277  -5.5878  -3.5629  -3.1371
    -3.0407  -2.9547  -2.4129   0.8541   2.7800   3.4361   3.7615   4.1878
     4.3187   4.6737   5.0750   5.5039   6.0954   6.1779   6.5928   7.0227
     7.4734   8.1723   8.2033   8.7369   9.4718   9.8172  10.0085  10.2670
    10.6750  10.9326  11.2942  11.5434  11.7943  11.8928  12.0957  12.2328
    12.5835  12.8248  13.1476  13.2890  13.4662  13.5917  13.6276  13.7311
    14.0127  14.1824  14.3912  14.7654  14.9320  15.1557  15.1693  15.2602
    15.4483  15.6664  16.2988  16.4004  16.5534  16.8713  16.9194  17.0085
    17.0876  17.2582  17.3955  17.3960  17.4453  17.8103  17.9376  18.0815
    18.2483  18.4603  18.5512  18.5522  18.8293  18.9068  18.9747  19.1373
    19.1710  19.5138  19.5803  19.6777  19.8039  20.0370  20.1187  20.2234
    20.5994  20.6425  20.7165  20.8041  20.8861  21.0744  21.2881  21.6738
    22.0159  22.3930  22.5906  22.7392  22.7656  22.8116  23.0924  23.3385
    23.3509  23.6407  23.7773  23.8296  24.1034  24.4223  24.7831  25.0016
    25.1611  25.3001  25.5055  25.8148  25.9066  26.1054  26.2554  26.4533
    26.6027  26.9340  26.9381  27.1785  27.2717  27.2831  27.6099  27.9351
    28.0349  28.1402  28.5191  28.6638  28.9134  29.1735  29.2188  29.5897
    29.6637  29.7495  29.8237  29.9971  30.2762  30.6070  30.6714  30.8412
    31.0093  31.1878  31.2057  31.2886  31.4593  31.5496  31.5888  31.7071
    31.8759  31.8789  31.9345  32.0444  32.0696  32.3677  32.7470  32.9125
    32.9846  33.0409  33.1915  33.4298  33.6111  33.7037  33.8436  33.9685
    34.0379  34.4567  34.5215  34.5751  34.6995  34.8643  34.9905  35.0980
    35.3946  35.7713  35.8101  35.8266  35.9283  36.2010  36.3392  36.4053
    36.6543  36.7219  36.7388  36.8841  36.9051  37.0809  37.1907  37.3190
    37.3983  37.4055  37.5326  37.5694  37.6233  37.9867  38.0604  38.1145
    38.3790  38.4476  38.5006  38.5949  38.8239  38.8698  39.0971  39.2844
    39.4187  39.6601  39.6695  39.8258  39.8301  40.0589  40.1075  40.3046
    40.4012  40.5417  40.6783  40.6959  40.8490  40.9136  40.9149  40.9513
    41.1096  41.2390  41.2791  41.3751  41.4572  41.5148  41.8156  41.8718
    41.8755  42.0310  42.1203  42.1807  42.3012  42.3180  42.4902  42.5708
    42.6026  42.6894  42.8315  42.8714  42.9269  43.0098  43.0682  43.4294
    43.4712  43.6513  43.6991  43.7843  43.8335  43.9907  44.0121  44.1425
    44.2510  44.3080  44.4474  44.5274  44.5868  44.7342  44.7383  44.8086
    44.9174  45.0565  45.1348  45.1657  45.2685  45.4037  45.5594  45.6885
    45.7263  45.7896  45.9290  45.9431  45.9662  46.1447  46.2012  46.3872
    46.4570  46.6522  46.7822  46.8061  46.8389  47.1526  47.1651  47.1694
    47.2213  47.2340  47.3626  47.4249  47.5437  47.6168  47.7506  47.8678
    48.1131  48.1169  48.2926  48.5308  48.5383  48.6374  48.6989  48.8596
    49.0150  49.0358  49.1086  49.2693  49.7219  49.7849  49.8610  49.9166
    50.0158  50.1817  50.4057  50.4469  50.5246  50.7598  50.8461  50.9202
    50.9609  51.1521  51.1839  51.3547  51.3653  51.5141  51.5370  51.6374
    51.7040  51.9799  52.0356  52.0905  52.1031  52.2281  52.2663  52.3471
    52.6541  52.8192  52.8246  52.9339  53.0109  53.0988  53.1514  53.3390
    53.4192  53.4801  53.6498  53.6608  53.7115  53.8906  53.9952  54.0564
    54.1750  54.3036  54.4286  54.4289  54.6032  54.6209  54.6918  54.8797
    54.9712  55.0495  55.0747  55.1560  55.3305  55.3840  55.5451  55.6597
    55.6951  55.7451  55.8734  55.9238  55.9504  56.1544  56.1721  56.2591
    56.3256  56.5039  56.6263  56.8519  56.9334  57.0142  57.1699  57.2465
    57.3586  57.5186  57.6542  57.8637  57.9229  58.1964  58.2967  58.4657
    58.5696  58.6403  58.8011  58.8936  58.9648  59.0601  59.2376  59.3877
    59.4672  59.6719  59.7469  59.8123  59.8504  60.2544  60.3341  60.4174
    60.5384  60.5737  60.6439  60.7011  60.8967  60.9198  61.0654  61.1500
    61.2543  61.2805  61.6674  61.7201  61.7825  61.8811  61.9047  62.0194
    62.0383  62.3603  62.4043  62.4221  62.4761  62.6461  62.7689  62.8328
    62.9847  63.0394  63.2589  63.4710  63.4845  63.6662  63.6924  63.9306
    64.0647  64.2496  64.6122  64.6321  64.7514  64.8718  65.0469  65.1453
    65.1747  65.2324  65.6017  65.7375  65.7519  65.9575  66.1055  66.1603
    66.2341  66.2650  66.3918  66.5141  66.6296  66.7346  66.8310  66.8651
    66.9790  67.0061  67.1379  67.2650  67.3802  67.4808  67.7033  67.8864
    68.0105  68.1647  68.2618  68.3543  68.7379  68.8895  68.9931  69.0887
    69.2085  69.2447  69.3744  69.6480  69.6761  69.8472  69.9205  70.1260
    70.2104  70.2267  70.3681  70.3762  70.4427  70.6031  70.7322  70.8949
    70.9064  71.0226  71.0978  71.1921  71.2680  71.3008  71.3759  71.4665
    71.4738  71.6754  71.7765  71.9034  71.9349  72.0397  72.1970  72.2793
    72.3037  72.4506  72.4707  72.6409  72.6805  72.7713  72.8019  72.9611
    72.9738  73.1773  73.3119  73.3216  73.4137  73.4560  73.6225  73.6262
    73.6845  73.7228  73.8356  73.8446  73.8954  73.9553  74.0034  74.1168
    74.2419  74.2908  74.3128  74.4403  74.5280  74.5498  74.5896  74.8553
    74.8695  75.0520  75.0595  75.1052  75.1428  75.3040  75.3910  75.3986
    75.5085  75.6614  75.6639  75.7872  75.8552  76.0865  76.0907  76.2252
    76.3079  76.4354  76.6654  76.7421  76.8402  76.8849  77.1478  77.1594
    77.3719  77.4708  77.5282  77.5604  77.5930  77.7620  77.7789  77.9084
    77.9120  78.1288  78.1642  78.2409  78.2635  78.3820  78.4928  78.5115
    78.6370  78.7565  78.7995  78.8678  78.9716  79.0251  79.1159  79.2533
    79.3105  79.3251  79.3405  79.3709  79.3893  79.5262  79.6209  79.6379
    79.6599  79.6851  79.7239  79.7246  79.9578  79.9578  79.9814  80.0632
    80.1427  80.3750  80.3982  80.4278  80.4828  80.5007  80.5451  80.6039
    80.8035  80.8411  80.8606  80.9402  81.0224  81.0710  81.1954  81.2311
    81.3384  81.3787  81.4759  81.5398  81.7409  81.7867  81.8824  81.9974
    82.0272  82.1491  82.3072  82.3652  82.4256  82.4648  82.5637  82.5780
    82.6087  82.6251  82.8594  82.9007  82.9947  82.9983  83.0626  83.0940
    83.1495  83.3866  83.4161  83.5324  83.5851  83.7001  83.8332  83.8619
    83.8651  84.0109  84.2211  84.2460  84.2624  84.3681  84.5019  84.5689
    84.6483  84.6748  84.7426  84.8395  84.8933  85.0019  85.0975  85.1640
    85.2200  85.2956  85.3432  85.4671  85.6194  85.7086  85.7511  85.7569
    85.9353  85.9356  86.0066  86.1204  86.1438  86.2167  86.2968  86.3197
    86.4686  86.5021  86.5072  86.6606  86.7437  86.9901  87.0228  87.0538
    87.1800  87.1917  87.2253  87.4272  87.5111  87.6475  87.7648  87.8005
    87.9234  87.9799  88.0631  88.0861  88.1715  88.1723  88.3048  88.3397
    88.3563  88.3937  88.4720  88.5128  88.5483  88.6300  88.6808  88.7614
    88.7938  88.8981  88.9191  88.9852  89.0571  89.0777  89.1735  89.2360
    89.3007  89.3529  89.5282  89.5585  89.6447  89.7437  89.7865  89.8305
    89.8883  89.9102  90.0080  90.0480  90.1249  90.2621  90.3266  90.3326
    90.4124  90.4504  90.5755  90.6755  90.8282  90.8731  90.9586  90.9982
    91.0925  91.1229  91.2828  91.2943  91.3228  91.3895  91.4522  91.5161
    91.6215  91.7456  91.8414  91.9409  92.0147  92.0298  92.0480  92.1208
    92.1239  92.1846  92.2202  92.3147  92.3816  92.4038  92.4931  92.5573
    92.6512  92.6909  92.8457  92.8609  92.9234  93.0502  93.1275  93.1937
    93.2304  93.2651  93.4291  93.4349  93.5781  93.6260  93.6454  93.6898
    93.7417  93.7796  93.7810  93.9516  94.1322  94.1547  94.1622  94.2635
    94.3820  94.5018  94.5490  94.6473  94.7244  94.8159  94.8635  94.8868
    94.9637  95.0201  95.0819  95.1039  95.1804  95.3590  95.4445  95.5446
    95.7207  95.7792  95.8071  95.8111  95.9124  96.0297  96.0527  96.2213
    96.2639  96.4163  96.4856  96.6026  96.6103  96.6592  96.7119  96.7339
    96.8856  96.9924  97.1266  97.1700  97.2185  97.2594  97.3169  97.4232
    97.4254  97.4273  97.4961  97.6020  97.6349  97.6674  97.7474  97.8025
    97.8399  97.8625  97.9417  98.0149  98.0997  98.1328  98.2710  98.3652
    98.3911  98.5251  98.5725  98.7061  98.7612  98.7926  98.8398  98.9749
    99.0312  99.0596  99.1336  99.1617  99.4449  99.4679  99.4950  99.5098
    99.6894  99.8023  99.8043  99.9390 100.0494 100.1125 100.2046 100.2792
   100.4458 100.4812 100.5042 100.5070 100.7297 100.7320 100.8604 100.8770
   101.0169 101.0799 101.1633 101.2500 101.3036 101.3928 101.5021 101.5753
   101.6303 101.6564 101.6938 101.7630 101.8682 101.9513 102.0128 102.1406
   102.1628 102.2171 102.2774 102.3508 102.5450 102.5609 102.6369 102.6748
   102.7344 102.8263 103.0610 103.0869 103.1425 103.1486 103.1938 103.4321
   103.5469 103.6594 103.7193 103.8087 103.8405 103.8965 104.0780 104.1566
   104.1814 104.4662 104.5172 104.5325 104.6444 104.6982 104.8558 104.8667
   105.0390 105.1124 105.2205 105.3032 105.3179 105.3736 105.5885 105.5976
   105.6921 105.8749 105.8840 106.0360 106.0962 106.3552 106.3966 106.4357
   106.5288 106.6088 106.6933 106.8089 106.8522 106.9994 107.0285 107.0903
   107.1030 107.1949 107.2532 107.2546 107.3567 107.4320 107.5648 107.6164
   107.6502 107.6669 107.7350 107.8394 107.8877 107.9778 108.2007 108.3216
   108.3242 108.3751 108.4466 108.4701 108.5184 108.5704 108.5946 108.6626
   108.6973 108.7113 108.8442 108.9222 108.9374 109.0458 109.0609 109.2568
   109.2857 109.5070 109.6353 109.6746 109.7440 109.7833 109.8683 109.9150
   109.9738 110.0781 110.1140 110.2907 110.3801 110.4327 110.4839 110.5833
   110.6079 110.6992 110.7242 110.8978 111.0119 111.0851 111.1283 111.2621
   111.4215 111.4523 111.4859 111.5501 111.7887 111.8585 111.8956 111.9227
   111.9573 112.0395 112.1507 112.2014 112.2747 112.3305 112.3874 112.4218
   112.4537 112.6212 112.7371 112.7425 112.9115 112.9925 113.0804 113.2574
   113.3256 113.3633 113.4341 113.4851 113.5233 113.7936 113.8931 113.9688
   113.9874 114.0603 114.1965 114.2025 114.2698 114.3929 114.5221 114.6411
   114.6785 114.7311 114.8006 114.8937 114.9574 114.9732 115.0113 115.0868
   115.2679 115.3434 115.4552 115.5152 115.5776 115.5823 115.6940 115.8858
   115.8972 116.0362 116.1345 116.3292 116.3644 116.3747 116.4639 116.6139
   116.6845 116.7328 116.7734 116.8752 116.8829 116.9364 117.0284 117.2167
   117.2514 117.3783 117.3922 117.4830 117.5005 117.6302 117.7937 117.8211
   117.8327 117.8961 117.9243 117.9796 118.0786 118.1805 118.2262 118.4391
   118.4683 118.5347 118.6370 118.6680 118.7394 118.7861 118.9735 119.0238
   119.0899 119.1704 119.2000 119.2775 119.4556 119.7521 119.7526 119.9159
   119.9195 120.0005 120.0490 120.0535 120.1989 120.3450 120.3833 120.4766
   120.4909 120.7020 120.7320 120.7830 120.8918 120.9525 121.1177 121.1587
   121.2285 121.2902 121.2968 121.4728 121.4780 121.5650 121.6357 121.7976
   121.8830 121.9034 121.9499 122.0373 122.0806 122.2057 122.2110 122.2650
   122.3756 122.4086 122.5034 122.6083 122.6760 122.7677 122.8782 122.9989
   123.0209 123.0840 123.1134 123.3103 123.5056 123.6226 123.7442 123.7961
   123.8370 123.9665 124.0562 124.1206 124.1792 124.2280 124.4645 124.4947
   124.6924 124.6936 124.7947 124.8327 124.8644 124.9031 124.9841 125.0555

          k = 0.0000 0.3849 0.0000 ( 17753 PWs)   bands (ev):

  -103.9432 -64.9728 -64.9727 -64.9664 -46.1265 -46.1262 -46.1261 -46.1258
   -46.1118 -46.1117 -46.1115 -46.1113 -46.1057 -46.1054 -13.8417 -13.6733
    -9.8689  -9.8074  -9.7311  -9.6994  -9.6695  -5.7799  -4.6769  -3.8080
    -3.4208  -2.9146  -2.5383   0.4222   2.7795   3.8244   4.5208   4.5651
     4.5665   5.0942   5.4243   6.0949   6.5856   6.7953   7.3338   7.8374
     8.1332   8.2137   8.6170   8.9288   9.2026   9.2857   9.3299   9.4731
     9.7025  10.4373  10.6490  11.1982  11.6281  11.7443  12.0030  12.3742
    12.4962  12.5185  12.6478  12.7721  12.9000  12.9402  13.3964  13.6029
    13.7054  13.7940  14.2042  14.3066  14.4620  14.7381  14.9967  15.0487
    15.1666  15.2955  15.4684  15.4908  16.1230  16.1354  16.2459  16.3132
    16.5927  16.7240  17.0288  18.1876  18.4157  18.5145  18.6303  18.7931
    18.7945  19.0875  19.3118  19.3339  19.6056  19.6254  19.9224  20.0070
    20.1629  20.3099  20.8032  21.0242  21.1728  21.2046  21.2444  21.4143
    21.7248  21.8465  22.0629  22.1413  22.3911  22.3994  22.5960  22.8287
    23.0292  23.1718  23.2974  23.4091  23.5044  23.5568  23.7161  23.7818
    23.8203  23.9432  24.0347  24.1145  24.5217  24.6439  24.9279  25.0446
    25.5016  25.6716  25.7499  25.9503  26.1611  26.2374  26.4119  26.4998
    26.5565  26.6410  26.8306  26.8363  26.9770  27.0659  27.2127  27.2872
    27.3623  27.3719  27.5560  27.9779  28.2806  28.3485  28.3594  28.5219
    28.5701  28.9572  29.1061  29.1504  29.2129  29.6711  29.7402  29.8104
    29.9018  30.0967  30.2870  30.3790  30.4276  30.5065  30.8271  30.8934
    30.9245  31.0373  31.0616  31.1989  31.5100  31.5856  31.6338  31.9693
    32.2838  32.7166  32.8178  32.8342  32.9227  33.0277  33.3587  33.3601
    33.4691  33.6789  33.7519  33.9951  34.1955  34.2227  34.3156  34.4903
    34.5545  34.7717  34.7889  34.8307  34.8933  35.4052  35.5992  35.7685
    35.7965  35.9731  35.9901  36.1001  36.4013  36.5349  36.6132  36.6737
    36.9629  37.1982  37.3087  37.4690  37.4889  37.6295  37.6520  37.8894
    37.9157  38.0555  38.0797  38.2020  38.2426  38.2742  38.4266  38.4744
    38.5404  38.7576  38.8880  39.1322  39.2282  39.4338  39.5188  39.7608
    39.8009  39.9422  39.9611  40.3034  40.3380  40.4449  40.6798  40.7396
    40.8452  40.9499  41.1914  41.3013  41.3939  41.4304  41.4667  41.6231
    41.6945  41.7853  41.9025  41.9574  41.9682  42.0696  42.1045  42.1542
    42.2441  42.2883  42.6116  42.6244  42.7961  42.9241  42.9397  43.0918
    43.2612  43.3461  43.3486  43.6399  43.6695  43.8580  44.1083  44.2244
    44.2965  44.3495  44.4785  44.5229  44.6923  44.7250  44.8106  44.8399
    45.0115  45.2323  45.3658  45.4684  45.6180  45.8376  45.9110  46.0138
    46.0398  46.3048  46.6844  46.7156  46.9139  47.0299  47.2658  47.3390
    47.5588  47.6672  47.6924  47.8560  47.9534  48.0275  48.1518  48.2144
    48.2205  48.3352  48.3672  48.4107  48.5806  48.5868  48.8213  48.8550
    48.9016  48.9501  49.0370  49.2456  49.3193  49.4248  49.4445  49.5470
    49.7510  49.7635  49.8087  50.0330  50.2824  50.2875  50.3980  50.5761
    50.7691  50.7779  50.8753  51.0208  51.1767  51.3743  51.6298  51.6827
    51.7789  51.7876  51.9305  52.0586  52.0706  52.1555  52.3153  52.3712
    52.5030  52.5843  52.7873  52.8743  52.9713  53.0939  53.1277  53.2935
    53.5248  53.5941  53.6773  54.0006  54.0735  54.1581  54.1823  54.5201
    54.7053  54.8157  54.8346  54.8851  55.0382  55.0958  55.1705  55.1713
    55.4307  55.4918  55.5825  55.7036  55.8305  55.9566  55.9736  56.1400
    56.1548  56.2000  56.2378  56.3279  56.4504  56.5286  56.5611  56.5905
    56.6197  56.6788  56.7108  56.9583  57.0771  57.2593  57.2920  57.3750
    57.4950  57.5187  57.8843  57.9637  57.9958  58.1437  58.3209  58.4393
    58.4922  58.6244  58.6836  58.7226  58.9356  59.0694  59.1239  59.3196
    59.3402  59.4616  59.5820  59.8745  59.9689  60.0406  60.0624  60.1588
    60.2692  60.4202  60.7661  60.9762  60.9977  61.0158  61.1636  61.2696
    61.4262  61.5338  61.6628  61.7071  61.8026  61.9254  62.0299  62.0573
    62.1771  62.3264  62.4763  62.6209  62.7029  62.7614  62.8582  62.8876
    62.9193  63.1748  63.2613  63.2629  63.2694  63.3629  63.4237  63.4692
    63.5051  63.5220  63.5788  63.7292  63.7740  63.7935  63.9278  63.9433
    64.0248  64.0714  64.1330  64.2768  64.3183  64.4552  64.7216  64.9142
    65.0222  65.0388  65.1260  65.1414  65.2297  65.4064  65.4964  65.6247
    65.6995  65.8095  65.8097  65.9808  66.0510  66.1790  66.2819  66.3616
    66.3811  66.4830  66.6287  66.6961  66.7688  66.9608  66.9618  67.0650
    67.2124  67.2350  67.3258  67.4040  67.4385  67.4439  67.4604  67.5607
    67.8428  67.8454  67.8885  68.0239  68.0785  68.1462  68.2466  68.2690
    68.3872  68.3932  68.5067  68.5886  68.8347  68.8355  68.9216  68.9968
    69.1076  69.2130  69.2441  69.4720  69.5047  69.6476  69.6942  69.8317
    69.8916  69.9129  70.0260  70.0881  70.2471  70.2617  70.3784  70.4352
    70.4909  70.5681  70.5815  70.6615  70.8438  70.8784  70.9621  71.1013
    71.1553  71.2594  71.2706  71.5747  71.5770  71.9072  71.9076  72.0452
    72.0897  72.1406  72.2685  72.2922  72.3795  72.4382  72.8338  72.8462
    72.9862  73.0316  73.0792  73.1625  73.2478  73.4835  73.5051  73.6539
    73.6798  73.8073  73.8487  73.9969  74.0137  74.0251  74.1671  74.2022
    74.3014  74.4684  74.6659  74.6849  74.8886  75.0552  75.1165  75.4600
    75.4604  75.6010  75.6722  75.6867  75.7890  75.8299  76.2053  76.2154
    76.2832  76.5730  76.6027  76.7622  76.8674  76.8965  76.9787  77.0727
    77.1228  77.2145  77.3396  77.4038  77.4984  77.5310  77.5485  77.6321
    77.7388  77.7697  77.8855  77.9060  78.0382  78.0393  78.1542  78.2586
    78.2612  78.3779  78.4224  78.4333  78.5713  78.6083  78.6649  78.7664
    78.8914  78.9786  78.9863  79.0512  79.1383  79.3113  79.3895  79.4368
    79.5962  79.6716  79.6987  79.7768  79.7850  79.9776  79.9955  80.0698
    80.1667  80.3036  80.3413  80.5669  80.5680  80.5884  80.6607  80.8046
    80.8139  81.0029  81.1273  81.1903  81.2561  81.2846  81.4042  81.4404
    81.6008  81.6823  81.7449  81.7710  81.9302  82.0317  82.1229  82.1525
    82.1867  82.3126  82.3380  82.4848  82.4940  82.6650  82.8753  83.0960
    83.1576  83.1767  83.2538  83.2596  83.4228  83.6027  83.6195  83.7004
    83.7182  83.8072  83.8505  83.8623  84.0940  84.1349  84.3002  84.3665
    84.4871  84.5734  84.6167  84.6323  84.6621  84.7563  84.9393  84.9630
    85.0610  85.1363  85.2668  85.4030  85.4766  85.4858  85.5496  85.5827
    85.6559  85.7090  85.7361  85.8229  85.8271  85.8786  85.9147  86.1413
    86.2493  86.2677  86.3217  86.4712  86.5607  86.6082  86.6834  86.7196
    86.8253  86.8827  86.9157  87.0386  87.1865  87.1984  87.3121  87.3238
    87.5107  87.5867  87.6309  87.7392  87.7683  87.9589  88.0687  88.0975
    88.1807  88.2285  88.2718  88.3312  88.4466  88.5065  88.5773  88.6344
    88.7844  88.7996  88.8643  89.0045  89.0320  89.1673  89.3414  89.3770
    89.4182  89.5581  89.7316  89.9302  90.0683  90.1395  90.2172  90.3717
    90.4824  90.5903  90.6461  90.7006  90.8236  90.8756  90.9785  91.1046
    91.1097  91.1630  91.2221  91.2986  91.3596  91.5140  91.5505  91.6773
    91.6846  91.8552  91.9406  91.9574  91.9883  92.0754  92.1220  92.1864
    92.2794  92.4185  92.4702  92.5449  92.6358  92.6780  92.7601  92.8338
    92.9161  93.0405  93.0566  93.1481  93.1801  93.1965  93.2299  93.3495
    93.4076  93.4454  93.4884  93.5863  93.6372  93.6496  93.7816  93.9053
    93.9478  94.1294  94.2283  94.2697  94.2806  94.3633  94.5665  94.6124
    94.6660  94.9066  94.9889  95.0035  95.1253  95.1957  95.2504  95.3148
    95.4798  95.5023  95.7030  95.7441  95.9051  95.9389  96.0129  96.1601
    96.2006  96.2614  96.3115  96.4039  96.4201  96.5362  96.5729  96.6864
    96.7159  96.7477  96.7981  96.8413  96.8899  96.9446  97.0039  97.1499
    97.2796  97.3565  97.3750  97.4402  97.5099  97.5167  97.6081  97.7809
    97.8350  97.8353  97.8928  97.9736  98.0487  98.1882  98.2578  98.4667
    98.4750  98.5443  98.5731  98.6147  98.6888  98.7045  98.8075  98.8171
    98.9192  98.9696  99.0160  99.0265  99.2480  99.2636  99.2734  99.4057
    99.4984  99.5923  99.6739  99.7610  99.7906  99.8080  99.9543 100.0358
   100.1299 100.1450 100.2651 100.3024 100.3190 100.3581 100.4551 100.4988
   100.5687 100.6385 100.6962 100.7943 100.8745 101.0377 101.0467 101.1324
   101.1742 101.2386 101.3643 101.4106 101.4905 101.5403 101.6140 101.6916
   101.7680 101.7851 101.9616 102.0853 102.2174 102.2627 102.2669 102.4072
   102.5709 102.6598 102.6685 102.7301 102.8299 102.8951 103.0321 103.0480
   103.1328 103.1841 103.2776 103.3907 103.3920 103.5736 103.6020 103.6952
   103.7068 103.8304 103.8584 103.9027 103.9900 104.1542 104.2573 104.3004
   104.3317 104.5074 104.5546 104.7064 104.7741 104.8766 104.9203 105.1150
   105.1356 105.3313 105.4310 105.5339 105.5570 105.5730 105.5749 105.7688
   105.8857 105.9106 105.9887 106.0394 106.0928 106.1190 106.2216 106.2381
   106.2571 106.3746 106.5602 106.5621 106.5968 106.7258 106.7756 106.8970
   106.9553 107.0646 107.0933 107.1260 107.2271 107.3084 107.3222 107.3913
   107.5662 107.6212 107.7254 107.8034 107.8721 107.9579 108.0779 108.2479
   108.3123 108.3307 108.3441 108.4372 108.5394 108.6279 108.7178 108.8202
   109.0695 109.1582 109.2804 109.2839 109.3270 109.4881 109.5339 109.5855
   109.6259 109.6446 109.8299 110.0331 110.0559 110.1153 110.2113 110.3030
   110.3663 110.5255 110.6592 110.6697 110.7079 110.8894 110.8920 110.9176
   111.0322 111.1712 111.3121 111.4216 111.4355 111.5358 111.5383 111.6026
   111.6175 111.8485 111.9955 112.0100 112.2579 112.2868 112.2924 112.3502
   112.4450 112.5383 112.6823 112.7002 112.7437 112.9398 112.9421 113.0900
   113.1551 113.2414 113.2751 113.4381 113.5073 113.5204 113.5658 113.6601
   113.6855 113.7880 113.9056 113.9076 114.0442 114.1234 114.2212 114.3518
   114.3781 114.4019 114.4776 114.5198 114.7035 114.7062 114.7616 114.7989
   114.8208 114.8442 114.8915 114.9433 114.9443 115.0412 115.0415 115.0833
   115.0836 115.1072 115.1689 115.2427 115.3127 115.3762 115.4247 115.4260
   115.4953 115.5863 115.6044 115.6985 115.8711 115.9240 115.9289 116.0911
   116.1694 116.1727 116.2810 116.2895 116.4575 116.4665 116.4776 116.6962
   116.7286 116.7904 116.8938 116.9770 117.0818 117.1119 117.1674 117.2751
   117.3353 117.4244 117.4980 117.5838 117.6346 117.7278 117.7762 117.8128
   117.8734 118.0108 118.0282 118.1634 118.1734 118.2339 118.2562 118.4002
   118.4010 118.4784 118.6299 118.7329 118.7957 118.8241 118.8669 118.9181
   119.0383 119.1692 119.2111 119.3306 119.4065 119.4643 119.5327 119.5846
   119.8411 119.8982 119.9473 120.1004 120.1821 120.1840 120.2249 120.3224
   120.4068 120.5236 120.5869 120.7768 120.8144 120.8676 121.0235 121.0700
   121.1223 121.1373 121.1930 121.1984 121.3068 121.3794 121.4705 121.5637
   121.5872 121.6599 121.7315 121.8268 121.8587 121.8876 121.9230 122.0589
   122.0672 122.1388 122.1970 122.2033 122.3007 122.3382 122.4356 122.4845
   122.5863 122.6375 122.7144 122.7843 122.8753 122.9228 122.9389 123.0726
   123.0754 123.1849 123.1984 123.2303 123.2532 123.3063 123.5030 123.5461
   123.6789 123.7662 123.8311 123.8745 123.9433 124.1552 124.2084 124.2466

          k = 0.0000-0.5774 0.0000 ( 17750 PWs)   bands (ev):

  -103.9432 -64.9728 -64.9727 -64.9664 -46.1264 -46.1262 -46.1260 -46.1257
   -46.1118 -46.1117 -46.1115 -46.1114 -46.1056 -46.1054 -13.6924 -13.6468
    -9.8687  -9.8147  -9.7201  -9.6758  -9.5823  -6.0393  -5.1303  -3.8457
    -3.6213  -2.8638  -2.6063   0.0140   2.7050   3.8450   3.9514   4.5128
     5.8614   5.8888   6.0791   6.4696   6.8763   6.8953   7.4009   7.5068
     8.0912   8.2199   8.6421   8.7469   9.1444   9.1698   9.6940  10.0400
    10.2639  10.2742  10.9147  11.0479  11.1166  11.4332  11.7396  11.8384
    12.0928  12.2228  12.3278  12.3310  12.6017  12.8439  12.8985  13.0576
    13.2609  13.3228  13.5205  13.5908  13.8821  13.9197  14.2334  15.3478
    15.5734  15.6196  15.9206  16.3221  16.4439  16.4729  16.5914  16.7401
    16.7971  17.4296  17.6022  17.6899  18.0790  18.4447  18.4931  18.6786
    18.8161  18.9302  19.0346  19.7097  19.8451  20.0068  20.2881  20.3708
    20.6530  20.6958  21.1546  21.3947  22.0888  22.1197  22.1313  22.4781
    22.5807  22.8169  22.8770  22.9594  23.0004  23.2395  23.2971  23.3636
    23.4435  23.4535  23.4751  23.6544  24.0627  24.1352  24.2090  24.2913
    24.4068  24.4553  24.5328  24.5749  24.7268  24.8204  24.8293  24.9005
    25.1864  25.2710  25.4458  25.4824  25.6669  25.8395  25.8669  26.0091
    26.4871  26.5576  26.6506  26.7275  26.8266  26.9933  27.0822  27.1313
    27.2337  27.3345  27.5714  27.7307  28.5466  28.6016  28.6502  28.7223
    28.8549  28.9593  29.0389  29.1093  29.1350  29.1548  29.1550  29.4876
    29.5127  29.6000  29.8633  29.8804  29.8925  30.0126  30.1448  30.4077
    30.4978  30.5281  30.5414  30.6077  30.6844  30.7888  30.9076  31.1255
    31.1723  31.6117  32.2291  32.2501  32.2507  32.3792  32.5148  32.6838
    32.7277  32.9403  32.9847  33.0259  33.1720  33.3609  33.5890  33.9232
    33.9488  34.5005  34.5006  34.7364  34.9589  35.0383  35.2146  35.3491
    35.6607  35.6767  35.9420  35.9779  36.0075  36.3185  36.4703  36.5686
    36.6506  36.8571  37.0422  37.0685  37.1528  37.2793  37.6805  37.7721
    37.8383  37.9586  38.2971  38.3629  38.6546  38.7590  38.8231  38.9830
    39.1415  39.2853  39.3947  39.4516  39.5016  39.6530  39.6896  39.7821
    39.8331  39.8933  39.9639  40.0215  40.0472  40.1522  40.3695  40.7217
    40.7528  40.7665  40.8085  40.9177  40.9213  41.0662  41.1488  41.2512
    41.3405  41.3470  41.5080  41.5384  41.6641  41.6882  41.8251  41.9686
    42.2751  42.2800  42.3785  42.4945  42.5523  42.6524  42.6626  42.7582
    42.9331  43.2774  43.2922  43.3066  43.3256  43.4203  43.5449  43.6941
    43.8810  43.9236  44.1107  44.2218  44.7530  44.9691  45.1128  45.1318
    45.6124  45.6251  45.8104  45.8118  45.8852  46.1555  46.1727  46.2645
    46.2886  46.3473  46.3590  46.6109  46.6193  46.7741  47.0827  47.0951
    47.3721  47.4699  47.4878  47.7286  47.7433  47.7546  48.0428  48.0590
    48.1496  48.3995  48.7803  48.8561  48.8707  49.1978  49.2436  49.2492
    49.4739  49.4829  49.5148  49.6527  49.6609  49.7432  49.9729  49.9762
    50.0053  50.2791  50.6417  50.6646  51.1202  51.1828  51.3168  51.4493
    51.4794  51.6246  51.8375  51.8982  52.0344  52.0688  52.1960  52.3242
    52.6234  52.6511  52.7815  52.8471  52.9267  53.2410  53.3095  53.3392
    53.5410  53.7904  53.8395  53.9183  53.9595  54.0068  54.0936  54.3919
    54.5799  54.6164  54.7571  55.0912  55.1634  55.2926  55.3755  55.4492
    55.5280  55.7734  55.8667  55.9171  55.9905  56.0768  56.0798  56.2686
    56.3045  56.3633  56.4231  56.4341  56.5157  56.5922  56.6193  56.6861
    56.7943  56.9236  57.2344  57.3461  57.4219  57.4469  57.5740  57.6476
    57.7072  57.8131  57.8291  57.8634  57.8986  57.9779  58.0438  58.0540
    58.1604  58.1951  58.2824  58.3533  58.4896  58.5591  58.5631  58.5957
    58.6474  58.8432  58.9505  59.0461  59.1614  59.3090  59.4255  59.5323
    59.6881  59.7190  59.8307  59.9111  60.1705  60.2761  60.4138  60.4326
    60.5786  60.7635  60.7826  60.9137  60.9604  61.1632  61.2083  61.2890
    61.3282  61.4000  61.4680  61.5111  61.6317  61.6397  61.7197  61.7813
    61.7961  61.8185  61.8447  61.9332  62.0115  62.3709  62.4120  62.4349
    62.5385  62.5679  62.6417  62.6788  62.8029  62.8128  62.9242  62.9244
    62.9664  63.0149  63.0320  63.0676  63.2088  63.3052  63.3154  63.3976
    63.4417  63.5456  63.6089  63.7638  63.7955  63.9584  64.0335  64.1886
    64.2846  64.3167  64.3736  64.4308  64.6297  64.6806  64.7494  64.8337
    64.9724  65.0592  65.1363  65.1723  65.1988  65.3122  65.4539  65.5319
    65.5567  65.6060  65.6096  65.8476  65.8845  66.0972  66.1318  66.1428
    66.1609  66.2610  66.4651  66.6457  66.6818  66.7368  67.1489  67.1553
    67.3694  67.5129  67.5253  67.6004  67.7596  67.9265  68.0393  68.0895
    68.0958  68.1263  68.3300  68.6238  68.6729  68.7136  68.8603  68.9123
    68.9967  69.0644  69.3255  69.5170  69.5308  69.5671  69.6329  69.6695
    69.7090  69.8937  70.0321  70.2071  70.3681  70.3782  70.5361  70.5466
    70.7230  70.7711  70.8179  70.8258  70.9730  71.0314  71.2125  71.3036
    71.4910  71.6111  71.6297  71.6544  71.7186  71.8547  71.9066  71.9383
    72.0451  72.1975  72.3684  72.4269  72.4639  72.5624  72.6428  72.7499
    72.7559  72.7961  72.9550  72.9550  73.0555  73.2095  73.2774  73.3253
    73.3607  73.7529  73.7871  73.8618  73.9136  73.9493  73.9613  74.0668
    74.0945  74.2813  74.3389  74.4139  74.4557  74.6194  74.6207  74.7389
    74.8003  74.9298  74.9793  75.1543  75.1669  75.3141  75.3406  75.4301
    75.4957  75.7144  75.7475  75.7626  75.8235  76.0126  76.1426  76.2562
    76.2952  76.3309  76.4298  76.4931  76.5785  76.8250  76.8590  77.1183
    77.3464  77.3949  77.4250  77.5548  77.6202  77.6491  77.7214  77.8032
    77.8947  78.1122  78.1938  78.1991  78.2340  78.2625  78.3424  78.3599
    78.5974  78.6249  78.6623  78.7555  78.9517  78.9915  79.1688  79.2662
    79.3211  79.3784  79.4447  79.4449  79.5464  79.6079  79.6158  79.6187
    79.6738  79.6820  79.9507  79.9605  80.0217  80.1203  80.1456  80.2046
    80.2753  80.3079  80.4938  80.5511  80.5827  80.6492  80.7384  80.7955
    80.8931  81.0034  81.0535  81.1018  81.1153  81.1608  81.2238  81.3667
    81.6943  81.7092  81.8333  82.0374  82.0849  82.1458  82.2169  82.2918
    82.3101  82.3470  82.5187  82.6060  82.6842  82.7228  82.7933  82.8511
    83.0586  83.1289  83.6243  83.6906  83.7211  83.8133  83.8769  83.9441
    84.1566  84.1946  84.4627  84.5107  84.5682  84.5770  84.6799  84.8504
    84.8993  84.9141  85.1322  85.1548  85.1662  85.1954  85.2941  85.3003
    85.5828  85.6009  85.7094  85.7150  85.7437  85.9096  85.9688  86.0180
    86.0296  86.1805  86.3753  86.5092  86.5623  86.5929  86.6427  86.7433
    86.9013  86.9200  87.2303  87.2533  87.4844  87.6214  87.6454  87.6638
    87.8674  87.8718  88.0036  88.1226  88.1467  88.2868  88.5272  88.5524
    88.5623  88.6184  88.8955  88.8958  88.9502  88.9600  89.0014  89.0086
    89.0602  89.0821  89.1212  89.2021  89.2776  89.4647  89.5100  89.5243
    89.6200  89.6335  89.7062  89.8467  89.9619  90.0327  90.0500  90.1611
    90.1657  90.2150  90.2455  90.3212  90.3418  90.4445  90.4683  90.5755
    90.6326  90.6855  90.7200  90.7330  90.7425  90.8524  90.8839  91.0610
    91.0790  91.2012  91.3632  91.4511  91.4803  91.4949  91.5584  91.6898
    91.7196  91.9051  92.0433  92.0933  92.2072  92.2098  92.2173  92.2346
    92.3535  92.4163  92.6292  92.7091  92.7329  92.7607  92.8398  92.8769
    93.1228  93.7127  93.8156  93.8291  93.8932  94.0133  94.0681  94.0937
    94.1025  94.2756  94.3471  94.6164  94.7053  94.8137  94.8486  95.0082
    95.0455  95.0793  95.3546  95.3784  95.4314  95.5902  95.6272  95.7001
    95.7616  95.8639  95.9859  96.0886  96.1073  96.1649  96.2209  96.5241
    96.6440  96.6890  96.7703  96.8394  96.8597  96.8709  96.9000  96.9550
    97.0336  97.0725  97.1448  97.3215  97.3252  97.4081  97.4187  97.4921
    97.5048  97.5169  97.6224  97.7405  97.7924  97.8063  97.9288  98.0812
    98.1191  98.2678  98.2860  98.3546  98.5063  98.6124  98.6309  98.6434
    98.7717  98.8628  98.9456  99.0594  99.1227  99.2025  99.3471  99.3805
    99.4963  99.6543  99.7091  99.8260  99.9026 100.0768 100.0929 100.1882
   100.3954 100.5301 100.5393 100.5668 100.6215 100.9765 100.9873 101.1105
   101.2187 101.3393 101.4361 101.4699 101.7519 101.8166 101.8776 102.0377
   102.1077 102.1337 102.3347 102.4442 102.5229 102.5542 102.5762 102.5846
   102.8001 102.8639 102.9186 103.1004 103.2468 103.3540 103.4218 103.5538
   103.5729 103.6436 103.6878 103.8141 103.8776 103.9066 104.0859 104.1556
   104.2194 104.2621 104.4665 104.5039 104.5159 104.6566 104.6852 104.8039
   104.8516 104.9053 104.9490 105.0092 105.0960 105.1943 105.3235 105.3563
   105.4132 105.4151 105.4442 105.4901 105.5152 105.5308 105.6432 105.6939
   105.7168 105.7562 105.7639 105.9408 106.0199 106.1898 106.2289 106.2392
   106.3756 106.4072 106.5235 106.5594 106.6815 106.6840 106.6956 106.8056
   106.8218 106.8414 106.9460 106.9654 107.0204 107.0734 107.1836 107.2164
   107.2641 107.2804 107.3653 107.4456 107.5089 107.5456 107.5952 107.6308
   107.6647 107.7234 107.7257 107.8084 108.0245 108.0636 108.0958 108.2196
   108.2631 108.2848 108.4308 108.5332 108.6355 108.7261 108.7388 108.8924
   108.9123 108.9639 109.0185 109.2333 109.2591 109.3298 109.3733 109.4402
   109.4493 109.4945 109.5193 109.7806 109.8740 109.9048 109.9927 110.0045
   110.1014 110.1635 110.4131 110.4172 110.4574 110.6069 110.6886 110.7314
   110.7402 110.8010 110.9166 110.9354 110.9460 111.0489 111.1178 111.2002
   111.2056 111.3158 111.3912 111.4420 111.4454 111.4974 111.5102 111.6273
   111.6292 111.6721 111.7462 111.7855 111.8678 111.8994 111.9185 111.9237
   111.9914 112.0516 112.1019 112.1875 112.2288 112.2511 112.3154 112.4235
   112.4328 112.5034 112.5896 112.6165 112.7768 112.7927 112.8226 112.9357
   112.9381 113.0551 113.1083 113.1403 113.1443 113.2819 113.3002 113.4140
   113.4370 113.4448 113.6902 113.7004 113.7746 113.8139 113.9396 113.9946
   114.1115 114.1955 114.2024 114.2221 114.2366 114.3106 114.3300 114.4579
   114.5032 114.5307 114.7903 114.7908 114.8397 114.9938 115.0589 115.1088
   115.1596 115.2598 115.3878 115.4260 115.4662 115.6262 115.6520 115.7083
   115.8199 115.8511 116.1044 116.1403 116.1532 116.1760 116.3273 116.3871
   116.5243 116.5629 116.6756 116.6945 116.7159 116.7460 116.8493 116.8823
   117.1525 117.1719 117.3017 117.3051 117.3188 117.3700 117.4035 117.5763
   117.6468 117.6780 117.7258 117.8209 118.0172 118.1128 118.1787 118.1992
   118.3218 118.3289 118.4012 118.5145 118.6237 118.6442 118.7150 118.7986
   118.8432 118.9274 119.0104 119.0442 119.0488 119.0655 119.2868 119.3067
   119.3458 119.5187 119.5298 119.5635 119.6835 119.6900 119.7071 119.7817
   120.0190 120.1466 120.1689 120.2030 120.2342 120.2940 120.3406 120.5530
   120.6439 120.7469 120.7681 120.9874 121.0748 121.2136 121.2184 121.2285
   121.3117 121.3995 121.4399 121.4844 121.5359 121.6368 121.7265 121.7287
   121.8731 121.8883 121.8964 121.9365 121.9392 122.0171 122.0349 122.1300
   122.1524 122.1571 122.2861 122.3567 122.3954 122.4136 122.6322 122.6398
   122.6409 122.7145 122.7329 122.8067 122.8910 122.9788 123.0359 123.0617
   123.1778 123.1974 123.2337 123.2431 123.2718 123.4719 123.4889 123.5055

          k = 0.1667 0.2887 0.0000 ( 17769 PWs)   bands (ev):

  -103.9432 -64.9727 -64.9727 -64.9664 -46.1264 -46.1262 -46.1262 -46.1259
   -46.1117 -46.1117 -46.1114 -46.1113 -46.1057 -46.1055 -13.9107 -13.6889
    -9.8634  -9.7929  -9.7500  -9.7160  -9.7082  -5.6625  -4.2003  -3.9832
    -3.2474  -2.9438  -2.7488   0.8675   3.3824   3.4669   4.0779   4.6463
     4.8054   5.0792   5.1589   5.6704   5.8945   6.5225   6.7671   7.2164
     8.1202   8.4287   8.5745   9.0585   9.7239   9.8578  10.0498  10.1259
    10.5602  10.6102  10.6863  10.8031  10.9372  11.4790  11.6186  11.7252
    11.9114  12.0559  12.2111  12.5521  12.9652  12.9686  13.9413  13.9531
    14.1475  14.1704  14.3312  14.6140  14.7497  14.7947  15.3708  15.6235
    15.8176  15.9152  16.0095  16.0158  16.1811  16.4737  16.6133  16.6231
    16.8782  16.9540  17.3846  17.5251  17.5552  17.6976  18.1931  18.3622
    18.8612  19.0531  19.2218  19.3640  19.3808  19.6446  19.7732  19.9357
    20.0615  20.1518  20.3203  20.3630  20.3953  20.6698  21.0496  21.1584
    21.2367  21.4388  21.5319  21.5946  21.6608  21.9717  22.2001  22.2459
    22.4411  22.6463  22.7146  23.0508  23.0858  23.2154  23.3740  23.4745
    23.8457  24.0198  24.1569  24.2972  24.9464  24.9846  25.0391  25.0957
    25.3099  25.5144  25.5224  25.6655  25.8391  25.9181  26.1741  26.3104
    26.4571  26.9083  26.9833  27.0282  27.2742  27.2782  27.4185  27.8730
    27.9667  28.0615  28.0653  28.1886  28.3091  28.3172  28.5538  28.5634
    28.7061  28.8570  29.3254  29.5714  29.7097  29.8089  29.8972  30.0177
    30.1095  30.2791  30.5100  30.8434  30.9897  30.9964  31.2125  31.4757
    31.4956  31.7814  31.9181  32.0508  32.1574  32.4747  32.4912  32.6007
    32.7742  32.8141  32.9585  32.9969  33.0278  33.2491  33.5520  33.5708
    33.7036  33.9042  33.9809  34.0355  34.1016  34.2504  34.2753  34.4472
    34.4569  34.6657  34.7775  35.0870  35.1210  35.1769  35.2946  35.7246
    35.7910  35.8581  35.9832  35.9872  36.1371  36.5105  36.5729  36.6414
    36.8205  36.9015  37.0708  37.3814  37.3902  37.6217  37.7405  37.7896
    37.9134  38.0622  38.1435  38.2850  38.3849  38.4519  38.5908  38.6732
    38.8345  38.8634  38.9949  39.1352  39.1903  39.2644  39.3172  39.4372
    39.4860  39.5727  39.8096  39.8805  39.9973  40.0714  40.1725  40.3280
    40.4689  40.6684  40.7799  40.9376  41.0329  41.2152  41.2241  41.3698
    41.7530  41.7646  42.0408  42.1191  42.3228  42.4540  42.4800  42.8556
    42.8563  43.0055  43.2648  43.3512  43.4512  43.5156  43.5176  43.6262
    43.6380  43.9334  44.0742  44.0973  44.1781  44.2515  44.3908  44.4014
    44.5494  44.7084  44.7801  44.8826  44.9092  45.0611  45.0948  45.2158
    45.2505  45.2801  45.4888  45.6107  45.8473  45.9239  46.0333  46.2819
    46.3191  46.4461  46.4888  46.7131  46.7306  46.8751  46.9178  46.9867
    47.0682  47.0781  47.3592  47.3978  47.5724  47.6761  47.8091  48.0073
    48.2205  48.2595  48.5166  48.5837  48.6245  48.7335  48.7344  48.9634
    49.0158  49.0377  49.1187  49.1638  49.2140  49.4812  49.5850  49.6481
    49.8114  49.8587  49.8865  49.9303  50.0084  50.0209  50.0854  50.1398
    50.2676  50.4733  50.5853  50.6228  50.7406  50.8091  50.8948  50.9478
    51.1461  51.1975  51.2962  51.3559  51.5934  51.8307  51.8358  51.9113
    52.0005  52.0836  52.2328  52.2540  52.3237  52.4272  52.5779  52.5882
    52.7211  52.8203  53.0585  53.0983  53.1236  53.2981  53.4939  53.5382
    53.6736  53.8848  54.1115  54.1846  54.2583  54.3434  54.5997  54.7222
    54.9978  55.0019  55.2514  55.3251  55.4609  55.5446  55.6364  55.6705
    55.6742  55.7652  55.9172  56.1251  56.1423  56.3287  56.5269  56.6195
    56.6651  56.8434  56.9119  57.0326  57.2229  57.2803  57.3797  57.4712
    57.4821  57.7085  57.7307  57.8444  58.0019  58.2948  58.3390  58.4123
    58.5110  58.6340  58.6660  58.8417  58.9300  58.9617  59.3254  59.3665
    59.4510  59.6208  59.6214  59.9007  59.9230  59.9424  59.9817  60.0617
    60.1261  60.3469  60.4192  60.8004  60.8589  60.9219  60.9467  61.0508
    61.1702  61.1767  61.3120  61.3276  61.3460  61.3921  61.7256  61.7817
    61.8205  61.8967  61.9569  61.9687  62.2808  62.4270  62.4993  62.5378
    62.6661  62.7750  62.7980  62.8701  62.9497  63.0224  63.1218  63.3641
    63.4169  63.4839  63.5923  63.6197  63.6904  63.8646  63.9258  63.9762
    64.1171  64.3674  64.3926  64.7250  64.7758  64.8608  64.9725  65.1859
    65.2928  65.3162  65.3645  65.4416  65.6486  65.6938  65.7265  65.7749
    65.9100  65.9712  66.0360  66.0867  66.1523  66.3686  66.4062  66.5630
    66.6596  66.6666  66.8162  66.8393  66.8926  66.9211  67.0343  67.0795
    67.1668  67.2186  67.3164  67.5363  67.5571  67.6343  67.7225  67.7324
    67.9864  67.9979  68.0562  68.2565  68.4923  68.5711  68.7005  68.7018
    68.8099  68.9585  69.0430  69.1912  69.3827  69.5311  69.5433  69.6934
    69.7756  69.8566  69.9469  70.0295  70.1116  70.3231  70.3429  70.4958
    70.5321  70.6687  70.7237  70.7660  70.8963  70.9378  71.0142  71.0818
    71.2690  71.4606  71.4683  71.5255  71.5490  71.6137  71.6668  71.8415
    71.9491  72.0028  72.0777  72.1024  72.2010  72.2029  72.3952  72.4577
    72.5626  72.5875  72.6284  72.7246  72.7929  72.9927  73.1290  73.1815
    73.2248  73.2495  73.3413  73.3445  73.4284  73.5693  73.7507  73.8449
    73.9696  74.0984  74.1020  74.2246  74.3404  74.3626  74.4716  74.5417
    74.6204  74.6684  74.7873  74.9055  74.9879  75.2074  75.3842  75.4165
    75.4603  75.6297  75.7911  75.9253  75.9803  76.1116  76.1726  76.2312
    76.3400  76.3714  76.4665  76.5242  76.5946  76.6424  76.7717  76.8056
    76.8195  76.8513  77.0132  77.0569  77.2237  77.4006  77.4074  77.5206
    77.5471  77.6134  77.6934  77.7008  77.7545  77.8848  77.8924  78.1073
    78.1427  78.4006  78.4443  78.4851  78.5468  78.6855  78.7330  78.8311
    78.9096  79.0099  79.0465  79.1497  79.1848  79.2102  79.4014  79.4507
    79.5571  79.5944  79.6538  79.6559  79.6943  79.6966  79.8999  79.9123
    80.0602  80.1204  80.1276  80.1761  80.3680  80.5183  80.5757  80.7548
    80.8129  80.8749  80.9332  81.0549  81.1135  81.4369  81.4441  81.6501
    81.8292  81.8733  81.9948  82.0263  82.0845  82.2988  82.3909  82.4060
    82.5313  82.6200  82.6801  82.7675  82.7954  82.9286  83.0208  83.0968
    83.1526  83.1553  83.4688  83.4874  83.6687  83.6717  83.7924  83.7937
    83.9818  83.9873  84.0762  84.2073  84.2959  84.3499  84.5460  84.5905
    84.6064  84.7543  84.9227  85.0132  85.0317  85.0788  85.2818  85.2942
    85.4558  85.5096  85.6775  85.6987  85.7549  85.7868  85.9304  86.0349
    86.2147  86.2884  86.4313  86.4597  86.5696  86.6722  86.7486  86.8339
    86.9065  86.9814  86.9891  87.0305  87.1203  87.1343  87.1792  87.2149
    87.3088  87.3612  87.4270  87.4553  87.5343  87.5806  87.8089  87.9168
    87.9328  88.0780  88.0936  88.1471  88.1671  88.2642  88.3292  88.4256
    88.4591  88.5081  88.5366  88.5980  88.6659  88.7324  88.7712  88.8872
    89.0496  89.0886  89.1238  89.1354  89.1684  89.2432  89.3333  89.4211
    89.4590  89.5094  89.7340  89.7996  89.9051  89.9651  89.9871  90.0348
    90.1094  90.1459  90.1792  90.2583  90.3438  90.3961  90.5334  90.5572
    90.7843  90.8201  90.8307  90.9594  91.0255  91.0583  91.0825  91.1924
    91.2549  91.2988  91.3437  91.4648  91.4684  91.5265  91.6575  91.8520
    92.0061  92.1583  92.3759  92.4492  92.4786  92.5494  92.5853  92.6333
    92.6586  92.7210  92.8197  92.8199  93.0475  93.1482  93.1493  93.2846
    93.2944  93.3830  93.4487  93.4788  93.4939  93.5259  93.6699  93.6838
    93.7386  93.8129  93.8145  93.9658  94.0371  94.1085  94.2652  94.3218
    94.3405  94.4272  94.4431  94.5760  94.6517  94.7765  94.8802  94.9492
    95.0318  95.1804  95.2053  95.2647  95.3633  95.3708  95.4497  95.4807
    95.5295  95.5728  95.6929  95.7789  95.8013  95.8489  95.9312  95.9329
    96.1639  96.3332  96.4344  96.4622  96.4707  96.7068  96.7159  96.7843
    96.9447  97.1321  97.2165  97.2379  97.3389  97.4717  97.6295  97.6608
    97.7891  97.8503  97.8892  97.9323  97.9533  98.0128  98.1251  98.1254
    98.2505  98.2811  98.3087  98.4409  98.5610  98.6084  98.6197  98.6557
    98.6674  98.8394  98.9614  98.9894  99.0456  99.0896  99.1266  99.2106
    99.3352  99.3394  99.4714  99.4992  99.5299  99.6863  99.6912  99.7069
    99.8710  99.9692 100.0346 100.0358 100.2213 100.2454 100.4079 100.4611
   100.4860 100.5496 100.8168 100.8389 100.9080 100.9272 100.9737 101.0491
   101.0659 101.0816 101.1513 101.3284 101.4132 101.4293 101.4600 101.5519
   101.5731 101.6478 101.7430 101.8227 101.9476 101.9532 102.0371 102.0908
   102.3307 102.4742 102.5187 102.5424 102.8382 102.8740 102.9895 103.0195
   103.0478 103.1430 103.2129 103.2272 103.3663 103.4577 103.5231 103.6305
   103.6772 103.7373 103.8927 103.9228 104.0287 104.0386 104.1124 104.2267
   104.3167 104.3261 104.4442 104.4923 104.5365 104.6233 104.6460 104.8139
   104.8387 104.8513 104.9881 105.0360 105.0928 105.1499 105.2082 105.3810
   105.4504 105.4530 105.5318 105.5986 105.7131 105.8115 105.8924 105.9523
   105.9728 106.1528 106.2184 106.2639 106.3413 106.3465 106.4018 106.4179
   106.5659 106.6341 106.6434 106.6783 106.7186 106.7452 106.9387 106.9395
   107.1227 107.1438 107.2176 107.2697 107.3284 107.4463 107.4834 107.5792
   107.6605 107.7544 107.8693 107.8932 108.1624 108.2583 108.2609 108.3792
   108.4316 108.5432 108.7067 108.7892 108.8258 108.9398 109.0022 109.1484
   109.2264 109.3380 109.4524 109.5041 109.5089 109.6413 109.8451 109.8608
   109.8792 110.0060 110.0653 110.1448 110.2066 110.2241 110.4103 110.4230
   110.5037 110.5642 110.6751 110.7834 110.8443 110.8573 110.9872 110.9903
   111.0810 111.1784 111.1898 111.3888 111.4327 111.5435 111.5547 111.6316
   111.6922 111.8236 111.8945 112.1154 112.1814 112.2312 112.3690 112.4476
   112.4815 112.4935 112.5396 112.7628 112.8825 113.1395 113.1584 113.2226
   113.3475 113.4551 113.4900 113.7179 113.8289 113.8573 114.0177 114.0521
   114.1400 114.2448 114.2656 114.3717 114.5189 114.6021 114.6213 114.7106
   114.7496 114.8289 114.8527 114.8774 115.1996 115.2121 115.3141 115.3599
   115.4839 115.4955 115.5128 115.5371 115.6535 115.7264 115.7462 115.8403
   115.9322 116.0148 116.1006 116.1123 116.1503 116.2504 116.2626 116.3545
   116.3698 116.4656 116.5321 116.6343 116.7113 116.7883 116.8205 116.9539
   116.9956 117.0217 117.1520 117.3653 117.3877 117.3889 117.5493 117.5891
   117.6865 117.7020 117.8492 117.8657 117.9145 117.9356 118.1264 118.2567
   118.2687 118.3233 118.3407 118.4885 118.6049 118.6373 118.7769 118.9179
   118.9574 119.2133 119.3396 119.3919 119.5420 119.6018 119.6424 119.6623
   119.6724 119.8800 119.9009 120.0114 120.0649 120.0696 120.1211 120.1586
   120.2383 120.3075 120.3694 120.3848 120.5082 120.5280 120.5474 120.6623
   120.6830 120.8010 120.8391 120.9102 120.9757 121.0741 121.1374 121.2654
   121.2781 121.3420 121.3868 121.4660 121.5958 121.5988 121.6383 121.7985
   121.8852 121.9189 121.9468 122.0026 122.1709 122.1761 122.2569 122.3024
   122.3478 122.4735 122.5591 122.7060 122.7188 122.7458 122.8019 122.8736
   122.8778 122.9758 123.1005 123.2143 123.3038 123.3256 123.3998 123.4336
   123.4825 123.6502 123.7117 123.7646 123.7718 124.0053 124.0564 124.0990
   124.1764 124.1809 124.3099 124.3860 124.6633 124.7389 124.8123 124.8430

          k = 0.1667 0.4811 0.0000 ( 17743 PWs)   bands (ev):

  -103.9432 -64.9728 -64.9727 -64.9664 -46.1264 -46.1261 -46.1260 -46.1258
   -46.1118 -46.1117 -46.1115 -46.1114 -46.1056 -46.1054 -13.6999 -13.6423
    -9.8331  -9.7869  -9.7222  -9.6911  -9.6330  -5.9128  -4.8707  -4.1299
    -3.8121  -3.0422  -2.7845   0.4897   3.3395   3.8082   4.3884   4.6170
     5.3877   5.8521   6.2456   6.4001   6.6403   7.0179   7.2362   7.5986
     7.8876   8.1851   8.2809   8.6792   8.9771   9.2858   9.5453   9.7151
     9.8920   9.9548  10.3720  10.6982  10.8036  11.0636  11.3318  11.4124
    11.5219  11.8896  12.3153  12.4392  12.6282  12.8437  13.0480  13.4165
    13.7072  14.1972  14.4418  14.8672  14.9570  15.3145  15.3424  15.4701
    15.6749  15.9014  16.0936  16.1931  16.4779  16.6664  16.6803  16.8560
    16.9930  17.1812  17.5619  17.8906  18.0873  18.5409  18.6144  18.7590
    19.0529  19.1038  19.1822  19.3910  19.5854  19.7335  19.9403  20.2061
    20.4451  20.6404  20.7130  20.8316  21.1519  21.2819  21.4093  21.5454
    21.6842  22.0504  22.1484  22.2268  22.3433  22.5010  22.6511  22.7032
    22.8974  23.2163  23.5171  23.6148  23.8471  23.8954  23.9718  24.2596
    24.3043  24.4244  24.6481  24.7158  24.8565  24.9785  25.2401  25.3366
    25.4159  25.6143  25.7176  25.8433  25.8936  26.0670  26.1740  26.3168
    26.4516  26.5084  26.5761  26.9849  27.0542  27.5164  27.5639  27.6165
    27.7549  27.7741  27.9126  28.0942  28.2156  28.3399  28.4649  28.6353
    28.6867  28.7777  28.9145  28.9607  29.0598  29.2802  29.4177  29.7120
    29.7993  29.9359  30.1367  30.1420  30.3686  30.5393  30.9061  30.9622
    31.2047  31.2989  31.4853  31.6446  31.7398  31.7777  31.9175  32.0042
    32.0353  32.1042  32.4547  32.5404  32.6781  32.7399  32.8326  32.9668
    33.1271  33.2071  33.3059  33.4380  33.5762  33.6075  33.7328  33.8495
    34.0023  34.3076  34.3625  34.5200  34.6976  34.7295  34.8806  34.9851
    35.0908  35.2681  35.3318  35.3781  35.4792  35.5614  35.6242  35.8348
    36.0211  36.1979  36.2202  36.3201  36.4785  36.5417  36.6718  36.9193
    37.0000  37.0830  37.1424  37.2611  37.4352  37.5798  37.6723  37.8626
    38.0333  38.0929  38.2463  38.4325  38.5046  38.7107  38.7367  38.8605
    39.0090  39.1326  39.2764  39.3824  39.6617  39.7391  39.8928  40.3139
    40.6531  40.7957  40.8924  40.9866  41.0371  41.1675  41.3675  41.5335
    41.7071  41.8254  41.9461  42.0052  42.0939  42.2152  42.3150  42.6233
    42.8521  42.9119  43.0233  43.0945  43.2259  43.3604  43.4786  43.5921
    43.8376  43.9978  44.0254  44.2431  44.3472  44.4637  44.5587  44.7229
    44.7810  44.8913  45.1504  45.2580  45.3806  45.4877  45.5315  45.6028
    45.6106  45.8281  45.8921  46.1610  46.1936  46.2983  46.4692  46.5810
    46.6559  46.7386  46.8465  47.1396  47.2706  47.3339  47.5131  47.6856
    47.7579  47.8304  47.9834  48.0521  48.1260  48.2213  48.3482  48.6115
    48.7412  48.8611  48.9091  49.0307  49.1378  49.1699  49.2958  49.4793
    49.5446  49.6417  49.8438  49.9572  50.0979  50.1435  50.2299  50.3522
    50.4314  50.4728  50.5479  50.6446  50.7630  50.9738  51.0590  51.1292
    51.2153  51.4167  51.5503  51.6474  51.8599  51.8855  51.9896  52.0120
    52.1951  52.2118  52.4015  52.5027  52.5843  52.8987  53.0061  53.0691
    53.1593  53.3088  53.4672  53.5514  53.6585  53.7056  53.8623  53.9721
    54.1401  54.1798  54.3520  54.3794  54.4466  54.4947  54.6753  54.7702
    54.8651  55.1065  55.1487  55.3227  55.4090  55.4378  55.4805  55.7635
    55.7708  55.8395  55.9552  56.0512  56.1449  56.2582  56.3306  56.4550
    56.4559  56.5103  56.7187  56.8262  56.8578  56.9563  57.0101  57.1141
    57.2999  57.3773  57.3823  57.5143  57.6137  57.6745  57.7959  57.8715
    57.8997  58.0486  58.0777  58.1848  58.2414  58.3722  58.5303  58.6529
    58.7483  58.7794  58.8035  58.9050  59.1082  59.1803  59.2034  59.2856
    59.3290  59.4586  59.5529  59.6541  59.7380  59.8254  59.9580  59.9927
    60.0932  60.3155  60.3426  60.4253  60.5095  60.5582  60.7192  60.7458
    60.9025  60.9099  61.0833  61.3441  61.4180  61.4623  61.6597  61.7154
    61.8339  61.9466  62.2661  62.3158  62.4522  62.4857  62.5746  62.6457
    62.7406  62.8382  62.9308  62.9829  63.1052  63.1531  63.2821  63.3553
    63.4047  63.4635  63.6216  63.6259  63.7017  63.7720  63.9077  64.0246
    64.0536  64.1785  64.2465  64.4079  64.4333  64.5803  64.5907  64.7779
    64.8056  64.9166  64.9844  65.0401  65.0917  65.1516  65.2368  65.3126
    65.4620  65.5303  65.6073  65.8524  65.9701  66.0753  66.0867  66.1947
    66.2804  66.3338  66.3921  66.4947  66.5599  66.7700  66.8429  66.9468
    67.0185  67.1155  67.1998  67.2359  67.3148  67.4571  67.7037  67.7628
    67.8771  67.9262  67.9815  68.0801  68.1220  68.2020  68.2989  68.3273
    68.4289  68.5056  68.6075  68.6817  68.7120  68.8588  68.9366  69.0928
    69.1474  69.2046  69.2725  69.3358  69.3484  69.5846  69.7104  69.7549
    69.8387  69.8896  70.0073  70.0833  70.1079  70.1514  70.2174  70.3274
    70.4125  70.4396  70.5568  70.6207  70.7044  70.7705  70.9494  71.0602
    71.1327  71.2346  71.3031  71.4160  71.5348  71.6009  71.6908  71.7023
    71.8254  71.8896  71.9477  72.0014  72.1467  72.2710  72.3017  72.3672
    72.5686  72.6803  72.7870  72.9576  73.0074  73.0411  73.1398  73.2284
    73.2658  73.3208  73.4804  73.5122  73.6135  73.6860  73.7535  73.8614
    73.9063  73.9815  74.1603  74.2006  74.2664  74.4407  74.4969  74.6155
    74.7808  74.7927  74.8549  74.9783  75.0636  75.1764  75.2717  75.3813
    75.4221  75.5890  75.6514  75.7094  75.8966  75.9528  76.0446  76.1884
    76.3515  76.4230  76.5843  76.5999  76.6820  76.7918  76.8855  76.9550
    77.0081  77.1459  77.2173  77.3774  77.4532  77.4903  77.5774  77.6128
    77.6927  77.7853  77.9462  78.0356  78.1498  78.2546  78.4073  78.5233
    78.5995  78.6702  78.7347  78.7590  78.7929  79.0267  79.0670  79.1914
    79.2897  79.2997  79.3994  79.4883  79.5474  79.6557  79.6739  79.7180
    79.7506  79.8688  79.8928  79.9678  80.0632  80.2156  80.3000  80.3480
    80.4057  80.5517  80.6071  80.6650  80.7716  80.8079  80.9054  81.0390
    81.1095  81.1374  81.2316  81.4527  81.5587  81.6320  81.6661  81.7832
    81.8472  81.8804  81.9350  82.0518  82.1001  82.2348  82.3340  82.3444
    82.3980  82.4830  82.5948  82.6537  82.7498  82.8027  82.8643  83.0006
    83.1595  83.1821  83.2574  83.3257  83.3883  83.4742  83.5459  83.6399
    83.7141  83.7459  83.8831  84.0300  84.0676  84.1188  84.1727  84.3748
    84.4536  84.4770  84.4798  84.6052  84.6571  84.7189  84.9256  85.0142
    85.0921  85.1197  85.2655  85.3297  85.4960  85.6302  85.6393  85.7628
    85.8554  85.9730  86.1164  86.1919  86.2232  86.2496  86.3311  86.4587
    86.5315  86.7252  86.8380  86.8942  86.9269  87.0221  87.0579  87.1765
    87.3008  87.3494  87.4617  87.5548  87.6949  87.7535  87.8236  87.8341
    87.9846  88.1334  88.1650  88.2023  88.2997  88.3890  88.4291  88.6190
    88.6871  88.8528  88.9109  89.0026  89.0886  89.1762  89.2095  89.3589
    89.3783  89.5287  89.5911  89.6529  89.7394  89.8953  89.9857  90.1029
    90.2297  90.2842  90.4543  90.5848  90.6724  90.7196  90.8067  90.8907
    90.9580  91.1011  91.1105  91.1594  91.2063  91.3476  91.5584  91.7269
    91.8033  91.8581  92.0093  92.0778  92.1512  92.1790  92.3413  92.3749
    92.4611  92.5835  92.6413  92.6840  92.8731  92.9059  92.9485  93.0973
    93.1540  93.2042  93.2989  93.3221  93.3824  93.5651  93.6921  93.7337
    93.8235  93.8671  93.9413  94.0758  94.1203  94.2085  94.3387  94.3848
    94.4898  94.6463  94.8532  94.9224  95.0516  95.2492  95.3099  95.3647
    95.4766  95.5365  95.6569  95.7032  95.7285  95.7901  95.8835  95.9134
    95.9616  96.1050  96.1423  96.2052  96.3367  96.3441  96.4395  96.5219
    96.5649  96.7569  96.8102  96.9436  96.9687  97.0437  97.1019  97.1644
    97.2904  97.4116  97.4868  97.5618  97.6342  97.6804  97.7658  97.8579
    98.0061  98.0737  98.1121  98.3096  98.3480  98.4195  98.5350  98.5546
    98.5759  98.6747  98.7594  98.8174  98.8527  99.0068  99.1536  99.1743
    99.2516  99.3104  99.3504  99.4778  99.4959  99.6143  99.6763  99.7799
    99.8345  99.8775  99.9382 100.0905 100.1822 100.2857 100.3470 100.4147
   100.4803 100.6001 100.6159 100.6665 100.6953 100.8391 100.8727 100.9626
   101.0453 101.1037 101.2155 101.2445 101.3297 101.4020 101.4646 101.5647
   101.6794 101.7451 101.8371 101.9212 101.9514 102.1679 102.1851 102.2205
   102.3481 102.4167 102.4557 102.6334 102.6804 102.7793 102.7972 102.9734
   102.9863 103.1033 103.1497 103.1951 103.2267 103.3452 103.5110 103.5792
   103.6903 103.7489 103.7881 103.8574 103.9388 103.9626 104.1117 104.2383
   104.2649 104.3723 104.4828 104.4917 104.5614 104.6516 104.6854 104.7462
   104.7952 104.8077 104.9302 105.0024 105.0641 105.1578 105.2408 105.3291
   105.4542 105.4757 105.5342 105.6123 105.6742 105.8072 105.8314 105.9651
   106.0868 106.1222 106.1781 106.2817 106.3553 106.4114 106.4597 106.5874
   106.6399 106.6809 106.7073 106.7873 106.8541 106.9137 107.0165 107.0837
   107.1024 107.2116 107.2495 107.2641 107.3093 107.3846 107.4487 107.5272
   107.6168 107.6732 107.8221 107.8316 107.9262 108.0102 108.0558 108.1885
   108.3417 108.4267 108.4948 108.5507 108.6091 108.6453 108.6532 108.6967
   108.7892 108.9151 108.9559 109.0727 109.1674 109.2565 109.2805 109.3929
   109.4520 109.5407 109.6812 109.7393 109.8114 109.8728 109.9123 109.9343
   110.0523 110.0779 110.1507 110.2342 110.3719 110.4114 110.4297 110.5333
   110.5435 110.6083 110.6653 110.6836 110.8255 110.8895 110.9455 110.9905
   111.0056 111.1071 111.1626 111.2575 111.3815 111.4181 111.4624 111.5058
   111.5503 111.6321 111.7496 111.7915 111.8773 111.9930 112.0232 112.0767
   112.2403 112.3742 112.4148 112.4392 112.5253 112.5691 112.6196 112.7610
   112.7732 112.9050 112.9668 113.0207 113.1121 113.1442 113.2040 113.3023
   113.3497 113.3932 113.4676 113.5275 113.5857 113.6187 113.7402 113.8053
   113.8360 113.9365 113.9499 114.0046 114.1082 114.1640 114.2862 114.3269
   114.3946 114.5017 114.5442 114.6042 114.7003 114.7347 114.7801 114.8477
   114.9391 115.0142 115.0596 115.0836 115.1744 115.2644 115.3724 115.4973
   115.5639 115.5989 115.6533 115.6725 115.8075 115.8758 115.9519 115.9909
   116.0651 116.2103 116.2436 116.2619 116.3592 116.4383 116.5312 116.5756
   116.6258 116.6659 116.7904 116.8237 116.9706 116.9746 117.0761 117.1685
   117.2376 117.2891 117.3456 117.5341 117.5665 117.6153 117.6339 117.7386
   117.7854 117.8190 117.8686 117.9232 117.9985 118.0726 118.1266 118.2076
   118.2991 118.3423 118.3630 118.4733 118.5854 118.6964 118.7275 118.7554
   118.8757 118.9095 118.9928 119.0253 119.0779 119.1562 119.1854 119.2230
   119.2688 119.3672 119.4216 119.4592 119.5491 119.5942 119.6458 119.8065
   119.8585 119.8936 119.9969 120.0185 120.0967 120.1309 120.1763 120.2509
   120.3039 120.3941 120.4639 120.5528 120.5646 120.5936 120.7005 120.7061
   120.8240 120.8645 120.9080 120.9798 121.0836 121.1479 121.2173 121.3325
   121.3615 121.4259 121.4732 121.5454 121.6290 121.6989 121.7730 121.8249
   121.9209 121.9864 122.0620 122.1730 122.2000 122.2383 122.3510 122.4053
   122.4336 122.4979 122.5596 122.6728 122.8170 122.8831 122.8976 122.9533
   123.1537 123.1958 123.2255 123.3207 123.4071 123.5419 123.5827 123.7163

          k = 0.3333 0.5774 0.0000 ( 17712 PWs)   bands (ev):

  -103.9432 -64.9728 -64.9728 -64.9664 -46.1262 -46.1262 -46.1259 -46.1259
   -46.1118 -46.1117 -46.1115 -46.1114 -46.1056 -46.1053 -13.6271 -13.6269
    -9.7594  -9.7594  -9.7061  -9.6933  -9.6933  -5.8918  -4.5877  -4.5876
    -4.3247  -2.9890  -2.9889   0.6040   3.6594   3.6595   5.1394   5.5593
     5.8736   6.0200   6.0202   7.0840   7.0842   7.4140   7.4141   7.5206
     7.8351   7.8351   7.9823   8.0892   8.4096   8.4096   9.0920   9.0920
     9.3441   9.3828   9.3829   9.5557  10.7871  10.7871  11.1414  11.1414
    11.4884  11.6332  12.6879  12.9362  12.9363  13.4471  13.4472  14.2032
    14.2585  14.2798  14.2798  14.6660  15.3949  15.3951  15.5739  15.5740
    15.7954  15.9926  16.9153  16.9153  17.2819  17.2819  17.5074  17.7418
    18.1118  18.1119  18.2290  18.2428  18.2428  18.7137  18.7625  18.7626
    18.8589  18.8696  18.8696  19.2224  19.2225  19.8966  19.8966  19.9623
    20.1349  20.1349  20.2059  20.2519  20.7895  20.7895  21.2053  21.2053
    21.2350  21.2964  21.5692  21.5692  21.5764  22.1044  22.1044  22.1147
    22.5540  22.6301  22.6301  22.7564  22.9804  22.9804  23.9655  23.9655
    24.0404  24.6678  24.6678  24.7228  24.8084  24.8085  25.0558  25.7339
    25.7964  25.7964  26.0937  26.0937  26.4943  26.6805  26.6805  27.0487
    27.6485  27.6485  27.7973  28.2391  28.2391  28.3248  28.3984  28.4965
    28.4965  28.9665  28.9967  28.9967  29.1922  29.2658  29.2659  29.6113
    29.6114  29.7267  29.7311  29.7311  29.7528  29.7637  29.8863  29.8863
    29.9672  29.9672  29.9818  30.4070  30.4070  30.4730  30.6911  30.7808
    30.7808  30.8586  30.8586  31.0529  31.2123  31.2123  31.3322  31.3322
    31.3596  31.4388  31.4388  31.4455  31.6373  32.2103  32.2292  32.2292
    32.2746  32.4542  32.4542  32.9488  32.9488  33.1462  33.1463  33.2161
    33.2988  33.3575  33.3863  33.3863  33.4855  33.6828  33.6828  34.6421
    34.6421  34.8439  35.4213  35.4226  35.4226  35.5375  35.5375  35.6082
    35.8869  35.9492  35.9492  36.1543  36.1919  36.1919  36.5194  36.5194
    36.8783  36.8857  36.9556  36.9556  37.0562  37.2308  37.2309  37.3762
    37.4633  37.4633  37.6896  37.6897  38.0218  38.7284  38.7284  38.9410
    38.9410  39.2688  39.3077  39.3289  39.3289  39.5968  39.8708  39.8708
    39.8961  40.2269  40.2269  40.6376  40.8458  40.8458  41.1960  41.4082
    41.5334  41.5334  41.8905  41.8906  41.8961  42.4354  42.4354  42.5455
    42.5538  42.7552  42.7553  43.2180  43.2180  43.3009  43.3010  43.4950
    43.7442  43.7442  43.7563  43.9225  43.9225  43.9673  44.1527  44.1527
    44.2105  44.4130  44.9245  44.9246  45.0674  46.1451  46.1931  46.1931
    46.4456  46.9930  46.9931  47.1723  47.3418  47.4807  47.4807  47.5671
    47.5671  47.8618  47.8618  48.1747  48.2235  48.2576  48.2577  48.3838
    48.3839  48.6711  49.0295  49.0296  49.0607  49.4722  49.5319  49.5319
    49.7702  49.7881  49.7881  50.0796  50.0797  50.2695  50.2695  50.4517
    50.6260  50.8462  50.9658  50.9659  51.1273  51.1274  51.2203  51.3006
    51.4249  51.4249  51.5501  51.6259  51.6259  51.6592  51.6747  51.6747
    51.7399  51.7617  51.7617  51.8077  51.9618  51.9618  52.3763  52.4830
    52.4830  52.5425  52.7222  52.7467  52.7467  52.7922  52.7922  53.0429
    53.0465  53.0465  53.1072  53.1589  53.1589  53.2751  53.3013  53.3013
    53.3735  53.3736  53.7871  54.0235  54.0235  54.1665  54.2675  54.4128
    54.4128  54.6178  54.6178  54.7985  54.8051  54.9396  54.9396  54.9611
    55.0717  55.0717  55.2066  55.3527  55.3527  55.7145  55.7280  55.7280
    56.0900  56.0900  56.3065  56.4449  56.4584  56.4584  56.9829  57.0445
    57.0445  57.1660  57.2547  57.2547  57.6528  57.8388  57.8388  57.9688
    57.9689  58.1009  58.1212  58.1212  58.1716  58.2733  58.2733  58.3512
    58.6498  58.6499  58.7535  58.8378  58.8378  58.9846  58.9846  59.1332
    59.4068  59.4069  59.5131  59.6705  60.0467  60.0468  60.0967  60.5659
    60.5805  60.5805  60.8402  60.9135  60.9135  61.0739  61.1607  61.1607
    61.1767  61.2605  61.2605  61.4166  61.4304  61.4305  61.6843  61.6844
    61.7643  61.8016  62.1016  62.1017  62.2445  62.3064  62.3065  62.5028
    62.5029  62.5899  62.7835  62.8366  62.8366  62.8471  63.0920  63.0920
    63.4163  63.4257  63.4257  63.6472  63.9301  63.9301  63.9671  64.1013
    64.1014  64.2394  64.2394  64.2873  64.2977  64.4740  64.4740  64.7508
    64.7508  64.9220  64.9220  64.9266  64.9724  65.0903  65.0903  65.1382
    65.3893  65.3893  65.4865  65.4865  65.6379  65.6650  65.7179  65.7179
    65.9210  65.9281  65.9281  65.9842  66.2216  66.2216  66.4008  66.5844
    66.8151  66.8495  66.8495  66.9835  67.0677  67.0677  67.2066  67.2066
    67.7624  67.8295  67.8295  68.0861  68.0861  68.3306  68.3306  68.3649
    68.6335  68.9889  68.9922  68.9922  69.1843  69.3150  69.3151  69.5749
    69.5749  69.6453  69.6894  69.6895  69.7170  69.8830  70.1175  70.1730
    70.1730  70.3066  70.3067  70.5202  70.5498  70.5498  70.7966  71.0344
    71.0344  71.2810  71.2810  71.3264  71.6171  71.6553  71.6554  71.8847
    71.8847  72.1426  72.1427  72.2996  72.3870  72.5016  72.5016  72.7090
    72.7220  72.7477  72.7478  73.0212  73.0212  73.0429  73.1020  73.1020
    73.1441  73.2769  73.2770  73.3603  73.4748  73.4748  73.5041  73.6276
    73.6492  73.6492  73.6969  73.6969  73.7320  73.7320  73.7931  73.9850
    74.0455  74.0716  74.0716  74.1932  74.2281  74.2281  74.4668  74.5601
    74.5601  74.6653  74.6653  74.6823  74.8030  74.8030  74.8679  74.9586
    75.0408  75.0408  75.1124  75.1124  75.3159  75.4596  75.4596  75.4930
    75.5894  75.6140  75.6140  75.7656  75.7656  75.9961  76.1805  76.1805
    76.2340  76.3352  76.4006  76.4007  76.5171  76.6255  76.6255  76.9613
    77.0594  77.0594  77.1251  77.1624  77.1624  77.1775  77.3378  77.3378
    77.3997  77.8056  77.8056  77.8697  77.8698  77.8792  78.3006  78.3519
    78.3519  78.4725  78.4725  78.5154  79.0854  79.0854  79.1941  79.1941
    79.2469  79.4159  79.4159  79.4910  79.5172  79.5172  79.6261  79.6667
    79.6669  79.6825  79.9506  79.9506  79.9679  80.1798  80.1798  80.3976
    80.3976  80.4595  80.5158  80.5158  80.6986  80.7720  80.7721  80.8212
    80.9219  81.0217  81.1006  81.1006  81.1515  81.1515  81.3869  81.6302
    81.6322  81.6322  81.6720  81.9697  81.9697  82.1534  82.1535  82.2905
    82.5673  82.5673  82.6224  82.8303  82.8303  83.1298  83.1298  83.1803
    83.3124  83.4084  83.4084  83.4775  83.7561  83.7797  83.9136  83.9136
    84.0064  84.0064  84.2613  84.5054  84.5054  84.6996  84.6996  84.7793
    84.7793  84.9936  85.1118  85.4682  85.4682  85.5435  85.9327  85.9327
    86.0313  86.0313  86.0952  86.2980  86.2980  86.3456  86.4127  86.6113
    86.6113  86.7235  86.7235  86.7305  86.8080  86.9515  86.9515  87.2683
    87.2707  87.2707  87.3441  87.4319  87.4319  87.4885  87.6525  87.6525
    88.0675  88.0714  88.1263  88.1263  88.5931  88.5932  88.8218  89.0065
    89.0066  89.1567  89.1567  89.2136  89.2136  89.2513  89.6587  89.7036
    89.7822  89.7823  89.9768  90.3011  90.3181  90.3181  90.9147  90.9147
    91.0486  91.0487  91.1538  91.2487  91.2981  91.2981  91.3369  91.4133
    91.4809  91.4809  91.7788  91.7788  91.7798  91.8625  91.8625  91.8742
    92.0847  92.2690  92.3158  92.3158  92.5429  92.5429  92.6247  92.6247
    92.8386  92.8688  93.0728  93.0728  93.1600  93.1600  93.2176  93.3643
    93.3644  93.4121  93.6302  93.6302  93.8172  93.8862  93.9732  93.9732
    94.2331  94.2332  94.2975  94.2975  94.3333  94.5315  94.6857  94.6857
    94.7685  94.9005  94.9019  94.9019  95.1873  95.2113  95.2114  95.3687
    95.3687  95.3872  95.5003  95.5508  95.5508  95.6511  95.9291  95.9291
    95.9891  96.2723  96.2723  96.3654  96.4722  96.4722  96.6339  96.6339
    96.7833  96.7908  96.7908  96.8014  96.9197  96.9197  97.0484  97.1706
    97.1706  97.4096  97.4916  97.4916  97.6271  97.6271  97.6785  97.9306
    97.9306  97.9726  98.0146  98.2902  98.2902  98.5441  98.5441  98.5786
    98.7111  98.7189  98.7189  99.1585  99.2849  99.4269  99.4269  99.5639
    99.6618  99.6878  99.6878 100.0930 100.0930 100.1021 100.1021 100.1589
   100.3828 100.3829 100.5237 100.6637 100.8086 101.0606 101.0606 101.2614
   101.2614 101.4947 101.4948 101.4954 101.6960 101.6960 101.8459 101.8460
   101.9269 101.9566 102.0511 102.1388 102.1388 102.2518 102.2518 102.2647
   102.3929 102.3929 102.3940 102.6080 102.6226 102.7871 102.7871 103.1478
   103.1478 103.2619 103.2620 103.2878 103.4009 103.4009 103.4098 103.5693
   103.7758 103.7758 103.9011 103.9011 104.0901 104.1587 104.1588 104.1906
   104.3268 104.3268 104.5965 104.7977 104.8463 104.8463 104.9216 104.9640
   104.9641 105.0569 105.0820 105.1880 105.1880 105.2915 105.2915 105.5261
   105.5362 105.5362 105.6667 105.7480 105.7480 105.9385 106.0240 106.0242
   106.0555 106.1203 106.1204 106.1939 106.2282 106.2282 106.3262 106.3981
   106.3981 106.4432 106.5400 106.5400 106.6033 106.6033 106.6814 106.6814
   106.7286 106.9248 106.9248 107.0229 107.0417 107.1349 107.2523 107.2523
   107.3510 107.3510 107.3859 107.4906 107.4906 107.5624 107.5863 107.5863
   107.6992 107.9238 108.0165 108.0165 108.0295 108.1797 108.1798 108.4596
   108.4596 108.5466 108.5616 108.5617 108.6738 108.7032 108.7032 108.8996
   108.9783 108.9784 109.0038 109.0038 109.0474 109.2174 109.2293 109.2293
   109.3517 109.3518 109.4100 109.5119 109.6267 109.7078 109.7079 109.7800
   109.8458 109.8458 109.8829 109.8829 110.2217 110.3783 110.3783 110.4495
   110.4495 110.4655 110.5487 110.8150 110.8150 110.8388 110.9553 111.0522
   111.0523 111.3386 111.3539 111.3539 111.4694 111.4694 111.5098 111.6437
   111.7415 111.7415 111.9313 111.9780 111.9780 112.1952 112.1953 112.2464
   112.3789 112.5510 112.5753 112.5753 112.6812 112.6812 112.7816 112.8755
   112.8756 113.0924 113.2411 113.2411 113.4089 113.4398 113.4398 113.5700
   113.6047 113.6048 113.6196 113.6820 113.6839 113.6839 113.8118 113.8118
   113.9776 113.9776 114.2328 114.2328 114.2475 114.4900 114.5430 114.7457
   114.7777 114.7777 114.7943 114.7943 114.9190 114.9190 115.1434 115.1434
   115.1620 115.1686 115.4468 115.4469 115.5027 115.5304 115.7642 115.7643
   115.7848 115.7849 115.8255 115.9465 115.9465 115.9483 116.0646 116.0646
   116.2591 116.2597 116.2597 116.2979 116.6051 116.6051 116.6489 116.8053
   116.8053 116.8397 116.8540 116.9368 116.9368 117.1519 117.1520 117.2113
   117.3597 117.3597 117.3827 117.3840 117.3840 117.4099 117.4268 117.5564
   117.5564 117.6882 117.7321 117.7321 117.8225 117.9210 117.9210 118.0295
   118.0295 118.1383 118.2105 118.2105 118.2185 118.2604 118.3507 118.3507
   118.4802 118.4802 118.5980 118.5980 118.6189 118.7051 118.7051 118.7545
   118.7603 118.8240 118.8240 118.8573 119.0745 119.0828 119.0828 119.2004
   119.2445 119.2445 119.5341 119.5341 119.7506 119.7506 119.9038 120.1064
   120.1577 120.1792 120.1792 120.2098 120.2936 120.2936 120.3828 120.4017
   120.4017 120.4546 120.4546 120.6529 120.6841 120.7502 120.7502 120.8422
   120.9557 121.0011 121.0011 121.4011 121.4011 121.4261 121.5207 121.6080
   121.6080 121.8588 121.8588 121.8995 121.8995 122.0500 122.0784 122.0784
   122.3186 122.3186 122.3477 122.4268 122.4418 122.4569 122.4569 122.4746
   122.6949 122.6949 122.9687 122.9687 123.0156 123.0989 123.1904 123.1904

     the Fermi energy is    -1.7921 ev
     (compare with:    -1.4831 eV, computed in scf)

     Writing all to output data dir out/CdI2.save/
 
     init_run     :      0.41s CPU      0.48s WALL (       1 calls)
     electrons    :    705.74s CPU    724.77s WALL (       1 calls)

     Called by init_run:
     wfcinit      :      0.00s CPU      0.00s WALL (       1 calls)
     potinit      :      0.03s CPU      0.04s WALL (       1 calls)
     hinit0       :      0.07s CPU      0.13s WALL (       1 calls)

     Called by electrons:
     c_bands      :    705.74s CPU    724.77s WALL (       1 calls)
     v_of_rho     :      0.03s CPU      0.03s WALL (       1 calls)

     Called by c_bands:
     init_us_2    :      0.00s CPU      0.00s WALL (       7 calls)
     init_us_2:cp :      0.00s CPU      0.00s WALL (       7 calls)
     cegterg      :    689.29s CPU    707.87s WALL (       7 calls)

     Called by *egterg:
     cdiaghg      :    554.39s CPU    571.75s WALL (      84 calls)
     h_psi        :     25.41s CPU     25.80s WALL (      91 calls)
     g_psi        :      0.25s CPU      0.25s WALL (      77 calls)

     Called by h_psi:
     h_psi:calbec :      0.90s CPU      0.92s WALL (      91 calls)
     vloc_psi     :     23.08s CPU     23.40s WALL (      91 calls)
     add_vuspsi   :      1.14s CPU      1.14s WALL (      91 calls)

     General routines
     calbec       :      0.90s CPU      0.92s WALL (      91 calls)
     fft          :      0.02s CPU      0.06s WALL (      10 calls)
     fftw         :     20.30s CPU     20.57s WALL (  133188 calls)
 
     Parallel routines
 
     PWSCF        :  11m48.17s CPU  12m 9.03s WALL

 
   This run was terminated on:   2: 0: 0   6Apr2024            

=------------------------------------------------------------------------------=
   JOB DONE.
=------------------------------------------------------------------------------=
