
     Program PWSCF v.7.1 starts on 20Dec2023 at 17:57:55 

     This program is part of the open-source Quantum ESPRESSO suite
     for quantum simulation of materials; please cite
         "P. Giannozzi et al., J. Phys.:Condens. Matter 21 395502 (2009);
         "P. Giannozzi et al., J. Phys.:Condens. Matter 29 465901 (2017);
         "P. Giannozzi et al., J. Chem. Phys. 152 154105 (2020);
          URL http://www.quantum-espresso.org", 
     in publications or presentations arising from this work. More details at
     http://www.quantum-espresso.org/quote

     Parallel version (MPI), running on     8 processors

     MPI processes distributed on     1 nodes
     123172 MiB available memory on the printing compute node when the environment starts
 
     Reading input from pw_mp-2758_nscf_k10_E49.in
Warning: card &IONS ignored
Warning: card / ignored
Warning: card &CELL ignored
Warning: card / ignored

     Current dimensions of program PWSCF are:
     Max number of different atomic species (ntypx) = 10
     Max number of k-points (npk) =  40000
     Max angular momentum in pseudopotentials (lmaxx) =  4

     Atomic positions and unit cell read from directory:
     out/mp-2758.save/
     Atomic positions from file used, from input discarded
 
 
     R & G space division:  proc/nbgrp/npool/nimage =       8
     Subspace diagonalization in iterative solution of the eigenvalue problem:
     one sub-group per band group will be used
     scalapack distributed-memory algorithm (size of sub-group:  2*  2 procs)

 
     Parallelization info
     --------------------
     sticks:   dense  smooth     PW     G-vecs:    dense   smooth      PW
     Min         119     119     33                 2446     2446     371
     Max         120     120     35                 2450     2450     372
     Sum         955     955    271                19579    19579    2975
 
     Using Slab Decomposition
 


     bravais-lattice index     =            2
     lattice parameter (alat)  =      11.8664  a.u.
     unit-cell volume          =     417.7298 (a.u.)^3
     number of atoms/cell      =            2
     number of atomic types    =            2
     number of electrons       =        16.00
     number of Kohn-Sham states=         1200
     kinetic-energy cutoff     =      49.0000  Ry
     charge density cutoff     =     196.0000  Ry
     Exchange-correlation= PBE
                           (   1   4   3   4   0   0   0)

     celldm(1)=  11.866386  celldm(2)=   0.000000  celldm(3)=   0.000000
     celldm(4)=   0.000000  celldm(5)=   0.000000  celldm(6)=   0.000000

     crystal axes: (cart. coord. in units of alat)
               a(1) = (  -0.500000   0.000000   0.500000 )  
               a(2) = (   0.000000   0.500000   0.500000 )  
               a(3) = (  -0.500000   0.500000   0.000000 )  

     reciprocal axes: (cart. coord. in units 2 pi/alat)
               b(1) = ( -1.000000 -1.000000  1.000000 )  
               b(2) = (  1.000000  1.000000  1.000000 )  
               b(3) = ( -1.000000  1.000000 -1.000000 )  


     PseudoPot. # 1 for Se read from file:
     /usr/scratch4/magr4985/MG/HTDF/pseudo/SG15/Se.upf
     MD5 check sum: e78e48a4f5d8ce1f8dc76ec1271f249c
     Pseudo is Norm-conserving, Zval =  6.0
     Generated using ONCVPSP code by D. R. Hamann
     Using radial grid of  602 points,  6 beta functions with: 
                l(1) =   0
                l(2) =   0
                l(3) =   1
                l(4) =   1
                l(5) =   2
                l(6) =   2

     PseudoPot. # 2 for Sr read from file:
     /usr/scratch4/magr4985/MG/HTDF/pseudo/SG15/Sr.upf
     MD5 check sum: 3f9bc8d6f3e8472da0cbe0e6a3044a9f
     Pseudo is Norm-conserving, Zval = 10.0
     Generated using ONCVPSP code by D. R. Hamann
     Using radial grid of  602 points,  6 beta functions with: 
                l(1) =   0
                l(2) =   0
                l(3) =   1
                l(4) =   1
                l(5) =   2
                l(6) =   2

     atomic species   valence    mass     pseudopotential
        Se             6.00    78.96000     Se( 1.00)
        Sr            10.00    87.62000     Sr( 1.00)

     48 Sym. Ops., with inversion, found



   Cartesian axes

     site n.     atom                  positions (alat units)
         1           Sr  tau(   1) = (   0.0000000   0.0000000   0.0000000  )
         2           Se  tau(   2) = (  -0.5000000   0.5000000   0.5000000  )

     number of k points=     3  Gaussian smearing, width (Ry)=  0.0005
                       cart. coord. in units 2pi/alat
        k(    1) = (   0.0000000   0.0000000   0.0000000), wk =   0.2500000
        k(    2) = (   0.5000000  -0.5000000   0.5000000), wk =   1.0000000
        k(    3) = (   0.0000000  -1.0000000   0.0000000), wk =   0.7500000

     Dense  grid:    19579 G-vectors     FFT dimensions: (  40,  40,  40)

     Estimated max dynamical RAM per process >      69.51 MB

     Estimated total dynamical RAM >     556.07 MB

     The potential is recalculated from file :
     out/mp-2758.save/charge-density

     Starting wfcs are random

     Band Structure Calculation
     ParO style diagonalization

     ethr =  5.00E-06,  avg # of iterations =  6.3

     total cpu time spent up to now is      230.9 secs

     End of band structure calculation

          k = 0.0000 0.0000 0.0000 (  2421 PWs)   bands (ev):

   -28.4642 -10.4254 -10.4254 -10.4254  -5.7200   5.5255   5.5255   5.5255
     8.4220   9.5417   9.5417   9.5417  10.3564  10.3564  14.3896  19.7069
    19.7069  19.7069  20.4231  20.4231  20.4231  23.1954  23.1954  25.7302
    27.1847  27.1847  27.1847  28.2923  28.2923  28.2923  29.7603  29.7603
    32.4630  32.4630  32.4630  36.3234  37.3021  37.3021  37.3021  38.4983
    38.4983  38.4983  39.0591  40.8977  40.8977  40.8977  41.5253  41.6852
    41.6852  41.6852  42.8863  42.8863  42.8863  43.7952  43.7952  43.7952
    44.4242  44.4242  45.8912  47.5871  47.5871  50.8918  50.8918  50.8918
    57.3358  57.3358  57.3358  58.8481  61.2065  61.2065  61.2065  62.7358
    62.7358  62.7358  63.3281  63.3281  65.5905  66.5177  66.5177  66.5177
    67.1525  67.1525  67.1525  69.1771  69.1771  69.2449  69.8686  69.8686
    69.8686  70.3268  70.3268  70.3268  70.7872  70.7872  70.7872  71.6129
    71.6129  71.6129  72.1947  72.1947  72.1947  73.3008  73.3008  73.3719
    73.3719  73.3719  74.0755  74.0755  75.3435  75.3435  75.3435  76.2972
    78.6160  79.4567  82.3812  82.3812  82.6529  82.6529  82.6529  84.2516
    84.2516  84.2516  86.5971  86.5971  86.5971  88.9370  88.9370  88.9618
    88.9618  88.9618  89.1045  89.1045  89.1045  89.2395  89.2395  89.2395
    90.1574  90.1574  90.1590  90.1590  90.1590  91.6617  95.3505  95.3505
    95.3505  95.6216  95.8682  97.0862  97.0862  97.0862  97.6831  97.6831
    97.6831  97.8364  97.8364  97.8364  99.6246  99.6246  99.6246 100.1403
   100.1403 100.1403 104.4480 104.4480 104.5782 104.5782 104.5782 104.7878
   105.6194 111.6262 111.6262 111.6262 111.9157 111.9157 112.3616 112.3616
   112.3616 114.5638 114.5638 114.5638 117.8531 117.8531 117.8531 118.7420
   118.7420 118.9567 119.4516 119.4516 119.4516 120.7688 120.7688 120.7688
   122.5867 122.5867 124.1151 124.1659 124.1659 124.1659 125.3311 125.3311
   125.3311 125.5238 125.5238 125.5238 126.2288 126.2288 126.2288 126.7096
   126.7096 126.7275 127.2051 127.8444 127.8444 127.8444 127.8953 129.1825
   129.5242 129.5242 129.5242 130.4836 130.4836 130.5502 130.5502 130.5502
   131.8143 132.4269 132.4269 132.4269 132.7950 132.7950 132.7950 133.5133
   133.5133 133.5133 134.1369 134.1369 134.1369 134.1890 134.1890 134.2472
   134.2472 134.2472 134.4328 134.4328 134.4328 134.5343 134.5343 134.5343
   134.6941 134.6941 134.9082 134.9082 134.9082 134.9253 134.9253 135.0367
   135.0367 135.0367 135.2175 143.4253 143.4253 143.4253 143.4305 143.4305
   143.4305 143.7145 143.7145 143.7145 143.9116 143.9116 144.4044 144.4044
   144.4044 144.5911 145.5938 145.5938 145.5938 150.5914 150.5914 150.6251
   150.6251 150.6251 150.7257 152.0988 152.2264 152.2264 152.2264 153.1360
   153.9489 153.9489 153.9489 159.5254 159.5254 160.2730 160.2730 160.2730
   160.4387 160.4387 160.4387 160.4515 160.4515 160.4515 160.5615 160.5615
   160.6805 160.6805 160.6805 161.5766 162.0842 162.0842 162.0842 162.6644
   162.9316 162.9316 162.9884 162.9884 162.9884 163.1626 163.1626 163.1626
   163.4217 163.4217 163.4217 163.5985 163.5985 163.5985 163.9117 163.9117
   164.2589 164.2589 164.2589 168.1889 168.1889 168.6388 170.0025 170.0025
   170.0025 174.6906 174.6906 174.6906 175.7048 176.0128 176.1653 176.1653
   176.1653 178.2972 178.2972 178.2972 180.0194 180.0194 180.0194 180.1384
   180.1384 180.1384 180.1648 180.1648 181.9809 184.0128 184.0128 184.0128
   184.2940 184.2940 184.6733 184.6733 184.6733 185.1430 186.2421 186.2421
   186.2421 188.3743 188.3743 188.3743 189.0138 189.0138 189.0138 189.1722
   189.1722 189.1722 189.4773 189.4773 189.4773 192.0097 192.3652 192.3652
   192.3652 192.4627 192.4627 192.7880 192.7880 192.7880 193.1406 193.1406
   193.1406 193.1499 193.1499 193.2484 193.2484 193.2484 193.4043 193.4043
   193.4043 193.6795 193.6795 193.6795 193.8933 195.9506 195.9506 195.9694
   195.9694 195.9694 196.0160 201.1495 201.1495 201.1495 201.4484 203.1831
   203.1831 203.1831 205.0556 205.2431 205.2431 205.5277 205.5277 205.8337
   205.8337 205.8337 206.0391 206.0391 206.0391 206.2393 206.2393 206.2393
   207.1899 207.1899 207.1899 208.0100 208.0100 208.0100 208.2957 208.2957
   208.2957 208.3039 208.8869 208.8869 210.9888 210.9982 210.9982 211.0140
   211.0140 211.0140 211.0921 211.0921 211.0921 211.1297 211.1297 211.1297
   211.1867 211.1867 211.1867 211.3310 211.3310 211.3310 211.3653 211.3653
   212.2429 212.2429 212.2429 212.4122 212.4122 212.4122 212.8235 212.8990
   212.9103 212.9103 212.9103 212.9224 212.9224 212.9224 214.6612 214.6612
   214.6612 215.8147 215.9369 215.9369 215.9369 216.3589 216.3589 216.7091
   216.7091 216.7091 217.0369 219.9560 219.9560 220.4404 220.4404 220.9588
   220.9588 220.9588 221.4469 221.4469 221.4469 221.5627 221.5627 221.5627
   222.4490 222.4490 222.4782 222.4782 222.4782 222.5671 223.0034 223.0034
   223.0034 223.0243 223.0243 223.8553 223.8553 223.8553 224.5635 224.5635
   224.5635 224.7411 224.7411 224.7411 224.8924 224.9303 224.9303 224.9303
   225.0780 225.0780 225.0780 226.0116 226.0821 226.0821 226.0821 226.1130
   226.1130 237.1436 237.1436 237.1436 243.7667 243.7667 243.7667 244.8698
   244.8698 245.4014 245.9259 247.7582 247.7582 247.7582 248.0977 248.0977
   248.0977 248.7663 248.7663 248.7663 249.0487 249.1613 249.1613 249.1613
   249.3965 249.4881 249.4881 249.4881 249.5175 249.5175 249.6028 249.6028
   249.6028 249.6820 249.6820 249.6820 249.7165 249.7165 249.7165 249.7864
   249.7864 249.7864 249.8132 249.8132 249.8132 249.8611 249.8611 250.2542
   250.2542 250.2542 250.5356 255.4312 255.4312 255.6186 255.6186 255.6186
   255.7209 255.7209 255.7877 255.7877 255.7877 255.9222 255.9222 255.9222
   256.0755 256.0755 256.0755 257.0399 257.0399 257.1484 257.1484 257.1484
   257.3257 259.5577 259.5577 259.5577 260.9657 260.9657 263.1397 263.1397
   263.1397 263.8061 263.8061 263.8061 264.2040 265.9115 265.9115 265.9115
   265.9524 265.9524 266.6122 266.6122 266.6122 267.5617 267.5617 267.5617
   267.9563 269.2295 269.2975 269.2975 269.2975 269.3296 269.3296 270.0078
   270.0078 270.1763 270.1763 270.1763 270.2247 270.2247 270.2247 270.2427
   270.2427 270.2427 270.4545 270.4545 270.4545 270.8615 270.8615 270.8615
   271.2581 275.5947 275.5947 276.6180 276.6180 276.6180 277.0017 277.9325
   277.9325 277.9325 278.2910 278.2910 278.2910 278.3457 278.3457 278.3457
   278.4397 278.4397 278.4397 278.5839 279.1975 282.1865 282.1865 282.1865
   282.5356 282.5356 282.5356 282.5671 282.5671 282.8628 282.8628 282.8628
   283.0905 283.0905 283.1746 283.6561 283.6561 283.6561 284.1502 284.1502
   284.1502 284.3132 284.6108 284.6108 284.6108 284.6228 284.6228 284.6458
   284.6458 284.6458 284.7039 284.7183 284.7183 284.7183 284.9046 284.9046
   284.9046 285.6910 285.6910 286.0964 286.0964 286.0964 286.1268 286.1268
   286.1783 286.1783 286.1783 286.2532 286.2532 286.2532 286.3235 289.0702
   289.0702 289.0702 290.0314 293.6385 293.6385 294.5874 294.5874 294.5874
   295.6248 295.6248 295.6248 296.0695 296.0695 296.0695 296.3651 296.3651
   296.3651 296.6698 296.6698 296.6698 296.8550 296.9066 297.3320 297.3320
   297.3783 297.3783 297.3783 300.7432 300.7432 300.7432 304.4523 304.4523
   304.4523 304.8156 305.3896 307.1344 307.1344 307.5840 307.5840 307.5840
   307.6792 307.6792 307.6792 307.7664 307.7664 307.7664 308.1356 308.1356
   308.1356 308.1927 308.1927 309.7986 309.7986 309.7986 310.6275 310.6275
   310.6275 310.7364 310.7364 310.7364 310.7622 310.8329 310.8329 310.8329
   310.9056 310.9056 310.9056 311.7225 311.7225 311.8739 311.8739 311.8739
   311.9733 311.9733 311.9733 312.5936 312.5936 312.6757 312.6757 312.6757
   312.7476 312.7476 312.7476 313.2387 313.3903 313.3903 313.3903 313.7025
   313.7025 313.7398 313.7398 313.7398 313.7624 313.7624 313.8582 313.8582
   313.8582 313.8972 313.8972 313.8972 313.9467 313.9467 313.9467 315.4310
   315.5005 315.5005 315.5005 315.5443 315.5443 315.5443 315.5657 317.7573
   317.7573 317.8020 317.8020 317.8020 317.8237 317.8237 317.8237 317.9554
   317.9589 317.9824 317.9824 317.9824 317.9861 317.9861 317.9861 318.0030
   318.0030 318.0558 318.0558 318.0558 318.0998 318.0998 318.1416 318.1416
   318.1416 318.2816 318.2816 318.2816 318.3825 322.0889 322.0889 322.0889
   323.4411 323.4411 323.4411 323.5597 323.6198 327.8481 327.8481 331.9377
   331.9377 331.9377 332.1421 332.1421 332.1421 332.1866 332.1866 332.2211
   332.2211 332.2211 332.3413 332.3413 332.3413 332.3782 332.3782 332.3799
   332.3799 332.3799 332.5616 332.5616 332.5616 332.8922 334.5085 334.5085
   334.5085 334.5802 334.5802 334.5802 334.6155 334.6155 334.6155 338.4920
   338.4920 338.6500 338.6500 338.6500 338.6882 343.2712 343.2712 343.2712
   343.3822 343.3956 343.3956 346.4157 346.4157 346.4157 346.5408 346.5408
   346.5408 346.5488 346.5488 346.5488 346.5667 346.5667 346.5667 347.8811
   347.8811 347.9946 347.9946 348.0139 348.0139 348.0139 348.0546 348.7145
   348.7145 348.7145 357.9397 357.9397 357.9397 358.3735 359.4451 359.4451
   359.4451 359.5386 359.5386 359.5386 359.5746 359.5746 359.5746 359.6391
   359.8580 359.8580 359.8580 359.9275 359.9275 359.9275 360.0099 360.0099
   360.6420 360.6420 360.6420 360.8316 360.8316 361.1125 362.0286 362.0286
   362.0286 362.1829 362.1881 362.1881 362.6286 362.6286 362.6286 363.1518
   364.4621 364.4621 364.4621 365.0607 365.0607 365.0607 365.5976 365.8764
   365.8764 365.8764 366.0739 366.0739 366.1637 366.1637 366.1637 367.4521
   367.4521 367.4521 368.3308 369.9047 369.9047 370.4616 370.4616 370.4616
   370.5903 370.5903 370.6615 370.6615 370.6615 370.8829 370.8829 370.8829
   371.0617 371.0617 371.0617 372.2779 372.2779 372.2779 372.3757 372.4928
   372.4928 372.4928 372.6304 374.7525 374.7525 374.7525 374.7811 374.7811
   374.8650 374.8650 374.8650 374.9837 374.9837 374.9837 375.0262 375.0262
   375.0601 375.0601 375.0601 376.0486 376.0486 376.0486 376.0706 376.0706
   376.0846 376.0846 376.0846 376.1190 376.1973 376.1973 376.1973 376.3003
   376.3003 376.3003 376.3049 376.3049 376.3129 376.3129 376.3129 376.3165
   376.3165 376.3165 376.3689 384.8016 384.8016 384.8016 385.7611 385.7611
   386.7559 386.7559 386.7559 386.7816 386.7816 386.7816 386.8424 386.8424
   386.8424 387.4248 387.4248 387.4248 387.4975 387.7191 387.7191 387.7191
   387.8179 388.2187 388.2187 388.2187 388.2274 388.2274 388.3088 388.3088
   388.3088 389.9159 389.9159 389.9159 390.3873 390.3873 390.4625 390.5279
   390.5279 390.5279 390.7340 390.7340 390.7340 393.1241 393.1241 393.5987
   393.5987 393.6062 393.6062 393.6062 393.6243 393.6243 393.6243 393.7120
   393.7120 393.7120 393.7558 393.7558 393.7558 393.8023 393.8263 393.9648
   393.9648 393.9648 394.1394 394.1394 394.1394 394.1896 394.1896 394.1896
   394.1968 394.1968 394.8028 394.8028 394.8464 394.8464 394.8464 394.9855
   395.5999 395.5999 395.5999 395.6347 395.6347 395.6347 395.9042 395.9042
   395.9292 396.0820 396.0820 396.0820 396.0868 396.0868 396.0868 396.0997
   396.0997 396.0997 396.1232 400.8740 400.8740 400.8740 401.0350 401.3527
   401.3527 401.3527 401.5265 401.5265 401.5325 401.5325 401.5325 403.0345
   403.0345 403.0345 403.1972 403.2511 403.2511 403.2511 403.3403 403.3403
   403.3534 403.3534 403.3534 403.6429 403.6429 403.6429 404.4052 404.4052
   404.4052 404.4348 404.4426 406.5226 406.5226 406.5260 406.5301 406.5301

          k = 0.5000-0.5000 0.5000 (  2452 PWs)   bands (ev):

   -28.4540 -10.6872 -10.4391 -10.4391  -5.0941   2.9025   4.4604   4.4604
    10.1793  11.5032  11.8873  11.8873  13.7730  13.7730  14.3940  14.3940
    15.4923  18.0588  18.0588  18.8996  20.3454  23.9260  23.9260  23.9796
    26.1014  26.1014  26.3290  29.5232  29.5232  29.8218  29.8218  29.9742
    30.4854  31.8185  34.1922  34.1922  35.4400  37.2202  37.2202  37.4614
    37.6851  37.6851  38.2907  39.3045  39.3045  40.7481  42.3839  43.0826
    43.0826  43.3858  43.3858  45.6001  47.9467  47.9467  48.5502  49.2097
    49.6363  49.6363  51.7820  51.7820  52.5081  52.5081  53.0722  53.2277
    53.2277  53.3222  53.6935  53.7476  53.7476  54.7057  57.1092  58.4361
    59.8770  59.8770  61.1546  61.1546  62.4061  62.4061  63.0737  63.0737
    63.8468  64.3733  65.1033  65.1033  65.4409  66.1620  66.7183  66.7183
    67.1559  67.5688  67.7713  67.7713  68.2586  68.2586  71.4944  73.2627
    73.2627  73.3361  73.9568  74.2900  74.2900  77.3127  77.3127  77.3195
    77.3195  77.3553  77.6156  78.6289  79.9461  80.0946  80.0946  80.6906
    80.6906  80.8356  80.8356  81.2349  81.5939  81.9175  81.9175  82.0680
    85.6319  85.6319  86.4707  86.4707  86.7199  87.1877  89.4588  89.4588
    89.8601  89.8601  90.0015  90.2191  90.6378  90.6378  91.5674  91.5674
    91.9307  92.0997  92.8245  92.8245  93.4161  93.4161  93.8634  94.8387
    96.8609  96.8609  97.0894  97.0894  97.7606  98.0416  99.3153  99.3363
    99.8459  99.8459 100.1082 100.1082 101.5435 101.5435 103.6418 103.7392
   103.7392 103.9773 104.8155 104.8155 105.1398 105.1398 107.1902 107.2553
   107.4182 107.4182 107.4862 107.5894 107.5894 109.1134 111.2783 111.2783
   111.3236 111.3236 113.2495 113.5447 113.7543 114.0920 114.0920 114.1982
   115.0398 115.0398 115.0495 116.6390 117.3231 117.3231 118.0708 118.0708
   118.3932 118.3932 118.7477 119.1124 119.3122 119.3122 119.5802 119.5912
   120.0066 120.0066 120.8351 120.8351 121.6859 122.1694 122.1694 122.6020
   122.6020 124.1722 126.2083 126.4791 126.4791 126.7863 127.4018 127.4018
   128.1049 128.6827 128.8411 128.8411 129.0551 129.0551 129.9612 130.4146
   130.4146 130.4879 130.4879 130.6219 131.1812 131.8201 131.8201 131.8555
   131.8555 132.5500 134.2847 134.6327 134.6327 134.7308 134.7308 134.8252
   135.2402 135.2949 137.5119 138.2368 138.2368 138.9099 138.9099 139.4242
   141.5956 141.5956 142.2159 142.9101 142.9101 143.3582 143.6366 143.6366
   143.6562 143.6562 143.7414 144.0692 144.3211 144.7178 144.7178 144.7789
   144.7789 144.9230 145.0414 145.4310 145.4310 145.7750 145.7750 145.8873
   146.7195 146.7195 146.8744 147.3646 147.3646 148.6169 150.0771 150.7498
   150.7498 150.8818 150.8818 154.5884 157.5046 157.5046 157.7688 157.7688
   157.9941 157.9941 158.0624 158.0624 158.0631 158.1557 158.5394 158.5464
   158.6392 158.8789 158.9340 158.9340 159.1782 159.1782 160.4063 161.7938
   161.9449 161.9449 162.5166 162.6929 162.6929 163.0384 164.1098 164.2295
   164.2295 164.2377 164.2377 164.3535 164.4399 164.6893 164.6893 164.8160
   164.8361 164.8361 165.4911 165.4911 165.5563 165.5563 166.0364 167.5712
   168.9639 168.9639 168.9710 168.9710 170.3817 170.3823 172.8186 172.8186
   173.4244 173.4244 174.8002 174.8343 175.2509 175.2509 175.2511 175.2511
   176.3677 176.3677 176.5462 176.6072 176.6072 176.7965 176.7965 177.3910
   177.5790 177.5790 177.7133 178.3153 179.2806 179.2806 179.6729 179.6960
   179.6960 179.7640 179.8088 179.8088 180.3043 180.3589 180.3589 180.5284
   180.6394 182.1588 182.1588 182.2049 183.0610 183.0610 183.5629 184.1729
   184.1729 184.1973 184.1973 184.2401 188.1228 188.1228 188.2266 188.2593
   188.6453 188.6453 189.3880 189.3880 189.6967 189.6967 189.9479 190.0048
   192.6442 192.6442 192.9424 193.9042 193.9042 194.1185 194.3042 194.3444
   194.3444 194.4824 195.1624 195.1624 196.2120 196.2720 196.4065 196.4065
   196.4363 196.4363 196.7283 197.0388 197.2027 197.2235 197.2235 197.4886
   197.4886 197.7538 199.7816 199.7816 199.7931 200.0984 200.0984 200.4653
   200.5606 201.1941 201.1941 201.3431 201.3431 201.7590 202.3610 202.4737
   203.0442 203.0442 203.4066 203.4066 205.1984 205.1984 205.4050 205.4050
   207.5059 207.5059 208.0172 208.1766 208.4957 208.4957 210.2200 210.3315
   210.3315 210.7874 210.7874 211.2342 212.4500 212.4500 212.8406 213.1226
   213.1226 213.4963 213.4963 213.6091 214.7124 214.8315 214.8433 214.8433
   214.9410 214.9925 214.9925 215.0824 215.7906 215.7906 216.6027 216.6027
   216.9097 216.9097 217.5629 217.5809 218.9084 218.9688 218.9688 219.1623
   220.6733 220.6733 221.3791 221.3815 221.8924 221.8924 222.5595 222.5595
   224.2827 224.2827 224.6518 224.9619 225.4791 225.9811 225.9811 226.1210
   226.1549 226.4992 226.5004 226.5004 226.8079 226.8079 226.9014 226.9014
   227.1431 227.1431 227.6902 227.6902 227.8354 227.9699 228.4208 228.4208
   228.9339 228.9339 228.9880 229.1803 229.4424 229.4424 229.6804 229.9793
   232.3476 232.6774 233.0617 233.0617 233.1544 233.1544 233.4227 233.4227
   233.8763 233.8763 234.2446 234.2605 234.3942 234.7958 235.2410 235.2410
   235.2885 235.2885 235.7724 235.7724 235.8883 235.8883 236.2099 236.2457
   240.5026 240.5026 240.9310 241.1086 241.2729 241.2729 241.6840 241.6840
   242.3892 242.4249 242.5736 242.5736 242.8819 242.8819 243.2408 243.2408
   243.3410 243.3575 244.0724 244.0724 244.9646 244.9646 245.0351 245.0373
   245.1963 245.5069 245.5069 247.6655 247.6655 248.0997 248.1695 248.1695
   248.7852 248.7852 248.8804 249.0415 249.3958 249.8484 249.8484 250.4046
   251.9637 252.2629 252.2629 252.3306 252.3306 252.5621 252.5621 252.8172
   253.6307 253.6307 253.9459 253.9619 254.5799 254.5799 254.6712 254.6712
   255.1031 255.1516 255.1516 255.1608 255.3305 255.3305 255.9108 255.9108
   256.3383 256.3682 259.0137 259.0137 259.5168 259.5168 259.5320 259.5320
   259.5574 261.1745 261.3161 261.3162 261.3980 261.3980 261.6230 261.8916
   262.7770 262.7770 263.8613 263.8613 263.8880 263.8880 264.2537 264.4369
   264.5639 264.5639 264.8856 265.7419 265.7419 266.4365 266.4365 267.0155
   267.4444 267.5231 267.9982 267.9982 268.0115 268.0115 268.2246 268.2249
   272.4265 272.4265 274.4540 274.4540 274.4657 274.4657 276.0452 276.0452
   276.3901 276.4194 276.4636 276.4636 276.7011 277.1999 277.1999 277.4834
   277.4834 277.6756 277.9278 277.9278 277.9440 277.9440 277.9656 278.1441
   278.1510 278.1627 278.3603 278.3603 278.6320 278.8648 278.8910 278.8910
   278.9860 278.9860 280.4675 280.4675 280.6117 280.6146 280.6146 280.7008
   280.9607 280.9607 280.9624 281.1055 281.1926 281.1926 281.7063 281.7063
   281.7565 281.7963 281.7963 282.1552 282.7962 282.7962 283.2959 283.5910
   283.7407 283.7407 283.8874 284.5749 284.5749 284.6195 284.6195 285.1880
   286.8602 286.8602 286.9150 288.0652 288.3843 288.3843 289.7339 289.7339
   290.3373 290.3948 290.4692 290.4692 291.8188 291.8188 293.1912 293.7950
   293.7950 293.9863 294.0211 294.1320 294.1320 294.1753 294.4674 294.4674
   294.6291 294.7350 294.7350 294.8322 294.8322 295.2656 295.5322 295.7853
   295.7853 296.2554 296.2554 296.7438 296.7438 296.7620 296.8256 297.1017
   297.1017 297.1638 297.2943 298.5833 298.5833 300.0562 300.0562 300.1179
   300.1910 300.1910 300.2204 300.8586 300.9963 301.2991 301.7955 301.7955
   302.7039 302.7039 303.4331 303.4331 303.5022 303.5105 303.6488 303.6488
   304.2094 304.2094 304.2500 304.2733 305.8964 305.8964 306.6732 306.6732
   307.0578 307.5454 307.5454 307.8421 309.5339 310.1240 310.1240 310.1616
   310.1616 311.4029 311.4618 311.4618 312.0809 312.0809 312.2766 312.2857
   312.5483 312.5483 312.9459 312.9459 312.9821 312.9821 312.9835 313.0135
   313.5983 313.5983 314.4686 314.4686 314.6526 314.7101 314.7571 314.7571
   314.8366 314.8366 314.9584 315.0081 315.5114 315.6209 315.6209 315.6532
   315.6532 315.8950 317.5208 317.5208 318.1354 318.2893 318.2893 318.3505
   318.5526 318.5526 319.6605 319.7114 319.7114 319.7525 319.9644 319.9644
   323.1742 323.1742 324.6312 324.7432 325.0911 325.0911 325.1018 325.1021
   325.3447 325.3597 325.3597 325.3982 325.6269 325.6269 325.8168 325.8168
   326.1180 326.1180 326.2627 326.2937 326.2937 326.3575 328.9109 329.2188
   329.2188 329.2199 329.2199 329.2241 329.2356 329.9584 329.9584 331.1043
   331.5927 331.5927 332.2850 332.2850 332.5356 332.5807 332.6251 332.6251
   332.6672 332.6672 332.8434 332.9000 333.1889 333.1889 335.6432 335.6432
   336.3155 336.3155 336.3417 336.3417 336.5086 336.5086 336.6112 337.8080
   337.8080 338.3366 338.3366 338.5087 338.5589 338.8829 338.9935 339.4025
   339.4143 339.4296 339.4296 339.6860 339.7865 339.7865 339.8190 339.8190
   342.7935 342.7935 343.1926 343.6230 343.6230 343.6950 343.9793 343.9793
   344.5330 344.5330 344.7903 344.8008 344.8008 344.8080 345.1818 345.7012
   345.7307 345.7307 345.7308 345.8039 345.8039 345.8319 346.0202 346.0202
   346.0563 346.0563 346.2563 346.2563 346.5333 346.5854 347.0993 347.1045
   347.3096 347.3096 347.4312 347.4312 350.2637 350.2637 350.4715 350.4715
   350.4755 350.4989 350.9139 350.9139 350.9711 350.9711 351.0610 351.0758
   352.9694 352.9694 353.4497 356.4937 356.4937 356.5076 356.7686 356.7686
   357.1714 357.1967 357.2840 357.2840 357.6205 357.6205 357.7570 357.7570
   357.7702 357.7702 357.8799 357.8828 358.6162 358.8499 358.8773 358.8773
   358.8878 358.8878 359.2565 361.2814 361.2814 361.5460 361.9252 362.1253
   362.2063 362.2063 362.3411 362.3411 362.5200 362.5200 362.7795 363.0609
   363.0609 363.1971 363.4651 363.6722 363.6722 363.9996 363.9996 364.0983
   364.0983 364.0990 364.1543 364.3689 364.4516 364.4516 364.7208 364.7644
   365.5433 365.7886 365.7886 366.2411 366.2411 366.5230 366.6694 366.6694
   367.2682 367.9168 367.9168 367.9878 368.5066 368.5066 368.5624 368.5624
   371.3992 371.3992 372.0475 372.0475 372.0622 372.0795 372.3926 372.3926
   372.7733 372.7905 372.7905 372.8129 373.3137 373.3137 373.3333 373.3333
   373.8692 373.8692 374.1243 374.1243 374.1564 374.1564 375.7092 375.7093
   377.3509 377.3509 378.8096 378.9011 378.9165 378.9165 378.9707 378.9707
   379.0819 379.6625 379.6625 379.6918 379.6918 380.1812 381.2921 381.9554
   381.9554 382.0411 382.0411 382.0462 382.0819 382.1814 382.1814 382.1895
   382.1895 382.2325 383.0397 383.0397 383.1162 383.2551 383.2551 383.3146
   383.4899 383.4899 383.5051 383.6650 383.8626 383.9046 383.9046 384.0634
   384.1492 384.1492 385.4629 386.0035 386.0035 386.5014 386.5014 386.5489
   386.6174 386.7933 390.3300 390.3300 391.5922 391.5922 392.4983 392.5364
   392.5364 392.5414 392.5556 392.6469 392.6469 392.8447 393.2465 393.2465
   393.4215 393.7261 393.7261 393.7287 393.7287 393.7405 394.0566 394.0595
   394.0595 394.0658 394.0779 394.3159 394.3159 394.3650 394.3650 394.4240
   395.2186 395.2186 395.5465 395.7082 395.7082 395.8664 395.8804 395.8804
   396.0527 396.0957 396.0957 396.1320 396.1320 396.2704 396.2704 396.3225
   396.7490 396.7490 397.5295 397.5295 397.7518 397.7518 397.8431 397.8454
   397.8970 397.8970 398.2448 398.3140 398.3255 398.3255 400.8370 400.8370
   400.9272 400.9997 402.5082 402.5082 402.7761 402.7834 402.8453 402.8453
   407.5368 407.5368 408.1190 408.1190 408.4196 408.8017 408.8017 408.8854
   409.0225 409.0598 409.1123 409.1123 409.2224 409.4895 409.4895 409.8761
   409.8761 409.9268 409.9268 409.9286 409.9366 409.9499 409.9539 409.9539

          k = 0.0000-1.0000 0.0000 (  2450 PWs)   bands (ev):

   -28.4508 -10.5838 -10.4885 -10.4885  -5.4038   3.8758   4.9531   4.9531
     7.7485  10.7144  11.3940  12.4243  12.8129  12.8129  14.5100  17.6833
    17.6833  18.7362  19.0445  19.0445  19.7178  24.2007  24.2745  24.3396
    24.8791  25.0272  25.0272  25.5003  28.5137  28.7424  28.7424  31.2537
    31.2537  32.9500  33.1295  33.2366  33.4714  36.3419  36.3419  38.4862
    38.4862  38.5500  39.9320  41.3383  41.3383  43.2434  43.2647  43.9672
    44.8536  44.8536  45.2126  46.5520  46.5520  47.3022  48.2803  48.5530
    49.0765  49.5527  51.2787  52.2859  52.2859  52.5960  52.5960  52.7939
    52.7939  53.1472  54.3165  54.3404  54.3767  57.3702  58.2618  58.4541
    59.1378  59.1378  60.3557  60.3557  60.8367  61.7738  61.9947  61.9947
    62.0945  63.3266  63.3266  64.0581  64.2469  64.4443  64.4443  64.5571
    64.5571  67.0367  67.7310  68.6984  68.6984  69.9112  70.0683  73.0327
    73.2931  74.0621  74.7793  74.7793  75.5041  75.5041  76.6245  76.8199
    78.1079  78.8613  79.1069  79.2932  79.2932  79.3364  79.9388  79.9388
    80.2395  80.2395  80.3916  81.2221  82.1927  84.4871  84.6277  84.6277
    84.9942  84.9942  85.2981  86.7308  86.8276  86.8276  87.3027  87.8913
    87.9686  89.0758  90.6572  90.6572  91.2749  91.2749  91.5809  93.0689
    93.9361  95.0715  95.5005  96.2012  96.4516  96.5228  96.5228  98.2459
    98.2459  98.5995  98.5995  99.9314 100.0230 100.2900 100.3351 101.1931
   101.1931 101.4563 101.5724 101.5724 103.2226 103.2883 103.5241 103.5241
   103.9029 104.3479 104.4611 104.4611 104.7240 104.7240 106.0470 106.3781
   107.4226 107.5926 107.5926 107.7788 107.7994 108.1553 108.3049 108.3049
   108.9719 109.2013 109.2013 109.5114 109.6429 110.7947 111.2339 112.4002
   112.4002 112.5263 112.9975 113.1823 113.1823 113.5224 114.9649 115.1946
   115.1946 116.4315 120.1058 120.2509 120.2527 120.2527 120.8528 121.2138
   121.2859 121.2859 121.4784 121.4784 121.6460 122.3747 122.6378 122.9573
   123.2304 123.2304 123.4458 123.4458 123.9034 123.9182 124.4767 124.6723
   124.9179 124.9179 125.0721 125.3046 125.3046 125.4652 126.0909 127.7117
   127.7970 127.9191 127.9191 128.5393 136.3499 136.3499 137.0498 137.1345
   137.1427 137.7324 137.7324 138.6100 138.7426 138.8231 138.8231 139.1414
   139.1414 139.3077 139.7987 139.7987 140.5105 140.9156 141.3833 141.3833
   141.7644 141.7644 141.7662 142.0466 143.7211 143.7756 143.7756 144.1322
   144.4567 144.4567 144.9961 145.1620 145.4439 145.7748 145.7748 145.8720
   146.3150 146.3396 147.1392 147.4958 147.8235 148.4040 148.4040 148.5208
   148.9148 148.9148 149.0012 149.4884 149.8897 149.8897 149.9291 150.4070
   151.1471 151.1471 151.3741 151.3741 151.8896 152.4492 154.5749 154.6880
   154.6880 155.1700 155.2829 155.7579 155.7579 155.9169 158.3320 158.3558
   158.6381 158.6381 158.7032 158.7032 159.0020 159.0715 161.1789 162.2341
   163.0944 163.2317 163.2317 163.2917 163.4031 163.4103 163.4197 163.4197
   163.8516 163.8516 163.8767 164.0250 164.0250 164.2946 164.8610 164.8610
   165.0633 165.0633 165.1604 166.8720 167.4632 167.7842 168.0026 168.0419
   168.5124 168.5429 169.3191 169.3191 169.3402 169.3402 169.8832 169.8974
   169.8974 169.9002 170.3311 170.5022 171.0948 171.3175 173.7721 174.7248
   174.7248 174.7591 174.7591 176.3683 176.3784 176.9884 176.9884 178.5032
   178.9969 178.9969 179.6545 179.6833 180.0157 180.2533 180.5534 180.5534
   181.1137 181.2717 181.4025 181.4025 181.5750 181.8339 182.1606 182.1606
   182.3615 182.3615 182.3821 182.5178 182.8451 182.9128 182.9599 182.9599
   186.1512 186.3467 186.3467 186.5597 186.6110 186.7661 187.0074 187.0074
   187.3447 187.3705 187.3705 187.5167 188.1000 188.2869 188.2869 188.3956
   191.6516 191.6516 192.3246 192.4218 192.4218 192.5642 193.6576 193.6576
   193.7646 193.8867 194.4376 195.0044 195.0044 195.1279 196.8271 197.2561
   197.4398 197.4398 198.4995 198.4995 198.7825 198.7888 199.5135 199.7372
   199.8070 199.8070 200.0005 200.0450 200.0811 200.3397 200.3397 200.4850
   200.5287 200.8511 200.9590 200.9590 201.0665 201.0665 201.1566 201.4764
   202.3749 202.3806 202.3806 202.3911 203.6975 204.1965 204.1965 204.5339
   204.8360 204.9055 204.9055 204.9740 206.5029 206.5029 207.3959 207.7347
   208.0166 208.0166 208.0816 208.3837 211.1187 212.3596 212.8943 213.1003
   213.3867 213.3867 213.4642 213.6112 213.6112 213.6402 213.6402 213.6714
   213.9063 213.9108 213.9108 213.9214 214.4717 215.8298 215.8298 216.4454
   217.7972 218.3310 218.3310 220.3078 220.6641 221.4554 221.4554 221.5776
   221.6014 221.6428 221.8490 221.8490 221.9218 223.9963 224.0571 224.1455
   224.1455 224.4850 224.6665 224.6665 224.8514 224.9799 225.6955 225.6955
   226.2965 226.3585 228.7381 228.7429 228.9774 228.9774 229.1652 229.2568
   229.4261 229.4261 229.6146 229.6146 229.8424 229.8778 230.2177 230.6916
   230.6916 230.8571 230.8571 230.9053 230.9450 231.0134 231.0733 231.7302
   231.7302 231.8283 234.4043 234.4639 234.5451 234.5451 234.8003 234.8003
   235.1130 235.1296 236.9440 237.4130 237.4130 237.5687 238.6368 238.6368
   239.3728 239.3832 240.1824 240.1824 240.2146 240.3546 240.8513 240.8513
   240.9504 241.2233 241.4444 241.7083 242.1154 242.1154 242.1308 242.1308
   242.3699 242.3882 242.4262 243.0526 243.0526 243.3154 243.4663 243.6013
   243.6013 243.8227 243.8227 243.9809 244.0953 244.2384 244.2384 244.2783
   244.2970 244.3847 245.1687 245.1687 245.2183 245.2920 245.7065 245.7065
   245.7578 245.7578 247.4866 250.0556 250.0556 250.2645 250.5797 250.6614
   250.6687 250.6687 250.6838 250.6838 250.7572 250.7997 251.9834 252.9981
   253.0055 253.0094 254.0504 254.0504 254.3535 254.3535 254.5627 255.0361
   255.6729 255.7761 255.7761 256.2215 257.4183 257.5165 257.5165 257.8563
   257.9232 258.4104 258.4104 258.7080 259.3723 260.4457 260.4457 260.6000
   260.6307 260.7737 260.8278 260.8278 260.8304 260.8582 260.8582 260.9405
   261.1221 261.9069 261.9069 261.9103 261.9298 262.0020 262.8993 263.4501
   263.4501 263.4562 263.4562 263.4758 263.6785 263.6882 263.7359 263.7359
   265.2830 265.6797 266.0518 266.0518 266.6983 267.8774 267.9387 268.4230
   268.4230 270.1015 270.1015 270.1909 270.1909 270.3522 270.4261 270.4261
   270.5837 270.7449 272.1076 273.7522 273.7522 274.0203 274.0360 275.0412
   275.0412 275.3296 275.7013 275.8628 275.9355 276.1672 276.1672 276.2199
   276.2897 276.4392 276.4549 276.4549 276.5270 276.6194 276.6265 276.6265
   278.1598 278.1667 278.1667 278.1698 278.6979 278.6980 279.2815 279.9799
   279.9799 280.9618 281.4374 281.4374 281.7433 281.7433 281.7959 281.7959
   281.8224 281.9731 282.2546 282.3719 283.1832 283.1883 286.2706 286.5426
   286.5426 286.9023 286.9866 287.0079 287.0079 287.8242 288.0557 288.0904
   288.3749 288.3749 288.6744 288.7217 289.0394 289.0394 289.1404 289.1404
   289.3040 289.3040 289.5343 289.5762 289.6074 289.7706 290.2997 291.1791
   291.2115 291.2115 291.2180 291.2571 291.2928 291.2928 291.3262 291.7128
   291.7128 291.8289 294.7014 294.7014 294.7144 294.7267 295.0146 295.1471
   295.1471 295.2674 295.7300 296.5339 296.8755 296.8755 297.1161 297.1161
   297.3155 297.8534 297.8672 297.8672 302.2006 302.2215 302.5087 302.5087
   302.5351 302.5541 302.5541 302.8367 303.0263 303.3469 304.1279 304.1279
   304.2711 304.4828 304.4828 304.5177 304.9143 305.3229 306.0387 306.0387
   306.2884 306.6179 307.7667 307.8313 307.8313 307.8738 307.8875 307.8943
   307.8943 308.5115 308.5222 308.5419 308.5419 308.5550 309.2074 309.2074
   309.2360 311.2581 311.2737 311.4537 311.4537 311.5764 311.7917 311.7917
   312.0942 312.3576 312.4589 312.4589 312.5871 313.1718 315.0952 315.0952
   315.2523 315.3311 315.4691 315.4691 315.6941 316.2817 316.4154 316.5072
   316.5072 318.7213 318.9869 319.0795 319.0795 319.2330 319.6126 319.6126
   319.7950 319.7950 320.4418 320.5529 322.2216 322.2346 323.9141 325.2829
   325.3798 325.3798 325.9090 326.0611 326.0611 326.1807 326.3174 326.4537
   326.5959 326.5959 326.7589 326.9594 326.9720 326.9798 326.9798 327.0346
   327.2905 327.2905 328.0648 329.0996 329.0996 329.2298 329.3067 330.1796
   330.9015 330.9015 331.6974 331.7651 331.8033 331.9491 331.9491 332.0410
   332.0410 332.0908 332.0908 332.1164 332.3801 332.4016 332.4956 333.0088
   333.4516 333.4615 333.4649 333.4914 333.4914 333.8107 333.8107 333.8366
   333.8366 333.8470 333.8470 333.9366 333.9754 334.1239 334.1239 334.1987
   334.2360 334.2582 334.3118 334.3118 334.4372 334.4678 334.4887 334.5923
   334.7440 334.8768 334.8768 334.9154 334.9613 334.9613 335.0808 335.1353
   335.1353 335.3331 335.6768 335.6864 336.0000 336.0000 336.0148 336.0148
   336.0343 336.3090 336.3090 336.3263 336.3662 336.4237 339.2846 339.2846
   339.3135 339.3436 339.5794 339.6238 339.6523 339.6523 341.5808 341.6444
   341.7994 341.7994 341.9079 341.9079 342.1410 342.1619 347.2343 348.1017
   348.1017 348.2612 349.1343 349.6084 349.6714 349.6714 349.6728 349.6906
   349.8060 349.8060 350.5600 350.5780 350.5780 350.7162 350.8193 350.9442
   350.9442 351.1016 351.3073 351.3639 351.5395 351.8889 351.8889 352.0598
   352.0702 352.1485 352.1485 352.2968 352.5470 352.5470 352.7047 353.3374
   353.3374 353.3636 353.4248 353.4789 353.6458 353.6557 353.6557 353.6761
   353.9211 353.9360 353.9360 354.2472 354.2472 354.3032 354.6014 355.7736
   356.1804 358.1694 358.1694 359.5673 359.6385 360.7149 360.7149 361.2150
   361.2150 361.4367 361.5148 361.5477 361.5477 361.6138 361.6218 361.6218
   361.6445 361.6767 361.6975 361.8564 362.1333 362.3766 362.3907 362.4840
   362.4840 362.7018 362.7018 362.8800 362.8995 363.0447 363.0447 363.3048
   364.7066 364.7066 365.2765 365.5855 365.5855 365.5904 366.1445 366.1860
   366.2203 366.9498 366.9498 366.9933 370.9179 370.9179 370.9687 370.9818
   370.9869 370.9882 370.9882 371.0074 372.6201 372.7243 372.7243 372.7322
   372.7322 372.7393 372.7474 372.7686 373.7293 373.7293 373.9262 374.2439
   375.0366 375.0366 375.3638 375.6381 376.9813 377.0502 377.2028 377.2028
   379.1332 379.2741 379.5192 379.5192 379.5977 379.5977 379.8098 380.1165
   380.3851 380.3851 380.8264 381.0112 381.0159 381.0703 381.0948 381.0948
   381.1944 381.1944 381.3291 381.5257 381.5714 381.6568 381.6568 381.7083
   381.9060 382.7294 382.7294 382.9577 382.9577 383.1842 383.1907 383.2027
   383.2027 383.2446 383.2770 383.3457 383.3457 383.3459 383.3459 383.4072
   383.4696 383.4791 383.7124 383.7124 385.2486 385.2696 385.2696 385.2942
   386.5401 387.5569 387.5772 387.5772 388.5961 390.4250 390.4260 390.9928
   391.3919 391.3919 391.7273 391.7273 392.1003 392.8115 393.8960 394.1112
   394.1447 394.1778 394.1786 394.1786 394.2075 394.2919 394.2919 394.3029
   394.3029 394.3526 394.5503 394.5552 394.5701 394.5782 394.5782 394.5828
   395.2934 395.2934 396.3618 396.3618 397.5873 397.6771 397.7506 397.8576
   397.8576 397.9409 398.2620 398.2620 398.3606 398.4355 398.5568 398.6645
   398.7323 398.7323 398.7504 398.9240 398.9240 398.9612 399.3009 399.3085
   399.3085 399.3109 402.2269 403.7086 403.7086 404.8269 405.5656 405.9593
   406.7340 406.7340 407.3989 407.4381 407.4381 407.5913 407.5913 407.7447
   407.7506 407.7616 407.7663 407.7663 407.8875 407.8875 407.9051 407.9331
   407.9721 407.9774 407.9774 408.4164 408.4490 408.4565 408.4565 408.4589
   410.7606 410.8531 412.4811 412.5721 412.5721 412.5724 412.5771 412.6836

     the Fermi energy is     5.9477 ev
     (compare with:     7.6954 eV, computed in scf)

     Writing all to output data dir out/mp-2758.save/
 
     init_run     :      0.04s CPU      0.05s WALL (       1 calls)
     electrons    :    214.73s CPU    230.64s WALL (       1 calls)

     Called by init_run:
     wfcinit      :      0.00s CPU      0.00s WALL (       1 calls)
     potinit      :      0.01s CPU      0.01s WALL (       1 calls)
     hinit0       :      0.02s CPU      0.02s WALL (       1 calls)

     Called by electrons:
     c_bands      :    214.73s CPU    230.64s WALL (       1 calls)
     v_of_rho     :      0.01s CPU      0.01s WALL (       1 calls)

     Called by c_bands:
     init_us_2    :      0.00s CPU      0.00s WALL (       3 calls)
     init_us_2:cp :      0.00s CPU      0.00s WALL (       3 calls)
     paro_k       :    207.85s CPU    223.28s WALL (       3 calls)

     Called by paro_*:
     h_psi        :      4.01s CPU      4.21s WALL (     333 calls)
     g_psi        :      0.09s CPU      0.10s WALL (   31335 calls)

     Called by h_psi:
     h_psi:calbec :      0.10s CPU      0.11s WALL (     333 calls)
     vloc_psi     :      3.80s CPU      4.00s WALL (     333 calls)
     add_vuspsi   :      0.08s CPU      0.08s WALL (     333 calls)

     General routines
     calbec       :      0.10s CPU      0.11s WALL (     333 calls)
     fft          :      0.00s CPU      0.01s WALL (      10 calls)
     fftw         :      3.39s CPU      3.56s WALL (   51704 calls)
 
     Parallel routines
 
     PWSCF        :   3m35.16s CPU   3m51.20s WALL

 
   This run was terminated on:  18: 1:47  20Dec2023            

=------------------------------------------------------------------------------=
   JOB DONE.
=------------------------------------------------------------------------------=
