
     Program PWSCF v.7.1 starts on  5Apr2024 at 10:12:17 

     This program is part of the open-source Quantum ESPRESSO suite
     for quantum simulation of materials; please cite
         "P. Giannozzi et al., J. Phys.:Condens. Matter 21 395502 (2009);
         "P. Giannozzi et al., J. Phys.:Condens. Matter 29 465901 (2017);
         "P. Giannozzi et al., J. Chem. Phys. 152 154105 (2020);
          URL http://www.quantum-espresso.org", 
     in publications or presentations arising from this work. More details at
     http://www.quantum-espresso.org/quote

     Parallel version (MPI), running on    32 processors

     MPI processes distributed on     1 nodes
     237119 MiB available memory on the printing compute node when the environment starts
 
     Reading input from pw_CdI2_scf_k3000_E56.in
Warning: card &CELL ignored
Warning: card / ignored

     Current dimensions of program PWSCF are:
     Max number of different atomic species (ntypx) = 10
     Max number of k-points (npk) =  40000
     Max angular momentum in pseudopotentials (lmaxx) =  4
 
     R & G space division:  proc/nbgrp/npool/nimage =      32
     Subspace diagonalization in iterative solution of the eigenvalue problem:
     a serial algorithm will be used

 
     Parallelization info
     --------------------
     sticks:   dense  smooth     PW     G-vecs:    dense   smooth      PW
     Min          31      31      9                 4429     4429     676
     Max          32      32     11                 4456     4456     687
     Sum        1015    1015    295               142153   142153   21779
 
     Using Slab Decomposition
 


     bravais-lattice index     =            4
     lattice parameter (alat)  =       8.0815  a.u.
     unit-cell volume          =    2509.9427 (a.u.)^3
     number of atoms/cell      =            3
     number of atomic types    =            2
     number of electrons       =        54.00
     number of Kohn-Sham states=           54
     kinetic-energy cutoff     =      56.0000  Ry
     charge density cutoff     =     224.0000  Ry
     scf convergence threshold =      1.0E-10
     mixing beta               =       0.7000
     number of iterations used =            8  plain     mixing
     Exchange-correlation= PBE
                           (   1   4   3   4   0   0   0)

     celldm(1)=   8.081496  celldm(2)=   0.000000  celldm(3)=   5.491082
     celldm(4)=   0.000000  celldm(5)=   0.000000  celldm(6)=   0.000000

     crystal axes: (cart. coord. in units of alat)
               a(1) = (   1.000000   0.000000   0.000000 )  
               a(2) = (  -0.500000   0.866025   0.000000 )  
               a(3) = (   0.000000   0.000000   5.491082 )  

     reciprocal axes: (cart. coord. in units 2 pi/alat)
               b(1) = (  1.000000  0.577350  0.000000 )  
               b(2) = (  0.000000  1.154701  0.000000 )  
               b(3) = (  0.000000  0.000000  0.182113 )  


     PseudoPot. # 1 for Cd read from file:
     /usr/scratch4/magr4985/FGWC/FGWC/pseudo/SG15/Cd.upf
     MD5 check sum: 810a600e5a5ac944c8c8f48f0d721646
     Pseudo is Norm-conserving, Zval = 20.0
     Generated using ONCVPSP code by D. R. Hamann
     Using radial grid of  602 points,  6 beta functions with: 
                l(1) =   0
                l(2) =   0
                l(3) =   1
                l(4) =   1
                l(5) =   2
                l(6) =   2

     PseudoPot. # 2 for I  read from file:
     /usr/scratch4/magr4985/FGWC/FGWC/pseudo/SG15/I.upf
     MD5 check sum: 8277ef51204d8074ead4596f3b37a2aa
     Pseudo is Norm-conserving, Zval = 17.0
     Generated using ONCVPSP code by D. R. Hamann
     Using radial grid of  602 points,  6 beta functions with: 
                l(1) =   0
                l(2) =   0
                l(3) =   1
                l(4) =   1
                l(5) =   2
                l(6) =   2

     atomic species   valence    mass     pseudopotential
        Cd            20.00   112.41100     Cd( 1.00)
        I             17.00   126.90450     I ( 1.00)

     12 Sym. Ops., with inversion, found



   Cartesian axes

     site n.     atom                  positions (alat units)
         1           Cd  tau(   1) = (   0.0000000   0.0000000   2.7455410  )
         2           I   tau(   2) = (   0.5000000   0.2886752   3.1557127  )
         3           I   tau(   3) = (   0.0000000   0.5773502   2.3353693  )

     number of k points=    37  Gaussian smearing, width (Ry)=  0.0018
                       cart. coord. in units 2pi/alat
        k(    1) = (   0.0000000   0.0000000   0.0000000), wk =   0.0061728
        k(    2) = (   0.0000000   0.0641500   0.0000000), wk =   0.0370370
        k(    3) = (   0.0000000   0.1283001   0.0000000), wk =   0.0370370
        k(    4) = (   0.0000000   0.1924501   0.0000000), wk =   0.0370370
        k(    5) = (   0.0000000   0.2566001   0.0000000), wk =   0.0370370
        k(    6) = (   0.0000000   0.3207501   0.0000000), wk =   0.0370370
        k(    7) = (   0.0000000   0.3849002   0.0000000), wk =   0.0370370
        k(    8) = (   0.0000000   0.4490502   0.0000000), wk =   0.0370370
        k(    9) = (   0.0000000   0.5132002   0.0000000), wk =   0.0370370
        k(   10) = (   0.0000000  -0.5773503   0.0000000), wk =   0.0185185
        k(   11) = (   0.0555556   0.0962250   0.0000000), wk =   0.0370370
        k(   12) = (   0.0555556   0.1603751   0.0000000), wk =   0.0740741
        k(   13) = (   0.0555556   0.2245251   0.0000000), wk =   0.0740741
        k(   14) = (   0.0555556   0.2886751   0.0000000), wk =   0.0740741
        k(   15) = (   0.0555556   0.3528252   0.0000000), wk =   0.0740741
        k(   16) = (   0.0555556   0.4169752   0.0000000), wk =   0.0740741
        k(   17) = (   0.0555556   0.4811252   0.0000000), wk =   0.0740741
        k(   18) = (   0.0555556   0.5452753   0.0000000), wk =   0.0740741
        k(   19) = (   0.1111111   0.1924501   0.0000000), wk =   0.0370370
        k(   20) = (   0.1111111   0.2566001   0.0000000), wk =   0.0740741
        k(   21) = (   0.1111111   0.3207501   0.0000000), wk =   0.0740741
        k(   22) = (   0.1111111   0.3849002   0.0000000), wk =   0.0740741
        k(   23) = (   0.1111111   0.4490502   0.0000000), wk =   0.0740741
        k(   24) = (   0.1111111   0.5132002   0.0000000), wk =   0.0740741
        k(   25) = (   0.1111111   0.5773503   0.0000000), wk =   0.0370370
        k(   26) = (   0.1666667   0.2886751   0.0000000), wk =   0.0370370
        k(   27) = (   0.1666667   0.3528252   0.0000000), wk =   0.0740741
        k(   28) = (   0.1666667   0.4169752   0.0000000), wk =   0.0740741
        k(   29) = (   0.1666667   0.4811252   0.0000000), wk =   0.0740741
        k(   30) = (   0.1666667   0.5452753   0.0000000), wk =   0.0740741
        k(   31) = (   0.2222222   0.3849002   0.0000000), wk =   0.0370370
        k(   32) = (   0.2222222   0.4490502   0.0000000), wk =   0.0740741
        k(   33) = (   0.2222222   0.5132002   0.0000000), wk =   0.0740741
        k(   34) = (   0.2222222   0.5773503   0.0000000), wk =   0.0370370
        k(   35) = (   0.2777778   0.4811252   0.0000000), wk =   0.0370370
        k(   36) = (   0.2777778   0.5452753   0.0000000), wk =   0.0740741
        k(   37) = (   0.3333333   0.5773503   0.0000000), wk =   0.0123457

     Dense  grid:   142153 G-vectors     FFT dimensions: (  40,  40, 216)

     Estimated max dynamical RAM per process >      25.40 MB

     Estimated total dynamical RAM >     812.72 MB

     Initial potential from superposition of free atoms

     starting charge      53.9166, renormalised to      54.0000

     negative rho (up, down):  3.085E-04 0.000E+00
     Starting wfcs are random

     total cpu time spent up to now is        1.0 secs

     Self-consistent Calculation

     iteration #  1     ecut=    56.00 Ry     beta= 0.70
     Davidson diagonalization with overlap
     ethr =  1.00E-02,  avg # of iterations = 10.0

     Threshold (ethr) on eigenvalues was too large:
     Diagonalizing with lowered threshold

     Davidson diagonalization with overlap
     ethr =  2.32E-04,  avg # of iterations =  5.3

     negative rho (up, down):  1.236E-05 0.000E+00

     total cpu time spent up to now is        8.6 secs

     total energy              =    -708.30909137 Ry
     estimated scf accuracy    <       0.10871944 Ry

     iteration #  2     ecut=    56.00 Ry     beta= 0.70
     Davidson diagonalization with overlap
     ethr =  2.01E-04,  avg # of iterations =  5.9

     negative rho (up, down):  7.640E-06 0.000E+00

     total cpu time spent up to now is       10.8 secs

     total energy              =    -708.32596157 Ry
     estimated scf accuracy    <       0.16930212 Ry

     iteration #  3     ecut=    56.00 Ry     beta= 0.70
     Davidson diagonalization with overlap
     ethr =  2.01E-04,  avg # of iterations =  3.1

     negative rho (up, down):  2.317E-06 0.000E+00

     total cpu time spent up to now is       12.4 secs

     total energy              =    -708.36168873 Ry
     estimated scf accuracy    <       0.00347786 Ry

     iteration #  4     ecut=    56.00 Ry     beta= 0.70
     Davidson diagonalization with overlap
     ethr =  6.44E-06,  avg # of iterations =  7.5

     negative rho (up, down):  1.017E-07 0.000E+00

     total cpu time spent up to now is       14.7 secs

     total energy              =    -708.36260392 Ry
     estimated scf accuracy    <       0.00020812 Ry

     iteration #  5     ecut=    56.00 Ry     beta= 0.70
     Davidson diagonalization with overlap
     ethr =  3.85E-07,  avg # of iterations =  2.5

     total cpu time spent up to now is       16.3 secs

     total energy              =    -708.36263581 Ry
     estimated scf accuracy    <       0.00000500 Ry

     iteration #  6     ecut=    56.00 Ry     beta= 0.70
     Davidson diagonalization with overlap
     ethr =  9.25E-09,  avg # of iterations =  2.0

     total cpu time spent up to now is       17.9 secs

     total energy              =    -708.36263732 Ry
     estimated scf accuracy    <       0.00000063 Ry

     iteration #  7     ecut=    56.00 Ry     beta= 0.70
     Davidson diagonalization with overlap
     ethr =  1.16E-09,  avg # of iterations =  2.0

     total cpu time spent up to now is       19.4 secs

     total energy              =    -708.36263740 Ry
     estimated scf accuracy    <       0.00000004 Ry

     iteration #  8     ecut=    56.00 Ry     beta= 0.70
     Davidson diagonalization with overlap
     ethr =  7.08E-11,  avg # of iterations =  2.0

     total cpu time spent up to now is       21.0 secs

     total energy              =    -708.36263741 Ry
     estimated scf accuracy    <          1.7E-09 Ry

     iteration #  9     ecut=    56.00 Ry     beta= 0.70
     Davidson diagonalization with overlap
     ethr =  3.17E-12,  avg # of iterations =  2.0

     total cpu time spent up to now is       22.5 secs

     End of self-consistent calculation

          k = 0.0000 0.0000 0.0000 ( 17889 PWs)   bands (ev):

  -103.9431 -64.9726 -64.9726 -64.9664 -46.1265 -46.1265 -46.1262 -46.1262
   -46.1117 -46.1117 -46.1113 -46.1113 -46.1059 -46.1057 -14.2172 -13.7714
    -9.9021  -9.9021  -9.7968  -9.7320  -9.7320  -5.6104  -3.2365  -2.6435
    -2.6435  -2.3923  -2.3923   0.3859   2.1692   3.5766   3.6179   3.9656
     3.9656   4.2684   4.9019   5.7522   6.0108   6.6142   6.6142   6.7503
     7.5903   8.1861   8.6520   8.6520   8.7990   8.9601   8.9819   8.9819
    10.5859  11.0787  11.4295  11.4295  12.8388  12.8705

          k = 0.0000 0.0642 0.0000 ( 17871 PWs)   bands (ev):

  -103.9431 -64.9726 -64.9726 -64.9664 -46.1265 -46.1265 -46.1262 -46.1262
   -46.1117 -46.1117 -46.1113 -46.1113 -46.1059 -46.1056 -14.2035 -13.7674
    -9.8998  -9.8963  -9.7941  -9.7327  -9.7318  -5.6055  -3.2247  -2.7829
    -2.6889  -2.4830  -2.3884   0.4817   2.3028   3.5352   3.5993   3.9382
     4.0150   4.3432   4.9228   5.8050   6.0421   6.3292   6.6654   6.8275
     7.6893   8.0424   8.4212   8.5467   8.6930   9.1743   9.2691   9.5412
    10.6328  11.1815  11.1876  11.3838  12.3293  12.9390

          k = 0.0000 0.1283 0.0000 ( 17823 PWs)   bands (ev):

  -103.9431 -64.9726 -64.9726 -64.9664 -46.1265 -46.1264 -46.1262 -46.1262
   -46.1117 -46.1117 -46.1114 -46.1113 -46.1059 -46.1056 -14.1632 -13.7558
    -9.8936  -9.8793  -9.7863  -9.7346  -9.7307  -5.5943  -3.2159  -3.0969
    -2.8032  -2.7315  -2.3914   0.6918   2.6158   3.3460   3.6638   4.0082
     4.1476   4.4894   4.9838   5.8484   5.9730   6.1097   6.7847   6.8092
     7.5838   7.9954   8.2019   8.5712   9.1373   9.5370   9.6296  10.1640
    10.6336  10.8101  11.3567  11.5009  12.0062  12.2153

          k = 0.0000 0.1925 0.0000 ( 17791 PWs)   bands (ev):

  -103.9431 -64.9726 -64.9726 -64.9664 -46.1265 -46.1264 -46.1262 -46.1261
   -46.1117 -46.1117 -46.1114 -46.1113 -46.1059 -46.1056 -14.1001 -13.7381
    -9.8853  -9.8537  -9.7736  -9.7362  -9.7277  -5.5878  -3.5629  -3.1371
    -3.0407  -2.9547  -2.4129   0.8541   2.7800   3.4361   3.7615   4.1878
     4.3187   4.6737   5.0750   5.5039   6.0954   6.1779   6.5928   7.0227
     7.4734   8.1723   8.2033   8.7369   9.4718   9.8172  10.0085  10.2670
    10.6750  10.9326  11.2943  11.5434  11.7944  11.8928

          k = 0.0000 0.2566 0.0000 ( 17779 PWs)   bands (ev):

  -103.9431 -64.9726 -64.9726 -64.9664 -46.1265 -46.1263 -46.1262 -46.1260
   -46.1117 -46.1117 -46.1114 -46.1114 -46.1058 -46.1055 -14.0197 -13.7167
    -9.8772  -9.8269  -9.7550  -9.7342  -9.7215  -5.6055  -3.9824  -3.4046
    -3.1199  -3.0364  -2.4500   0.8398   2.7635   3.7583   3.9174   4.4528
     4.4677   4.8678   5.0677   5.3964   6.1232   6.4224   6.5382   7.3036
     7.5588   8.3220   8.3833   8.9165   9.1956   9.8039  10.0615  10.4984
    10.5928  10.8738  11.0047  11.3137  11.5737  11.9517

          k = 0.0000 0.3208 0.0000 ( 17751 PWs)   bands (ev):

  -103.9431 -64.9727 -64.9726 -64.9664 -46.1265 -46.1262 -46.1262 -46.1259
   -46.1118 -46.1117 -46.1115 -46.1114 -46.1058 -46.1055 -13.9302 -13.6940
    -9.8716  -9.8108  -9.7387  -9.7126  -9.7116  -5.6689  -4.3606  -3.6607
    -3.2804  -2.9701  -2.4945   0.6609   2.7782   3.8452   4.2166   4.5502
     4.7688   4.8041   5.1194   5.6864   6.2861   6.5476   6.9331   7.6947
     7.6980   8.3044   8.7988   8.8201   9.1404   9.3782   9.7143   9.9220
    10.0864  10.8073  11.1206  11.3491  11.5234  11.7642

          k = 0.0000 0.3849 0.0000 ( 17753 PWs)   bands (ev):

  -103.9431 -64.9727 -64.9726 -64.9664 -46.1265 -46.1262 -46.1261 -46.1258
   -46.1118 -46.1117 -46.1115 -46.1114 -46.1057 -46.1055 -13.8417 -13.6733
    -9.8688  -9.8074  -9.7311  -9.6994  -9.6694  -5.7799  -4.6770  -3.8080
    -3.4208  -2.9146  -2.5383   0.4222   2.7795   3.8244   4.5208   4.5651
     4.5665   5.0942   5.4243   6.0949   6.5856   6.7953   7.3338   7.8374
     8.1332   8.2137   8.6170   8.9288   9.2026   9.2857   9.3299   9.4731
     9.7025  10.4373  10.6490  11.1983  11.6283  11.7445

          k = 0.0000 0.4491 0.0000 ( 17756 PWs)   bands (ev):

  -103.9431 -64.9727 -64.9726 -64.9664 -46.1265 -46.1262 -46.1260 -46.1258
   -46.1118 -46.1117 -46.1115 -46.1114 -46.1057 -46.1054 -13.7656 -13.6573
    -9.8682  -9.8099  -9.7251  -9.6875  -9.6258  -5.9065  -4.9205  -3.8564
    -3.5294  -2.8802  -2.5744   0.2076   2.7513   3.7892   4.2870   4.5470
     4.9305   5.4413   5.8300   6.5013   6.8018   6.8729   7.4206   8.0199
     8.1936   8.2968   8.5233   8.7795   8.7958   9.3351   9.4842   9.6863
     9.8698  10.1089  10.1318  11.3834  11.6347  11.6439

          k = 0.0000 0.5132 0.0000 ( 17740 PWs)   bands (ev):

  -103.9431 -64.9728 -64.9726 -64.9664 -46.1265 -46.1262 -46.1260 -46.1257
   -46.1118 -46.1117 -46.1115 -46.1114 -46.1057 -46.1054 -13.7124 -13.6487
    -9.8685  -9.8133  -9.7213  -9.6789  -9.5939  -6.0035  -5.0764  -3.8532
    -3.5979  -2.8664  -2.5981   0.0641   2.7187   3.7988   4.0713   4.5229
     5.3812   5.8099   6.3021   6.4008   6.6925   7.0219   7.4912   7.6450
     8.0367   8.3364   8.5468   8.7853   9.0985   9.2873   9.5796   9.7746
     9.9632  10.2084  10.6763  11.1635  11.3136  11.6281

          k = 0.0000-0.5774 0.0000 ( 17750 PWs)   bands (ev):

  -103.9431 -64.9728 -64.9726 -64.9664 -46.1265 -46.1262 -46.1260 -46.1257
   -46.1118 -46.1117 -46.1115 -46.1114 -46.1057 -46.1054 -13.6924 -13.6469
    -9.8687  -9.8147  -9.7201  -9.6758  -9.5822  -6.0393  -5.1303  -3.8457
    -3.6213  -2.8638  -2.6063   0.0140   2.7050   3.8450   3.9514   4.5128
     5.8614   5.8888   6.0791   6.4696   6.8763   6.8953   7.4009   7.5068
     8.0913   8.2199   8.6421   8.7469   9.1444   9.1698   9.6940  10.0400
    10.2640  10.2743  10.9148  11.0479  11.1167  11.4336

          k = 0.0556 0.0962 0.0000 ( 17833 PWs)   bands (ev):

  -103.9431 -64.9726 -64.9726 -64.9664 -46.1265 -46.1265 -46.1262 -46.1262
   -46.1117 -46.1117 -46.1114 -46.1113 -46.1059 -46.1056 -14.1765 -13.7596
    -9.8956  -9.8848  -9.7889  -9.7340  -9.7312  -5.5974  -3.2050  -2.9867
    -2.8568  -2.5537  -2.4298   0.6341   2.5362   3.3811   3.6384   3.9719
     4.1143   4.4458   4.9656   5.8940   6.0255   6.0646   6.7635   6.8194
     7.8302   7.8390   8.0090   8.9681   8.9738   9.0524   9.7123   9.9889
    10.7482  10.9014  11.1821  11.3853  12.1676  12.6208

          k = 0.0556 0.1604 0.0000 ( 17803 PWs)   bands (ev):

  -103.9431 -64.9726 -64.9726 -64.9664 -46.1265 -46.1264 -46.1262 -46.1261
   -46.1117 -46.1117 -46.1114 -46.1113 -46.1059 -46.1056 -14.1247 -13.7449
    -9.8883  -9.8631  -9.7792  -9.7356  -9.7292  -5.5882  -3.3547  -3.1691
    -3.1033  -2.7036  -2.4674   0.8205   2.8476   3.2556   3.7081   4.0996
     4.2814   4.6057   5.0531   5.6621   6.0251   6.0809   6.7252   6.9211
     7.5790   7.8964   8.1616   8.8919   9.4185   9.5333  10.0109  10.4501
    10.5226  10.9640  11.0984  11.6664  11.7889  12.1373

          k = 0.0556 0.2245 0.0000 ( 17770 PWs)   bands (ev):

  -103.9431 -64.9726 -64.9726 -64.9664 -46.1265 -46.1263 -46.1262 -46.1261
   -46.1117 -46.1117 -46.1114 -46.1114 -46.1058 -46.1056 -14.0529 -13.7254
    -9.8798  -9.8357  -9.7650  -9.7355  -9.7244  -5.5929  -3.7704  -3.3863
    -3.1274  -2.8925  -2.4963   0.8958   2.8723   3.5554   3.7913   4.3015
     4.4595   4.7998   5.1294   5.4237   6.0116   6.3042   6.5809   7.0956
     7.6197   8.0831   8.3852   8.8499   9.4686   9.8624  10.2901  10.3616
    10.6542  11.1528  11.2340  11.3306  11.4285  11.5564

          k = 0.0556 0.2887 0.0000 ( 17768 PWs)   bands (ev):

  -103.9431 -64.9727 -64.9726 -64.9664 -46.1265 -46.1262 -46.1262 -46.1260
   -46.1118 -46.1117 -46.1114 -46.1114 -46.1058 -46.1055 -13.9678 -13.7033
    -9.8725  -9.8132  -9.7465  -9.7270  -9.7154  -5.6325  -4.1707  -3.6225
    -3.2194  -2.9569  -2.5341   0.7970   2.8622   3.8466   3.9530   4.5081
     4.6643   4.9325   5.0346   5.5854   6.0877   6.4851   6.7008   7.3289
     7.8467   8.2960   8.6216   8.8146   9.2399   9.6771   9.9549  10.3405
    10.5345  10.6747  11.0994  11.4020  11.4865  11.7477

          k = 0.0556 0.3528 0.0000 ( 17752 PWs)   bands (ev):

  -103.9431 -64.9727 -64.9726 -64.9664 -46.1265 -46.1262 -46.1262 -46.1259
   -46.1118 -46.1117 -46.1115 -46.1114 -46.1057 -46.1055 -13.8786 -13.6816
    -9.8676  -9.8046  -9.7350  -9.7069  -9.6909  -5.7203  -4.5178  -3.7852
    -3.3862  -2.9249  -2.5746   0.5882   2.8741   3.8540   4.2496   4.6228
     4.7100   4.9637   5.2823   5.9373   6.3387   6.6415   7.1112   7.6052
     8.0299   8.2604   8.8203   9.0427   9.1031   9.2936   9.5565   9.6782
    10.0217  10.7600  10.8834  11.1789  11.3705  11.5235

          k = 0.0556 0.4170 0.0000 ( 17733 PWs)   bands (ev):

  -103.9431 -64.9727 -64.9726 -64.9664 -46.1265 -46.1262 -46.1261 -46.1258
   -46.1118 -46.1117 -46.1115 -46.1114 -46.1057 -46.1054 -13.7960 -13.6631
    -9.8650  -9.8052  -9.7277  -9.6942  -9.6482  -5.8411  -4.7962  -3.8569
    -3.5319  -2.8909  -2.6118   0.3634   2.8612   3.8236   4.3764   4.4928
     4.8207   5.2974   5.6396   6.3422   6.6811   6.8381   7.4031   7.8124
     8.0019   8.2918   8.6541   8.8680   8.9922   9.2511   9.4414   9.6831
    10.0235  10.1764  10.4850  11.0112  11.4372  11.5705

          k = 0.0556 0.4811 0.0000 ( 17716 PWs)   bands (ev):

  -103.9431 -64.9727 -64.9726 -64.9664 -46.1265 -46.1262 -46.1260 -46.1258
   -46.1118 -46.1117 -46.1115 -46.1114 -46.1057 -46.1054 -13.7310 -13.6507
    -9.8640  -9.8086  -9.7226  -9.6841  -9.6106  -5.9545  -4.9939  -3.8636
    -3.6367  -2.8691  -2.6430   0.1859   2.8310   3.8165   4.2111   4.4361
     5.1927   5.6669   6.0847   6.5979   6.7553   6.8970   7.5209   7.8079
     8.0061   8.2718   8.3351   8.6516   9.2644   9.3530   9.4252   9.7008
    10.0586  10.1486  10.5034  11.1518  11.3456  11.5149

          k = 0.0556 0.5453 0.0000 ( 17749 PWs)   bands (ev):

  -103.9431 -64.9728 -64.9726 -64.9664 -46.1265 -46.1262 -46.1260 -46.1257
   -46.1118 -46.1117 -46.1115 -46.1114 -46.1057 -46.1054 -13.6937 -13.6461
    -9.8637  -9.8111  -9.7200  -9.6784  -9.5890  -6.0214  -5.0974  -3.8494
    -3.6928  -2.8583  -2.6630   0.0898   2.8083   3.8605   4.0418   4.4084
     5.6568   6.0368   6.1621   6.5153   6.6717   7.1654   7.2818   7.6586
     7.9875   8.2138   8.3461   8.8028   9.1453   9.3557   9.4966  10.0318
    10.0718  10.4152  10.7327  11.0293  11.1823  11.3118

          k = 0.1111 0.1925 0.0000 ( 17769 PWs)   bands (ev):

  -103.9431 -64.9726 -64.9726 -64.9664 -46.1265 -46.1263 -46.1262 -46.1261
   -46.1117 -46.1117 -46.1114 -46.1113 -46.1058 -46.1056 -14.0643 -13.7284
    -9.8807  -9.8385  -9.7692  -9.7354  -9.7253  -5.5895  -3.5678  -3.5418
    -3.1293  -2.6947  -2.6323   0.9216   3.1458   3.2074   3.7637   4.2554
     4.4567   4.7749   5.1593   5.4970   5.8823   6.2481   6.7928   6.8678
     7.8064   7.8266   8.3769   8.8457   9.7067   9.8197  10.2791  10.4505
    10.7441  11.0041  11.1641  11.2545  11.6223  11.8262

          k = 0.1111 0.2566 0.0000 ( 17777 PWs)   bands (ev):

  -103.9431 -64.9726 -64.9726 -64.9664 -46.1265 -46.1263 -46.1262 -46.1260
   -46.1117 -46.1117 -46.1114 -46.1114 -46.1058 -46.1055 -13.9876 -13.7083
    -9.8724  -9.8126  -9.7571  -9.7302  -9.7178  -5.6144  -3.9627  -3.7423
    -3.1630  -2.8467  -2.6718   0.9108   3.1104   3.5553   3.8648   4.4592
     4.6317   4.9724   5.0873   5.6013   5.8087   6.4772   6.6717   7.0454
     7.9913   8.2065   8.5637   8.6747   9.6514  10.0362  10.1544  10.5125
    10.7562  10.8151  11.0233  11.0916  11.2768  11.5029

          k = 0.1111 0.3208 0.0000 ( 17782 PWs)   bands (ev):

  -103.9431 -64.9727 -64.9726 -64.9664 -46.1265 -46.1262 -46.1262 -46.1259
   -46.1118 -46.1117 -46.1115 -46.1114 -46.1058 -46.1055 -13.9025 -13.6871
    -9.8647  -9.7978  -9.7430  -9.7144  -9.7038  -5.6778  -4.3330  -3.8706
    -3.3166  -2.9276  -2.6848   0.7802   3.1075   3.7503   4.0704   4.6550
     4.8077   4.9524   5.2034   5.8880   5.9298   6.5457   6.8584   7.3322
     8.1029   8.3380   8.6871   9.0904   9.3612   9.5273  10.0300  10.1002
    10.3289  10.5219  10.9124  11.1592  11.2589  11.2709

          k = 0.1111 0.3849 0.0000 ( 17763 PWs)   bands (ev):

  -103.9431 -64.9727 -64.9726 -64.9664 -46.1264 -46.1262 -46.1261 -46.1259
   -46.1118 -46.1117 -46.1115 -46.1114 -46.1057 -46.1054 -13.8186 -13.6675
    -9.8584  -9.7954  -9.7323  -9.7006  -9.6714  -5.7780  -4.6378  -3.9321
    -3.5192  -2.9381  -2.7001   0.5893   3.1033   3.8054   4.2670   4.6543
     4.8302   5.2078   5.5150   6.2048   6.2727   6.6914   7.2431   7.4420
     8.0523   8.3050   8.9373   9.0247   9.0767   9.3747   9.6389   9.7928
    10.2998  10.4699  10.5824  10.8230  11.0122  11.1129

          k = 0.1111 0.4491 0.0000 ( 17742 PWs)   bands (ev):

  -103.9431 -64.9727 -64.9726 -64.9664 -46.1264 -46.1262 -46.1261 -46.1258
   -46.1118 -46.1117 -46.1115 -46.1114 -46.1057 -46.1054 -13.7467 -13.6524
    -9.8535  -9.7980  -9.7247  -9.6913  -9.6346  -5.8887  -4.8643  -3.9401
    -3.6903  -2.9239  -2.7264   0.4059   3.0873   3.8313   4.3224   4.4470
     5.0945   5.5647   5.9195   6.5399   6.6616   6.8604   7.4040   7.5318
     7.9923   8.2706   8.4328   8.6076   9.3136   9.3237   9.4707   9.8392
    10.2097  10.3177  10.5243  10.7320  10.9364  11.0830

          k = 0.1111 0.5132 0.0000 ( 17737 PWs)   bands (ev):

  -103.9431 -64.9727 -64.9726 -64.9664 -46.1264 -46.1262 -46.1260 -46.1258
   -46.1118 -46.1117 -46.1115 -46.1114 -46.1057 -46.1054 -13.6967 -13.6442
    -9.8502  -9.8011  -9.7201  -9.6852  -9.6075  -5.9733  -5.0046  -3.9202
    -3.8066  -2.8882  -2.7701   0.2783   3.0698   3.8974   4.2253   4.2998
     5.4952   5.9568   6.3886   6.4220   6.7499   7.0647   7.5207   7.6418
     7.7173   8.1083   8.2960   8.7219   9.0633   9.2176   9.6153   9.8120
    10.0113  10.4927  10.5766  10.7720  10.8631  11.0055

          k = 0.1111 0.5774 0.0000 ( 17750 PWs)   bands (ev):

  -103.9431 -64.9728 -64.9726 -64.9664 -46.1264 -46.1261 -46.1260 -46.1257
   -46.1118 -46.1117 -46.1115 -46.1114 -46.1057 -46.1054 -13.6777 -13.6427
    -9.8489  -9.8024  -9.7186  -9.6830  -9.5976  -6.0047  -5.0523  -3.8977
    -3.8587  -2.8484  -2.8130   0.2330   3.0622   3.9963   4.0748   4.2764
     5.9304   5.9962   6.3040   6.4371   6.9603   6.9916   7.3579   7.5795
     7.8604   8.0532   8.3120   8.8835   8.9943   9.0500   9.7214   9.8093
    10.0664  10.4927  10.5716  10.7112  10.7446  10.8236

          k = 0.1667 0.2887 0.0000 ( 17769 PWs)   bands (ev):

  -103.9431 -64.9727 -64.9726 -64.9664 -46.1265 -46.1262 -46.1262 -46.1259
   -46.1118 -46.1117 -46.1115 -46.1114 -46.1058 -46.1055 -13.9107 -13.6889
    -9.8633  -9.7929  -9.7499  -9.7159  -9.7082  -5.6625  -4.2003  -3.9832
    -3.2474  -2.9438  -2.7488   0.8675   3.3823   3.4669   4.0779   4.6463
     4.8054   5.0792   5.1589   5.6704   5.8945   6.5225   6.7671   7.2164
     8.1202   8.4287   8.5745   9.0585   9.7239   9.8578  10.0498  10.1259
    10.5602  10.6103  10.6863  10.8031  10.9372  11.4792

          k = 0.1667 0.3528 0.0000 ( 17782 PWs)   bands (ev):

  -103.9431 -64.9727 -64.9726 -64.9664 -46.1264 -46.1262 -46.1261 -46.1259
   -46.1118 -46.1117 -46.1115 -46.1114 -46.1057 -46.1055 -13.8307 -13.6698
    -9.8532  -9.7847  -9.7405  -9.7001  -9.6892  -5.7390  -4.4829  -4.0765
    -3.4257  -3.0556  -2.7395   0.7594   3.3599   3.6362   4.3050   4.7924
     4.9248   5.1921   5.4153   5.7555   6.2100   6.5119   7.0847   7.2515
     8.1444   8.4399   8.8879   9.2098   9.3254   9.6432   9.9042   9.9434
    10.1592  10.3215  10.4201  10.7944  11.0173  11.1380

          k = 0.1667 0.4170 0.0000 ( 17768 PWs)   bands (ev):

  -103.9431 -64.9727 -64.9726 -64.9664 -46.1264 -46.1261 -46.1261 -46.1258
   -46.1118 -46.1117 -46.1115 -46.1114 -46.1057 -46.1054 -13.7572 -13.6535
    -9.8426  -9.7846  -9.7304  -9.6937  -9.6590  -5.8305  -4.7144  -4.1135
    -3.6417  -3.0769  -2.7473   0.6176   3.3311   3.7520   4.4359   4.7319
     5.0802   5.4912   5.7974   6.0484   6.5187   6.7367   7.1273   7.4639
     8.0487   8.3579   8.7776   8.8424   9.1541   9.2869   9.6187   9.9107
    10.1024  10.1961  10.4900  10.7306  10.8185  11.1150

          k = 0.1667 0.4811 0.0000 ( 17743 PWs)   bands (ev):

  -103.9431 -64.9727 -64.9726 -64.9664 -46.1264 -46.1261 -46.1261 -46.1258
   -46.1118 -46.1117 -46.1115 -46.1114 -46.1057 -46.1054 -13.6999 -13.6423
    -9.8330  -9.7869  -9.7222  -9.6910  -9.6330  -5.9128  -4.8707  -4.1299
    -3.8121  -3.0422  -2.7845   0.4897   3.3395   3.8082   4.3884   4.6170
     5.3877   5.8521   6.2456   6.4001   6.6403   7.0179   7.2362   7.5986
     7.8877   8.1851   8.2809   8.6792   8.9771   9.2858   9.5453   9.7151
     9.8920   9.9549  10.3720  10.6982  10.8036  11.0637

          k = 0.1667 0.5453 0.0000 ( 17741 PWs)   bands (ev):

  -103.9431 -64.9727 -64.9726 -64.9664 -46.1264 -46.1261 -46.1260 -46.1258
   -46.1118 -46.1117 -46.1115 -46.1114 -46.1056 -46.1054 -13.6669 -13.6383
    -9.8269  -9.7888  -9.7175  -9.6907  -9.6182  -5.9613  -4.9483  -4.1393
    -3.9013  -2.9832  -2.8395   0.4154   3.3540   3.8641   4.2639   4.5548
     5.8042   6.1386   6.3131   6.5381   6.8122   7.1486   7.3280   7.5958
     7.7831   7.9588   8.3558   8.6027   8.8751   9.1457   9.3539   9.6379
     9.8232   9.8847  10.2854  10.5640  10.7229  10.9646

          k = 0.2222 0.3849 0.0000 ( 17770 PWs)   bands (ev):

  -103.9431 -64.9727 -64.9726 -64.9664 -46.1264 -46.1261 -46.1261 -46.1259
   -46.1118 -46.1117 -46.1115 -46.1114 -46.1057 -46.1054 -13.7609 -13.6538
    -9.8379  -9.7767  -9.7358  -9.6899  -9.6728  -5.8069  -4.6253  -4.2203
    -3.5907  -3.1720  -2.7478   0.7060   3.4005   3.7351   4.5287   4.9223
     5.1899   5.5034   5.5047   5.8283   6.4857   6.5813   7.0627   7.4110
     8.1624   8.4866   8.8057   8.9567   9.3507   9.3599   9.5016   9.5224
    10.1259  10.1614  10.6111  10.7398  10.9389  11.1065

          k = 0.2222 0.4491 0.0000 ( 17756 PWs)   bands (ev):

  -103.9431 -64.9727 -64.9726 -64.9664 -46.1263 -46.1261 -46.1261 -46.1258
   -46.1118 -46.1117 -46.1115 -46.1114 -46.1057 -46.1054 -13.7019 -13.6412
    -9.8205  -9.7738  -9.7282  -9.6883  -9.6565  -5.8690  -4.7403  -4.3097
    -3.8018  -3.1684  -2.7785   0.6279   3.4213   3.7959   4.6623   5.0102
     5.3712   5.7275   5.8796   6.1855   6.5458   6.8426   7.1809   7.7301
     7.8419   8.4229   8.5058   8.7400   8.8399   9.1732   9.2670   9.6393
     9.7641   9.9532  10.3913  10.4434  10.7822  10.8592

          k = 0.2222 0.5132 0.0000 ( 17747 PWs)   bands (ev):

  -103.9431 -64.9727 -64.9727 -64.9664 -46.1263 -46.1261 -46.1260 -46.1258
   -46.1118 -46.1117 -46.1115 -46.1114 -46.1056 -46.1054 -13.6614 -13.6341
    -9.8050  -9.7738  -9.7196  -9.6935  -9.6450  -5.9129  -4.8101  -4.3542
    -3.9724  -3.1021  -2.8354   0.5590   3.4992   3.7621   4.6521   4.9840
     5.6784   5.9744   6.2204   6.5826   6.6594   7.0987   7.4213   7.5621
     7.9467   7.9833   8.2832   8.4235   8.8725   9.0106   9.1613   9.3916
     9.4987   9.6614  10.1084  10.3766  10.5282  10.8212

          k = 0.2222 0.5774 0.0000 ( 17724 PWs)   bands (ev):

  -103.9431 -64.9727 -64.9727 -64.9664 -46.1263 -46.1261 -46.1260 -46.1258
   -46.1118 -46.1118 -46.1115 -46.1114 -46.1056 -46.1054 -13.6454 -13.6333
    -9.7983  -9.7742  -9.7143  -9.6986  -9.6409  -5.9287  -4.8325  -4.3652
    -4.0390  -3.0534  -2.8773   0.5319   3.5640   3.7147   4.6224   4.9628
     5.9850   6.0545   6.1489   6.7236   7.0049   7.1812   7.2997   7.6753
     7.7079   7.9679   8.2225   8.4198   8.7760   8.9884   9.1091   9.1839
     9.3131   9.5056  10.1056  10.3737  10.6925  10.7165

          k = 0.2778 0.4811 0.0000 ( 17766 PWs)   bands (ev):

  -103.9431 -64.9727 -64.9727 -64.9664 -46.1263 -46.1261 -46.1260 -46.1258
   -46.1118 -46.1118 -46.1115 -46.1114 -46.1056 -46.1054 -13.6598 -13.6324
    -9.7952  -9.7658  -9.7238  -9.6879  -9.6625  -5.8910  -4.7186  -4.4651
    -4.0130  -3.1422  -2.8340   0.6128   3.4905   3.7861   4.9025   5.2909
     5.6877   5.7289   6.0162   6.5833   6.5946   7.0641   7.4896   7.5410
     7.9541   8.1552   8.4159   8.4847   8.6103   8.6302   9.1610   9.3216
     9.6218   9.7468   9.9870  10.0071  10.4437  10.7059

          k = 0.2778 0.5453 0.0000 ( 17719 PWs)   bands (ev):

  -103.9431 -64.9727 -64.9727 -64.9664 -46.1263 -46.1261 -46.1260 -46.1259
   -46.1118 -46.1118 -46.1115 -46.1114 -46.1056 -46.1054 -13.6360 -13.6287
    -9.7755  -9.7623  -9.7146  -9.6973  -9.6682  -5.8997  -4.6904  -4.5233
    -4.1852  -3.0675  -2.9052   0.5945   3.5955   3.7075   4.9954   5.3804
     5.8567   5.9194   6.1107   6.8788   6.9683   7.2529   7.3774   7.6868
     7.7879   7.9888   8.0151   8.3487   8.4660   8.7342   8.8534   9.1377
     9.3315   9.4309   9.7093   9.9338  10.6192  10.6923

          k = 0.3333 0.5774 0.0000 ( 17712 PWs)   bands (ev):

  -103.9431 -64.9727 -64.9727 -64.9664 -46.1262 -46.1262 -46.1259 -46.1259
   -46.1118 -46.1118 -46.1115 -46.1114 -46.1056 -46.1054 -13.6271 -13.6269
    -9.7594  -9.7594  -9.7061  -9.6933  -9.6933  -5.8918  -4.5877  -4.5876
    -4.3247  -2.9890  -2.9889   0.6040   3.6594   3.6595   5.1394   5.5593
     5.8736   6.0200   6.0202   7.0840   7.0842   7.4140   7.4141   7.5206
     7.8351   7.8351   7.9823   8.0893   8.4096   8.4096   9.0920   9.0921
     9.3441   9.3828   9.3829   9.5558  10.7872  10.7873

     the Fermi energy is    -1.4837 ev

!    total energy              =    -708.36263741 Ry
     estimated scf accuracy    <          3.6E-11 Ry
     smearing contrib. (-TS)   =      -0.00000000 Ry
     internal energy E=F+TS    =    -708.36263741 Ry

     The total energy is F=E-TS. E is the sum of the following terms:
     one-electron contribution =   -3317.12661003 Ry
     hartree contribution      =    1639.03895966 Ry
     xc contribution           =     -67.02380919 Ry
     ewald contribution        =    1036.74882214 Ry

     convergence has been achieved in   9 iterations

     Writing all to output data dir out/CdI2.save/
 
     init_run     :      0.51s CPU      0.77s WALL (       1 calls)
     electrons    :     20.87s CPU     21.56s WALL (       1 calls)

     Called by init_run:
     wfcinit      :      0.43s CPU      0.57s WALL (       1 calls)
     potinit      :      0.04s CPU      0.06s WALL (       1 calls)
     hinit0       :      0.01s CPU      0.09s WALL (       1 calls)

     Called by electrons:
     c_bands      :     18.79s CPU     19.42s WALL (      10 calls)
     sum_band     :      2.04s CPU      2.08s WALL (      10 calls)
     v_of_rho     :      0.03s CPU      0.04s WALL (      10 calls)
     mix_rho      :      0.01s CPU      0.01s WALL (      10 calls)

     Called by c_bands:
     init_us_2    :      0.08s CPU      0.09s WALL (     777 calls)
     init_us_2:cp :      0.07s CPU      0.09s WALL (     777 calls)
     cegterg      :     18.27s CPU     18.83s WALL (     370 calls)

     Called by *egterg:
     cdiaghg      :      3.99s CPU      4.10s WALL (    1897 calls)
     h_psi        :     12.55s CPU     13.04s WALL (    1971 calls)
     g_psi        :      0.05s CPU      0.05s WALL (    1564 calls)

     Called by h_psi:
     h_psi:calbec :      0.39s CPU      0.40s WALL (    1971 calls)
     vloc_psi     :     11.86s CPU     12.31s WALL (    1971 calls)
     add_vuspsi   :      0.22s CPU      0.23s WALL (    1971 calls)

     General routines
     calbec       :      0.39s CPU      0.40s WALL (    1971 calls)
     fft          :      0.03s CPU      0.09s WALL (     100 calls)
     ffts         :      0.00s CPU      0.00s WALL (      10 calls)
     fftw         :     12.97s CPU     13.43s WALL (  141390 calls)
 
     Parallel routines
 
     PWSCF        :     21.79s CPU     23.37s WALL

 
   This run was terminated on:  10:12:40   5Apr2024            

=------------------------------------------------------------------------------=
   JOB DONE.
=------------------------------------------------------------------------------=
