
     Program PWSCF v.7.1 starts on 28Dec2023 at 21: 3:17 

     This program is part of the open-source Quantum ESPRESSO suite
     for quantum simulation of materials; please cite
         "P. Giannozzi et al., J. Phys.:Condens. Matter 21 395502 (2009);
         "P. Giannozzi et al., J. Phys.:Condens. Matter 29 465901 (2017);
         "P. Giannozzi et al., J. Chem. Phys. 152 154105 (2020);
          URL http://www.quantum-espresso.org", 
     in publications or presentations arising from this work. More details at
     http://www.quantum-espresso.org/quote

     Parallel version (MPI), running on     8 processors

     MPI processes distributed on     1 nodes
     123348 MiB available memory on the printing compute node when the environment starts
 
     Reading input from pw_mp-1415_nscf_k0_E55.in
Warning: card &IONS ignored
Warning: card / ignored
Warning: card &CELL ignored
Warning: card / ignored

     Current dimensions of program PWSCF are:
     Max number of different atomic species (ntypx) = 10
     Max number of k-points (npk) =  40000
     Max angular momentum in pseudopotentials (lmaxx) =  4

     Atomic positions and unit cell read from directory:
     out/mp-1415.save/
     Atomic positions from file used, from input discarded
 
 
     R & G space division:  proc/nbgrp/npool/nimage =       8
     Subspace diagonalization in iterative solution of the eigenvalue problem:
     one sub-group per band group will be used
     scalapack distributed-memory algorithm (size of sub-group:  2*  2 procs)

 
     Parallelization info
     --------------------
     sticks:   dense  smooth     PW     G-vecs:    dense   smooth      PW
     Min         119     119     30                 2446     2446     302
     Max         120     120     31                 2450     2450     304
     Sum         955     955    241                19579    19579    2421
 
     Using Slab Decomposition
 


     bravais-lattice index     =            2
     lattice parameter (alat)  =      11.2259  a.u.
     unit-cell volume          =     353.6717 (a.u.)^3
     number of atoms/cell      =            2
     number of atomic types    =            2
     number of electrons       =        16.00
     number of Kohn-Sham states=          880
     kinetic-energy cutoff     =      55.0000  Ry
     charge density cutoff     =     220.0000  Ry
     Exchange-correlation= PBE
                           (   1   4   3   4   0   0   0)

     celldm(1)=  11.225872  celldm(2)=   0.000000  celldm(3)=   0.000000
     celldm(4)=   0.000000  celldm(5)=   0.000000  celldm(6)=   0.000000

     crystal axes: (cart. coord. in units of alat)
               a(1) = (  -0.500000   0.000000   0.500000 )  
               a(2) = (   0.000000   0.500000   0.500000 )  
               a(3) = (  -0.500000   0.500000   0.000000 )  

     reciprocal axes: (cart. coord. in units 2 pi/alat)
               b(1) = ( -1.000000 -1.000000  1.000000 )  
               b(2) = (  1.000000  1.000000  1.000000 )  
               b(3) = ( -1.000000  1.000000 -1.000000 )  


     PseudoPot. # 1 for Ca read from file:
     /usr/scratch4/magr4985/MG/HTDF/pseudo/SG15/Ca.upf
     MD5 check sum: b43c970dc090f2312d256360aabdb6f1
     Pseudo is Norm-conserving, Zval = 10.0
     Generated using ONCVPSP code by D. R. Hamann
     Using radial grid of  602 points,  6 beta functions with: 
                l(1) =   0
                l(2) =   0
                l(3) =   1
                l(4) =   1
                l(5) =   2
                l(6) =   2

     PseudoPot. # 2 for Se read from file:
     /usr/scratch4/magr4985/MG/HTDF/pseudo/SG15/Se.upf
     MD5 check sum: e78e48a4f5d8ce1f8dc76ec1271f249c
     Pseudo is Norm-conserving, Zval =  6.0
     Generated using ONCVPSP code by D. R. Hamann
     Using radial grid of  602 points,  6 beta functions with: 
                l(1) =   0
                l(2) =   0
                l(3) =   1
                l(4) =   1
                l(5) =   2
                l(6) =   2

     atomic species   valence    mass     pseudopotential
        Ca            10.00    40.07800     Ca( 1.00)
        Se             6.00    78.96000     Se( 1.00)

     48 Sym. Ops., with inversion, found



   Cartesian axes

     site n.     atom                  positions (alat units)
         1           Ca  tau(   1) = (   0.0000000   0.0000000   0.0000000  )
         2           Se  tau(   2) = (  -0.5000000   0.5000000   0.5000000  )

     number of k points=     1  Gaussian smearing, width (Ry)=  0.0005
                       cart. coord. in units 2pi/alat
        k(    1) = (   0.0000000   0.0000000   0.0000000), wk =   2.0000000

     Dense  grid:    19579 G-vectors     FFT dimensions: (  40,  40,  40)

     Estimated max dynamical RAM per process >      59.84 MB

     Estimated total dynamical RAM >     478.71 MB

     The potential is recalculated from file :
     out/mp-1415.save/charge-density

     Starting wfcs are random

     Band Structure Calculation
     Davidson diagonalization with overlap

     ethr =  5.00E-06,  avg # of iterations = 13.0

     total cpu time spent up to now is       72.2 secs

     End of band structure calculation

          k = 0.0000 0.0000 0.0000 (  2421 PWs)   bands (ev):

   -33.9453 -14.9302 -14.9302 -14.9302  -5.8636   5.9001   5.9001   5.9001
     9.1591   9.5934   9.5934   9.5934  10.1452  10.1452  15.5980  18.1102
    18.1102  18.1102  20.2961  20.2961  20.2961  21.1760  21.1760  26.9326
    30.6393  30.6393  30.6393  31.8625  31.8625  31.8625  32.7759  32.7759
    33.4898  33.4898  33.4898  40.3482  42.1815  42.1815  42.1815  43.5561
    43.5561  43.5561  45.3081  45.5186  45.5186  45.5186  45.5541  45.5541
    45.5541  46.1857  46.6675  46.6675  47.2371  47.2371  47.2371  48.4722
    48.4722  48.4722  49.1113  49.1113  51.3449  55.2471  55.2471  55.2471
    55.4982  55.4982  55.4982  64.7446  67.3132  67.3132  67.3132  67.9948
    67.9948  72.0169  72.0169  72.0169  74.4300  74.4300  74.4300  74.6667
    75.5694  75.5694  75.8052  75.8052  75.8052  76.0900  77.7366  77.7366
    77.7366  78.9724  78.9724  78.9724  79.8044  79.8044  79.8044  80.4373
    80.4373  80.4373  80.8105  80.8105  80.8105  81.5496  81.5496  81.5496
    81.5523  81.5523  82.8597  82.8597  84.0184  84.0184  84.0184  84.8894
    85.9059  85.9059  88.2867  88.4136  88.4136  88.4136  90.8977  92.2630
    92.2630  92.2630  98.6590  98.6590  98.6590  99.1530  99.1530  99.1530
    99.5643  99.5643  99.5643  99.5710  99.5710  99.7605  99.7605  99.7605
   100.4622 100.4622 100.5165 100.8694 100.8694 100.8694 101.8736 101.8736
   101.8736 108.0490 108.3618 108.3618 108.3618 108.3972 109.5696 109.5696
   109.5696 110.0842 110.0842 110.0842 111.5901 111.5901 111.5901 112.0546
   112.0546 112.0546 115.3803 115.3803 116.3831 116.3831 116.4733 116.4733
   116.4733 116.6463 116.9904 117.2261 117.2261 117.2261 126.9832 126.9832
   126.9832 127.1333 127.1333 127.1333 129.8134 129.8134 130.9759 131.1546
   131.1546 131.1546 134.3968 134.3968 134.3968 134.4792 134.4792 134.4792
   136.2571 137.8769 137.8769 139.8002 139.8002 139.8002 140.1130 141.0587
   141.0587 141.0587 141.1787 141.1787 141.1787 141.8473 141.8473 142.1980
   142.1980 142.1980 143.4236 143.4236 143.4236 143.9607 143.9641 144.4921
   144.4921 144.4921 144.6797 146.3575 146.3575 146.4360 146.4360 146.4360
   147.5663 147.5663 147.5663 148.1701 148.1701 148.1701 148.9280 148.9280
   148.9280 149.4135 149.5741 149.5741 149.5741 149.6773 149.6773 149.9732
   149.9732 149.9732 150.2268 150.2268 150.2268 150.2971 150.2971 150.2971
   150.3242 150.3242 150.3423 150.3423 150.3423 150.4330 150.4330 150.5616
   150.7192 150.7192 150.7192 157.5783 157.5783 158.2865 158.2865 158.2865
   161.3705 161.3705 161.3705 161.9009 161.9009 161.9009 162.1214 162.1214
   162.1214 162.2512 162.8207 162.8207 162.8207 167.2244 167.2244 167.2244
   168.1447 168.1447 168.3119 168.3119 168.3119 168.4108 171.6138 172.1111
   172.1111 172.8240 172.8240 172.8240 174.1876 178.3110 178.3110 178.3110
   179.5758 179.5758 179.5758 179.6425 179.6425 179.6425 179.8546 179.8546
   179.8546 179.9033 179.9033 180.1532 180.1532 180.1532 181.3513 181.3513
   181.7751 182.3657 182.3657 182.4113 182.4113 182.4113 182.4724 182.4724
   182.4724 182.9790 182.9790 182.9790 183.0103 183.0103 183.0103 183.3902
   183.3902 183.3902 183.6230 185.6643 185.6643 190.6805 190.6805 190.6805
   192.7094 192.7094 192.7094 194.2663 197.5143 197.5143 197.5143 197.7709
   199.3503 199.3503 199.3503 200.0518 202.6843 202.6843 202.6843 203.8286
   203.8286 204.0626 204.0626 204.0626 205.0527 205.0527 205.0574 205.3995
   205.3995 205.3995 208.3825 208.3825 208.3825 209.4903 209.4903 209.4903
   211.6810 211.6810 211.6810 212.0651 212.0651 212.0651 212.2454 212.2454
   212.2454 212.3227 212.3227 212.3227 214.9871 215.2606 215.2606 215.2606
   215.4725 215.4725 215.7600 215.7600 215.7600 215.8683 215.9845 215.9845
   216.0199 216.0199 216.0199 216.5315 216.5315 216.5315 216.7985 216.7985
   216.7985 216.9933 216.9933 216.9933 217.1888 218.6387 218.6387 218.6486
   218.6486 218.6486 218.6738 224.3737 224.3737 224.3737 226.7445 227.6069
   227.6069 228.3032 228.3032 228.3032 229.8261 230.2440 230.2440 230.2440
   230.8271 230.8271 230.9536 230.9536 230.9536 231.4409 231.4409 231.4409
   231.9717 231.9717 231.9717 232.1812 232.1812 232.1812 233.0654 233.0654
   234.7433 234.7433 234.7433 235.8756 235.8756 235.9183 235.9183 235.9183
   235.9309 235.9309 235.9309 235.9951 235.9951 235.9951 236.0265 236.0265
   236.0443 236.0443 236.0443 237.5867 237.5867 237.5867 237.6048 237.6048
   237.6048 237.6085 237.6571 238.1568 238.1568 238.1568 238.6439 239.1425
   239.1425 239.1425 239.3006 239.3006 239.3006 240.7370 241.3987 241.3987
   241.3987 242.4278 242.4278 242.4278 242.4454 242.7676 242.7676 243.1984
   243.1984 243.1984 243.3640 246.5282 246.5282 247.3785 247.3785 247.3785
   247.6747 247.6747 247.6747 247.6859 247.6859 247.8124 247.8124 247.8124
   248.6835 248.6835 248.6835 248.9203 248.9203 248.9218 249.2374 249.2374
   249.2374 249.2489 249.2489 250.7757 250.7757 250.7757 250.9260 250.9260
   250.9260 251.1199 251.1199 251.1199 251.2491 251.2491 251.2491 252.1506
   252.1898 252.1898 252.1898 252.2032 252.2032 255.1656 255.1656 255.1656
   258.7419 267.0356 267.0356 267.0356 275.0025 275.0025 275.0025 275.3172
   275.3172 276.2746 276.4028 277.1197 277.1197 277.1197 278.7343 278.7343
   278.7979 278.7979 278.7979 278.8967 278.8967 278.8967 279.1849 279.1849
   279.1849 279.3110 279.3110 279.3110 279.5019 279.5019 279.5019 279.8567
   279.8567 280.3271 280.4412 280.6246 280.6246 280.6246 280.9585 280.9585
   280.9585 281.1431 281.1431 281.1431 281.1506 281.1506 281.1506 281.2815
   281.2815 281.2815 282.6081 285.8412 285.8412 286.0454 286.0454 286.0454
   286.0922 286.0922 286.2025 286.2025 286.2025 286.2714 286.2714 286.2714
   286.3740 286.3740 286.3740 287.3807 287.3807 287.4586 287.4586 287.4586
   287.6155 293.9065 293.9065 293.9065 295.1510 295.1510 295.9028 295.9028
   295.9028 295.9782 295.9782 295.9782 296.7336 297.2169 297.2169 297.2169
   298.0203 298.0203 301.5176 301.5952 301.5952 301.5952 301.6184 301.6184
   301.7206 301.7206 301.7206 302.1601 302.1601 302.1601 302.2437 302.2437
   302.2437 302.2582 302.2582 302.2582 302.3351 302.3351 302.3351 302.5459
   302.5459 302.7748 302.7748 302.7748 302.8325 303.3078 303.3078 303.3078
   305.3964 310.4140 310.4140 311.0470 311.0470 311.0470 311.1030 311.8079
   311.8079 311.8079 311.9940 311.9940 311.9940 312.0856 312.0856 312.0856
   312.1753 312.2664 312.2664 312.2664 313.0193 316.4512 316.4512 316.4512
   316.6370 316.6370 316.6503 316.6503 316.6503 316.8684 316.8684 316.8684
   317.1022 317.1022 317.1022 317.1596 317.7384 317.7384 318.2111 318.2111
   318.2111 318.2765 318.3140 318.3140 318.3438 318.3438 318.3438 318.5023
   318.5023 318.5023 318.5354 318.5354 318.5354 318.8644 318.8644 318.8644
   319.1437 319.4930 319.4930 319.4930 319.5219 319.5219 319.5640 319.5640
   319.5640 319.6342 319.6342 319.6342 319.7219 323.0605 323.0605 327.8176
   327.8176 327.8176 328.8728 329.9018 329.9018 331.3786 331.3786 331.3786
   332.2417 332.2417 332.2417 332.4963 332.4963 332.4963 332.5155 332.5155
   332.5155 332.7832 332.7832 332.7832 333.0108 333.3499 333.3499 333.3499
   333.3564 333.3564 334.1109 339.0591 339.0591 339.0591 341.7254 341.8453
   341.8453 341.8453 342.8784 344.7791 344.7791 344.7791 344.9477 344.9477
   345.1796 345.1796 345.1796 345.1817 345.1817 345.1817 345.4050 345.4050
   345.4654 345.4654 345.4654 347.7304 347.7304 347.7304 348.1611 348.1611
   348.1611 348.2120 348.2120 348.2120 348.3374 348.3374 348.3374 348.3382
   348.3382 348.3382 349.4513 349.8053 349.8053 349.9689 349.9689 349.9689
   350.1102 350.1102 350.1174 350.1174 350.1174 350.6109 350.6109 350.6109
   350.6216 350.6216 350.6497 350.6497 350.6584 350.6584 350.6584 350.6591
   350.6591 350.6591 350.6688 350.6688 350.6688 350.7776 350.7776 350.7776
   350.8204 350.8204 350.8204 351.2044 351.2044 351.2044 351.4645 352.4249
   352.4272 352.4273 352.4273 352.4273 352.4292 352.4292 352.4292 354.9811
   354.9968 354.9968 354.9968 355.0048 355.0048 355.1501 355.1501 355.1551
   355.1551 355.1551 355.1668 355.1668 355.1668 355.2080 355.2823 355.2823
   355.2823 355.3368 355.3368 355.3368 355.3810 355.3810 355.3810 355.3815
   355.3815 355.5113 355.5113 355.5113 355.6006 362.0612 362.0612 362.0612
   363.3454 363.3454 363.3454 363.4705 363.6339 370.5443 370.5443 371.4990

     the Fermi energy is     7.1828 ev
     (compare with:     7.1828 eV, computed in scf)

     Writing all to output data dir out/mp-1415.save/
 
     init_run     :      0.03s CPU      0.04s WALL (       1 calls)
     electrons    :     66.71s CPU     72.00s WALL (       1 calls)

     Called by init_run:
     wfcinit      :      0.00s CPU      0.00s WALL (       1 calls)
     potinit      :      0.01s CPU      0.01s WALL (       1 calls)
     hinit0       :      0.01s CPU      0.02s WALL (       1 calls)

     Called by electrons:
     c_bands      :     66.71s CPU     72.00s WALL (       1 calls)
     v_of_rho     :      0.01s CPU      0.01s WALL (       1 calls)

     Called by c_bands:
     init_us_2    :      0.00s CPU      0.00s WALL (       1 calls)
     init_us_2:cp :      0.00s CPU      0.00s WALL (       1 calls)
     cegterg      :     65.63s CPU     70.82s WALL (       1 calls)

     Called by *egterg:
     cdiaghg      :     63.16s CPU     68.28s WALL (      14 calls)
     h_psi        :      0.77s CPU      0.82s WALL (      15 calls)
     g_psi        :      0.01s CPU      0.01s WALL (      13 calls)

     Called by h_psi:
     h_psi:calbec :      0.02s CPU      0.02s WALL (      15 calls)
     vloc_psi     :      0.73s CPU      0.78s WALL (      15 calls)
     add_vuspsi   :      0.01s CPU      0.02s WALL (      15 calls)

     General routines
     calbec       :      0.02s CPU      0.02s WALL (      15 calls)
     fft          :      0.00s CPU      0.01s WALL (      10 calls)
     fftw         :      0.65s CPU      0.69s WALL (   10164 calls)
 
     Parallel routines
 
     PWSCF        :   1m 6.92s CPU   1m12.31s WALL

 
   This run was terminated on:  21: 4:29  28Dec2023            

=------------------------------------------------------------------------------=
   JOB DONE.
=------------------------------------------------------------------------------=
