
     Program PWSCF v.7.1 starts on  4Dec2023 at 22:39: 9 

     This program is part of the open-source Quantum ESPRESSO suite
     for quantum simulation of materials; please cite
         "P. Giannozzi et al., J. Phys.:Condens. Matter 21 395502 (2009);
         "P. Giannozzi et al., J. Phys.:Condens. Matter 29 465901 (2017);
         "P. Giannozzi et al., J. Chem. Phys. 152 154105 (2020);
          URL http://www.quantum-espresso.org", 
     in publications or presentations arising from this work. More details at
     http://www.quantum-espresso.org/quote

     Parallel version (MPI), running on     8 processors

     MPI processes distributed on     1 nodes
     123403 MiB available memory on the printing compute node when the environment starts
 
     Reading input from pw_mp-2455_nscf_k0_E52.in
Warning: card &IONS ignored
Warning: card / ignored
Warning: card &CELL ignored
Warning: card / ignored

     Current dimensions of program PWSCF are:
     Max number of different atomic species (ntypx) = 10
     Max number of k-points (npk) =  40000
     Max angular momentum in pseudopotentials (lmaxx) =  4

     Atomic positions and unit cell read from directory:
     out/mp-2455.save/
     Atomic positions from file used, from input discarded
 
 
     R & G space division:  proc/nbgrp/npool/nimage =       8
     Subspace diagonalization in iterative solution of the eigenvalue problem:
     one sub-group per band group will be used
     scalapack distributed-memory algorithm (size of sub-group:  2*  2 procs)

 
     Parallelization info
     --------------------
     sticks:   dense  smooth     PW     G-vecs:    dense   smooth      PW
     Min         121     121     30                 4369     4369     546
     Max         122     122     31                 4374     4374     551
     Sum         973     973    243                34961    34961    4385
 
     Using Slab Decomposition
 


     bravais-lattice index     =            8
     lattice parameter (alat)  =       5.7510  a.u.
     unit-cell volume          =     691.1208 (a.u.)^3
     number of atoms/cell      =            6
     number of atomic types    =            2
     number of electrons       =        52.00
     number of Kohn-Sham states=         1200
     kinetic-energy cutoff     =      52.0000  Ry
     charge density cutoff     =     208.0000  Ry
     Exchange-correlation= PBE
                           (   1   4   3   4   0   0   0)

     celldm(1)=   5.750963  celldm(2)=   1.780735  celldm(3)=   2.040484
     celldm(4)=   0.000000  celldm(5)=   0.000000  celldm(6)=   0.000000

     crystal axes: (cart. coord. in units of alat)
               a(1) = (   1.000000   0.000000   0.000000 )  
               a(2) = (   0.000000   1.780735   0.000000 )  
               a(3) = (   0.000000   0.000000   2.040484 )  

     reciprocal axes: (cart. coord. in units 2 pi/alat)
               b(1) = (  1.000000  0.000000  0.000000 )  
               b(2) = (  0.000000  0.561566  0.000000 )  
               b(3) = (  0.000000  0.000000  0.490080 )  


     PseudoPot. # 1 for As read from file:
     /usr/scratch4/magr4985/MG/HTDF/pseudo/SG15/As.upf
     MD5 check sum: a2ff92a4799c87c945fff9e6739df4dd
     Pseudo is Norm-conserving, Zval =  5.0
     Generated using ONCVPSP code by D. R. Hamann
     Using radial grid of  602 points,  6 beta functions with: 
                l(1) =   0
                l(2) =   0
                l(3) =   1
                l(4) =   1
                l(5) =   2
                l(6) =   2

     PseudoPot. # 2 for Os read from file:
     /usr/scratch4/magr4985/MG/HTDF/pseudo/SG15/Os.upf
     MD5 check sum: 95cd203db9fc26cc83e0e7c2505c7528
     Pseudo is Norm-conserving, Zval = 16.0
     Generated using ONCVPSP code by D. R. Hamann
     Using radial grid of  602 points,  8 beta functions with: 
                l(1) =   0
                l(2) =   0
                l(3) =   1
                l(4) =   1
                l(5) =   2
                l(6) =   2
                l(7) =   3
                l(8) =   3

     atomic species   valence    mass     pseudopotential
        As             5.00    74.92160     As( 1.00)
        Os            16.00   190.23000     Os( 1.00)

      4 Sym. Ops., with inversion, found



   Cartesian axes

     site n.     atom                  positions (alat units)
         1           As  tau(   1) = (   0.5000000   0.5860498   1.7674369  )
         2           As  tau(   2) = (   0.5000000   1.1946849   0.2730470  )
         3           As  tau(   3) = (   0.0000000   0.3043176   0.7471950  )
         4           As  tau(   4) = (   0.0000000   1.4764171   1.2932889  )
         5           Os  tau(   5) = (   0.5000000   0.8903674   1.0202419  )
         6           Os  tau(   6) = (   0.0000000   0.0000000   0.0000000  )

     number of k points=     1  Gaussian smearing, width (Ry)=  0.0005
                       cart. coord. in units 2pi/alat
        k(    1) = (   0.0000000   0.0000000   0.0000000), wk =   2.0000000

     Dense  grid:    34961 G-vectors     FFT dimensions: (  27,  48,  54)

     Estimated max dynamical RAM per process >     126.55 MB

     Estimated total dynamical RAM >    1012.43 MB

     The potential is recalculated from file :
     out/mp-2455.save/charge-density

     Starting wfcs are random

     Band Structure Calculation
     Davidson diagonalization with overlap

     ethr =  5.00E-06,  avg # of iterations = 10.0

     total cpu time spent up to now is      202.7 secs

     End of band structure calculation

          k = 0.0000 0.0000 0.0000 (  4385 PWs)   bands (ev):

   -72.5669 -72.5659 -32.0545 -32.0521 -32.0390 -32.0373 -31.8131 -31.8086
    -1.1463   0.8349   2.5049   2.9686   6.1552   7.0651   7.9780   9.1644
     9.3045  10.0901  10.2084  11.0449  11.0581  11.0664  11.9376  12.6234
    12.6737  12.7929  14.4526  16.2343  16.4349  16.5671  17.1314  18.8077
    19.5258  19.7417  19.9678  21.2401  21.4757  22.6905  23.0355  24.0829
    24.1818  25.2110  25.2959  25.5015  25.8689  26.1110  26.4397  27.1018
    28.0432  28.2184  28.3208  29.0409  29.5064  29.8406  30.7903  30.8168
    31.3297  32.8510  33.5256  34.4099  34.5987  34.7991  35.6610  35.9035
    35.9140  35.9630  37.0858  37.7180  37.8045  37.9072  38.0746  38.2180
    38.8248  38.9256  39.3058  40.6249  41.1306  41.6614  42.2015  42.2462
    42.7328  43.6920  44.7096  45.3969  45.5051  45.7139  45.7268  46.1031
    47.0571  47.7353  48.1557  48.5152  48.7051  49.1081  49.7958  49.9630
    50.0516  50.6595  50.8779  52.2207  52.5998  52.6788  53.1713  53.2625
    53.5280  53.9270  54.6897  54.8112  55.0676  55.0844  55.4607  55.6483
    56.8873  56.9184  56.9914  57.3125  58.0550  58.2211  58.7057  58.8368
    59.5110  59.8859  59.9589  60.4789  60.8069  60.8693  60.9249  61.3605
    61.3708  63.2293  63.4456  64.1650  64.1654  64.4218  64.7904  64.9201
    65.1656  65.7608  65.8799  66.4613  66.9862  67.3601  67.4086  67.7505
    68.0908  68.6126  68.7074  68.8174  69.3603  70.4086  70.9821  71.0998
    72.1818  72.5173  72.7147  72.9525  73.0884  73.1547  73.3962  73.5789
    73.7402  73.8147  74.3261  74.4344  74.9719  75.2640  75.7874  75.9163
    76.0325  76.3294  76.3527  76.6454  76.7420  77.1162  77.2908  77.3427
    77.5322  77.9710  78.0293  78.0722  78.3413  78.8307  79.2243  79.2638
    79.4502  80.1142  80.1236  80.2298  80.4362  80.5290  80.7250  81.1755
    81.3265  81.7477  82.6061  82.8859  83.8026  83.8967  84.1085  84.5227
    84.6536  84.7127  85.0563  85.2018  85.2102  85.4114  86.0810  86.2464
    86.6928  86.8721  86.8782  86.8797  87.0688  87.5314  87.7214  89.1075
    89.1436  89.5405  89.6170  89.6530  90.1118  90.5039  90.6328  90.8624
    91.0528  91.1791  91.3261  91.3692  91.4758  91.8396  92.3475  92.3696
    92.7818  93.5017  93.6755  93.7518  93.7858  94.0895  94.1199  94.8090
    95.3614  95.6723  95.9013  96.1837  96.2620  96.5286  96.7286  96.9720
    97.3335  98.2899  98.4163  98.7661  98.7793  99.0053  99.0741  99.3190
   100.3574 100.3642 100.3924 100.6227 100.9242 101.0627 101.6515 101.7020
   101.7379 102.5359 102.5567 102.7580 103.1701 103.5163 103.9816 104.0572
   104.0658 104.2517 104.5122 104.8946 105.0467 105.1429 105.7572 106.1945
   106.6169 106.8223 107.1519 107.2510 107.4445 107.5687 108.0735 108.7849
   108.7939 109.0915 109.1753 109.5241 109.6700 109.8712 110.0026 110.1970
   110.5491 110.7088 110.7722 110.9797 111.6769 112.2567 112.2753 112.4002
   112.5591 112.8800 112.9785 112.9799 113.0931 113.2286 113.6566 113.6689
   114.0293 114.8276 115.2268 115.9639 116.0026 116.0537 116.1951 116.6083
   116.6553 116.7879 116.7884 116.8952 117.1541 118.1114 118.4050 118.8267
   119.0300 119.0338 119.2333 119.8470 120.0375 120.1059 120.4680 120.6343
   121.0592 121.6767 121.8487 121.9987 122.2293 122.4442 122.5374 123.2256
   123.7458 123.8697 123.9136 124.6080 124.6839 124.7358 124.9208 125.4327
   126.1723 126.3000 126.5782 126.6717 126.9499 127.0217 127.1149 127.3442
   127.4828 127.7171 127.7475 128.1424 128.2122 128.3215 128.4553 129.5177
   129.7803 129.8389 130.2003 130.2164 130.3774 130.7394 130.8771 131.3650
   131.5036 132.2606 132.4711 132.6424 132.8030 132.8928 133.0581 133.1657
   133.1773 133.3655 134.0175 134.2850 134.4546 134.9702 135.0698 135.0747
   135.1946 135.4616 135.7031 136.0622 136.3070 137.2682 137.2855 137.3494
   138.4280 138.6300 138.8767 138.9114 138.9175 139.1932 139.4932 140.0687
   140.3440 140.3917 140.6962 141.0316 141.0855 141.1004 141.6999 141.8405
   142.1229 142.2735 142.5558 142.6476 142.9751 143.0271 143.0735 143.4349
   143.4690 143.5026 143.9692 144.6484 144.6781 144.9160 145.3002 145.3058
   145.6965 145.7384 145.8182 145.8967 146.0287 146.2476 146.2713 146.3546
   146.4777 146.5406 146.5583 147.1596 147.6102 147.9199 148.4271 148.6830
   148.7730 148.9260 148.9604 149.2246 149.2379 149.2614 149.5290 149.7918
   149.8659 150.0737 150.5809 150.6230 150.7104 150.9950 151.2330 151.6894
   151.8785 151.9389 152.0029 152.6388 152.6913 152.7085 152.7937 152.8546
   152.8683 153.2833 153.4821 153.5449 153.6683 153.9880 154.1014 154.5090
   155.0273 155.0477 155.2452 155.5011 155.9827 156.0026 156.0227 156.0242
   156.1916 156.1920 156.5013 157.1645 157.3312 157.4243 157.9226 157.9758
   158.0367 158.1634 158.3304 158.5736 158.6022 158.8057 158.9649 158.9955
   159.2617 159.2693 159.2778 159.4197 159.6348 159.7535 159.7889 160.1567
   160.2973 160.3502 160.4832 160.5130 161.7199 161.9859 162.1623 162.1670
   162.4346 162.4584 162.5514 162.5562 162.6752 163.3426 163.9075 164.1187
   164.4362 164.7098 164.8058 164.8760 165.0268 165.1044 165.7582 165.7956
   165.9244 166.2327 166.2691 166.6340 166.9806 167.1227 167.1267 167.2357
   167.7247 167.9230 168.0680 168.0831 168.1674 168.7713 168.8304 169.0273
   169.3929 169.4024 170.1377 170.1775 170.4381 170.7410 170.8678 170.8981
   171.7943 172.1176 172.1329 172.2313 172.6562 172.7180 173.3632 173.4013
   173.5450 173.5880 173.6885 174.2581 174.5439 174.6065 175.1068 175.2015
   175.5627 175.7835 175.9759 176.2661 176.4404 176.4918 176.6430 176.7417
   176.8028 177.0573 177.1976 177.5085 177.5294 177.6221 177.7113 177.8613
   178.0515 178.3026 178.4675 178.7542 178.9395 178.9734 179.2096 179.3663
   179.4047 179.7416 179.7764 179.8149 179.9009 180.1048 180.4461 180.4949
   180.5184 180.5579 180.7937 181.2064 181.4576 181.7198 181.7497 181.7998
   181.9547 182.0599 182.1959 182.5622 182.6713 182.7604 183.3312 183.4056
   183.6029 183.6073 183.7090 184.2790 184.7383 184.9467 185.2210 186.4379
   186.5284 186.5404 186.6104 186.7941 186.9276 187.0269 187.3002 187.7007
   187.8517 187.9921 188.0176 188.0966 188.2175 188.4584 188.7358 188.8272
   189.2518 189.2904 189.8110 190.1894 190.2400 190.2692 191.1249 191.2887
   191.4086 191.5360 191.6615 191.8776 191.9540 192.2243 192.5160 192.6319
   192.8251 192.9812 193.1343 193.1919 193.3582 193.5429 193.7566 193.8308
   194.2488 194.3891 194.5136 194.6860 195.0106 195.3237 195.5446 196.1156
   196.1696 196.3986 196.9635 197.0182 197.0303 197.0313 197.1152 197.1306
   197.3656 197.4626 197.5986 197.6070 197.7844 197.8417 198.2539 198.7971
   198.8765 199.1846 199.1855 199.3140 199.3615 199.5107 199.5889 199.6356
   199.7932 199.8860 199.9537 200.0029 200.0998 200.2343 200.3741 200.5252
   201.0115 201.1192 201.3834 201.5357 201.5413 201.8895 201.9089 202.5027
   202.5691 202.5926 202.7894 203.3774 203.4757 203.5396 203.6808 203.6887
   203.7427 203.8562 203.9430 204.0414 204.3288 204.6235 204.6455 204.7827
   204.9204 205.2834 205.3056 205.3099 205.5450 205.5749 205.6509 205.7387
   206.1478 206.2100 206.3291 206.5441 207.0881 208.0270 208.0588 208.1890
   208.2110 208.2879 208.5896 208.7608 208.7747 208.9830 209.1042 209.1220
   209.1413 209.4871 209.4926 210.3882 210.4379 210.4474 210.4605 211.0409
   211.0763 211.1624 211.4027 211.4378 211.5910 211.8328 212.0948 212.6355
   212.9163 213.3851 214.2186 214.2976 214.3843 214.7436 214.9732 215.0802
   215.2504 215.2901 215.3123 215.3687 215.4785 216.3911 216.5729 216.6732
   216.8771 217.0490 217.0914 217.1138 217.1553 217.2160 217.4390 217.4900
   217.7107 217.7955 217.8046 218.1181 218.3541 218.6918 218.7484 219.0248
   219.0338 219.2927 219.2936 219.3509 219.4809 219.6247 219.6610 219.8037
   219.8727 220.1802 220.5008 220.8681 220.9908 222.0231 222.4358 222.4652
   222.6333 222.7046 222.7774 222.8424 222.9099 223.5138 223.8534 224.2588
   224.2874 224.5201 224.5373 224.9075 225.6571 225.7997 225.8537 226.0117
   226.1124 227.3174 227.4311 227.7035 227.8138 228.0006 228.2585 228.2753
   229.3464 229.9418 230.1591 230.4846 230.6608 231.0390 231.1260 231.3609
   231.6079 231.9256 232.0225 232.0386 232.1923 232.8150 233.0459 233.4663
   233.6837 233.7157 233.7171 233.7986 234.3676 234.4028 234.5128 235.1226
   235.1532 235.1675 235.7531 235.7863 236.0222 236.1106 236.2198 236.4293
   236.4476 236.7971 236.8823 236.9294 237.0399 237.3482 237.5133 237.6122
   237.7663 237.9297 238.0748 238.4580 238.7251 239.1002 239.1345 239.1419
   239.3307 239.3989 239.4849 239.5838 239.6199 239.7891 240.2466 240.3255
   240.3411 240.4868 240.5585 240.7341 240.8491 240.8649 240.8760 241.1614
   241.1899 241.4816 241.5694 241.5738 241.9721 242.1484 242.5550 242.5801
   242.6262 242.7148 242.9009 243.0725 243.1078 244.1833 244.2691 244.2706
   244.3670 244.4775 244.7394 244.8523 245.0500 245.0647 245.2134 245.3052
   245.8481 246.0832 246.1192 246.2747 246.3487 246.9909 247.0401 247.1671
   247.2381 247.3613 247.4444 247.4576 247.6590 247.7132 247.7717 247.8382
   247.9104 247.9263 247.9532 248.4154 248.4737 248.6369 248.6398 248.7066
   249.0348 249.1148 249.1380 249.4142 249.4227 249.5680 249.7669 250.2880
   250.5449 250.7773 251.0276 251.3992 251.9671 252.0832 252.0832 252.1295
   252.2700 252.3400 252.7308 252.9159 253.0623 253.8656 254.1308 254.3155
   254.5831 254.6976 254.8795 254.9595 254.9714 254.9925 255.4837 255.5740
   255.6746 255.8386 256.1430 256.4481 256.5843 256.8035 256.8460 257.0340
   257.0487 257.0537 257.1250 257.2502 257.4861 257.7009 257.8773 257.9619
   258.0774 258.2718 258.3015 258.4194 258.5225 258.5406 258.6296 258.8074
   258.8744 258.9805 259.1890 259.7123 259.8369 260.0188 260.1230 260.4273
   260.9662 260.9962 261.2436 261.7553 261.9166 261.9391 262.0177 262.1910
   262.2856 262.5239 262.6088 262.6579 262.7567 262.8963 263.0231 263.0979
   263.3565 263.4716 263.7143 263.8628 263.9846 264.1459 264.2175 264.3512
   264.8842 265.4999 265.6384 265.9061 265.9708 266.0684 266.1291 266.3922
   266.6622 266.7638 266.7818 267.0566 267.1573 267.3315 267.4119 267.6721
   267.7391 267.8051 267.9402 268.0657 268.1395 268.1587 268.3210 268.4549
   268.5171 268.7132 268.8403 268.9242 269.1423 269.2955 269.4220 269.5476
   269.5614 269.6481 269.6674 269.8282 269.9048 269.9824 270.0561 270.0892
   270.1616 270.2592 270.3786 270.6976 270.9252 271.0928 271.2559 271.3255
   271.4106 272.2360 272.3469 272.9256 273.0509 273.2233 273.4220 273.4847
   273.7513 273.7973 273.8765 274.0554 274.0609 274.3409 274.4038 274.4691
   274.6450 274.7279 274.9144 275.1808 275.2081 275.3325 275.5963 275.6128
   275.8659 276.1414 276.2559 276.5314 276.6051 276.6763 277.1409 277.1944
   277.2363 277.5410 277.8886 278.0688 278.1127 278.2145 278.4296 278.6274
   278.6729 278.6831 278.8550 279.0447 279.2159 279.5475 279.5917 279.6648
   279.7457 279.9360 280.0069 280.1078 280.2391 280.3043 280.4420 280.5889
   280.7435 280.9711 281.1021 281.1774 281.2933 281.3554 281.4939 281.7583
   281.9626 281.9794 282.2238 282.2379 282.2606 282.4301 282.5042 282.5523
   282.6400 282.8899 283.1607 283.7939 283.9817 283.9881 284.0355 284.1068
   284.1181 284.1883 284.2282 284.3062 284.4661 284.6101 285.0346 285.1011
   285.4317 285.5311 285.8716 286.1972 286.2210 286.3220 286.4482 286.4796
   286.6128 286.7371 286.9678 286.9865 287.3048 287.6147 287.6526 287.7122

     the Fermi energy is    13.2481 ev
     (compare with:    13.4640 eV, computed in scf)

     Writing all to output data dir out/mp-2455.save/
 
     init_run     :      0.08s CPU      0.10s WALL (       1 calls)
     electrons    :    187.34s CPU    202.03s WALL (       1 calls)

     Called by init_run:
     wfcinit      :      0.00s CPU      0.00s WALL (       1 calls)
     potinit      :      0.01s CPU      0.02s WALL (       1 calls)
     hinit0       :      0.04s CPU      0.06s WALL (       1 calls)

     Called by electrons:
     c_bands      :    187.33s CPU    202.02s WALL (       1 calls)
     v_of_rho     :      0.01s CPU      0.01s WALL (       1 calls)

     Called by c_bands:
     init_us_2    :      0.00s CPU      0.00s WALL (       1 calls)
     init_us_2:cp :      0.00s CPU      0.00s WALL (       1 calls)
     cegterg      :    184.71s CPU    199.22s WALL (       1 calls)

     Called by *egterg:
     cdiaghg      :    175.38s CPU    189.75s WALL (      11 calls)
     h_psi        :      1.85s CPU      1.92s WALL (      12 calls)
     g_psi        :      0.02s CPU      0.02s WALL (      10 calls)

     Called by h_psi:
     h_psi:calbec :      0.16s CPU      0.17s WALL (      12 calls)
     vloc_psi     :      1.53s CPU      1.58s WALL (      12 calls)
     add_vuspsi   :      0.14s CPU      0.15s WALL (      12 calls)

     General routines
     calbec       :      0.16s CPU      0.17s WALL (      12 calls)
     fft          :      0.00s CPU      0.02s WALL (      10 calls)
     fftw         :      1.36s CPU      1.41s WALL (   16516 calls)
 
     Parallel routines
 
     PWSCF        :   3m 7.88s CPU   3m22.82s WALL

 
   This run was terminated on:  22:42:32   4Dec2023            

=------------------------------------------------------------------------------=
   JOB DONE.
=------------------------------------------------------------------------------=
