
     Program PWSCF v.7.1 starts on 18Nov2023 at 21:55:39 

     This program is part of the open-source Quantum ESPRESSO suite
     for quantum simulation of materials; please cite
         "P. Giannozzi et al., J. Phys.:Condens. Matter 21 395502 (2009);
         "P. Giannozzi et al., J. Phys.:Condens. Matter 29 465901 (2017);
         "P. Giannozzi et al., J. Chem. Phys. 152 154105 (2020);
          URL http://www.quantum-espresso.org", 
     in publications or presentations arising from this work. More details at
     http://www.quantum-espresso.org/quote

     Parallel version (MPI), running on     8 processors

     MPI processes distributed on     1 nodes
     123583 MiB available memory on the printing compute node when the environment starts
 
     Reading input from pw_mp-2133_nscf_k70_E75.in
Warning: card &IONS ignored
Warning: card / ignored
Warning: card &CELL ignored
Warning: card / ignored

     Current dimensions of program PWSCF are:
     Max number of different atomic species (ntypx) = 10
     Max number of k-points (npk) =  40000
     Max angular momentum in pseudopotentials (lmaxx) =  4

     Atomic positions and unit cell read from directory:
     out/mp-2133.save/
     Atomic positions from file used, from input discarded
 
 
     R & G space division:  proc/nbgrp/npool/nimage =       8
     Subspace diagonalization in iterative solution of the eigenvalue problem:
     one sub-group per band group will be used
     scalapack distributed-memory algorithm (size of sub-group:  2*  2 procs)

 
     Parallelization info
     --------------------
     sticks:   dense  smooth     PW     G-vecs:    dense   smooth      PW
     Min          96      96     27                 3506     3506     544
     Max          97      97     29                 3509     3509     547
     Sum         769     769    223                28063    28063    4367
 
     Using Slab Decomposition
 


     bravais-lattice index     =            4
     lattice parameter (alat)  =       6.1177  a.u.
     unit-cell volume          =     319.8517 (a.u.)^3
     number of atoms/cell      =            4
     number of atomic types    =            2
     number of electrons       =        52.00
     number of Kohn-Sham states=         1200
     kinetic-energy cutoff     =      75.0000  Ry
     charge density cutoff     =     300.0000  Ry
     Exchange-correlation= PBE
                           (   1   4   3   4   0   0   0)

     celldm(1)=   6.117706  celldm(2)=   0.000000  celldm(3)=   1.613066
     celldm(4)=   0.000000  celldm(5)=   0.000000  celldm(6)=   0.000000

     crystal axes: (cart. coord. in units of alat)
               a(1) = (   1.000000   0.000000   0.000000 )  
               a(2) = (  -0.500000   0.866025   0.000000 )  
               a(3) = (   0.000000   0.000000   1.613066 )  

     reciprocal axes: (cart. coord. in units 2 pi/alat)
               b(1) = (  1.000000  0.577350  0.000000 )  
               b(2) = (  0.000000  1.154701  0.000000 )  
               b(3) = (  0.000000  0.000000  0.619937 )  


     PseudoPot. # 1 for O  read from file:
     /usr/scratch4/magr4985/MG/HTDF/pseudo/SG15/O.upf
     MD5 check sum: e36c48deb68f4e355fffe4602be2c42c
     Pseudo is Norm-conserving, Zval =  6.0
     Generated using ONCVPSP code by D. R. Hamann
     Using radial grid of  602 points,  4 beta functions with: 
                l(1) =   0
                l(2) =   0
                l(3) =   1
                l(4) =   1

     PseudoPot. # 2 for Zn read from file:
     /usr/scratch4/magr4985/MG/HTDF/pseudo/SG15/Zn.upf
     MD5 check sum: 732f41c0cd6489a4b50a33b4ec99a2d3
     Pseudo is Norm-conserving, Zval = 20.0
     Generated using ONCVPSP code by D. R. Hamann
     Using radial grid of  602 points,  6 beta functions with: 
                l(1) =   0
                l(2) =   0
                l(3) =   1
                l(4) =   1
                l(5) =   2
                l(6) =   2

     atomic species   valence    mass     pseudopotential
        O              6.00    15.99940     O ( 1.00)
        Zn            20.00    65.40900     Zn( 1.00)

      6 Sym. Ops. (no inversion) found



   Cartesian axes

     site n.     atom                  positions (alat units)
         1           Zn  tau(   1) = (   0.0000000   0.5773502   0.8074876  )
         2           Zn  tau(   2) = (   0.5000000   0.2886752   0.0009545  )
         3           O   tau(   3) = (   0.0000000   0.5773502   1.4190439  )
         4           O   tau(   4) = (   0.5000000   0.2886752   0.6125108  )

     number of k points=     8  Gaussian smearing, width (Ry)=  0.0005
                       cart. coord. in units 2pi/alat
        k(    1) = (   0.0000000   0.0000000   0.0000000), wk =   0.0625000
        k(    2) = (   0.0000000   0.0000000  -0.3099687), wk =   0.0625000
        k(    3) = (   0.0000000   0.2886751   0.0000000), wk =   0.3750000
        k(    4) = (   0.0000000   0.2886751  -0.3099687), wk =   0.3750000
        k(    5) = (   0.0000000  -0.5773503   0.0000000), wk =   0.1875000
        k(    6) = (   0.0000000  -0.5773503  -0.3099687), wk =   0.1875000
        k(    7) = (   0.2500000   0.4330127   0.0000000), wk =   0.3750000
        k(    8) = (   0.2500000   0.4330127  -0.3099687), wk =   0.3750000

     Dense  grid:    28063 G-vectors     FFT dimensions: (  36,  36,  60)

     Estimated max dynamical RAM per process >     175.55 MB

     Estimated total dynamical RAM >       1.37 GB

     The potential is recalculated from file :
     out/mp-2133.save/charge-density

     Starting wfcs are random

     Band Structure Calculation
     Davidson diagonalization with overlap

     ethr =  5.00E-06,  avg # of iterations =  9.8

     total cpu time spent up to now is     1034.7 secs

     End of band structure calculation

          k = 0.0000 0.0000 0.0000 (  3501 PWs)   bands (ev):

  -113.3558-113.3556 -67.5656 -67.5627 -67.5627 -67.5624 -67.5621 -67.5621
    -7.9240  -7.1959   4.3687   4.3687   4.4149   4.4960   4.5607   4.5607
     5.5224   5.5224   5.7319   5.7319   6.0233   9.3229   9.3229  10.0282
    10.1133  10.1133  10.9807  15.4374  18.3691  23.1301  23.1301  24.2013
    24.3950  24.3950  26.7572  28.3997  28.3997  30.0817  30.0817  30.1497
    31.4470  33.4063  35.0811  35.0811  37.6903  38.6576  38.6576  39.0058
    41.3676  41.3676  44.7425  44.7425  45.4477  47.0392  47.0392  49.3634
    49.3634  51.1119  52.2533  54.2904  57.2017  58.5055  58.5055  60.2884
    60.4827  60.7408  61.1913  61.1913  62.8340  62.8340  64.6411  65.6523
    66.0355  66.0355  66.3262  66.6883  66.6883  67.4700  67.4700  70.1124
    70.1124  70.1348  71.3788  71.3788  73.2915  73.2915  74.1868  74.2402
    74.8964  74.8964  77.5768  77.5768  77.7149  78.1692  78.1692  78.6338
    79.8111  79.8584  80.3420  80.6273  80.6273  80.6983  80.6983  80.7203
    81.6518  81.6518  83.4459  83.6138  83.6138  84.3838  85.8958  85.8958
    87.7639  88.6834  89.0944  89.0944  89.3529  89.3529  90.7626  95.7656
    95.7656  96.7875  96.7875  97.6260  97.8654  98.7768 100.1978 100.8565
   100.8565 101.9619 103.6682 103.6682 104.4013 104.4672 104.4672 104.6969
   104.6969 105.7394 105.7394 107.0152 107.0152 107.2430 107.3169 107.6224
   107.6224 107.7880 109.8037 109.8037 110.0473 110.0473 111.4739 111.4739
   114.7243 117.4852 117.6938 117.6938 119.8376 122.0028 123.1089 123.1089
   124.1578 124.1578 125.8876 125.8876 126.1456 126.4213 126.7131 127.5659
   127.9789 128.4969 128.8453 128.8453 129.4421 129.4421 129.6094 130.9134
   131.9917 131.9917 132.9061 134.7164 135.2006 135.2006 136.4295 136.4295
   137.2202 137.2202 137.9705 138.1526 138.3647 138.8847 138.8847 140.1154
   140.6762 140.6762 140.9296 140.9296 142.2446 142.4818 142.4818 142.8625
   143.1564 143.1564 143.2059 143.9400 143.9400 143.9459 144.0564 144.0564
   145.7337 145.7337 146.1915 146.1915 146.4531 146.5223 147.9175 147.9175
   148.7737 148.9756 148.9756 151.5186 152.1705 153.2640 153.6015 153.6015
   153.7812 154.1519 154.1519 154.2490 155.6154 155.6154 156.0433 156.0433
   156.5746 156.5746 156.7707 157.3519 157.3519 157.4096 157.4096 157.8970
   158.0500 158.0500 158.4026 159.6672 159.6672 160.2152 161.4475 161.4475
   161.5058 162.3094 163.4918 163.4918 163.6004 163.7824 163.7825 163.9301
   163.9301 166.3842 166.5331 166.5331 167.1228 167.7072 169.5262 169.5262
   170.4067 170.8204 171.5706 171.5706 172.7240 172.7240 173.0332 173.6509
   173.6509 174.2760 176.5864 176.5864 177.1059 177.1059 177.3882 177.5296
   179.0435 179.5128 179.8179 179.8179 180.6807 180.6807 180.8216 181.3184
   181.3184 181.3256 182.2589 182.2589 183.1395 183.9574 183.9574 184.5115
   184.7309 184.7309 185.2313 185.3587 186.6649 186.6649 187.1212 187.1212
   189.8697 190.9057 191.2267 191.2267 191.6014 192.3670 192.3670 192.4518
   192.7560 192.7560 193.7396 193.7396 194.1951 194.3775 194.3969 194.3969
   195.6539 195.6539 196.0079 196.0289 197.5023 197.5023 199.4463 203.2325
   203.2325 203.3081 203.3081 203.3344 206.4126 206.8027 206.8027 208.3779
   211.0538 211.0538 211.0888 211.5340 211.8051 211.8051 212.4462 212.4463
   214.0442 214.0442 214.4396 214.5787 214.5787 214.7732 214.7732 214.9121
   214.9121 215.7528 216.3719 216.6295 216.6295 216.9245 217.2974 217.6126
   218.0800 218.0800 218.2114 218.5595 218.5595 218.6371 219.6912 219.6912
   220.4211 220.4211 220.9797 220.9797 221.0330 221.0330 221.1572 221.9341
   222.2766 222.2766 223.0238 223.0238 223.2136 223.6845 223.9963 224.0285
   224.3448 225.3085 225.3085 226.3592 226.3592 227.0988 227.0988 228.4968
   228.4968 228.8844 229.9084 229.9084 230.0632 230.0632 232.2358 232.4138
   233.8103 236.0203 236.1773 236.5988 236.5988 239.1487 239.1487 240.3641
   240.3641 241.4758 241.6027 241.6124 242.1541 244.1966 244.1966 244.8963
   245.0533 245.0533 245.6646 245.6646 245.8060 245.8060 245.8221 245.8980
   246.7098 247.5724 247.5724 247.9642 248.4396 248.4396 249.1922 249.1922
   249.2496 249.2496 249.6084 249.6625 249.9890 250.8291 250.8291 251.2137
   251.2137 251.9776 251.9776 252.0804 252.3813 252.4166 252.8206 252.8206
   252.8210 253.1666 253.1666 253.4465 253.4465 254.7719 254.7719 255.9101
   255.9101 256.1158 256.2991 256.2991 256.3148 256.4934 256.5163 256.5688
   257.2876 257.2876 257.4065 257.5388 257.5388 257.6179 258.3922 258.4936
   258.4936 259.9514 259.9514 260.4542 260.4542 261.7445 261.7445 262.5638
   263.3632 263.5476 263.5476 263.6703 263.6703 264.2486 265.1806 265.5065
   265.5065 266.6036 267.1915 267.1915 267.6306 267.8203 267.8246 268.0318
   268.1270 268.1270 268.6344 269.0621 269.2492 269.2493 269.8107 269.8107
   270.3379 271.0578 271.1909 271.1909 271.2658 271.2658 271.4564 271.9503
   271.9503 272.0740 272.0740 272.2373 272.3323 272.3323 272.5262 272.5679
   272.5679 273.4447 273.6975 273.7295 273.7295 274.0003 274.0003 274.2340
   274.2340 274.4471 274.5629 274.5629 275.1119 275.6655 275.8508 275.8508
   275.8827 275.8827 276.5051 276.6942 276.6942 276.9128 278.3874 281.2994
   281.2994 282.0671 283.5570 283.5570 284.6945 284.7577 284.7577 285.5629
   285.5630 287.8084 287.8084 288.8202 289.1946 289.3604 289.3604 290.0587
   290.4360 290.4360 291.3992 291.3992 292.7125 295.4690 295.4781 295.4781
   295.6257 295.9072 296.4178 296.4178 296.5831 296.7636 296.7636 297.3696
   297.3696 298.1684 298.1684 298.6845 298.6845 299.0020 299.1641 299.6423
   299.6423 299.6690 300.4196 300.5257 300.5257 301.3562 301.3562 301.9656
   303.4413 303.5144 303.5144 303.5650 303.5650 304.8793 305.7134 306.0218
   306.0218 306.0834 306.4641 307.7323 307.7323 309.2558 309.2558 309.4441
   309.6984 311.4625 311.4625 311.8615 311.8615 312.1799 312.1799 312.4335
   312.5646 312.5646 313.2603 313.2603 313.2670 313.4686 313.7952 316.4905
   317.3613 319.3712 319.3712 319.6080 319.6080 321.4717 321.4717 321.5157
   321.8273 321.8273 322.2288 322.2288 322.3752 323.2211 323.2211 323.5671
   323.5671 324.0807 324.0807 324.2741 324.8490 325.1240 325.2378 325.2578
   325.4895 325.4895 326.3083 327.1489 327.1489 327.8772 327.8772 328.4692
   328.6044 328.6044 328.8144 329.6728 329.6728 330.5247 330.5446 331.2041
   331.2041 331.2367 331.2367 331.8777 331.8777 332.0564 332.6202 333.0678
   333.4773 333.4773 333.6234 333.6234 334.0297 334.0297 334.4732 334.4732
   334.5660 334.5696 334.5872 334.8050 334.9652 335.5386 335.5386 336.3147
   336.9774 336.9774 337.5759 337.6547 337.6699 337.6699 338.3568 338.3568
   339.9118 339.9118 340.4015 342.1376 342.1376 342.8997 342.8997 343.5194
   344.0634 344.4695 344.4695 345.4088 345.4088 345.7401 345.7401 346.6431
   348.0936 348.2477 348.3694 348.3694 348.4445 348.4445 350.3228 350.8405
   351.1120 351.1120 351.4884 351.9309 352.7601 352.9018 352.9018 354.6515
   354.7364 355.8824 355.8824 357.0444 357.0444 357.2869 357.2869 357.8824
   357.8824 358.4779 358.4779 359.3163 359.8298 360.0821 360.5493 360.9274
   360.9274 361.4552 361.7791 361.8381 361.8381 362.7275 362.7275 362.7307
   363.7219 364.5741 364.5741 364.6151 365.1237 365.1237 366.6202 366.6203
   366.7618 366.8351 366.8351 367.0421 367.0663 367.0663 367.4933 367.7333
   367.7333 367.8173 367.8173 368.0752 368.0752 368.1495 368.1839 369.7578
   369.7578 369.8978 370.6472 371.3712 371.3712 371.4762 371.4762 371.7735
   371.9059 371.9059 372.0075 372.7242 372.7242 372.9723 372.9723 373.6861
   374.6037 374.6037 375.2550 375.2550 375.4008 377.0061 377.0061 377.7884
   378.6113 378.9078 379.0545 379.0545 379.1979 379.1979 380.9866 381.1001
   381.1001 381.3352 381.5106 381.8223 381.9681 381.9681 382.2284 382.3788
   384.0157 384.0157 384.4421 384.4421 384.7208 384.7208 384.7285 384.8712
   385.2512 385.2512 386.0944 386.1482 386.1482 386.2425 386.2425 386.6424
   386.8441 386.8441 387.1036 387.2550 387.2550 387.4324 387.4511 387.7510
   387.7510 388.1197 388.1197 388.6716 388.6716 389.5408 389.5677 389.5677
   389.7128 390.3082 391.1502 391.1502 391.5455 391.9112 392.2859 392.3847
   392.3847 393.7618 393.7618 393.8027 394.3361 394.3361 394.8659 394.8659
   395.6124 395.6125 395.8127 396.3995 396.4386 398.5375 398.5375 398.6848
   398.6848 398.8201 399.1083 399.2155 399.2155 399.3480 399.7544 399.7544
   399.9235 400.3443 401.1475 401.1475 401.3340 401.3340 402.2553 402.3729
   402.3730 402.5121 402.5121 402.9901 402.9901 403.1460 403.3696 403.3696
   403.4249 403.8636 403.8636 404.5669 404.7198 404.7198 405.2047 405.2047
   405.2284 405.2284 405.6729 405.7554 405.7554 405.8285 405.9342 405.9342
   406.1511 406.1668 406.4233 406.4573 407.2893 408.1254 408.1254 408.3912
   408.6804 408.7720 408.7720 409.1008 409.1008 409.2682 409.2682 409.8641
   409.8641 410.0936 410.5336 410.5336 411.6767 411.6880 411.6931 411.8163
   411.8163 412.0303 412.0303 412.5623 412.5623 412.7930 413.1172 413.1172
   413.3818 413.5167 416.1401 416.5765 416.5766 416.9293 417.1513 417.1513
   418.7988 418.7988 419.0097 419.5960 420.1278 420.3197 420.3197 421.8035
   421.8035 422.1774 422.2057 422.3760 422.3760 422.4557 422.4558 423.1251
   423.1251 423.2835 423.3516 423.5398 423.5398 423.9719 423.9719 424.0290
   424.0290 424.3220 424.3542 424.3542 424.4033 424.6528 424.8281 425.3650
   425.3650 426.8168 426.8168 427.3274 427.6631 427.6631 428.7613 428.8327
   428.8327 429.1302 429.5621 429.5621 431.7974 432.2747 432.2747 433.6921
   434.9955 434.9955 435.8938 435.9946 436.1639 436.1639 436.2207 436.2207
   436.3532 436.8504 437.1733 437.1733 437.8933 437.9039 439.2231 439.2231
   439.5176 440.2720 440.5141 440.5529 440.5529 440.8468 441.0177 441.4185
   441.4185 441.4665 441.4665 442.3256 442.7857 443.0157 443.0157 443.2707
   443.2707 444.0100 444.0100 444.6421 444.6421 444.6562 444.8785 444.9799
   444.9799 445.0044 445.0044 445.0662 445.0958 445.8017 445.8017 446.2578
   446.3038 446.3038 447.0522 447.0713 447.0713 447.0988 447.1613 447.3006
   447.3006 447.4368 447.4697 447.5210 447.5390 447.5390 447.7044 447.7044
   448.5272 448.5272 448.9372 448.9372 449.5704 449.5704 449.6980 449.6980
   449.7167 449.7389 450.8381 450.9215 451.2262 451.2683 451.2683 451.7376
   451.7376 452.0216 452.0216 452.7332 452.7332 452.9220 453.0578 453.8649
   453.8926 460.1865 460.1865 461.0688 461.0966 461.0966 463.0456 463.0456
   464.5332 465.5899 465.5899 465.5947 465.5947 466.2430 466.2430 468.4995
   468.4995 468.8722 468.8722 469.0611 469.5159 470.2921 470.2921 470.3127
   471.1073 471.1073 472.8871 473.2431 474.1293 474.1294 475.0826 475.0826
   475.4131 476.1677 478.4784 478.4784 478.6486 478.7372 478.7372 479.3503
   479.3503 479.8726 480.2881 480.2881 480.7436 481.4654 481.4865 482.6916
   483.1942 483.1942 483.4534 483.4534 483.7218 484.0545 484.0545 484.3549
   485.1123 485.1123 485.1695 485.1695 485.9344 486.5680 487.0158 487.0158
   487.2249 487.4181 487.4181 487.4369 487.9711 487.9711 488.1413 488.1413
   488.2624 488.2624 488.4381 488.4381 488.8376 488.8419 488.9813 488.9978
   489.1967 489.1967 489.4253 489.5704 489.5704 490.8459 490.8459 491.2998
   491.5455 491.5455 491.8453 491.8453 493.9533 493.9533 493.9563 493.9563
   494.0516 494.2732 494.2732 494.4154 494.9748 494.9974 495.0433 495.1538
   495.1538 495.5363 496.2263 496.2263 496.4073 496.5277 496.5513 496.5513

          k = 0.0000 0.0000-0.3100 (  3556 PWs)   bands (ev):

  -113.3557-113.3557 -67.5640 -67.5640 -67.5624 -67.5624 -67.5624 -67.5624
    -7.5702  -7.5702   4.1798   4.1798   4.4398   4.4398   4.4398   4.4398
     5.6484   5.6484   5.6484   5.6484   7.8564   7.8564   9.7224   9.7224
     9.7224   9.7224  13.6375  13.6375  20.2657  20.2657  23.4139  23.4139
    23.4139  23.4139  28.4635  28.4635  30.4257  30.4257  30.4257  30.4257
    34.7777  34.7777  35.1581  35.1581  35.1581  35.1581  38.7076  38.7076
    42.1259  42.1259  42.1259  42.1259  43.5409  43.5409  54.1870  54.1870
    54.1870  54.1870  56.7519  56.7519  56.7629  56.7629  56.7629  56.7629
    58.3450  58.3450  59.5951  59.5951  59.5951  59.5951  61.2298  61.2298
    66.5884  66.5884  67.9717  67.9717  67.9717  67.9717  69.8116  69.8116
    70.3917  70.3917  70.3917  70.3917  70.9911  70.9911  74.3423  74.3423
    76.0516  76.0516  76.0516  76.0516  77.1965  77.1965  79.4740  79.4740
    79.4740  79.4740  82.4365  82.4365  82.4365  82.4365  84.6915  84.6915
    86.7225  86.7225  86.7225  86.7225  88.1273  88.1273  89.0136  89.0136
    89.0136  89.0136  89.4808  89.4808  89.4808  89.4808  90.4111  90.4111
    92.5492  92.5492  92.7633  92.7633  92.7633  92.7633  92.9085  92.9085
    96.3951  96.3951  96.3951  96.3951 100.8267 100.8267 103.6594 103.6594
   103.6594 103.6594 107.4011 107.4011 110.5340 110.5340 110.5917 110.5917
   110.5917 110.5917 116.1245 116.1245 116.5048 116.5048 116.5048 116.5048
   118.3252 118.3252 122.6498 122.6498 122.6498 122.6498 123.5022 123.5022
   123.5022 123.5022 124.3054 124.3054 127.7710 127.7710 127.7710 127.7711
   128.1417 128.1417 129.2727 129.2727 130.1818 130.1818 130.1818 130.1818
   132.5350 132.5350 132.5350 132.5350 132.6671 132.6671 135.0777 135.0777
   136.0684 136.0684 136.8508 136.8508 136.8508 136.8508 138.7851 138.7851
   138.7851 138.7851 139.5674 139.5674 141.6897 141.6897 141.6897 141.6897
   142.9794 142.9794 142.9794 142.9794 143.3120 143.3120 143.7761 143.7761
   144.5491 144.5491 144.5491 144.5491 144.8988 144.8988 146.1738 146.1738
   146.7255 146.7255 146.7255 146.7255 148.7714 148.7714 148.9442 148.9442
   148.9442 148.9442 149.6047 149.6047 149.6047 149.6047 154.9289 154.9289
   160.7566 160.7566 160.7566 160.7566 161.3612 161.3612 163.7742 163.7742
   164.3018 164.3018 164.3018 164.3018 164.3684 164.3684 165.6918 165.6918
   165.7732 165.7732 165.7732 165.7732 166.3198 166.3198 166.3198 166.3198
   168.8851 168.8851 169.9724 169.9724 169.9724 169.9724 170.0631 170.0631
   170.8034 170.8034 170.8034 170.8034 171.2615 171.2615 173.1417 173.1417
   173.4188 173.4188 173.4188 173.4188 176.4477 176.4477 176.4477 176.4477
   178.7992 178.7992 180.2191 180.2191 180.2191 180.2191 182.1812 182.1812
   183.3737 183.3737 183.4031 183.4031 183.4031 183.4032 184.5548 184.5548
   184.5548 184.5548 186.7802 186.7802 186.7802 186.7802 187.2060 187.2060
   187.6913 187.6913 187.6913 187.6913 188.7086 188.7086 191.2681 191.2681
   191.2681 191.2681 192.2042 192.2042 194.9804 194.9804 194.9804 194.9804
   195.1775 195.1775 196.9746 196.9746 197.4324 197.4324 197.4324 197.4324
   202.4094 202.4094 202.4095 202.4095 202.6812 202.6812 203.2046 203.2046
   203.9254 203.9254 203.9254 203.9254 205.1233 205.1233 206.4889 206.4889
   206.4889 206.4889 208.1739 208.1739 211.5533 211.5533 211.5533 211.5533
   213.7486 213.7486 215.1850 215.1850 215.1850 215.1850 220.5886 220.5886
   220.5886 220.5886 221.9674 221.9674 221.9674 221.9674 222.0147 222.0147
   222.6385 222.6385 224.7939 224.7939 225.7994 225.7994 225.7994 225.7994
   227.0207 227.0207 232.3096 232.3096 232.5194 232.5194 232.5194 232.5194
   234.6669 234.6669 235.9294 235.9294 235.9294 235.9294 235.9384 235.9384
   237.3655 237.3655 237.3655 237.3655 237.5567 237.5567 237.9101 237.9101
   237.9101 237.9101 238.8778 238.8778 240.3910 240.3910 240.3910 240.3910
   241.2205 241.2205 241.2206 241.2206 241.4942 241.4942 241.9960 241.9960
   242.7657 242.7657 242.7657 242.7657 243.5895 243.5895 243.5895 243.5895
   243.7579 243.7579 244.2167 244.2167 246.1259 246.1259 246.1259 246.1259
   246.1875 246.1875 246.2010 246.2010 247.8394 247.8394 247.8394 247.8394
   247.9781 247.9781 248.3060 248.3060 248.3061 248.3061 248.5631 248.5631
   248.5631 248.5631 250.0597 250.0597 250.0813 250.0813 250.0813 250.0813
   250.4502 250.4502 251.2097 251.2097 251.2097 251.2097 253.2940 253.2940
   253.2941 253.2941 253.9818 253.9818 256.0791 256.0791 256.0791 256.0791
   257.4755 257.4755 258.0697 258.0697 258.3137 258.3137 258.3137 258.3137
   260.0511 260.0511 260.0511 260.0511 260.7295 260.7295 261.9787 261.9787
   261.9787 261.9787 262.0476 262.0476 262.0476 262.0476 262.0592 262.0592
   262.5573 262.5573 262.9422 262.9422 267.0127 267.0127 267.0127 267.0127
   269.4707 269.4707 269.8990 269.8990 269.8990 269.8990 273.4093 273.4093
   277.3632 277.3632 277.3632 277.3632 278.6818 278.6818 279.1066 279.1066
   279.1066 279.1066 280.3936 280.3936 280.7181 280.7181 281.9658 281.9658
   281.9658 281.9658 282.2807 282.2807 282.8940 282.8940 282.8940 282.8940
   283.6875 283.6875 283.6875 283.6875 283.9379 283.9379 285.1405 285.1405
   285.1405 285.1405 285.4531 285.4531 288.4825 288.4825 288.4825 288.4825
   289.5292 289.5292 289.5292 289.5292 290.1963 290.1963 292.9218 292.9218
   293.3579 293.3579 293.3579 293.3579 293.7152 293.7152 294.8525 294.8525
   294.8525 294.8525 296.1164 296.1165 297.2173 297.2173 297.5686 297.5686
   297.5686 297.5686 298.2368 298.2368 298.2368 298.2368 299.7709 299.7709
   301.4683 301.4683 301.4683 301.4683 302.1983 302.1983 302.1983 302.1983
   302.3059 302.3059 303.0758 303.0758 303.4904 303.4904 303.4904 303.4905
   303.7371 303.7371 306.0389 306.0389 306.1209 306.1209 306.1209 306.1209
   307.9464 307.9464 307.9464 307.9464 309.1026 309.1026 310.3161 310.3161
   312.1878 312.1878 312.5849 312.5849 312.5849 312.5849 313.7040 313.7040
   314.1389 314.1389 314.1389 314.1389 315.2817 315.2817 315.2817 315.2817
   316.2857 316.2857 316.3003 316.3003 316.3003 316.3003 316.9775 316.9775
   317.2537 317.2537 318.2959 318.2959 318.2959 318.2959 321.5057 321.5057
   322.3413 322.3413 322.3413 322.3413 324.9047 324.9047 324.9047 324.9047
   329.1435 329.1435 329.1435 329.1435 330.2032 330.2032 330.4440 330.4440
   330.4440 330.4440 333.4317 333.4317 334.2291 334.2291 334.2291 334.2291
   334.5721 334.5721 335.1048 335.1048 335.1048 335.1048 335.5177 335.5177
   336.5227 336.5227 337.0935 337.0935 337.0935 337.0935 338.2379 338.2379
   339.8104 339.8104 339.8104 339.8104 340.9083 340.9083 341.4031 341.4031
   341.4031 341.4031 345.1181 345.1181 347.8787 347.8787 347.8787 347.8787
   348.7929 348.7929 348.7929 348.7929 351.8281 351.8281 351.9942 351.9942
   351.9942 351.9942 354.2635 354.2635 355.7273 355.7273 356.1346 356.1346
   356.4819 356.4819 356.4819 356.4819 356.6551 356.6551 357.7689 357.7689
   357.7689 357.7689 358.6300 358.6300 358.6300 358.6300 358.8853 358.8853
   359.8526 359.8526 359.8526 359.8526 360.5064 360.5064 360.7329 360.7329
   360.7329 360.7329 360.9792 360.9792 360.9792 360.9792 361.4422 361.4422
   362.5182 362.5182 363.8006 363.8006 363.8006 363.8006 364.2492 364.2492
   365.5824 365.5824 365.5824 365.5824 366.8243 366.8243 366.8243 366.8243
   367.6778 367.6778 367.6778 367.6778 367.7876 367.7876 368.2932 368.2932
   368.2932 368.2932 368.9869 368.9869 369.3647 369.3647 369.4907 369.4907
   370.1623 370.1623 370.1623 370.1623 371.2070 371.2070 371.2954 371.2954
   371.2954 371.2954 372.2987 372.2987 372.9969 372.9969 374.6599 374.6599
   374.6599 374.6599 375.2696 375.2696 375.2696 375.2696 376.1592 376.1592
   376.5308 376.5308 376.7796 376.7796 376.7796 376.7796 380.2895 380.2895
   380.2895 380.2895 381.0819 381.0819 382.2073 382.2073 382.2073 382.2073
   385.2270 385.2270 385.2270 385.2270 385.9331 385.9331 385.9690 385.9690
   385.9690 385.9690 388.2591 388.2591 388.6064 388.6064 390.0187 390.0187
   390.0187 390.0187 390.9823 390.9823 392.2343 392.2343 392.8659 392.8659
   392.8659 392.8659 393.5232 393.5232 393.9122 393.9122 394.2182 394.2182
   394.2182 394.2182 394.6371 394.6371 394.6371 394.6371 395.7875 395.7875
   395.7875 395.7875 395.9657 395.9657 395.9859 395.9859 397.3341 397.3341
   397.4909 397.4909 397.4909 397.4909 399.8935 399.8935 399.8935 399.8935
   400.5409 400.5409 401.1364 401.1364 401.2290 401.2290 401.2290 401.2290
   401.3001 401.3001 401.7939 401.7939 401.7939 401.7939 402.2874 402.2874
   402.7619 402.7619 402.7619 402.7619 404.6496 404.6496 404.9992 404.9992
   404.9992 404.9992 406.3798 406.3798 406.3798 406.3798 408.4271 408.4271
   408.6180 408.6180 408.6180 408.6180 409.7440 409.7440 412.3552 412.3552
   412.3552 412.3552 412.3940 412.3940 412.9345 412.9345 413.1136 413.1136
   413.1136 413.1136 413.8035 413.8035 413.8035 413.8035 413.8089 413.8089
   414.1967 414.1967 414.1967 414.1967 414.4413 414.4413 414.4413 414.4413
   414.4468 414.4468 415.1428 415.1428 416.0003 416.0003 416.0003 416.0003
   416.1651 416.1652 416.2685 416.2685 416.2685 416.2685 416.2706 416.2706
   417.8199 417.8199 417.9952 417.9952 417.9952 417.9952 419.7252 419.7252
   419.7252 419.7252 421.7954 421.7954 422.2298 422.2298 422.2298 422.2298
   423.8430 423.8430 424.8547 424.8547 424.8547 424.8547 426.5537 426.5537
   426.5735 426.5735 426.5735 426.5735 428.6199 428.6199 428.7600 428.7600
   428.7600 428.7600 430.1777 430.1777 430.4783 430.4783 430.5736 430.5736
   430.5736 430.5736 431.7848 431.7848 431.7848 431.7848 433.6158 433.6158
   434.9595 434.9595 434.9595 434.9595 435.5562 435.5562 435.7163 435.7163
   435.7163 435.7163 436.1674 436.1674 436.1674 436.1674 436.3850 436.3850
   437.3160 437.3160 439.0197 439.0197 440.7524 440.7524 440.7524 440.7524
   441.8301 441.8301 444.7939 444.7939 444.7939 444.7939 445.3222 445.3222
   445.3222 445.3222 446.1019 446.1019 450.1282 450.1282 450.1282 450.1282
   451.5851 451.5851 451.5851 451.5851 454.2703 454.2703 454.2703 454.2703
   454.9873 454.9873 455.1074 455.1074 455.1074 455.1074 456.3230 456.3230
   457.9488 457.9488 458.6104 458.6104 458.6104 458.6104 459.0969 459.0969
   459.7106 459.7106 460.4142 460.4142 460.4142 460.4142 462.2903 462.2903
   463.6025 463.6025 463.6025 463.6025 464.6858 464.6858 466.2269 466.2269
   466.4292 466.4292 466.4292 466.4292 467.8103 467.8103 467.8103 467.8103
   467.9217 467.9217 467.9217 467.9217 468.0990 468.0990 468.5629 468.5629
   468.5629 468.5629 469.0014 469.0014 469.8398 469.8398 469.8398 469.8398
   470.0244 470.0244 470.1272 470.1272 470.4184 470.4184 471.2921 471.2921
   471.2921 471.2921 472.1683 472.1683 472.1683 472.1683 472.8338 472.8338
   472.8338 472.8338 473.2771 473.2771 473.6464 473.6464 473.7719 473.7719
   473.7719 473.7719 474.6524 474.6524 474.7010 474.7010 474.7010 474.7010
   475.0197 475.0197 475.0197 475.0197 475.3361 475.3361 475.4473 475.4473
   475.4473 475.4473 475.8198 475.8198 477.5881 477.5881 478.9960 478.9960
   479.9474 479.9474 480.0057 480.0057 480.0057 480.0057 480.4415 480.4415
   480.4415 480.4415 481.7633 481.7633 481.7633 481.7633 482.1261 482.1261
   482.1261 482.1261 482.3625 482.3625 482.5337 482.5337 484.6382 484.6382
   484.9447 484.9447 484.9447 484.9447 486.7026 486.7026 486.7026 486.7026
   487.7365 487.7365 488.5985 488.5985 493.5054 493.5054 495.9255 495.9255

          k = 0.0000 0.2887 0.0000 (  3513 PWs)   bands (ev):

  -113.3557-113.3556 -67.5651 -67.5637 -67.5632 -67.5630 -67.5628 -67.5623
    -7.6169  -7.0732   4.1286   4.4614   4.5222   4.6488   4.8199   4.9627
     5.4138   5.5438   5.7526   5.9327   6.0490   7.6137   8.3982   8.6231
     9.6054   9.7206  13.4393  17.2433  18.3143  19.8433  21.8277  23.3550
    23.5927  24.4180  25.6780  28.0592  28.4768  30.9525  33.4367  34.4353
    34.7162  34.8419  35.7212  37.0217  38.3789  38.6205  38.7850  39.1013
    40.6274  41.6014  42.3500  45.1163  47.2341  47.6570  48.2060  49.3321
    50.5050  51.7392  52.5385  53.2867  54.2160  54.2646  54.7858  55.8319
    56.4545  59.5260  60.5187  61.5201  61.7197  62.1224  63.5686  64.5857
    64.7584  65.6200  66.3539  66.4837  66.8334  67.1002  68.1668  68.4462
    68.5991  68.7398  70.0522  70.6961  71.4312  71.9136  72.6497  73.7100
    73.9361  74.0890  75.2171  75.6064  76.0772  77.4896  77.5882  79.6336
    79.7067  80.2559  80.8582  80.8754  81.7767  82.7297  83.2908  83.9945
    84.4508  85.1637  86.5736  87.1225  87.7292  88.3922  90.1321  90.1873
    91.0735  91.6792  92.7557  93.2482  93.5124  94.0614  94.4438  94.4923
    95.0566  95.8656  96.4021  97.7641  97.8157  98.6773  99.0199  99.7815
   100.5405 101.0697 101.5853 102.5325 103.3073 103.5557 104.0729 104.2259
   105.9392 107.4642 108.3842 108.4322 108.6859 109.7450 109.7515 109.8260
   110.7028 110.8210 111.6789 111.9635 113.2938 113.3891 113.7811 114.7353
   114.8562 115.6864 116.7821 117.5033 117.6562 117.7327 118.0949 118.9636
   119.4842 120.0920 120.5934 120.9680 121.3215 121.6276 122.7441 122.8559
   123.4530 123.5849 124.3341 125.0729 125.9243 126.6888 128.2304 128.5765
   129.2753 129.7538 130.9982 131.0344 131.4341 132.5498 132.8365 133.6537
   135.1454 135.8157 135.8817 136.1925 136.8799 137.0129 137.3222 138.2628
   138.5419 138.8612 139.7322 140.1820 140.2097 140.8194 141.7357 142.5561
   143.2747 143.7388 144.7921 145.4364 145.5642 145.9691 146.1361 146.1617
   146.5922 147.1284 147.5270 147.6973 148.0672 148.4831 148.8027 150.2518
   150.7641 150.8583 151.1313 151.6746 151.8301 152.3641 152.3783 152.7991
   154.2129 154.7715 154.8911 155.5939 155.6924 156.5406 157.1087 157.1393
   157.3225 157.5487 157.9193 158.7907 158.8038 159.4036 159.6992 159.8278
   160.1233 160.4605 161.1818 161.3028 161.5286 161.6523 162.1639 162.6541
   162.6858 163.6818 163.7966 163.9767 164.7429 164.9307 165.0803 165.7522
   166.1730 166.6719 166.8346 167.5293 167.8452 168.1951 168.8755 170.0308
   170.2510 171.2699 171.5045 171.9893 172.6894 172.8362 172.9443 174.2595
   174.4098 174.4665 175.3890 176.5398 176.6934 177.6823 178.5325 178.6420
   179.2354 179.5929 179.7265 180.4178 181.1135 181.3684 182.0460 182.7162
   182.8120 183.2800 183.5412 183.9319 184.6147 185.1584 185.4179 186.2454
   186.6656 188.1916 188.4794 189.0670 190.1890 190.4374 191.2002 191.7722
   192.3207 192.4540 192.8703 193.2780 194.1091 194.7531 194.7952 195.1392
   195.3128 196.0259 197.2323 197.4636 198.1052 198.2512 198.6234 198.7591
   198.8040 199.2138 199.4020 200.1960 200.3448 202.3052 202.6107 202.8823
   203.1661 203.4228 203.8398 203.8666 204.8574 204.9571 205.0950 205.6192
   205.7941 206.6941 207.0865 207.3373 207.8619 208.1759 208.2458 208.7820
   208.8817 209.4334 209.7959 209.9788 210.0877 210.1553 210.9548 211.2129
   211.2320 212.6765 212.7998 213.3718 214.0749 214.1955 214.4519 215.4420
   215.5832 215.7459 216.1825 217.4470 217.7838 217.9878 218.1288 218.6370
   218.9123 219.8326 220.0394 220.5408 220.8578 221.0324 221.3399 221.4782
   221.8757 222.4139 222.9403 223.5070 223.7506 224.1018 224.9784 225.0152
   225.3276 225.4024 226.4425 226.8937 227.3909 227.8076 228.0500 228.5701
   228.9664 229.3327 229.9470 230.2533 231.4304 231.7213 231.9929 232.5810
   232.6124 233.3002 233.5978 233.9983 234.5174 234.9424 235.4195 235.8971
   236.2432 236.8229 237.3661 237.4216 237.6998 238.4730 238.5278 239.3513
   239.3607 239.4422 239.6979 240.5087 241.1936 241.7680 242.1660 242.4534
   242.6131 243.3203 243.7357 243.7771 244.3487 244.7682 244.8670 245.4646
   245.5495 246.1789 246.4362 246.6888 247.1380 247.3385 247.6402 247.8172
   247.8535 248.3877 248.4688 248.4836 248.6932 248.8515 249.5290 250.4677
   250.9439 251.0527 251.7161 251.8097 252.5124 252.6153 253.0364 253.1064
   253.4656 254.0845 254.4372 255.2824 255.7730 256.4087 256.6981 257.1351
   257.5760 257.9636 258.1511 258.7816 259.4656 259.7143 259.8897 260.5249
   260.6908 261.2641 261.2827 261.9221 262.0183 262.6695 262.8150 264.1792
   264.3075 264.7705 265.1235 265.3569 265.4874 265.8069 266.2114 266.4470
   266.9237 267.3686 267.6495 267.9778 267.9925 268.7503 269.0433 269.8121
   270.2042 270.2505 271.1260 271.5564 271.5761 272.0531 272.2919 272.8637
   273.1809 273.6178 274.1773 274.7563 275.0200 275.2978 275.4968 275.6268
   275.8611 276.8274 277.0773 277.4499 277.7851 277.9560 277.9838 278.0788
   278.6513 278.8255 278.9873 279.4192 279.9259 280.0214 280.1053 280.3877
   281.2615 281.4560 281.4989 281.6376 281.8487 282.0780 282.5763 282.9293
   283.3533 283.5964 283.6338 283.7721 284.7127 285.0798 285.2108 285.3995
   285.4718 285.9534 286.4262 286.4834 286.5975 287.0479 287.2224 287.5284
   287.7116 287.8101 288.2358 288.5888 289.6452 289.8700 289.9905 290.8464
   291.0684 291.2225 291.2881 291.3264 292.1285 292.3341 293.0338 293.3602
   293.9814 294.4627 294.4737 294.5837 294.8821 294.9497 295.2270 295.6544
   295.7391 296.4177 296.8388 296.9794 297.5101 298.0471 298.6339 299.0942
   299.3569 300.4715 300.9029 301.2098 302.4160 302.5726 302.6913 302.9467
   303.3108 303.3208 303.9276 304.1368 304.6474 304.8674 305.2304 305.6466
   305.7549 306.1951 306.3190 306.8857 307.3298 307.8711 307.9007 308.7571
   308.9615 309.9625 310.1358 310.2736 310.8600 311.0250 311.8442 311.8918
   312.5389 312.5734 313.4989 313.9721 314.0387 314.3910 314.5361 314.8441
   314.8502 315.9771 316.0147 316.4126 317.2917 317.9084 317.9470 319.1382
   319.5894 319.7139 320.2481 321.0709 321.1775 321.4142 321.8290 322.2065
   322.5325 322.5495 322.8039 323.0619 324.5350 324.6859 324.9035 325.0720
   325.2951 325.8144 325.8168 326.1254 326.9884 327.1088 327.4530 327.9379
   328.1240 328.7359 329.9017 329.9083 330.5434 330.9449 331.1902 331.6592
   331.7129 332.0163 332.2751 332.3201 332.4596 332.7742 332.8485 333.2852
   333.6867 334.0945 334.4908 334.7587 335.2434 335.2826 335.8490 336.1932
   336.2406 337.0547 337.2044 337.5446 337.9215 338.2113 338.3716 338.5852
   338.8914 338.8937 339.2078 340.0446 340.4183 340.4759 340.8953 340.8963
   341.3125 341.3839 342.1715 342.7181 343.5740 343.6033 343.7787 344.3323
   344.5947 344.6434 344.7143 344.9370 345.5041 345.6282 346.3713 346.5643
   346.9974 347.5940 347.6542 348.1668 348.2116 348.6631 348.9052 349.2616
   349.4549 350.2614 350.5547 350.6858 351.2099 351.7600 351.7607 352.0148
   352.0973 352.7432 352.7467 353.1998 353.4899 353.8742 353.8772 354.1973
   354.3779 354.7758 355.1974 356.0097 356.3002 356.3143 356.9502 356.9600
   357.8863 358.1296 358.3078 358.5000 358.8244 359.1348 359.5575 359.9154
   360.1977 360.3951 361.0530 361.2236 361.3566 361.6667 362.3255 362.7722
   362.7784 363.1713 363.5032 363.9563 364.3270 364.5099 364.7993 364.9872
   365.5836 365.8528 366.0332 366.0995 366.1806 366.7418 367.1999 367.2191
   367.3846 367.8791 368.0735 368.1557 368.4210 368.6101 369.6387 369.6591
   370.2612 370.3059 370.5987 370.8020 371.4199 371.4637 372.0392 372.1655
   372.4439 372.6331 373.0859 373.4312 374.3131 375.0371 375.2564 375.4738
   375.8151 375.8451 375.9173 376.0119 376.0758 376.4550 376.5735 376.9758
   377.1871 377.2525 377.4641 378.1556 378.1857 378.3544 378.4636 379.0197
   379.3910 379.3973 379.7049 380.0322 380.6372 380.8336 380.9933 381.4270
   381.5225 381.7609 381.9582 382.2282 382.5128 382.8727 383.0797 383.3016
   383.4382 384.3397 384.9032 385.2218 385.4290 386.4100 386.6044 386.7881
   387.6260 387.7402 388.2406 388.5193 388.5994 389.0570 390.1305 390.3727
   390.4790 390.5318 390.6719 391.6067 392.0088 392.2568 392.2723 393.0492
   393.2730 393.4664 393.6035 393.7515 394.2077 394.3215 394.6149 395.0202
   395.1835 395.3933 395.5263 395.8123 395.9367 395.9778 396.2192 396.2706
   396.5544 397.5749 397.7414 398.0767 398.4066 398.7601 400.0212 400.6532
   400.6938 401.5570 401.6624 402.7895 402.8432 403.0167 403.1217 403.8819
   403.8841 403.9277 404.2543 404.5382 404.5652 404.7269 405.4801 405.5200
   405.9041 405.9966 406.3217 406.7138 407.2632 407.2917 407.8831 407.8860
   408.1290 408.4106 408.7393 408.8846 409.3481 409.4215 409.5196 409.6382
   409.8000 410.1497 410.3291 410.3638 410.4873 410.9354 411.2432 411.3818
   411.7135 412.4643 412.9242 413.3341 413.4949 413.7292 414.2869 414.4551
   414.5076 414.5610 414.8708 414.9736 415.1518 415.3655 415.4099 415.7344
   415.9925 416.0804 416.3699 416.7142 416.7596 416.8961 417.1938 417.3154
   417.7705 418.0626 418.2116 418.4352 418.7688 419.0008 419.1520 419.2235
   419.6036 419.7097 420.1404 420.5039 420.5394 420.8746 421.1187 421.4491
   421.7702 422.0781 422.4350 422.4902 422.6409 422.9191 422.9579 423.0536
   423.4511 423.7095 424.0891 424.2989 424.3924 424.6677 425.1605 425.2761
   425.5339 425.9236 426.2690 426.3955 426.4373 426.8567 427.1028 427.6187
   428.4751 428.6011 428.8999 429.0329 429.1860 429.9305 430.0964 430.5111
   430.5823 431.4208 432.4244 432.6487 433.0097 433.4809 434.1711 434.4250
   435.1313 435.2729 435.8014 436.1189 436.4631 436.5376 436.7265 436.9204
   437.1632 437.2845 437.3285 437.5706 437.9961 438.2311 438.2434 439.3429
   439.8735 440.1580 440.4845 440.7364 441.4593 441.8131 441.8715 443.0882
   443.4533 443.6057 443.8999 444.5983 444.6247 445.6279 445.9795 446.5120
   446.5808 446.6927 447.0424 447.2492 447.5130 447.8420 448.2602 448.4400
   448.5063 449.0432 449.2956 449.6944 449.9660 450.0454 450.7531 450.7981
   451.0375 451.5940 451.6340 452.0017 452.3972 452.4878 452.8485 452.9479
   452.9596 453.3041 453.6597 453.8521 454.1209 454.1883 454.4547 454.6724
   454.8120 455.0307 455.2955 455.7416 455.8739 456.3304 456.9375 457.5535
   457.7807 457.8740 458.4854 458.8402 459.3784 459.4939 459.5470 459.7568
   459.9334 460.3206 460.4408 460.8163 461.0796 461.2886 461.4858 461.8174
   461.8513 462.0094 462.5429 462.6213 462.8149 463.3902 463.5873 463.6033
   463.8866 464.1939 464.3211 464.8390 464.9849 465.0289 465.0657 465.6720
   465.8843 466.1400 466.2486 466.7971 466.8936 467.4369 467.6581 468.1104
   468.3316 468.4572 468.8497 468.9775 469.3144 469.6649 470.0083 470.3595
   470.5563 471.0268 471.4263 471.8983 472.2766 472.9616 472.9989 473.4183
   473.6980 473.8233 473.9738 474.4887 474.5898 475.1039 475.8678 475.9359
   476.3150 476.3435 476.5084 476.7015 476.7196 476.8335 477.2484 477.2743
   477.8436 478.6883 478.7738 479.4712 479.5001 479.7157 479.7217 480.1195
   480.5282 480.9534 480.9571 481.4513 481.8093 482.1159 482.2782 482.3611
   482.6163 482.8522 483.2752 483.5979 484.4884 484.6320 485.0044 485.2589
   485.6236 485.9390 486.3250 486.7520 486.8174 487.2320 487.3341 487.9400
   488.4790 488.5180 489.3194 489.5221 489.6881 490.0720 490.1789 490.6525
   491.0742 491.1375 491.3660 491.5584 491.5781 491.9757 491.9830 492.3061
   492.3242 492.6598 493.1015 493.1966 493.4599 493.8212 494.2665 494.4477

          k = 0.0000 0.2887-0.3100 (  3516 PWs)   bands (ev):

  -113.3556-113.3556 -67.5643 -67.5643 -67.5631 -67.5630 -67.5627 -67.5627
    -7.3457  -7.3457   4.0407   4.0407   4.6308   4.6308   4.6467   4.6467
     5.6519   5.6519   5.6627   5.6627   7.5286   7.5286   8.7941   8.7941
     9.1861   9.1861  14.9573  14.9573  19.6687  19.6687  21.7566  21.7566
    23.7711  23.7711  27.0822  27.0822  31.0486  31.0486  32.4659  32.4659
    34.7062  34.7062  36.7400  36.7400  38.5136  38.5136  40.1920  40.1920
    42.5332  42.5332  42.5533  42.5533  45.9980  45.9980  48.9456  48.9456
    49.8754  49.8754  53.2282  53.2282  55.0791  55.0791  57.0440  57.0440
    58.2865  58.2865  60.1826  60.1826  60.9506  60.9506  62.0286  62.0286
    63.6698  63.6698  66.0022  66.0022  66.9720  66.9720  68.7735  68.7735
    70.1516  70.1516  71.7096  71.7096  72.0337  72.0337  74.0514  74.0514
    74.3260  74.3260  75.6855  75.6855  76.4354  76.4354  80.3416  80.3416
    80.8892  80.8892  80.9694  80.9694  83.0966  83.0966  83.9325  83.9325
    85.0112  85.0112  85.2531  85.2531  88.1888  88.1888  88.8983  88.8983
    91.0873  91.0873  91.2367  91.2367  93.4819  93.4819  94.2824  94.2824
    94.9349  94.9349  96.7584  96.7584  98.5443  98.5443  98.6245  98.6245
   100.4622 100.4622 101.5883 101.5883 102.1080 102.1080 104.2003 104.2003
   106.5605 106.5606 106.9626 106.9626 107.8741 107.8741 108.9269 108.9269
   110.7798 110.7798 111.5364 111.5364 113.7524 113.7524 114.3546 114.3547
   117.9395 117.9395 118.2537 118.2537 119.4571 119.4571 121.8807 121.8807
   122.2857 122.2857 123.4316 123.4316 124.0648 124.0648 124.7571 124.7571
   125.2923 125.2923 125.5117 125.5117 127.0052 127.0052 127.4328 127.4328
   129.7954 129.7954 130.1284 130.1284 130.6573 130.6573 131.8793 131.8793
   133.7302 133.7302 133.8954 133.8954 135.8445 135.8445 135.9639 135.9639
   138.0717 138.0717 138.7087 138.7087 140.4288 140.4288 140.9555 140.9555
   141.8204 141.8204 142.6295 142.6295 143.2224 143.2224 145.0611 145.0611
   145.2996 145.2996 147.1146 147.1146 147.3681 147.3681 149.0601 149.0601
   149.8851 149.8851 150.6956 150.6956 152.4779 152.4779 152.8492 152.8492
   153.6931 153.6931 154.3649 154.3649 155.2513 155.2513 155.7492 155.7492
   157.4861 157.4861 158.8329 158.8329 159.3771 159.3771 160.7113 160.7113
   161.8863 161.8863 162.3739 162.3739 163.0864 163.0864 163.7646 163.7646
   165.1458 165.1458 165.4997 165.4997 166.6568 166.6568 168.1723 168.1723
   168.2824 168.2825 169.7996 169.7996 170.4796 170.4796 171.3038 171.3038
   172.2906 172.2906 172.6079 172.6079 174.2008 174.2008 174.8048 174.8048
   175.8765 175.8765 177.4451 177.4451 177.5891 177.5891 178.9156 178.9156
   179.1587 179.1587 180.9770 180.9770 181.0361 181.0361 182.0542 182.0542
   183.6546 183.6546 184.3340 184.3340 185.3579 185.3579 185.4673 185.4673
   186.0488 186.0488 187.4484 187.4484 188.1129 188.1129 189.4570 189.4570
   190.0848 190.0848 190.6918 190.6918 191.6188 191.6188 191.9784 191.9784
   193.5352 193.5352 194.3580 194.3580 195.2245 195.2245 196.5796 196.5796
   197.5983 197.5983 197.8709 197.8709 200.1279 200.1279 200.3077 200.3077
   200.6140 200.6140 202.3682 202.3682 202.8965 202.8965 203.7189 203.7189
   205.6700 205.6700 207.3213 207.3213 208.3128 208.3128 209.5139 209.5139
   210.4782 210.4782 211.8473 211.8473 212.5020 212.5020 213.4335 213.4335
   214.0656 214.0656 214.8683 214.8683 215.9529 215.9529 216.8688 216.8688
   217.6367 217.6367 217.8991 217.8991 218.3339 218.3339 219.7066 219.7066
   221.1751 221.1751 221.4187 221.4187 222.8098 222.8098 224.1605 224.1605
   224.2635 224.2635 224.7925 224.7925 225.3053 225.3053 226.0268 226.0268
   226.6542 226.6543 227.0953 227.0953 227.6842 227.6842 228.7132 228.7132
   229.0815 229.0815 230.1057 230.1057 230.7898 230.7898 231.4030 231.4030
   232.3457 232.3457 232.8933 232.8933 233.9829 233.9829 234.6168 234.6168
   236.4691 236.4691 236.5549 236.5549 237.3168 237.3168 237.3833 237.3833
   238.3914 238.3914 239.6460 239.6460 240.3132 240.3132 241.6366 241.6366
   241.9490 241.9490 242.4143 242.4143 244.2959 244.2959 244.8195 244.8195
   245.8791 245.8791 246.9153 246.9153 247.9764 247.9764 248.3422 248.3422
   249.1334 249.1334 249.6935 249.6935 250.8793 250.8793 251.0329 251.0329
   252.4414 252.4414 252.5197 252.5197 252.9336 252.9336 254.4334 254.4334
   254.6919 254.6919 255.3266 255.3266 255.6442 255.6442 257.3876 257.3876
   257.5044 257.5044 258.3219 258.3219 259.8099 259.8099 259.8323 259.8323
   260.6945 260.6945 261.3050 261.3050 261.5616 261.5616 262.0871 262.0871
   263.3785 263.3785 264.0334 264.0334 264.9562 264.9562 265.9785 265.9785
   266.8523 266.8523 266.9846 266.9846 268.3393 268.3393 268.6681 268.6681
   269.1434 269.1434 269.4344 269.4344 270.0153 270.0153 270.3373 270.3374
   271.6722 271.6722 271.9059 271.9059 272.7072 272.7072 273.9723 273.9723
   274.5820 274.5820 275.1404 275.1404 275.7070 275.7070 277.1307 277.1307
   277.7069 277.7069 278.6985 278.6985 279.5312 279.5312 280.1110 280.1110
   280.7883 280.7883 281.5424 281.5424 282.3839 282.3839 282.7256 282.7256
   283.4114 283.4114 284.5087 284.5087 285.0248 285.0248 286.1646 286.1646
   286.4434 286.4434 287.6000 287.6000 288.2576 288.2576 288.3856 288.3856
   290.1801 290.1801 290.2765 290.2765 290.6927 290.6927 291.6087 291.6087
   291.9126 291.9126 293.3363 293.3363 293.8485 293.8485 295.0172 295.0172
   295.2228 295.2228 296.1362 296.1362 296.2696 296.2696 296.8998 296.8998
   297.3474 297.3474 298.3453 298.3453 298.8371 298.8371 299.5239 299.5239
   300.5736 300.5736 300.9144 300.9144 301.2618 301.2618 303.5543 303.5543
   304.0714 304.0714 304.6983 304.6983 305.1422 305.1422 305.3472 305.3472
   306.2805 306.2805 306.8069 306.8069 307.6496 307.6496 308.2596 308.2596
   310.0909 310.0909 310.6136 310.6136 311.6398 311.6398 313.1634 313.1634
   313.4750 313.4750 314.9607 314.9607 315.5869 315.5869 315.6598 315.6598
   316.7638 316.7638 317.5486 317.5486 317.8403 317.8403 319.3685 319.3685
   319.4744 319.4744 320.6844 320.6844 321.9109 321.9109 321.9760 321.9760
   322.5327 322.5327 322.9534 322.9534 323.2988 323.2988 323.4158 323.4158
   323.6275 323.6275 325.2478 325.2478 325.8524 325.8524 326.1848 326.1848
   326.9266 326.9266 326.9334 326.9334 327.8343 327.8343 328.4704 328.4704
   329.8506 329.8506 330.8239 330.8239 331.0848 331.0849 332.9017 332.9018
   333.2809 333.2809 334.4911 334.4911 334.6554 334.6554 335.7197 335.7197
   335.9231 335.9231 336.4234 336.4234 337.0825 337.0825 337.1813 337.1813
   338.5444 338.5444 339.1448 339.1448 339.5189 339.5189 339.9333 339.9333
   340.4532 340.4532 341.4282 341.4282 342.2387 342.2387 343.2701 343.2701
   343.8261 343.8261 344.6459 344.6459 345.3395 345.3395 346.0472 346.0472
   347.5810 347.5810 347.7246 347.7246 348.8296 348.8296 348.9715 348.9715
   350.2578 350.2578 350.4211 350.4211 351.2855 351.2855 352.2697 352.2697
   352.8387 352.8387 353.6429 353.6429 354.4111 354.4111 354.7878 354.7878
   356.0572 356.0572 356.3216 356.3216 357.3067 357.3067 357.6174 357.6174
   359.5259 359.5259 359.5375 359.5375 360.1817 360.1817 360.7652 360.7652
   361.0720 361.0721 361.5749 361.5749 361.6723 361.6723 363.5371 363.5371
   363.8467 363.8467 364.0819 364.0819 365.0991 365.0991 365.2626 365.2626
   365.7291 365.7291 366.5307 366.5307 367.5974 367.5974 367.7628 367.7628
   368.2649 368.2649 368.4356 368.4356 369.2743 369.2743 370.1968 370.1968
   370.4325 370.4325 370.8737 370.8737 371.5069 371.5069 372.4661 372.4661
   372.5615 372.5615 374.0651 374.0651 374.6545 374.6545 375.4049 375.4049
   376.4759 376.4759 376.8595 376.8595 377.9400 377.9400 378.5107 378.5107
   378.8998 378.8998 379.2826 379.2827 380.5009 380.5009 381.1111 381.1111
   381.5880 381.5880 381.9211 381.9211 382.0208 382.0208 382.5895 382.5895
   383.4551 383.4551 383.9322 383.9322 384.3407 384.3407 384.9707 384.9707
   385.1717 385.1717 385.6613 385.6613 386.3763 386.3763 386.5801 386.5801
   387.6275 387.6275 387.8369 387.8369 388.2126 388.2126 388.5397 388.5397
   388.8998 388.8998 389.3460 389.3460 389.6262 389.6262 390.7117 390.7117
   391.1782 391.1782 392.3253 392.3253 392.4558 392.4558 393.4344 393.4344
   393.4909 393.4909 393.9284 393.9284 394.4094 394.4094 394.4222 394.4222
   394.7738 394.7738 395.2829 395.2829 395.8551 395.8551 396.3046 396.3046
   396.9781 396.9781 397.3191 397.3191 398.2653 398.2653 399.3636 399.3636
   399.7253 399.7253 400.5357 400.5357 402.1527 402.1527 402.8712 402.8712
   403.6797 403.6797 404.2607 404.2607 404.7104 404.7104 405.5502 405.5502
   406.7391 406.7391 406.8182 406.8182 408.0042 408.0042 408.5405 408.5405
   409.3914 409.3914 410.0626 410.0626 410.5097 410.5097 411.8761 411.8761
   411.9242 411.9242 412.7346 412.7346 413.8307 413.8307 414.1448 414.1448
   415.2536 415.2536 415.2896 415.2896 416.3836 416.3836 416.8681 416.8681
   418.0448 418.0448 418.1664 418.1664 419.3060 419.3060 419.6760 419.6760
   421.4283 421.4283 421.4425 421.4425 422.0532 422.0532 422.6666 422.6666
   422.8234 422.8234 423.7461 423.7461 423.8855 423.8855 424.2915 424.2915
   424.6602 424.6602 424.9985 424.9985 425.9346 425.9346 425.9465 425.9465
   427.3969 427.3969 428.3360 428.3360 428.6546 428.6546 429.1690 429.1690
   429.2612 429.2612 429.8002 429.8002 429.9463 429.9463 430.5767 430.5767
   431.5320 431.5320 431.7922 431.7922 432.5994 432.5994 432.6858 432.6858
   433.4377 433.4377 433.9952 433.9952 434.3459 434.3459 434.6275 434.6275
   435.0944 435.0944 435.1533 435.1533 435.8605 435.8605 437.0402 437.0402
   437.7057 437.7057 438.3030 438.3030 439.2590 439.2590 439.9081 439.9081
   440.5188 440.5188 440.5825 440.5825 441.2521 441.2521 441.4686 441.4686
   442.2110 442.2110 443.0035 443.0035 443.0617 443.0617 444.3142 444.3142
   445.2695 445.2695 445.5068 445.5068 445.9720 445.9720 446.7252 446.7252
   446.7890 446.7890 448.0945 448.0945 448.3746 448.3746 449.0354 449.0354
   449.0549 449.0549 449.2494 449.2494 450.0839 450.0839 451.1601 451.1601
   451.4319 451.4319 452.0354 452.0354 452.8934 452.8934 453.9106 453.9106
   454.3224 454.3224 454.7483 454.7483 455.2697 455.2697 455.9199 455.9199
   456.7912 456.7912 457.3808 457.3808 457.6148 457.6148 458.1567 458.1567
   458.3930 458.3930 458.6976 458.6976 459.0398 459.0398 460.0443 460.0443
   460.3004 460.3004 461.3984 461.3984 461.4323 461.4323 462.3849 462.3849
   462.3913 462.3913 463.2501 463.2501 463.5576 463.5576 464.0635 464.0635
   464.5762 464.5762 465.1660 465.1660 465.7673 465.7673 466.2044 466.2044
   466.9481 466.9481 467.3292 467.3292 467.7871 467.7871 468.5082 468.5082
   468.5385 468.5385 469.7161 469.7161 470.3233 470.3233 471.1241 471.1241
   471.1570 471.1570 472.5608 472.5608 473.8476 473.8476 474.1261 474.1261
   475.2290 475.2290 475.2680 475.2680 477.3776 477.3776 477.9850 477.9850
   479.4486 479.4486 479.8859 479.8859 480.1686 480.1686 480.3803 480.3803
   481.6690 481.6690 482.3761 482.3761 483.3056 483.3056 484.3301 484.3301
   485.0131 485.0131 485.4899 485.4899 486.2197 486.2197 486.4187 486.4187
   486.9259 486.9259 487.2418 487.2418 487.5353 487.5353 487.8130 487.8130
   488.8033 488.8033 488.8095 488.8095 489.8066 489.8066 490.6183 490.6183
   491.8811 491.8811 492.0538 492.0538 493.0439 493.0439 493.5296 493.5296
   493.8881 493.8881 494.2740 494.2740 494.5563 494.5563 495.2728 495.2728

          k = 0.0000-0.5774 0.0000 (  3514 PWs)   bands (ev):

  -113.3556-113.3556 -67.5648 -67.5644 -67.5643 -67.5633 -67.5633 -67.5626
    -7.2305  -7.0072   4.1563   4.3755   4.6228   5.0234   5.0246   5.1607
     5.5643   5.6940   5.7781   5.8603   6.3494   6.5630   7.2826   7.8595
     8.8232   9.2801  15.9800  17.0476  17.7513  18.7220  20.7687  22.6186
    23.4053  24.4633  26.0639  28.7393  29.2931  30.8013  33.2056  35.1434
    35.1667  36.2881  37.6067  37.9315  38.6365  39.4472  41.3409  42.9494
    42.9993  43.6754  43.6840  44.8417  45.3083  45.8022  47.1573  48.6962
    49.4759  50.5993  51.7014  52.1178  53.3955  53.9258  56.0904  56.3396
    57.3895  57.4304  58.1013  58.9927  59.0395  60.4248  60.5731  61.7306
    61.8382  62.3754  63.2385  63.9690  65.3539  65.9972  66.2736  66.8285
    67.1658  68.6560  69.9096  69.9518  70.8615  71.7483  72.1117  72.4568
    72.5388  75.2727  76.0610  76.1649  76.5108  77.9788  81.3225  81.5476
    82.1100  83.5197  84.0772  84.5571  85.0412  85.3388  85.8165  86.8364
    86.9164  87.7864  88.4462  88.8476  89.5560  89.9781  91.1241  91.1768
    91.1898  92.4236  92.8970  94.0098  94.6678  95.8799  96.2305  96.8587
    97.3833  97.7272  98.3817  98.5280  98.7540  99.7642 100.1650 101.3919
   101.4976 102.7732 102.9794 103.0262 103.1049 103.9342 104.2978 104.3158
   105.6809 107.6362 107.8085 108.2603 108.6302 108.7640 109.0512 109.5814
   110.0066 110.3560 110.8692 111.9739 112.1717 112.3270 112.3572 113.2410
   113.5920 114.4557 114.7177 116.4541 117.0793 117.2633 117.8402 117.9770
   118.7153 119.4321 120.0221 120.3583 120.9405 121.0775 121.7070 121.7104
   121.9728 122.4705 122.8290 123.8198 124.4692 124.5854 125.1131 125.8990
   127.1477 127.2179 128.0171 128.2992 128.4705 129.3108 130.7243 131.0770
   132.6840 133.6106 134.7139 135.4542 135.5985 137.1068 137.3758 137.6664
   137.9710 138.4196 138.4982 139.0967 139.4356 139.5610 140.1946 140.6524
   141.3616 142.3456 142.5853 143.1042 144.4954 144.8634 145.0533 145.5164
   146.6531 146.6629 147.1600 147.7316 148.1587 148.2312 148.5174 148.9256
   149.8171 150.1921 150.6022 150.9180 150.9553 151.2954 151.6948 151.9013
   152.1305 152.1831 152.6301 152.7038 152.7493 153.5672 154.1022 154.3581
   155.2857 155.9022 155.9349 156.9127 158.2100 158.4196 159.2336 159.8153
   161.1071 162.2660 163.3191 164.4235 164.7964 164.8856 166.6593 167.0469
   167.6281 168.1691 168.5711 168.7480 169.0785 169.6345 169.7949 170.0707
   170.5667 170.7400 170.7966 170.8140 173.1118 173.6786 173.7101 174.1234
   174.2296 174.8228 175.1907 175.6003 175.7760 176.0633 176.7416 177.2466
   177.4067 177.4609 177.6218 177.8401 178.2690 179.4005 179.7610 181.4642
   181.5305 181.6727 182.9399 184.2260 184.4349 184.8102 184.8181 185.2049
   185.2506 185.4115 185.7401 186.1842 186.8901 187.1709 187.2420 187.9685
   188.2031 188.3442 188.3876 188.6945 190.8820 190.9870 191.2144 192.3115
   192.4565 193.0527 193.1977 193.4321 193.7563 193.8296 193.9620 194.5553
   194.9784 195.4165 195.5721 195.6649 195.9184 196.3419 196.6420 197.2283
   198.5139 198.5449 198.5775 198.9607 199.1252 199.5723 199.9865 200.2421
   200.5875 201.3656 201.3975 202.2167 202.5804 203.0069 203.1180 203.3128
   203.3492 203.6809 205.2590 205.3721 206.7036 207.2020 207.5226 207.7026
   208.0170 208.1709 208.3352 208.4638 208.8256 209.1425 209.8305 210.1250
   210.7498 210.7998 211.1253 211.6065 211.8954 212.3603 212.8587 213.8117
   214.7921 214.8213 215.3617 215.5322 215.7946 216.7590 217.8625 218.1386
   219.2512 219.4197 221.0551 221.2380 221.7288 221.9082 223.0047 223.3875
   224.0017 224.2460 224.2672 224.4397 225.0348 225.0411 225.1232 225.1956
   225.7139 226.1100 226.8191 227.2462 227.6587 227.8335 228.1670 228.4962
   229.0053 229.2468 229.3430 229.8081 230.4008 230.5848 230.8632 230.9746
   231.6595 231.8689 231.9510 232.0119 232.5362 232.8430 232.9658 233.1668
   234.0595 234.2544 234.4938 234.7433 234.9795 235.1638 235.4491 235.5707
   235.9938 236.3013 236.7407 236.7737 237.3112 237.4741 237.7187 238.3128
   238.7653 238.9717 239.5249 239.9140 240.8286 240.9943 241.4611 241.7875
   241.8783 242.2151 242.3467 243.0722 243.1238 243.8794 244.3245 244.3416
   245.8167 247.1843 247.4286 247.7922 248.3506 248.6836 249.3103 250.1060
   250.9753 251.0078 251.5020 251.8452 252.0598 252.1306 252.9457 254.1016
   254.4667 254.5405 254.7614 254.8894 255.5389 255.9957 256.1089 256.3096
   256.9566 256.9622 257.7697 258.5828 259.1708 259.1912 259.4300 259.7214
   260.3267 261.2643 261.3914 261.8617 262.3217 262.3722 262.9061 263.3447
   263.4479 263.6993 264.2522 264.5666 264.9246 265.9003 266.1537 267.4409
   267.4772 268.2806 269.5337 269.5420 269.5580 269.8876 270.5099 271.0299
   271.7317 271.8129 271.8968 273.4972 273.5385 273.7276 274.0307 275.1028
   275.1238 275.4475 276.3562 277.2265 277.5826 277.8609 277.8851 278.0015
   278.5683 278.6906 279.1023 279.1921 280.0415 280.2372 281.0885 281.4458
   281.5882 281.9043 282.2502 282.2661 282.2925 282.4598 282.6977 282.8794
   282.9232 283.2873 284.0230 284.0418 284.1826 284.3657 284.7624 284.7651
   284.7863 285.6655 286.3965 286.4689 286.8957 287.4808 287.8823 288.0282
   288.5767 288.7374 288.8711 289.3287 289.8483 290.2420 290.5275 290.8293
   291.4023 291.4432 291.7071 292.0269 292.0757 293.0349 293.0869 293.1077
   293.4436 293.5978 293.7533 294.5015 294.5872 294.8632 294.9427 295.1625
   295.9944 295.9968 296.8409 296.9781 298.5975 298.8214 299.1077 299.6629
   299.6791 299.7454 299.9640 300.6300 300.7572 300.8833 302.2926 302.6176
   302.6558 302.9556 303.0441 303.6191 304.2988 304.7126 305.1759 305.3345
   305.8972 305.9475 306.8806 306.9944 307.4534 307.6780 307.9238 308.3527
   308.3985 308.5351 308.9126 309.2817 309.4259 310.1492 310.8073 310.8418
   311.6015 311.8981 312.0213 312.2328 312.6773 312.9779 312.9803 313.0314
   313.3135 313.4224 313.6912 313.8603 313.9083 314.2200 314.9173 315.1715
   315.4203 315.8706 316.7375 317.3243 317.4789 317.5673 317.7087 318.0015
   318.2363 318.2811 318.3544 318.6493 319.4551 319.6650 320.1841 320.2524
   320.8659 320.9306 321.2734 321.6452 321.8491 321.9018 322.1237 322.6625
   322.6965 322.9531 323.0303 323.3027 323.4071 323.6542 323.8185 323.9368
   324.1333 324.2363 324.2910 324.6704 325.4885 325.7783 325.9473 326.1826
   326.2615 327.9555 328.1384 328.1613 328.7799 329.0063 329.1982 329.9129
   330.8853 331.0829 331.4187 331.8093 332.3983 332.4371 332.7780 333.7919
   334.8767 335.0385 335.6908 336.1332 337.2048 337.2405 337.2463 337.4998
   337.5070 337.5735 338.0597 338.4138 338.8226 339.4174 339.8405 340.5230
   340.6630 341.0076 341.4224 341.6146 341.7007 341.7111 342.3883 342.4121
   342.5734 342.8351 343.1798 343.3673 343.6033 343.7961 343.9449 344.3685
   344.9323 345.0460 345.9149 346.1721 346.4989 346.5912 346.7581 347.3599
   348.1190 348.5713 348.7650 348.7733 348.7847 349.6355 349.6707 351.0432
   351.2963 351.5206 351.9778 352.4790 352.7184 353.5028 354.5745 354.8697
   355.4106 355.8025 356.0276 356.1914 356.2181 356.8921 356.9472 357.4696
   357.8112 357.8193 357.8834 358.1094 358.1366 358.7764 359.3860 360.0895
   360.3817 360.6387 360.6566 361.0150 361.8548 362.5062 362.6162 363.6315
   364.2498 364.3761 364.3764 364.7634 364.9050 365.2665 365.5289 365.8680
   366.0907 366.4837 366.5164 366.5755 366.6353 367.0507 367.2468 367.5009
   367.5340 367.8610 367.9232 368.1350 368.1660 368.3037 368.3573 368.5825
   368.6593 368.8459 369.2174 369.7167 369.8472 370.5465 370.6524 370.9644
   371.0283 371.1000 371.3577 371.3754 371.6392 371.7421 372.6298 372.9411
   373.0879 373.3915 373.9352 374.0143 374.1840 374.4162 374.5639 374.9819
   375.0287 376.6253 376.6652 376.7246 377.2953 377.7561 377.8032 377.9789
   377.9994 378.3810 379.1738 379.3949 379.5910 379.7520 379.8660 380.2695
   380.5167 380.5706 380.7672 381.2429 381.4874 383.0968 383.1339 383.2871
   383.3870 383.7996 383.8048 384.1844 384.4181 384.4882 384.7655 385.1077
   385.1715 385.3211 385.4759 385.6163 385.7624 385.9323 386.0512 386.5536
   386.6513 386.7382 387.4946 387.6559 388.8241 388.9458 389.6739 390.2289
   390.4107 390.8988 390.9905 391.0672 391.4474 392.3087 392.7017 393.0547
   393.4420 393.9303 393.9499 394.2966 394.3017 394.6542 395.0606 395.3109
   395.3158 395.9395 396.4757 396.9862 397.0161 397.0925 397.1465 398.0830
   398.2508 398.7580 398.9974 399.4205 399.7396 399.7460 400.0569 400.5513
   402.4218 402.4225 402.5830 402.9113 403.2688 403.7428 403.8177 404.3584
   405.0975 405.2604 405.4122 405.6594 405.6866 406.5803 406.8913 406.9135
   406.9343 406.9635 407.0020 407.1279 407.6061 407.8100 408.0878 408.2014
   408.5497 408.8347 409.5117 410.1028 410.2646 411.2796 411.6603 411.8656
   412.9196 413.3240 413.9849 414.5143 415.3035 415.8531 416.4659 416.6674
   416.6715 416.8075 416.9454 417.4631 418.8843 418.9132 419.2666 419.7427
   420.1237 421.2429 421.3853 421.5354 421.6820 422.0073 422.7675 423.5925
   424.0810 424.1117 424.1624 424.6743 424.8067 425.0799 425.0998 425.1341
   425.4009 425.8040 426.1680 426.2870 426.3726 426.8710 427.4854 427.9256
   427.9702 428.5629 428.7729 429.0728 429.2935 429.4608 429.8965 430.1650
   430.5770 431.1343 431.1742 431.6310 431.8032 431.8715 431.9261 432.2372
   432.4414 432.4813 432.6398 432.8993 433.0659 433.5150 433.5436 433.9464
   434.0796 434.1760 434.2193 434.5330 435.1668 435.4359 435.5458 435.8544
   436.2986 436.4231 436.4678 436.6375 437.3155 437.4333 437.7967 437.9548
   438.1352 439.1003 439.1290 439.2927 439.4822 439.4883 439.6672 440.2094
   440.4379 440.9317 441.0844 441.2802 441.3482 441.5779 441.7699 442.1246
   442.2711 442.3939 442.8405 443.0338 443.1198 443.1561 443.5549 443.7786
   444.2898 444.3128 444.3595 444.4011 444.5910 445.5465 446.5859 447.1309
   447.3358 447.6885 448.5782 448.6099 448.6731 449.5013 449.6388 449.7149
   449.8858 450.0928 450.1108 450.7136 450.7521 450.8055 450.8997 450.9391
   451.2649 451.2849 451.7669 451.9219 452.1483 452.1791 452.3310 452.6545
   452.9940 453.1298 453.6668 453.8909 453.9185 454.6095 455.0753 455.3619
   455.6388 455.7089 455.8327 455.8683 455.9232 456.7127 457.1922 457.2167
   457.3873 457.4073 457.9220 457.9896 458.2394 458.2887 458.5967 458.8693
   458.9637 459.1083 459.1903 459.4693 459.6939 460.2536 460.9184 461.1458
   461.1508 461.3854 461.9922 462.1178 462.6929 462.8411 462.9016 463.3712
   463.6227 464.4166 464.4247 464.8410 464.8571 464.9012 465.2754 465.7473
   465.7735 465.8527 466.0842 466.3472 466.3973 466.5835 466.8921 467.0951
   468.0113 468.0935 468.4125 468.6324 469.3312 469.5250 469.7369 469.9881
   470.4825 470.6190 470.6484 470.7631 470.8396 470.9801 471.3902 471.5066
   471.7861 473.6826 473.7793 474.4458 474.4904 474.7262 474.8425 474.9951
   475.6153 475.9215 475.9978 476.0628 476.1923 476.3389 476.3518 477.0030
   477.0273 477.0333 477.9359 477.9703 478.0478 479.1122 479.2204 479.9778
   480.0063 480.0467 480.2317 480.3662 480.5113 480.6797 480.6986 481.0425
   481.4018 481.7135 481.9292 482.1522 482.3144 482.5610 482.6417 482.7830
   483.4241 484.0974 484.2207 484.2267 484.4281 484.5020 484.8528 485.0534
   485.3954 485.4113 485.8579 486.1163 486.2267 486.3771 486.4701 486.4710
   486.6672 486.6963 486.8550 486.9931 487.3925 488.1070 488.1714 488.2483
   488.8551 489.2819 489.7690 490.1579 490.2006 490.8577 490.9565 491.6987

          k = 0.0000-0.5774-0.3100 (  3488 PWs)   bands (ev):

  -113.3556-113.3556 -67.5651 -67.5651 -67.5633 -67.5633 -67.5630 -67.5630
    -7.1098  -7.1098   3.9920   3.9920   4.8541   4.8541   4.9324   4.9324
     5.7178   5.7178   5.8136   5.8136   6.3168   6.3168   8.6126   8.6126
     8.7401   8.7401  15.9006  15.9006  18.6194  18.6194  21.4926  21.4926
    23.9089  23.9089  26.3448  26.3448  31.8947  31.8947  33.1827  33.1827
    35.6493  35.6493  36.8148  36.8148  40.5811  40.5811  42.6854  42.6854
    43.7104  43.7104  45.3206  45.3206  47.3777  47.3777  47.7203  47.7203
    49.7278  49.7278  50.6025  50.6025  52.1365  52.1365  53.3724  53.3724
    54.9636  54.9636  55.6391  55.6391  60.1723  60.1723  61.9824  61.9824
    65.4841  65.4841  66.6340  66.6340  67.0669  67.0669  68.3282  68.3282
    68.9356  68.9356  69.1998  69.1998  72.9124  72.9124  73.2294  73.2294
    74.9924  74.9924  75.6595  75.6595  76.7155  76.7155  78.9526  78.9526
    80.8706  80.8706  81.2209  81.2209  81.9931  81.9931  84.6161  84.6161
    85.9728  85.9728  89.2851  89.2851  89.4886  89.4886  91.8215  91.8215
    94.0732  94.0732  96.1634  96.1634  96.6722  96.6722  98.5383  98.5383
    98.7557  98.7557  99.6372  99.6372 100.7299 100.7299 101.1610 101.1610
   101.4138 101.4138 102.5340 102.5340 102.6747 102.6747 104.9029 104.9029
   104.9398 104.9398 105.2350 105.2350 106.8877 106.8877 108.2470 108.2470
   109.3360 109.3360 111.7943 111.7943 112.0590 112.0590 112.9964 112.9964
   113.2415 113.2415 116.1099 116.1099 117.3169 117.3169 117.8024 117.8024
   119.4447 119.4447 121.3575 121.3575 123.1354 123.1354 123.4523 123.4523
   124.2244 124.2244 125.3930 125.3930 126.3166 126.3166 126.6432 126.6432
   126.7950 126.7950 128.1069 128.1069 129.6771 129.6771 131.3674 131.3674
   131.8723 131.8723 133.0380 133.0380 133.7143 133.7143 134.5860 134.5860
   135.7786 135.7786 136.7562 136.7562 138.6493 138.6493 139.8822 139.8822
   141.2117 141.2117 142.4422 142.4422 142.6995 142.6995 144.7525 144.7525
   144.7804 144.7804 145.8123 145.8123 147.8953 147.8953 148.3914 148.3914
   151.2423 151.2423 151.2728 151.2728 151.9320 151.9320 154.5787 154.5787
   154.9249 154.9249 155.0630 155.0630 155.9724 155.9724 157.1386 157.1386
   159.2195 159.2195 159.4737 159.4737 159.6814 159.6814 160.3707 160.3707
   161.4307 161.4307 163.1987 163.1987 163.5248 163.5248 164.0338 164.0338
   165.0940 165.0940 166.4274 166.4274 166.5153 166.5153 168.5841 168.5841
   170.0013 170.0013 170.2441 170.2442 172.2941 172.2941 172.7217 172.7217
   174.4074 174.4074 175.3653 175.3653 176.1763 176.1763 177.1141 177.1141
   178.0217 178.0217 179.2245 179.2245 179.8245 179.8245 180.7536 180.7536
   181.4133 181.4133 182.8328 182.8328 184.5123 184.5123 185.1817 185.1817
   186.5007 186.5007 186.6960 186.6960 187.3354 187.3354 187.6804 187.6804
   188.9974 188.9974 189.2004 189.2005 189.5838 189.5838 190.1337 190.1337
   192.0719 192.0719 193.4960 193.4960 193.5622 193.5622 195.2852 195.2852
   195.9601 195.9601 197.2256 197.2256 198.0014 198.0014 198.3251 198.3251
   199.1916 199.1916 199.5266 199.5266 199.9970 199.9970 201.0776 201.0776
   201.3988 201.3988 202.0721 202.0721 202.6522 202.6522 203.7095 203.7095
   204.0372 204.0372 206.0323 206.0323 206.9156 206.9156 207.5813 207.5813
   208.5394 208.5394 209.3542 209.3542 209.3553 209.3553 210.3846 210.3846
   211.1275 211.1275 212.2601 212.2601 212.4393 212.4393 213.6401 213.6401
   214.3702 214.3702 214.8618 214.8618 215.7986 215.7986 216.0598 216.0598
   217.3320 217.3320 217.7826 217.7826 218.4154 218.4154 218.6416 218.6416
   219.1082 219.1082 220.6880 220.6880 221.8673 221.8673 222.6034 222.6034
   223.8062 223.8062 224.5422 224.5422 226.1526 226.1526 226.5454 226.5454
   227.0530 227.0530 228.2467 228.2467 230.0398 230.0398 230.3558 230.3558
   231.4009 231.4009 232.7306 232.7306 234.3836 234.3836 235.2874 235.2874
   236.0189 236.0189 236.1443 236.1443 236.8654 236.8654 237.9086 237.9086
   238.3078 238.3078 240.0253 240.0253 240.1583 240.1583 241.0741 241.0741
   242.1518 242.1518 242.4920 242.4920 242.9816 242.9816 244.4124 244.4124
   244.8338 244.8338 245.1825 245.1825 245.4969 245.4969 246.8014 246.8014
   247.4908 247.4908 247.9991 247.9991 249.8589 249.8589 250.9557 250.9557
   251.0624 251.0624 252.0021 252.0021 252.7605 252.7605 254.0725 254.0725
   254.4393 254.4394 255.3229 255.3229 256.0630 256.0630 257.2133 257.2133
   257.5370 257.5370 258.4130 258.4130 259.1050 259.1050 260.1230 260.1230
   261.5631 261.5631 262.5091 262.5091 262.7039 262.7039 263.4988 263.4988
   263.9186 263.9186 265.0844 265.0844 265.1087 265.1087 266.0261 266.0261
   266.6331 266.6331 267.4214 267.4214 268.4265 268.4265 268.8281 268.8281
   269.1429 269.1429 270.1288 270.1288 270.1776 270.1776 270.7662 270.7662
   271.2287 271.2287 272.5402 272.5402 273.9553 273.9553 274.9203 274.9203
   275.7419 275.7419 277.6900 277.6900 277.7116 277.7116 278.7203 278.7203
   280.6310 280.6310 280.9855 280.9855 281.5992 281.5992 282.8411 282.8411
   283.1917 283.1917 283.8398 283.8398 284.4925 284.4925 284.8425 284.8425
   285.3514 285.3514 286.4592 286.4592 286.8846 286.8846 287.8898 287.8898
   287.9176 287.9176 289.6570 289.6570 290.5679 290.5679 291.3450 291.3450
   292.5947 292.5947 293.1104 293.1104 293.7041 293.7041 294.1043 294.1043
   296.2751 296.2751 296.3349 296.3349 296.7112 296.7112 297.4365 297.4365
   298.4397 298.4397 298.4692 298.4692 298.9639 298.9639 299.1704 299.1704
   300.4436 300.4436 300.8030 300.8030 301.3726 301.3726 302.2585 302.2585
   302.6283 302.6283 302.9614 302.9614 303.3327 303.3327 303.8521 303.8521
   304.4626 304.4626 305.6739 305.6739 306.4991 306.4991 308.0457 308.0457
   308.4842 308.4842 308.6885 308.6885 308.8441 308.8441 309.9723 309.9723
   310.8951 310.8951 311.6550 311.6550 312.5722 312.5722 313.3370 313.3370
   313.4042 313.4042 314.4770 314.4770 314.9938 314.9938 315.3265 315.3265
   316.0831 316.0831 317.2686 317.2686 317.5929 317.5929 318.7786 318.7786
   318.8811 318.8811 320.0095 320.0095 320.7120 320.7120 320.7668 320.7668
   321.2292 321.2292 321.9378 321.9378 322.5291 322.5291 322.9969 322.9969
   323.1694 323.1694 324.8816 324.8816 326.0341 326.0341 326.2575 326.2575
   327.0552 327.0552 327.4073 327.4073 328.8361 328.8361 329.6154 329.6154
   330.5899 330.5899 330.7961 330.7961 331.4929 331.4929 332.5158 332.5158
   333.0041 333.0041 333.5559 333.5559 333.8183 333.8183 334.2884 334.2884
   334.9656 334.9656 335.6838 335.6838 337.3065 337.3065 337.6301 337.6301
   339.1393 339.1393 339.2100 339.2100 339.6707 339.6707 339.7866 339.7866
   340.3903 340.3903 341.3656 341.3656 341.4220 341.4220 342.3780 342.3780
   342.5662 342.5662 343.4713 343.4713 343.9917 343.9917 344.2724 344.2724
   344.5802 344.5802 344.6708 344.6708 345.9362 345.9362 346.3136 346.3136
   346.7345 346.7345 347.4237 347.4237 347.7949 347.7949 348.6087 348.6087
   350.1080 350.1080 350.2974 350.2974 351.9519 351.9519 352.2338 352.2338
   353.2481 353.2481 353.3283 353.3283 353.7308 353.7308 354.3468 354.3468
   354.4587 354.4587 354.7082 354.7082 354.7751 354.7751 355.6833 355.6833
   356.4178 356.4178 356.9946 356.9946 357.0229 357.0229 358.7958 358.7958
   359.2313 359.2313 359.4541 359.4541 361.1391 361.1391 361.5248 361.5248
   362.3128 362.3128 363.7625 363.7625 364.4263 364.4263 364.6020 364.6020
   365.6292 365.6292 366.4185 366.4185 368.3372 368.3372 368.3904 368.3904
   369.0693 369.0693 369.3913 369.3913 370.1952 370.1952 370.9863 370.9863
   371.1435 371.1435 372.2279 372.2279 373.7009 373.7009 374.2542 374.2542
   374.4612 374.4612 375.0617 375.0617 375.9975 375.9975 376.5008 376.5008
   377.0395 377.0395 377.9975 377.9975 378.3856 378.3856 379.3144 379.3144
   379.9410 379.9410 379.9670 379.9670 380.4555 380.4555 381.4094 381.4094
   382.0724 382.0724 382.6897 382.6897 383.7574 383.7574 384.5018 384.5018
   385.2258 385.2258 386.0018 386.0018 386.2990 386.2990 386.6402 386.6402
   386.9547 386.9547 387.3681 387.3681 388.5431 388.5431 389.2785 389.2785
   389.4536 389.4536 390.5461 390.5461 391.2966 391.2966 392.5899 392.5899
   392.9039 392.9039 393.1476 393.1476 395.0650 395.0650 395.2034 395.2034
   396.0191 396.0191 396.4912 396.4913 397.1071 397.1071 397.1613 397.1613
   397.5811 397.5811 397.8655 397.8655 397.9776 397.9776 399.7190 399.7190
   400.6232 400.6232 401.3072 401.3072 402.2263 402.2263 403.0823 403.0823
   403.4315 403.4315 404.6540 404.6540 405.2625 405.2625 406.0220 406.0220
   406.0275 406.0275 407.0059 407.0059 407.4656 407.4656 407.5316 407.5316
   408.7622 408.7622 408.7692 408.7692 409.5099 409.5099 409.9513 409.9513
   410.0238 410.0238 410.3073 410.3073 410.6357 410.6357 411.2698 411.2698
   412.2125 412.2125 412.4429 412.4429 412.8264 412.8264 413.5980 413.5980
   414.9645 414.9645 415.4790 415.4790 415.9617 415.9617 418.1108 418.1108
   419.0767 419.0767 419.1854 419.1854 419.5584 419.5584 420.1386 420.1386
   421.2082 421.2082 422.5760 422.5760 423.4054 423.4054 424.0784 424.0784
   424.3641 424.3641 424.8124 424.8124 425.0851 425.0851 426.1930 426.1930
   426.5400 426.5400 427.2891 427.2891 427.6621 427.6621 428.4021 428.4021
   428.7914 428.7914 429.3848 429.3848 430.3747 430.3747 430.8628 430.8628
   430.8663 430.8663 430.9516 430.9516 431.7806 431.7806 432.2951 432.2951
   432.3124 432.3124 432.6308 432.6308 433.3729 433.3729 435.6492 435.6492
   435.7422 435.7422 436.3784 436.3784 436.6514 436.6514 437.3876 437.3876
   437.6848 437.6848 437.8239 437.8239 438.0501 438.0501 438.7768 438.7768
   438.9397 438.9397 441.4312 441.4312 441.7211 441.7211 442.6973 442.6973
   443.2737 443.2737 443.5786 443.5786 444.1730 444.1730 444.4457 444.4457
   445.0091 445.0091 445.3876 445.3876 445.4926 445.4926 445.8873 445.8873
   445.9183 445.9183 446.5333 446.5333 447.2351 447.2351 448.6986 448.6986
   449.8320 449.8320 450.0456 450.0456 451.2892 451.2892 451.3841 451.3841
   452.1804 452.1804 452.2375 452.2375 453.3462 453.3462 453.6298 453.6298
   453.9951 453.9951 454.8650 454.8650 454.9628 454.9628 455.2973 455.2973
   455.6660 455.6660 455.7101 455.7101 456.4617 456.4617 456.5740 456.5740
   457.8178 457.8178 458.3250 458.3250 458.5821 458.5821 459.0335 459.0335
   459.3909 459.3909 459.4886 459.4886 460.5903 460.5903 460.9469 460.9469
   461.3838 461.3838 461.8626 461.8626 462.3716 462.3716 462.9385 462.9385
   463.4171 463.4171 464.0157 464.0157 464.1272 464.1272 464.4388 464.4388
   465.4435 465.4435 465.4900 465.4900 465.8797 465.8797 466.0227 466.0227
   466.4691 466.4691 466.4852 466.4852 466.7325 466.7325 467.7082 467.7082
   468.3541 468.3541 468.5419 468.5419 471.0308 471.0308 471.7006 471.7006
   472.6773 472.6773 472.8828 472.8828 473.9009 473.9009 474.3883 474.3883
   474.7415 474.7415 475.5878 475.5878 475.5996 475.5996 476.1674 476.1674
   478.3988 478.3989 478.8397 478.8397 480.1867 480.1867 480.4204 480.4204
   481.0009 481.0009 481.9358 481.9358 482.0287 482.0287 482.2109 482.2109
   482.7946 482.7946 483.7248 483.7248 484.5322 484.5322 484.9585 484.9585
   486.1752 486.1752 486.4875 486.4875 487.1334 487.1334 487.4009 487.4009
   487.5505 487.5505 487.8373 487.8373 489.0862 489.0862 489.1343 489.1343
   489.9897 489.9897 490.1234 490.1234 491.6638 491.6638 491.7906 491.7906
   492.0272 492.0272 493.0267 493.0267 493.5534 493.5534 493.6556 493.6556

          k = 0.2500 0.4330 0.0000 (  3506 PWs)   bands (ev):

  -113.3556-113.3556 -67.5644 -67.5643 -67.5641 -67.5636 -67.5633 -67.5630
    -7.2411  -7.0016   4.3348   4.4508   4.7309   4.8025   5.1572   5.2770
     5.4075   5.5456   5.7944   6.0543   6.1733   6.9002   7.2636   7.4219
     8.8048   8.8781  16.0639  17.8342  18.6861  18.7785  21.2204  21.4667
    21.8056  24.6409  25.4276  28.8210  32.0424  32.5653  33.1638  33.2708
    34.7126  36.5582  36.7936  37.3970  37.4195  38.4780  39.2087  42.1049
    42.7360  44.9965  45.5146  46.6877  46.7797  47.8904  48.0856  48.3888
    48.7024  51.5004  51.8747  52.7329  54.5690  54.9181  55.2595  55.5237
    56.1953  56.6620  57.4953  57.7228  59.2860  59.6803  60.0817  60.2668
    60.5694  61.4257  61.7480  63.5708  64.9927  65.2950  66.1597  66.5501
    67.3126  68.3823  69.0644  69.9999  72.6640  73.6622  73.8267  74.5056
    75.2318  75.8152  76.0198  76.4755  79.0668  79.6628  80.0898  82.0734
    82.2827  82.7949  83.5035  83.8056  84.0770  84.9515  85.2792  85.5962
    86.1278  88.3785  88.5412  88.7310  89.2616  89.9415  90.0424  90.7936
    90.9881  92.2314  92.8889  93.6521  95.1209  96.3427  97.1667  97.7155
    98.3497  98.4835  98.6716  99.2690  99.5345  99.5973 100.0296 100.6968
   100.8318 101.2831 102.0488 102.1161 102.7312 103.1477 103.9159 104.2528
   104.3611 105.4673 106.0508 106.2447 106.8515 106.9837 108.8882 109.2965
   109.8425 110.2207 110.5851 111.0288 112.2778 112.6656 113.8077 114.1746
   114.3839 115.3266 115.8734 116.7061 117.2627 117.4259 117.9260 118.4122
   119.3319 119.4159 120.9045 121.7457 122.8344 123.0645 123.4263 123.9715
   123.9832 124.9321 125.1560 125.7335 126.6592 126.7228 127.6003 128.1947
   128.4314 128.8149 129.0027 129.7579 130.0471 130.4024 131.0558 131.3346
   131.5507 131.6382 131.6453 133.4431 133.4916 134.1790 134.4177 135.5714
   136.0799 136.3591 136.5188 137.1021 137.5486 138.0852 138.8267 139.0986
   139.5167 140.0501 140.4024 140.6248 141.3269 142.0850 143.0903 144.0705
   144.3877 145.2248 145.9624 146.5130 146.6960 147.5267 147.9266 148.0906
   148.5938 149.8083 150.0762 150.9528 151.1341 151.3680 153.0777 153.7917
   154.1511 154.4203 155.2246 155.5142 155.8239 156.5090 157.2988 158.0052
   158.0795 158.7565 158.8619 159.2114 160.5406 161.1755 161.8192 162.0236
   162.3731 162.7503 163.6748 163.9660 164.1039 164.6184 165.8097 166.1121
   167.6834 167.9629 168.0703 168.6816 169.2965 169.5828 170.4195 170.4386
   170.7007 170.8956 171.1097 171.9177 172.2200 172.8076 173.5892 173.6281
   173.9629 174.2766 174.3130 174.8308 175.3542 176.0192 176.6275 176.7775
   177.1133 177.7517 178.0632 178.6891 178.7848 179.7034 179.7299 180.3517
   180.7815 181.2445 181.4090 181.9512 182.1163 182.3516 183.4404 184.2401
   184.6991 184.9191 184.9838 185.8625 186.0175 186.4259 186.9890 187.0362
   187.5974 188.0490 188.4888 188.8469 189.4241 189.5863 189.9636 190.9332
   191.2323 191.8553 193.2251 193.4668 193.5672 193.8361 194.1777 194.6498
   194.8086 194.8691 196.0283 196.2770 196.2848 196.7213 197.2368 197.5130
   197.5252 198.0084 198.4927 198.8955 199.1406 199.2395 200.3844 200.5216
   201.1205 201.5027 201.7365 201.8582 202.7618 203.8480 204.5997 205.2787
   205.7242 205.9745 206.9732 207.0187 207.2189 207.5998 207.9129 208.5979
   209.4700 209.6233 209.8236 209.9609 211.3984 211.5735 211.7827 212.1013
   212.6087 212.6647 213.0882 213.4763 213.7706 214.4175 214.5972 214.8602
   215.3204 215.9930 216.0603 216.2910 216.6500 216.7965 217.2429 217.4712
   218.3081 218.6018 218.8466 219.1510 219.3076 219.3404 219.6139 220.6537
   220.6890 220.8669 221.1320 221.2688 221.9253 222.1723 222.7877 223.4140
   223.6867 223.8943 224.6619 224.6923 225.5020 225.5143 226.6849 227.2746
   227.6447 227.7966 228.3011 228.4320 228.9810 229.2936 230.0946 230.1058
   230.5343 230.7666 231.0782 231.3628 232.2074 232.8389 233.0070 233.5049
   233.7048 234.3039 234.6966 234.7771 235.0082 235.8836 236.4231 236.5502
   237.2309 237.6143 238.7335 238.8390 238.9817 239.7018 239.8554 240.1808
   240.8117 241.5679 242.0530 242.2614 242.6175 242.6408 242.7985 243.4072
   244.0616 244.6477 245.2404 245.5828 245.9335 246.2716 246.6358 246.7134
   247.3706 248.0728 248.7441 248.9254 249.1663 249.4492 249.5900 249.9815
   250.1582 250.7283 251.3131 251.6642 251.6893 252.8824 253.4718 254.0315
   254.6405 254.7927 255.4063 255.5865 256.2466 257.0508 257.2795 257.4619
   257.6730 258.0977 258.2492 258.4197 258.6644 259.0807 259.3055 259.3434
   260.4948 260.6025 261.2104 261.3618 262.0952 262.3286 262.6522 262.8185
   263.3203 263.3468 264.3536 264.6833 264.8775 265.3147 265.4560 266.3552
   266.3738 267.4238 267.7538 268.0079 268.0831 268.6020 268.8113 268.8537
   269.6625 269.8955 270.1604 270.9804 271.0354 271.9350 272.2511 272.7483
   273.3264 273.5057 273.7963 274.2743 274.7362 275.0696 275.4117 275.7907
   276.7247 276.7825 277.7261 278.3759 278.4092 278.9871 279.6129 279.8600
   280.0910 280.2116 281.3040 281.6717 281.7407 282.4326 282.5235 282.8656
   283.2479 283.6201 284.0977 284.5070 284.7235 284.8697 285.0642 285.4717
   285.6910 286.3142 286.8424 286.9658 287.4399 287.7088 287.9813 288.2890
   288.3702 288.8778 290.0871 290.0992 290.5915 290.9881 290.9881 292.0030
   292.0700 292.4116 293.2313 293.4353 293.5578 294.0071 294.3135 295.0866
   295.5206 295.5288 295.7715 296.6034 296.9898 297.2123 297.7890 298.1170
   298.3187 298.6442 298.7102 299.6116 300.0027 300.1212 300.3920 301.0401
   301.0650 301.4303 301.9858 302.0536 302.5659 302.5948 303.0124 303.3019
   303.5090 303.5480 303.8232 304.2384 304.6132 304.6500 305.4083 305.5043
   305.8381 305.9403 306.1173 306.2675 306.5587 306.7875 307.0230 307.1009
   307.6840 308.1080 308.4272 308.5349 308.6446 308.7605 309.3759 309.5799
   309.6534 309.8614 310.5581 310.8304 311.2675 311.8662 312.4162 312.4228
   312.6704 312.7553 313.4068 313.4935 313.5483 313.8547 313.9782 314.2160
   314.3697 314.6925 315.1037 315.3657 315.6008 315.7153 316.0503 316.3444
   316.3904 316.5463 316.8057 317.4908 317.5952 318.5013 318.8987 318.9314
   320.0962 320.5953 320.7086 320.8407 321.6890 321.7631 322.1156 322.6447
   322.9140 323.2399 323.9614 324.3885 324.7642 325.0831 325.8850 325.9935
   327.1333 327.2277 327.7781 327.9427 327.9734 328.5201 329.0063 329.3595
   329.9096 330.1100 330.2337 330.5410 330.6537 330.8439 331.5423 331.8569
   331.9509 332.4011 332.5794 333.1596 333.4583 333.6684 334.3880 334.9763
   335.0306 335.3045 335.6414 335.7227 336.4404 336.8191 336.9152 337.2430
   337.3643 337.4772 338.2236 338.3708 338.6972 339.3074 339.4060 340.1384
   340.3719 341.5371 341.7633 341.9247 342.3965 342.4726 342.9302 342.9666
   343.1008 343.4243 343.7277 343.9648 343.9739 344.3328 345.1122 345.1615
   345.1779 345.5756 346.2135 346.4423 346.6553 346.8157 346.9699 347.0782
   347.3939 347.5951 347.8518 347.8939 348.3727 348.5236 348.7180 349.3113
   349.3857 350.4472 350.4866 350.7852 350.9460 351.9733 352.2005 352.3645
   352.8426 353.1319 353.1421 353.5491 353.6656 354.0766 354.2203 354.6633
   354.9578 355.1870 355.4538 355.7591 355.7923 356.3108 356.4424 357.1600
   357.4225 357.6207 358.0013 358.2199 358.3534 359.2136 359.9869 360.1109
   360.6453 360.8549 361.1541 361.3275 361.6167 361.8080 363.3504 363.5559
   363.7541 364.6719 364.7610 365.2067 365.2752 365.4312 366.2093 366.3441
   366.9377 367.8396 367.9426 368.3445 368.8277 368.8475 369.0594 369.4082
   369.4881 370.0379 370.3555 370.4245 370.8968 371.0361 371.4451 371.5089
   371.7625 372.3082 372.5476 373.0169 373.1596 373.3903 373.8953 373.9502
   374.6091 374.8853 375.1110 375.1971 375.4440 375.5735 376.0098 376.2853
   376.5616 376.8620 377.2359 377.7998 378.0485 378.2536 378.2573 379.3128
   379.4881 379.5872 379.6706 380.6363 381.2256 381.6661 382.1150 382.3763
   382.3852 382.8761 382.9380 383.2299 383.7008 384.3474 384.3717 384.4749
   384.6740 384.8492 385.2333 385.4275 385.5988 386.3160 386.3710 387.1311
   387.2464 387.5918 387.6316 387.7479 387.8664 388.9841 389.2358 389.5256
   389.7677 390.3385 390.6869 390.8518 391.1665 391.6778 391.8576 392.0494
   392.3791 392.4713 392.6831 392.9995 393.0206 393.5795 393.8139 393.8164
   393.9502 394.4552 394.5576 394.8979 395.3468 395.7134 395.7337 397.0169
   397.1450 397.1821 397.4777 397.6544 397.9608 398.0182 398.4456 398.5507
   398.5928 398.6482 399.6654 399.8056 399.8473 400.4665 400.4748 400.7270
   400.9474 401.9249 401.9747 402.3915 402.7184 402.9809 403.5563 403.8761
   404.8384 404.9981 405.2748 405.3626 405.5292 405.7175 406.3006 406.3327
   406.6908 406.7243 408.2722 408.3410 408.3996 408.7292 409.1744 409.3471
   409.8044 410.0312 410.3122 410.7081 411.9934 412.0120 412.8071 412.9306
   413.0546 413.2319 413.3300 413.5620 414.0016 414.0290 414.4387 414.6800
   414.9653 415.1767 415.4206 415.9785 416.4780 417.0907 417.1593 417.8773
   418.1717 418.4204 418.4418 418.5867 419.2820 420.3055 420.3470 420.5820
   421.0950 421.2815 421.4997 422.2368 422.4194 422.5044 422.8113 423.3287
   423.4479 423.9289 423.9294 424.6310 424.8380 425.2160 425.6288 425.9338
   426.3797 426.4707 426.7852 426.8313 427.3539 427.6142 428.3852 428.4324
   428.6895 428.8957 429.5093 429.8438 429.8499 430.3461 430.7527 431.0386
   431.2640 431.6359 431.8021 432.0326 432.0767 432.2461 432.2613 432.3822
   433.1206 433.2645 433.5494 433.9852 434.0402 434.4359 434.9328 435.4803
   435.7156 435.7336 435.8894 436.1985 436.5313 436.8722 436.9875 437.0624
   437.2775 437.3650 437.7457 437.9077 438.3289 439.6796 439.6896 440.2039
   440.2663 440.4647 440.8060 441.1888 441.3680 441.4375 441.6951 442.2573
   442.2831 442.7730 443.0519 443.2164 443.5771 443.8314 444.3582 444.7639
   444.8041 445.1067 445.1523 445.5277 445.8253 446.0031 446.0078 446.0885
   446.2272 447.0308 447.1153 447.9165 448.2151 448.4101 448.7242 449.0622
   449.4916 449.9232 450.3240 450.9108 451.1395 451.5487 452.1260 452.2828
   452.6148 453.0390 453.4978 453.6175 453.7310 453.9170 454.0525 454.4027
   454.7004 454.7891 454.7946 455.1749 455.3860 455.4675 455.6571 455.7592
   455.9283 456.1504 456.3550 456.4995 456.5409 456.8073 457.1600 457.5859
   458.2503 458.3476 458.4494 458.7836 459.1051 459.5779 459.7305 460.1718
   460.3194 460.5032 460.6357 460.9809 461.0925 461.2343 461.3370 461.8673
   462.2339 462.3864 462.5324 462.6974 463.0838 463.6223 463.8100 464.0697
   464.3537 464.5837 465.3088 465.5298 465.7709 466.4184 466.7445 467.0362
   467.1788 467.4103 467.6228 467.7493 468.2378 468.3896 468.4229 468.6022
   468.7533 469.3876 469.9463 470.2989 470.3474 470.5005 471.0540 471.5706
   471.8311 471.8957 472.5617 472.6429 472.7950 473.3892 473.5334 473.9107
   474.2562 474.3903 474.4159 474.8519 474.8733 475.0520 475.2580 475.4601
   475.4672 475.7903 476.1350 476.2632 476.6478 476.9179 476.9708 477.2556
   477.5094 477.5755 477.7954 477.9416 477.9791 478.2514 478.4393 478.5111
   479.1691 479.2778 479.5199 479.7823 479.9103 480.1860 480.9577 481.5792
   481.6132 481.7873 481.8141 482.1395 482.1736 482.4185 482.7072 482.8091
   482.9789 483.1336 483.3224 483.4581 483.6344 483.8299 484.0379 484.0834
   484.9244 485.4035 485.7651 486.3299 486.8761 487.0755 487.3559 487.5302
   487.8433 488.1887 488.3417 488.4526 488.6653 488.7043 488.7367 489.0499
   489.3845 489.5041 489.8083 490.2728 490.5370 491.1526 491.6158 492.1035

          k = 0.2500 0.4330-0.3100 (  3506 PWs)   bands (ev):

  -113.3556-113.3556 -67.5648 -67.5648 -67.5635 -67.5635 -67.5630 -67.5630
    -7.1128  -7.1128   4.1891   4.1891   4.6736   4.6736   4.9327   4.9327
     5.6451   5.6451   5.8644   5.8644   6.6802   6.6802   7.9095   7.9095
     8.8361   8.8361  16.6448  16.6448  18.9930  18.9930  20.0403  20.0404
    24.5505  24.5505  26.9608  26.9608  30.2157  30.2157  33.6268  33.6268
    35.6080  35.6080  37.9953  37.9953  40.9016  40.9016  41.5693  41.5693
    43.5452  43.5452  44.6056  44.6056  46.8093  46.8093  48.5818  48.5818
    49.4805  49.4805  50.9395  50.9395  53.4776  53.4776  54.6798  54.6798
    55.4873  55.4873  57.1028  57.1028  59.3866  59.3866  61.2285  61.2285
    62.4264  62.4264  63.7273  63.7273  65.9362  65.9362  67.2153  67.2153
    68.6127  68.6127  69.9840  69.9840  72.9066  72.9066  74.4306  74.4306
    75.7750  75.7750  76.9423  76.9423  79.9983  79.9983  80.6983  80.6983
    81.4555  81.4555  82.9183  82.9183  85.1363  85.1363  85.5238  85.5238
    86.0452  86.0452  88.5274  88.5274  88.8440  88.8440  89.5326  89.5326
    91.5298  91.5298  92.2550  92.2550  93.3589  93.3589  95.2862  95.2862
    96.5457  96.5457  98.5265  98.5265  99.0399  99.0399 100.4831 100.4831
   100.9621 100.9621 104.1974 104.1974 105.6086 105.6086 106.7509 106.7509
   107.4448 107.4448 108.3826 108.3826 108.4946 108.4946 109.8323 109.8323
   110.8025 110.8025 111.6671 111.6671 112.0270 112.0270 114.9416 114.9416
   115.8420 115.8420 116.3447 116.3447 117.3890 117.3890 118.4140 118.4140
   119.5168 119.5168 120.0226 120.0226 120.8513 120.8513 121.6058 121.6058
   122.3970 122.3970 123.3039 123.3039 124.4086 124.4086 125.5828 125.5828
   127.3433 127.3433 128.2428 128.2428 129.8427 129.8427 130.8822 130.8822
   131.7998 131.7998 133.6898 133.6898 134.8419 134.8419 135.7004 135.7004
   137.2211 137.2211 138.1932 138.1932 139.4236 139.4236 139.9175 139.9175
   141.0275 141.0275 141.8368 141.8368 143.1067 143.1067 143.6587 143.6587
   145.4518 145.4518 146.3252 146.3252 146.6438 146.6438 148.0279 148.0279
   149.2159 149.2159 150.1295 150.1295 151.2948 151.2948 152.6246 152.6246
   153.1839 153.1839 154.3691 154.3691 155.4921 155.4921 156.8997 156.8997
   158.3720 158.3720 159.1053 159.1053 160.5296 160.5296 161.9814 161.9814
   162.7716 162.7716 163.9289 163.9289 164.5426 164.5426 165.4224 165.4224
   166.4400 166.4401 166.6877 166.6877 168.4553 168.4553 169.6538 169.6538
   170.3832 170.3832 171.7931 171.7931 173.1429 173.1429 173.5779 173.5779
   174.3242 174.3242 175.3954 175.3954 176.4525 176.4525 176.6636 176.6636
   177.4282 177.4282 178.5331 178.5331 178.8782 178.8782 180.2629 180.2629
   181.0230 181.0230 183.0534 183.0534 184.2877 184.2877 184.9471 184.9471
   186.1951 186.1951 187.0082 187.0082 187.8422 187.8422 188.0703 188.0703
   188.7770 188.7770 189.2972 189.2972 189.7833 189.7833 190.8533 190.8533
   191.5681 191.5682 192.8164 192.8164 193.3604 193.3604 194.0944 194.0944
   194.5966 194.5966 194.9138 194.9138 195.9275 195.9275 197.7443 197.7443
   198.2859 198.2859 199.0780 199.0780 200.4669 200.4669 200.8561 200.8561
   201.6005 201.6005 203.1531 203.1531 203.4818 203.4818 204.7100 204.7100
   205.3972 205.3972 206.2469 206.2469 206.3770 206.3770 207.2643 207.2643
   208.1071 208.1071 208.5984 208.5984 209.0926 209.0926 210.0807 210.0807
   211.0525 211.0525 211.3077 211.3077 212.8572 212.8572 213.2246 213.2246
   214.0065 214.0065 215.4188 215.4188 216.2581 216.2581 216.8205 216.8205
   217.1574 217.1574 217.8166 217.8166 218.3901 218.3901 219.3190 219.3190
   219.8334 219.8334 220.5990 220.5990 221.3929 221.3929 222.1591 222.1591
   223.0502 223.0502 224.5437 224.5437 226.4195 226.4195 227.7786 227.7786
   228.4039 228.4039 229.4710 229.4710 230.4078 230.4078 231.8577 231.8577
   232.5421 232.5421 233.4815 233.4815 234.4640 234.4640 235.6113 235.6113
   236.0526 236.0526 236.8166 236.8166 237.7100 237.7100 238.0641 238.0641
   238.6964 238.6964 239.4591 239.4591 240.0122 240.0122 240.6977 240.6977
   241.1456 241.1456 242.0803 242.0803 242.6544 242.6544 243.7220 243.7220
   244.4195 244.4195 244.6725 244.6725 245.6336 245.6336 246.4618 246.4618
   247.7802 247.7802 248.2791 248.2791 248.7402 248.7402 249.4013 249.4013
   250.5926 250.5926 251.0857 251.0857 251.8474 251.8474 253.3878 253.3878
   254.4661 254.4661 255.3652 255.3652 256.1100 256.1100 257.3746 257.3746
   258.0463 258.0463 259.0378 259.0378 259.4955 259.4955 260.1605 260.1605
   260.6878 260.6878 261.1355 261.1355 262.5901 262.5901 263.5080 263.5080
   264.0987 264.0987 264.8582 264.8582 266.0769 266.0769 266.7328 266.7328
   267.7044 267.7044 268.4913 268.4913 269.4603 269.4603 269.9235 269.9235
   270.7313 270.7313 271.1858 271.1858 272.1343 272.1344 272.9616 272.9616
   273.4950 273.4950 273.9761 273.9761 274.5024 274.5024 275.3011 275.3011
   275.9597 275.9597 276.4104 276.4104 276.7629 276.7629 277.8080 277.8080
   278.3799 278.3799 278.6682 278.6682 279.7174 279.7174 280.7106 280.7106
   281.6748 281.6748 282.4372 282.4372 282.9533 282.9533 284.1074 284.1074
   285.0558 285.0558 285.6236 285.6236 285.9120 285.9120 286.7999 286.7999
   287.3955 287.3955 288.2301 288.2301 289.6503 289.6503 290.4944 290.4944
   291.1865 291.1865 291.8316 291.8316 292.8341 292.8341 293.8405 293.8405
   294.4871 294.4871 295.7579 295.7579 296.0240 296.0240 296.9853 296.9853
   297.2408 297.2408 297.8459 297.8459 298.5791 298.5791 300.2279 300.2279
   300.8763 300.8763 301.9717 301.9717 302.3914 302.3914 303.0806 303.0806
   303.6578 303.6578 304.0643 304.0643 304.8883 304.8883 305.6275 305.6275
   305.9825 305.9825 306.6939 306.6939 307.5083 307.5083 307.8915 307.8915
   308.5260 308.5260 309.0370 309.0370 310.9994 310.9994 311.7568 311.7568
   311.9686 311.9686 312.7575 312.7575 313.4238 313.4238 313.9014 313.9014
   315.2664 315.2664 315.4819 315.4819 316.4686 316.4686 316.9338 316.9338
   317.4725 317.4725 318.0948 318.0948 318.4496 318.4496 319.2352 319.2352
   319.6310 319.6310 320.2823 320.2823 320.5739 320.5739 321.2786 321.2786
   321.9600 321.9600 322.6184 322.6184 323.1208 323.1208 324.1025 324.1025
   324.9176 324.9176 325.6592 325.6592 325.9840 325.9840 326.7182 326.7182
   327.2328 327.2328 327.7220 327.7220 328.8776 328.8776 329.3307 329.3307
   329.7124 329.7124 330.1818 330.1818 331.1508 331.1508 331.4116 331.4116
   331.6321 331.6321 332.7937 332.7937 333.4561 333.4561 334.0990 334.0990
   335.0481 335.0481 335.5030 335.5030 335.6701 335.6701 336.6305 336.6305
   337.0588 337.0588 337.7687 337.7687 338.5702 338.5702 339.2471 339.2471
   339.7490 339.7490 340.0771 340.0771 340.5970 340.5970 341.4776 341.4776
   341.9993 341.9993 342.2518 342.2518 343.0843 343.0843 343.5228 343.5228
   343.6843 343.6843 344.4514 344.4514 344.7099 344.7099 345.2477 345.2477
   346.7852 346.7852 347.4555 347.4555 348.0151 348.0151 348.5026 348.5026
   349.5335 349.5335 349.8815 349.8815 350.3269 350.3269 350.7758 350.7758
   352.2735 352.2735 352.6563 352.6563 353.3193 353.3193 354.0881 354.0881
   354.7331 354.7331 355.4288 355.4288 356.4884 356.4884 357.3564 357.3564
   357.4854 357.4854 358.4322 358.4322 358.7535 358.7535 359.3464 359.3464
   360.2203 360.2203 360.6488 360.6488 360.9374 360.9374 361.9406 361.9406
   362.8208 362.8208 363.1115 363.1115 363.5775 363.5775 364.0483 364.0483
   364.9567 364.9567 365.1118 365.1118 365.7670 365.7670 366.2687 366.2687
   367.1310 367.1310 367.7071 367.7071 368.8214 368.8214 369.5517 369.5517
   370.7884 370.7884 371.2076 371.2076 372.7136 372.7136 373.2150 373.2150
   374.0605 374.0605 374.4918 374.4918 375.6108 375.6109 375.9704 375.9704
   376.8022 376.8022 377.4469 377.4469 378.2391 378.2391 378.5159 378.5159
   379.0974 379.0974 379.3912 379.3912 380.3061 380.3061 381.2145 381.2145
   382.4518 382.4518 382.9369 382.9369 383.9484 383.9484 384.3662 384.3662
   385.1724 385.1724 385.5539 385.5539 386.5007 386.5007 386.8417 386.8417
   387.4268 387.4268 389.2473 389.2473 390.4478 390.4478 391.2690 391.2690
   391.9871 391.9871 392.9381 392.9381 394.2912 394.2912 394.6240 394.6240
   395.2862 395.2862 395.4942 395.4942 396.4411 396.4411 396.7308 396.7308
   397.8681 397.8681 398.2497 398.2497 398.7527 398.7527 399.7040 399.7040
   400.3064 400.3064 400.8027 400.8027 401.8541 401.8541 402.5006 402.5006
   402.7793 402.7793 403.1269 403.1270 403.6122 403.6123 403.9452 403.9452
   404.1925 404.1925 404.6915 404.6915 405.3164 405.3164 406.3042 406.3042
   407.1664 407.1664 407.2756 407.2756 407.6282 407.6282 408.1107 408.1107
   408.8661 408.8661 409.5964 409.5964 410.2184 410.2184 410.8124 410.8124
   411.7443 411.7443 412.4160 412.4160 412.8181 412.8181 413.1179 413.1179
   413.7509 413.7509 414.3037 414.3037 414.7590 414.7590 415.3121 415.3121
   415.8224 415.8224 416.3134 416.3134 416.5826 416.5826 416.8425 416.8425
   417.5521 417.5521 417.8438 417.8438 418.4488 418.4488 418.9044 418.9044
   419.6891 419.6891 419.8543 419.8543 420.4849 420.4849 420.6221 420.6221
   421.2145 421.2145 421.4465 421.4465 422.9225 422.9225 423.4213 423.4213
   424.4303 424.4303 425.2154 425.2154 425.3748 425.3748 426.2998 426.2998
   426.7698 426.7698 427.3186 427.3187 427.7137 427.7137 428.5293 428.5293
   429.0452 429.0452 429.4301 429.4301 429.8186 429.8186 430.2564 430.2564
   430.4596 430.4596 430.6040 430.6040 431.0689 431.0689 431.4473 431.4473
   432.1217 432.1217 432.5806 432.5806 433.6403 433.6403 435.2438 435.2438
   436.2848 436.2848 437.3126 437.3126 437.9901 437.9901 438.8543 438.8543
   438.9720 438.9720 439.3212 439.3212 440.1188 440.1188 440.5979 440.5979
   441.0482 441.0482 441.5304 441.5304 442.0128 442.0128 442.5656 442.5656
   443.4077 443.4077 444.4328 444.4328 445.0621 445.0621 445.6715 445.6715
   445.9583 445.9583 446.4736 446.4736 447.5046 447.5047 447.8785 447.8785
   448.8081 448.8081 449.2294 449.2294 449.6295 449.6295 450.2371 450.2371
   450.4912 450.4912 451.1103 451.1103 451.6435 451.6435 452.2760 452.2760
   452.7030 452.7030 453.5295 453.5295 454.6913 454.6913 455.2018 455.2018
   455.7316 455.7316 456.4434 456.4434 457.2921 457.2921 457.3877 457.3877
   458.4745 458.4745 459.1015 459.1015 459.6315 459.6315 460.3717 460.3717
   460.7766 460.7766 461.7925 461.7925 462.7522 462.7522 463.5436 463.5436
   463.9406 463.9406 464.3921 464.3921 464.7715 464.7715 465.8234 465.8234
   466.9263 466.9263 467.5092 467.5092 468.0239 468.0239 468.5069 468.5069
   469.1735 469.1735 469.5973 469.5973 469.8841 469.8841 471.0507 471.0507
   471.5098 471.5098 472.1095 472.1095 472.3862 472.3863 472.7114 472.7114
   473.1916 473.1916 473.5617 473.5617 474.0903 474.0903 474.3348 474.3348
   474.6112 474.6112 475.3641 475.3641 475.9112 475.9112 476.1213 476.1213
   476.3625 476.3625 476.8088 476.8088 476.9945 476.9945 477.2195 477.2195
   477.7378 477.7378 478.7671 478.7671 479.9397 479.9397 480.1798 480.1798
   480.7371 480.7371 480.9834 480.9834 481.6822 481.6822 482.6008 482.6008
   483.6581 483.6581 483.8665 483.8665 484.2151 484.2151 484.6602 484.6602
   485.2749 485.2749 485.5318 485.5318 485.9131 485.9131 486.0127 486.0127
   486.7718 486.7718 487.1347 487.1347 487.3113 487.3113 487.6455 487.6455
   488.5706 488.5706 488.9098 488.9098 489.5838 489.5838 490.1014 490.1014
   490.3136 490.3136 491.1612 491.1612 491.7603 491.7603 492.2339 492.2339

     the Fermi energy is    10.4945 ev
     (compare with:    10.5616 eV, computed in scf)

     Writing all to output data dir out/mp-2133.save/
 
     init_run     :      0.07s CPU      0.10s WALL (       1 calls)
     electrons    :    959.86s CPU   1034.24s WALL (       1 calls)

     Called by init_run:
     wfcinit      :      0.00s CPU      0.00s WALL (       1 calls)
     potinit      :      0.01s CPU      0.01s WALL (       1 calls)
     hinit0       :      0.03s CPU      0.05s WALL (       1 calls)

     Called by electrons:
     c_bands      :    959.86s CPU   1034.24s WALL (       1 calls)
     v_of_rho     :      0.01s CPU      0.01s WALL (       1 calls)

     Called by c_bands:
     init_us_2    :      0.00s CPU      0.00s WALL (       8 calls)
     init_us_2:cp :      0.00s CPU      0.00s WALL (       8 calls)
     cegterg      :    940.08s CPU   1013.26s WALL (       8 calls)

     Called by *egterg:
     cdiaghg      :    886.51s CPU    958.71s WALL (      86 calls)
     h_psi        :     12.75s CPU     13.28s WALL (      94 calls)
     g_psi        :      0.11s CPU      0.11s WALL (      78 calls)

     Called by h_psi:
     h_psi:calbec :      0.43s CPU      0.46s WALL (      94 calls)
     vloc_psi     :     11.85s CPU     12.34s WALL (      94 calls)
     add_vuspsi   :      0.37s CPU      0.37s WALL (      94 calls)

     General routines
     calbec       :      0.43s CPU      0.46s WALL (      94 calls)
     fft          :      0.01s CPU      0.03s WALL (      10 calls)
     fftw         :     10.49s CPU     10.92s WALL (  121900 calls)
 
     Parallel routines
 
     PWSCF        :  16m 0.84s CPU  17m15.96s WALL

 
   This run was terminated on:  22:12:55  18Nov2023            

=------------------------------------------------------------------------------=
   JOB DONE.
=------------------------------------------------------------------------------=
