
     Program PWSCF v.7.1 starts on 18Nov2023 at 20: 6:55 

     This program is part of the open-source Quantum ESPRESSO suite
     for quantum simulation of materials; please cite
         "P. Giannozzi et al., J. Phys.:Condens. Matter 21 395502 (2009);
         "P. Giannozzi et al., J. Phys.:Condens. Matter 29 465901 (2017);
         "P. Giannozzi et al., J. Chem. Phys. 152 154105 (2020);
          URL http://www.quantum-espresso.org", 
     in publications or presentations arising from this work. More details at
     http://www.quantum-espresso.org/quote

     Parallel version (MPI), running on     8 processors

     MPI processes distributed on     1 nodes
     123585 MiB available memory on the printing compute node when the environment starts
 
     Reading input from pw_mp-2133_nscf_k0_E75.in
Warning: card &IONS ignored
Warning: card / ignored
Warning: card &CELL ignored
Warning: card / ignored

     Current dimensions of program PWSCF are:
     Max number of different atomic species (ntypx) = 10
     Max number of k-points (npk) =  40000
     Max angular momentum in pseudopotentials (lmaxx) =  4

     Atomic positions and unit cell read from directory:
     out/mp-2133.save/
     Atomic positions from file used, from input discarded
 
 
     R & G space division:  proc/nbgrp/npool/nimage =       8
     Subspace diagonalization in iterative solution of the eigenvalue problem:
     one sub-group per band group will be used
     scalapack distributed-memory algorithm (size of sub-group:  2*  2 procs)

 
     Parallelization info
     --------------------
     sticks:   dense  smooth     PW     G-vecs:    dense   smooth      PW
     Min          96      96     24                 3506     3506     434
     Max          97      97     25                 3509     3509     439
     Sum         769     769    199                28063    28063    3501
 
     Using Slab Decomposition
 


     bravais-lattice index     =            4
     lattice parameter (alat)  =       6.1177  a.u.
     unit-cell volume          =     319.8517 (a.u.)^3
     number of atoms/cell      =            4
     number of atomic types    =            2
     number of electrons       =        52.00
     number of Kohn-Sham states=         1200
     kinetic-energy cutoff     =      75.0000  Ry
     charge density cutoff     =     300.0000  Ry
     Exchange-correlation= PBE
                           (   1   4   3   4   0   0   0)

     celldm(1)=   6.117706  celldm(2)=   0.000000  celldm(3)=   1.613066
     celldm(4)=   0.000000  celldm(5)=   0.000000  celldm(6)=   0.000000

     crystal axes: (cart. coord. in units of alat)
               a(1) = (   1.000000   0.000000   0.000000 )  
               a(2) = (  -0.500000   0.866025   0.000000 )  
               a(3) = (   0.000000   0.000000   1.613066 )  

     reciprocal axes: (cart. coord. in units 2 pi/alat)
               b(1) = (  1.000000  0.577350  0.000000 )  
               b(2) = (  0.000000  1.154701  0.000000 )  
               b(3) = (  0.000000  0.000000  0.619937 )  


     PseudoPot. # 1 for O  read from file:
     /usr/scratch4/magr4985/MG/HTDF/pseudo/SG15/O.upf
     MD5 check sum: e36c48deb68f4e355fffe4602be2c42c
     Pseudo is Norm-conserving, Zval =  6.0
     Generated using ONCVPSP code by D. R. Hamann
     Using radial grid of  602 points,  4 beta functions with: 
                l(1) =   0
                l(2) =   0
                l(3) =   1
                l(4) =   1

     PseudoPot. # 2 for Zn read from file:
     /usr/scratch4/magr4985/MG/HTDF/pseudo/SG15/Zn.upf
     MD5 check sum: 732f41c0cd6489a4b50a33b4ec99a2d3
     Pseudo is Norm-conserving, Zval = 20.0
     Generated using ONCVPSP code by D. R. Hamann
     Using radial grid of  602 points,  6 beta functions with: 
                l(1) =   0
                l(2) =   0
                l(3) =   1
                l(4) =   1
                l(5) =   2
                l(6) =   2

     atomic species   valence    mass     pseudopotential
        O              6.00    15.99940     O ( 1.00)
        Zn            20.00    65.40900     Zn( 1.00)

      6 Sym. Ops. (no inversion) found



   Cartesian axes

     site n.     atom                  positions (alat units)
         1           Zn  tau(   1) = (   0.0000000   0.5773502   0.8074876  )
         2           Zn  tau(   2) = (   0.5000000   0.2886752   0.0009545  )
         3           O   tau(   3) = (   0.0000000   0.5773502   1.4190439  )
         4           O   tau(   4) = (   0.5000000   0.2886752   0.6125108  )

     number of k points=     1  Gaussian smearing, width (Ry)=  0.0005
                       cart. coord. in units 2pi/alat
        k(    1) = (   0.0000000   0.0000000   0.0000000), wk =   2.0000000

     Dense  grid:    28063 G-vectors     FFT dimensions: (  36,  36,  60)

     Estimated max dynamical RAM per process >     111.39 MB

     Estimated total dynamical RAM >     891.10 MB

     The potential is recalculated from file :
     out/mp-2133.save/charge-density

     Starting wfcs are random

     Band Structure Calculation
     Davidson diagonalization with overlap

     ethr =  5.00E-06,  avg # of iterations =  6.0

     total cpu time spent up to now is      138.5 secs

     End of band structure calculation

          k = 0.0000 0.0000 0.0000 (  3501 PWs)   bands (ev):

  -113.3558-113.3556 -67.5656 -67.5627 -67.5627 -67.5624 -67.5621 -67.5621
    -7.9240  -7.1959   4.3687   4.3687   4.4149   4.4960   4.5607   4.5607
     5.5224   5.5224   5.7319   5.7319   6.0233   9.3229   9.3229  10.0282
    10.1133  10.1133  10.9807  15.4374  18.3691  23.1301  23.1301  24.2013
    24.3950  24.3950  26.7572  28.3997  28.3997  30.0817  30.0817  30.1497
    31.4470  33.4063  35.0811  35.0811  37.6903  38.6576  38.6576  39.0058
    41.3676  41.3676  44.7425  44.7425  45.4477  47.0392  47.0392  49.3634
    49.3634  51.1119  52.2533  54.2904  57.2017  58.5055  58.5055  60.2884
    60.4827  60.7408  61.1913  61.1913  62.8340  62.8340  64.6411  65.6523
    66.0355  66.0355  66.3262  66.6883  66.6883  67.4700  67.4700  70.1124
    70.1124  70.1348  71.3788  71.3788  73.2915  73.2915  74.1868  74.2402
    74.8964  74.8964  77.5768  77.5768  77.7149  78.1692  78.1692  78.6338
    79.8111  79.8584  80.3420  80.6273  80.6273  80.6983  80.6983  80.7203
    81.6518  81.6518  83.4459  83.6138  83.6138  84.3838  85.8958  85.8958
    87.7639  88.6834  89.0944  89.0944  89.3529  89.3529  90.7626  95.7656
    95.7656  96.7875  96.7875  97.6260  97.8654  98.7768 100.1978 100.8565
   100.8565 101.9619 103.6682 103.6682 104.4013 104.4672 104.4672 104.6969
   104.6969 105.7394 105.7394 107.0152 107.0152 107.2430 107.3169 107.6224
   107.6224 107.7880 109.8037 109.8037 110.0473 110.0473 111.4739 111.4739
   114.7243 117.4852 117.6938 117.6938 119.8376 122.0028 123.1089 123.1089
   124.1578 124.1578 125.8876 125.8876 126.1456 126.4213 126.7131 127.5659
   127.9789 128.4969 128.8453 128.8453 129.4421 129.4421 129.6094 130.9134
   131.9917 131.9917 132.9061 134.7164 135.2006 135.2006 136.4295 136.4295
   137.2202 137.2202 137.9705 138.1526 138.3647 138.8847 138.8847 140.1154
   140.6762 140.6762 140.9296 140.9296 142.2446 142.4818 142.4818 142.8625
   143.1564 143.1564 143.2059 143.9400 143.9400 143.9459 144.0564 144.0564
   145.7337 145.7337 146.1915 146.1915 146.4531 146.5223 147.9175 147.9175
   148.7737 148.9756 148.9756 151.5186 152.1705 153.2640 153.6015 153.6015
   153.7812 154.1519 154.1519 154.2490 155.6154 155.6154 156.0433 156.0433
   156.5746 156.5746 156.7707 157.3519 157.3519 157.4096 157.4096 157.8970
   158.0500 158.0500 158.4026 159.6672 159.6672 160.2152 161.4475 161.4475
   161.5058 162.3094 163.4918 163.4918 163.6004 163.7824 163.7825 163.9301
   163.9301 166.3842 166.5331 166.5331 167.1228 167.7072 169.5262 169.5262
   170.4067 170.8204 171.5706 171.5706 172.7240 172.7240 173.0332 173.6509
   173.6509 174.2760 176.5864 176.5864 177.1059 177.1059 177.3882 177.5296
   179.0435 179.5128 179.8179 179.8179 180.6807 180.6807 180.8216 181.3184
   181.3184 181.3256 182.2589 182.2589 183.1395 183.9574 183.9574 184.5115
   184.7309 184.7309 185.2313 185.3587 186.6649 186.6649 187.1212 187.1212
   189.8697 190.9057 191.2267 191.2267 191.6014 192.3670 192.3670 192.4518
   192.7560 192.7560 193.7396 193.7396 194.1951 194.3775 194.3969 194.3969
   195.6539 195.6539 196.0079 196.0289 197.5023 197.5023 199.4463 203.2325
   203.2325 203.3081 203.3081 203.3344 206.4126 206.8027 206.8027 208.3779
   211.0538 211.0538 211.0888 211.5340 211.8051 211.8051 212.4462 212.4463
   214.0442 214.0442 214.4396 214.5787 214.5787 214.7732 214.7732 214.9121
   214.9121 215.7528 216.3719 216.6295 216.6295 216.9245 217.2974 217.6126
   218.0800 218.0800 218.2114 218.5595 218.5595 218.6371 219.6912 219.6912
   220.4211 220.4211 220.9797 220.9797 221.0330 221.0330 221.1572 221.9341
   222.2766 222.2766 223.0238 223.0238 223.2136 223.6845 223.9963 224.0285
   224.3448 225.3085 225.3085 226.3592 226.3592 227.0988 227.0988 228.4968
   228.4968 228.8844 229.9084 229.9084 230.0632 230.0632 232.2358 232.4138
   233.8103 236.0203 236.1773 236.5988 236.5988 239.1487 239.1487 240.3641
   240.3641 241.4758 241.6027 241.6124 242.1541 244.1966 244.1966 244.8963
   245.0533 245.0533 245.6646 245.6646 245.8060 245.8060 245.8221 245.8980
   246.7098 247.5724 247.5724 247.9642 248.4396 248.4396 249.1922 249.1922
   249.2496 249.2496 249.6084 249.6625 249.9890 250.8291 250.8291 251.2137
   251.2137 251.9776 251.9776 252.0804 252.3813 252.4166 252.8206 252.8206
   252.8210 253.1666 253.1666 253.4465 253.4465 254.7719 254.7719 255.9101
   255.9101 256.1158 256.2991 256.2991 256.3148 256.4934 256.5163 256.5688
   257.2876 257.2876 257.4065 257.5388 257.5388 257.6179 258.3922 258.4936
   258.4936 259.9514 259.9514 260.4542 260.4542 261.7445 261.7445 262.5638
   263.3632 263.5476 263.5476 263.6703 263.6703 264.2486 265.1806 265.5065
   265.5065 266.6036 267.1915 267.1915 267.6306 267.8203 267.8246 268.0318
   268.1270 268.1270 268.6344 269.0621 269.2492 269.2493 269.8107 269.8107
   270.3379 271.0578 271.1909 271.1909 271.2658 271.2658 271.4564 271.9503
   271.9503 272.0740 272.0740 272.2373 272.3323 272.3323 272.5262 272.5679
   272.5679 273.4447 273.6975 273.7295 273.7295 274.0003 274.0003 274.2340
   274.2340 274.4471 274.5629 274.5629 275.1119 275.6655 275.8508 275.8508
   275.8827 275.8827 276.5051 276.6942 276.6942 276.9128 278.3874 281.2994
   281.2994 282.0671 283.5570 283.5570 284.6945 284.7577 284.7577 285.5629
   285.5630 287.8084 287.8084 288.8202 289.1946 289.3604 289.3604 290.0587
   290.4360 290.4360 291.3992 291.3992 292.7125 295.4690 295.4781 295.4781
   295.6257 295.9072 296.4178 296.4178 296.5831 296.7636 296.7636 297.3696
   297.3696 298.1684 298.1684 298.6845 298.6845 299.0020 299.1641 299.6423
   299.6423 299.6690 300.4196 300.5257 300.5257 301.3562 301.3562 301.9656
   303.4413 303.5144 303.5144 303.5650 303.5650 304.8793 305.7134 306.0218
   306.0218 306.0834 306.4641 307.7323 307.7323 309.2558 309.2558 309.4441
   309.6984 311.4625 311.4625 311.8615 311.8615 312.1799 312.1799 312.4335
   312.5646 312.5646 313.2603 313.2603 313.2670 313.4686 313.7952 316.4905
   317.3613 319.3712 319.3712 319.6080 319.6080 321.4717 321.4717 321.5157
   321.8273 321.8273 322.2288 322.2288 322.3752 323.2211 323.2211 323.5671
   323.5671 324.0807 324.0807 324.2741 324.8490 325.1240 325.2378 325.2578
   325.4895 325.4895 326.3083 327.1489 327.1489 327.8772 327.8772 328.4692
   328.6044 328.6044 328.8144 329.6728 329.6728 330.5247 330.5446 331.2041
   331.2041 331.2367 331.2367 331.8777 331.8777 332.0564 332.6202 333.0678
   333.4773 333.4773 333.6234 333.6234 334.0297 334.0297 334.4732 334.4732
   334.5660 334.5696 334.5872 334.8050 334.9652 335.5386 335.5386 336.3147
   336.9774 336.9774 337.5759 337.6547 337.6699 337.6699 338.3568 338.3568
   339.9118 339.9118 340.4015 342.1376 342.1376 342.8997 342.8997 343.5194
   344.0634 344.4695 344.4695 345.4088 345.4088 345.7401 345.7401 346.6431
   348.0936 348.2477 348.3694 348.3694 348.4445 348.4445 350.3228 350.8405
   351.1120 351.1120 351.4884 351.9309 352.7601 352.9018 352.9018 354.6515
   354.7364 355.8824 355.8824 357.0444 357.0444 357.2869 357.2869 357.8824
   357.8824 358.4779 358.4779 359.3163 359.8298 360.0821 360.5493 360.9274
   360.9274 361.4552 361.7791 361.8381 361.8381 362.7275 362.7275 362.7307
   363.7219 364.5741 364.5741 364.6151 365.1237 365.1237 366.6202 366.6203
   366.7618 366.8351 366.8351 367.0421 367.0663 367.0663 367.4933 367.7333
   367.7333 367.8173 367.8173 368.0752 368.0752 368.1495 368.1839 369.7578
   369.7578 369.8978 370.6472 371.3712 371.3712 371.4762 371.4762 371.7735
   371.9059 371.9059 372.0075 372.7242 372.7242 372.9723 372.9723 373.6861
   374.6037 374.6037 375.2550 375.2550 375.4008 377.0061 377.0061 377.7884
   378.6113 378.9078 379.0545 379.0545 379.1979 379.1979 380.9866 381.1001
   381.1001 381.3352 381.5106 381.8223 381.9681 381.9681 382.2284 382.3788
   384.0157 384.0157 384.4421 384.4421 384.7208 384.7208 384.7285 384.8712
   385.2512 385.2512 386.0944 386.1482 386.1482 386.2425 386.2425 386.6424
   386.8441 386.8441 387.1036 387.2550 387.2550 387.4324 387.4511 387.7510
   387.7510 388.1197 388.1197 388.6716 388.6716 389.5408 389.5677 389.5677
   389.7128 390.3082 391.1502 391.1502 391.5455 391.9112 392.2859 392.3847
   392.3847 393.7618 393.7618 393.8027 394.3361 394.3361 394.8659 394.8659
   395.6124 395.6125 395.8127 396.3995 396.4386 398.5375 398.5375 398.6848
   398.6848 398.8201 399.1083 399.2155 399.2155 399.3480 399.7544 399.7544
   399.9235 400.3443 401.1475 401.1475 401.3340 401.3340 402.2553 402.3729
   402.3730 402.5121 402.5121 402.9901 402.9901 403.1460 403.3696 403.3696
   403.4249 403.8636 403.8636 404.5669 404.7198 404.7198 405.2047 405.2047
   405.2284 405.2284 405.6729 405.7554 405.7554 405.8285 405.9342 405.9342
   406.1511 406.1668 406.4233 406.4573 407.2893 408.1254 408.1254 408.3912
   408.6804 408.7720 408.7720 409.1008 409.1008 409.2682 409.2682 409.8641
   409.8641 410.0936 410.5336 410.5336 411.6767 411.6880 411.6931 411.8163
   411.8163 412.0303 412.0303 412.5623 412.5623 412.7930 413.1172 413.1172
   413.3818 413.5167 416.1401 416.5765 416.5766 416.9293 417.1513 417.1513
   418.7988 418.7988 419.0097 419.5960 420.1278 420.3197 420.3197 421.8035
   421.8035 422.1774 422.2057 422.3760 422.3760 422.4557 422.4558 423.1251
   423.1251 423.2835 423.3516 423.5398 423.5398 423.9719 423.9719 424.0290
   424.0290 424.3220 424.3542 424.3542 424.4033 424.6528 424.8281 425.3650
   425.3650 426.8168 426.8168 427.3274 427.6631 427.6631 428.7613 428.8327
   428.8327 429.1302 429.5621 429.5621 431.7974 432.2747 432.2747 433.6921
   434.9955 434.9955 435.8938 435.9946 436.1639 436.1639 436.2207 436.2207
   436.3532 436.8504 437.1733 437.1733 437.8933 437.9039 439.2231 439.2231
   439.5176 440.2720 440.5141 440.5529 440.5529 440.8468 441.0177 441.4185
   441.4185 441.4665 441.4665 442.3256 442.7857 443.0157 443.0157 443.2707
   443.2707 444.0100 444.0100 444.6421 444.6421 444.6562 444.8785 444.9799
   444.9799 445.0044 445.0044 445.0662 445.0958 445.8017 445.8017 446.2578
   446.3038 446.3038 447.0522 447.0713 447.0713 447.0988 447.1613 447.3006
   447.3006 447.4368 447.4697 447.5210 447.5390 447.5390 447.7044 447.7044
   448.5272 448.5272 448.9372 448.9372 449.5704 449.5704 449.6980 449.6980
   449.7167 449.7389 450.8381 450.9215 451.2262 451.2683 451.2683 451.7376
   451.7376 452.0216 452.0216 452.7332 452.7332 452.9220 453.0578 453.8649
   453.8926 460.1865 460.1865 461.0688 461.0966 461.0966 463.0456 463.0456
   464.5332 465.5899 465.5899 465.5947 465.5947 466.2430 466.2430 468.4995
   468.4995 468.8722 468.8722 469.0611 469.5159 470.2921 470.2921 470.3127
   471.1073 471.1073 472.8871 473.2431 474.1293 474.1294 475.0826 475.0826
   475.4131 476.1677 478.4784 478.4784 478.6486 478.7372 478.7372 479.3503
   479.3503 479.8726 480.2881 480.2881 480.7436 481.4654 481.4865 482.6916
   483.1942 483.1942 483.4534 483.4534 483.7218 484.0545 484.0545 484.3549
   485.1123 485.1123 485.1695 485.1695 485.9344 486.5680 487.0158 487.0158
   487.2249 487.4181 487.4181 487.4369 487.9711 487.9711 488.1413 488.1413
   488.2624 488.2624 488.4381 488.4381 488.8376 488.8419 488.9813 488.9978
   489.1967 489.1967 489.4253 489.5704 489.5704 490.8459 490.8459 491.2998
   491.5455 491.5455 491.8453 491.8453 493.9533 493.9533 493.9563 493.9563
   494.0516 494.2732 494.2732 494.4154 494.9748 494.9974 495.0433 495.1538
   495.1538 495.5363 496.2263 496.2263 496.4073 496.5277 496.5513 496.5513

     the Fermi energy is    10.4945 ev
     (compare with:    10.5616 eV, computed in scf)

     Writing all to output data dir out/mp-2133.save/
 
     init_run     :      0.06s CPU      0.10s WALL (       1 calls)
     electrons    :    127.58s CPU    138.12s WALL (       1 calls)

     Called by init_run:
     wfcinit      :      0.00s CPU      0.00s WALL (       1 calls)
     potinit      :      0.01s CPU      0.01s WALL (       1 calls)
     hinit0       :      0.02s CPU      0.05s WALL (       1 calls)

     Called by electrons:
     c_bands      :    127.58s CPU    138.12s WALL (       1 calls)
     v_of_rho     :      0.01s CPU      0.01s WALL (       1 calls)

     Called by c_bands:
     init_us_2    :      0.00s CPU      0.00s WALL (       1 calls)
     init_us_2:cp :      0.00s CPU      0.00s WALL (       1 calls)
     cegterg      :    124.99s CPU    135.29s WALL (       1 calls)

     Called by *egterg:
     cdiaghg      :    119.30s CPU    129.54s WALL (       7 calls)
     h_psi        :      1.51s CPU      1.59s WALL (       8 calls)
     g_psi        :      0.01s CPU      0.01s WALL (       6 calls)

     Called by h_psi:
     h_psi:calbec :      0.06s CPU      0.07s WALL (       8 calls)
     vloc_psi     :      1.40s CPU      1.47s WALL (       8 calls)
     add_vuspsi   :      0.04s CPU      0.04s WALL (       8 calls)

     General routines
     calbec       :      0.06s CPU      0.07s WALL (       8 calls)
     fft          :      0.00s CPU      0.03s WALL (      10 calls)
     fftw         :      1.25s CPU      1.31s WALL (   14392 calls)
 
     Parallel routines
 
     PWSCF        :   2m 7.99s CPU   2m18.66s WALL

 
   This run was terminated on:  20: 9:14  18Nov2023            

=------------------------------------------------------------------------------=
   JOB DONE.
=------------------------------------------------------------------------------=
