
     Program PWSCF v.7.1 starts on 19Nov2023 at 16:16:53 

     This program is part of the open-source Quantum ESPRESSO suite
     for quantum simulation of materials; please cite
         "P. Giannozzi et al., J. Phys.:Condens. Matter 21 395502 (2009);
         "P. Giannozzi et al., J. Phys.:Condens. Matter 29 465901 (2017);
         "P. Giannozzi et al., J. Chem. Phys. 152 154105 (2020);
          URL http://www.quantum-espresso.org", 
     in publications or presentations arising from this work. More details at
     http://www.quantum-espresso.org/quote

     Parallel version (MPI), running on    24 processors

     MPI processes distributed on     1 nodes
     123270 MiB available memory on the printing compute node when the environment starts
 
     Reading input from pw_mp-2133_scf_k3000_E75.in
Warning: card &CELL ignored
Warning: card / ignored

     Current dimensions of program PWSCF are:
     Max number of different atomic species (ntypx) = 10
     Max number of k-points (npk) =  40000
     Max angular momentum in pseudopotentials (lmaxx) =  4
 
     R & G space division:  proc/nbgrp/npool/nimage =      24
     Subspace diagonalization in iterative solution of the eigenvalue problem:
     a serial algorithm will be used

 
     Parallelization info
     --------------------
     sticks:   dense  smooth     PW     G-vecs:    dense   smooth      PW
     Min          32      32      9                 1166     1166     183
     Max          33      33     10                 1174     1174     186
     Sum         769     769    223                28063    28063    4403
 
     Using Slab Decomposition
 


     bravais-lattice index     =            4
     lattice parameter (alat)  =       6.1177  a.u.
     unit-cell volume          =     319.8517 (a.u.)^3
     number of atoms/cell      =            4
     number of atomic types    =            2
     number of electrons       =        52.00
     number of Kohn-Sham states=           52
     kinetic-energy cutoff     =      75.0000  Ry
     charge density cutoff     =     300.0000  Ry
     scf convergence threshold =      1.0E-10
     mixing beta               =       0.7000
     number of iterations used =            8  plain     mixing
     Exchange-correlation= PBE
                           (   1   4   3   4   0   0   0)

     celldm(1)=   6.117706  celldm(2)=   0.000000  celldm(3)=   1.613066
     celldm(4)=   0.000000  celldm(5)=   0.000000  celldm(6)=   0.000000

     crystal axes: (cart. coord. in units of alat)
               a(1) = (   1.000000   0.000000   0.000000 )  
               a(2) = (  -0.500000   0.866025   0.000000 )  
               a(3) = (   0.000000   0.000000   1.613066 )  

     reciprocal axes: (cart. coord. in units 2 pi/alat)
               b(1) = (  1.000000  0.577350  0.000000 )  
               b(2) = (  0.000000  1.154701  0.000000 )  
               b(3) = (  0.000000  0.000000  0.619937 )  


     PseudoPot. # 1 for O  read from file:
     /usr/scratch4/magr4985/MG/HTDF/pseudo/SG15/O.upf
     MD5 check sum: e36c48deb68f4e355fffe4602be2c42c
     Pseudo is Norm-conserving, Zval =  6.0
     Generated using ONCVPSP code by D. R. Hamann
     Using radial grid of  602 points,  4 beta functions with: 
                l(1) =   0
                l(2) =   0
                l(3) =   1
                l(4) =   1

     PseudoPot. # 2 for Zn read from file:
     /usr/scratch4/magr4985/MG/HTDF/pseudo/SG15/Zn.upf
     MD5 check sum: 732f41c0cd6489a4b50a33b4ec99a2d3
     Pseudo is Norm-conserving, Zval = 20.0
     Generated using ONCVPSP code by D. R. Hamann
     Using radial grid of  602 points,  6 beta functions with: 
                l(1) =   0
                l(2) =   0
                l(3) =   1
                l(4) =   1
                l(5) =   2
                l(6) =   2

     atomic species   valence    mass     pseudopotential
        O              6.00    15.99940     O ( 1.00)
        Zn            20.00    65.40900     Zn( 1.00)

      6 Sym. Ops. (no inversion) found



   Cartesian axes

     site n.     atom                  positions (alat units)
         1           Zn  tau(   1) = (   0.0000000   0.5773502   0.8074876  )
         2           Zn  tau(   2) = (   0.5000000   0.2886752   0.0009545  )
         3           O   tau(   3) = (   0.0000000   0.5773502   1.4190439  )
         4           O   tau(   4) = (   0.5000000   0.2886752   0.6125108  )

     number of k points=    72  Gaussian smearing, width (Ry)=  0.0005
                       cart. coord. in units 2pi/alat
        k(    1) = (   0.0000000   0.0000000   0.0000000), wk =   0.0033333
        k(    2) = (   0.0000000   0.0000000   0.1033229), wk =   0.0066667
        k(    3) = (   0.0000000   0.0000000   0.2066458), wk =   0.0066667
        k(    4) = (   0.0000000   0.0000000  -0.3099687), wk =   0.0033333
        k(    5) = (   0.0000000   0.1154701   0.0000000), wk =   0.0200000
        k(    6) = (   0.0000000   0.1154701   0.1033229), wk =   0.0200000
        k(    7) = (   0.0000000   0.1154701   0.2066458), wk =   0.0200000
        k(    8) = (   0.0000000   0.1154701  -0.3099687), wk =   0.0200000
        k(    9) = (   0.0000000   0.2309401   0.0000000), wk =   0.0200000
        k(   10) = (   0.0000000   0.2309401   0.1033229), wk =   0.0200000
        k(   11) = (   0.0000000   0.2309401   0.2066458), wk =   0.0200000
        k(   12) = (   0.0000000   0.2309401  -0.3099687), wk =   0.0200000
        k(   13) = (   0.0000000   0.3464102   0.0000000), wk =   0.0200000
        k(   14) = (   0.0000000   0.3464102   0.1033229), wk =   0.0200000
        k(   15) = (   0.0000000   0.3464102   0.2066458), wk =   0.0200000
        k(   16) = (   0.0000000   0.3464102  -0.3099687), wk =   0.0200000
        k(   17) = (   0.0000000   0.4618802   0.0000000), wk =   0.0200000
        k(   18) = (   0.0000000   0.4618802   0.1033229), wk =   0.0200000
        k(   19) = (   0.0000000   0.4618802   0.2066458), wk =   0.0200000
        k(   20) = (   0.0000000   0.4618802  -0.3099687), wk =   0.0200000
        k(   21) = (   0.0000000  -0.5773503   0.0000000), wk =   0.0100000
        k(   22) = (   0.0000000  -0.5773503   0.1033229), wk =   0.0200000
        k(   23) = (   0.0000000  -0.5773503   0.2066458), wk =   0.0200000
        k(   24) = (   0.0000000  -0.5773503  -0.3099687), wk =   0.0100000
        k(   25) = (   0.1000000   0.1732051   0.0000000), wk =   0.0200000
        k(   26) = (   0.1000000   0.1732051   0.1033229), wk =   0.0400000
        k(   27) = (   0.1000000   0.1732051   0.2066458), wk =   0.0400000
        k(   28) = (   0.1000000   0.1732051  -0.3099687), wk =   0.0200000
        k(   29) = (   0.1000000   0.2886751   0.0000000), wk =   0.0400000
        k(   30) = (   0.1000000   0.2886751   0.1033229), wk =   0.0400000
        k(   31) = (   0.1000000   0.2886751   0.2066458), wk =   0.0400000
        k(   32) = (   0.1000000   0.2886751  -0.3099687), wk =   0.0400000
        k(   33) = (   0.1000000   0.4041452   0.0000000), wk =   0.0400000
        k(   34) = (   0.1000000   0.4041452   0.1033229), wk =   0.0400000
        k(   35) = (   0.1000000   0.4041452   0.2066458), wk =   0.0400000
        k(   36) = (   0.1000000   0.4041452  -0.3099687), wk =   0.0400000
        k(   37) = (   0.1000000   0.5196152   0.0000000), wk =   0.0400000
        k(   38) = (   0.1000000   0.5196152   0.1033229), wk =   0.0400000
        k(   39) = (   0.1000000   0.5196152   0.2066458), wk =   0.0400000
        k(   40) = (   0.1000000   0.5196152  -0.3099687), wk =   0.0400000
        k(   41) = (   0.2000000   0.3464102   0.0000000), wk =   0.0200000
        k(   42) = (   0.2000000   0.3464102   0.1033229), wk =   0.0400000
        k(   43) = (   0.2000000   0.3464102   0.2066458), wk =   0.0400000
        k(   44) = (   0.2000000   0.3464102  -0.3099687), wk =   0.0200000
        k(   45) = (   0.2000000   0.4618802   0.0000000), wk =   0.0400000
        k(   46) = (   0.2000000   0.4618802   0.1033229), wk =   0.0400000
        k(   47) = (   0.2000000   0.4618802   0.2066458), wk =   0.0400000
        k(   48) = (   0.2000000   0.4618802  -0.3099687), wk =   0.0400000
        k(   49) = (   0.2000000   0.5773503   0.0000000), wk =   0.0200000
        k(   50) = (   0.2000000   0.5773503   0.1033229), wk =   0.0400000
        k(   51) = (   0.2000000   0.5773503   0.2066458), wk =   0.0400000
        k(   52) = (   0.2000000   0.5773503  -0.3099687), wk =   0.0200000
        k(   53) = (   0.3000000   0.5196152   0.0000000), wk =   0.0200000
        k(   54) = (   0.3000000   0.5196152   0.1033229), wk =   0.0400000
        k(   55) = (   0.3000000   0.5196152   0.2066458), wk =   0.0400000
        k(   56) = (   0.3000000   0.5196152  -0.3099687), wk =   0.0200000
        k(   57) = (   0.0000000  -0.1154701   0.1033229), wk =   0.0200000
        k(   58) = (   0.0000000  -0.1154701   0.2066458), wk =   0.0200000
        k(   59) = (   0.0000000  -0.2309401   0.1033229), wk =   0.0200000
        k(   60) = (   0.0000000  -0.2309401   0.2066458), wk =   0.0200000
        k(   61) = (   0.0000000  -0.3464102   0.1033229), wk =   0.0200000
        k(   62) = (   0.0000000  -0.3464102   0.2066458), wk =   0.0200000
        k(   63) = (   0.0000000  -0.4618802   0.1033229), wk =   0.0200000
        k(   64) = (   0.0000000  -0.4618802   0.2066458), wk =   0.0200000
        k(   65) = (  -0.1000000  -0.2886751   0.1033229), wk =   0.0400000
        k(   66) = (  -0.1000000  -0.2886751   0.2066458), wk =   0.0400000
        k(   67) = (  -0.1000000  -0.4041452   0.1033229), wk =   0.0400000
        k(   68) = (  -0.1000000  -0.4041452   0.2066458), wk =   0.0400000
        k(   69) = (  -0.1000000  -0.5196152   0.1033229), wk =   0.0400000
        k(   70) = (  -0.1000000  -0.5196152   0.2066458), wk =   0.0400000
        k(   71) = (  -0.2000000  -0.4618802   0.1033229), wk =   0.0400000
        k(   72) = (  -0.2000000  -0.4618802   0.2066458), wk =   0.0400000

     Dense  grid:    28063 G-vectors     FFT dimensions: (  36,  36,  60)

     Estimated max dynamical RAM per process >       4.80 MB

     Estimated total dynamical RAM >     115.23 MB

     Initial potential from superposition of free atoms

     starting charge      51.9527, renormalised to      52.0000
     Starting wfcs are random

     total cpu time spent up to now is        2.1 secs

     Self-consistent Calculation

     iteration #  1     ecut=    75.00 Ry     beta= 0.70
     Davidson diagonalization with overlap
     ethr =  1.00E-02,  avg # of iterations =  9.4

     total cpu time spent up to now is        9.3 secs

     total energy              =    -864.24707672 Ry
     estimated scf accuracy    <       0.85937849 Ry

     iteration #  2     ecut=    75.00 Ry     beta= 0.70
     Davidson diagonalization with overlap
     ethr =  1.65E-03,  avg # of iterations =  2.0

     total cpu time spent up to now is       11.7 secs

     total energy              =    -864.43827482 Ry
     estimated scf accuracy    <       1.32417165 Ry

     iteration #  3     ecut=    75.00 Ry     beta= 0.70
     Davidson diagonalization with overlap
     ethr =  1.65E-03,  avg # of iterations =  1.8

     total cpu time spent up to now is       13.7 secs

     total energy              =    -864.68809494 Ry
     estimated scf accuracy    <       0.00602321 Ry

     iteration #  4     ecut=    75.00 Ry     beta= 0.70
     Davidson diagonalization with overlap
     ethr =  1.16E-05,  avg # of iterations =  3.7

     total cpu time spent up to now is       16.9 secs

     total energy              =    -864.68981570 Ry
     estimated scf accuracy    <       0.00429243 Ry

     iteration #  5     ecut=    75.00 Ry     beta= 0.70
     Davidson diagonalization with overlap
     ethr =  8.25E-06,  avg # of iterations =  1.2

     total cpu time spent up to now is       18.8 secs

     total energy              =    -864.69007040 Ry
     estimated scf accuracy    <       0.00042458 Ry

     iteration #  6     ecut=    75.00 Ry     beta= 0.70
     Davidson diagonalization with overlap
     ethr =  8.17E-07,  avg # of iterations =  2.3

     total cpu time spent up to now is       21.0 secs

     total energy              =    -864.69009523 Ry
     estimated scf accuracy    <       0.00003930 Ry

     iteration #  7     ecut=    75.00 Ry     beta= 0.70
     Davidson diagonalization with overlap
     ethr =  7.56E-08,  avg # of iterations =  2.0

     total cpu time spent up to now is       23.3 secs

     total energy              =    -864.69010325 Ry
     estimated scf accuracy    <       0.00001165 Ry

     iteration #  8     ecut=    75.00 Ry     beta= 0.70
     Davidson diagonalization with overlap
     ethr =  2.24E-08,  avg # of iterations =  1.2

     total cpu time spent up to now is       25.2 secs

     total energy              =    -864.69010439 Ry
     estimated scf accuracy    <       0.00000028 Ry

     iteration #  9     ecut=    75.00 Ry     beta= 0.70
     Davidson diagonalization with overlap
     ethr =  5.42E-10,  avg # of iterations =  2.0

     total cpu time spent up to now is       27.5 secs

     total energy              =    -864.69010447 Ry
     estimated scf accuracy    <          7.0E-09 Ry

     iteration # 10     ecut=    75.00 Ry     beta= 0.70
     Davidson diagonalization with overlap
     ethr =  1.35E-11,  avg # of iterations =  1.3

     total cpu time spent up to now is       29.4 secs

     total energy              =    -864.69010447 Ry
     estimated scf accuracy    <          5.0E-10 Ry

     iteration # 11     ecut=    75.00 Ry     beta= 0.70
     Davidson diagonalization with overlap
     ethr =  9.62E-13,  avg # of iterations =  2.0

     total cpu time spent up to now is       31.5 secs

     total energy              =    -864.69010447 Ry
     estimated scf accuracy    <          4.1E-10 Ry

     iteration # 12     ecut=    75.00 Ry     beta= 0.70
     Davidson diagonalization with overlap
     ethr =  7.80E-13,  avg # of iterations =  2.0

     total cpu time spent up to now is       33.6 secs

     End of self-consistent calculation

          k = 0.0000 0.0000 0.0000 (  3501 PWs)   bands (ev):

  -113.3557-113.3556 -67.5656 -67.5626 -67.5626 -67.5624 -67.5621 -67.5621
    -7.9240  -7.1959   4.3687   4.3687   4.4149   4.4960   4.5607   4.5607
     5.5224   5.5224   5.7319   5.7319   6.0233   9.3229   9.3229  10.0282
    10.1133  10.1133  10.9807  15.4374  18.3691  23.1301  23.1301  24.2013
    24.3950  24.3950  26.7572  28.3997  28.3997  30.0817  30.0817  30.1497
    31.4470  33.4063  35.0811  35.0811  37.6903  38.6576  38.6576  39.0058
    41.3676  41.3676  44.7425  44.7425

          k = 0.0000 0.0000 0.1033 (  3525 PWs)   bands (ev):

  -113.3558-113.3556 -67.5654 -67.5626 -67.5626 -67.5626 -67.5621 -67.5621
    -7.8778  -7.2472   4.3666   4.3708   4.3756   4.3756   4.5411   4.5411
     5.5415   5.5415   5.7237   5.7237   6.3426   9.3768   9.3768   9.4797
    10.0614  10.0614  11.6135  15.1923  18.5896  23.1341  23.1341  23.2777
    24.1982  24.1982  27.1147  28.6950  28.6950  29.9481  30.4117  30.4117
    32.5104  33.3775  34.7304  34.7304  38.1384  38.1384  38.3633  38.3973
    41.5393  41.5393  43.5218  43.5218

          k = 0.0000 0.0000 0.2066 (  3555 PWs)   bands (ev):

  -113.3557-113.3556 -67.5648 -67.5632 -67.5625 -67.5625 -67.5622 -67.5622
    -7.7497  -7.3857   4.2115   4.2591   4.3985   4.3985   4.4933   4.4933
     5.5902   5.5902   5.6962   5.6962   7.0426   8.6779   9.5236   9.5236
     9.9189   9.9189  12.6160  14.5421  19.2262  21.6830  23.2004  23.2004
    23.7854  23.7854  27.7150  29.3014  29.4737  29.4737  30.8698  30.8698
    33.8119  34.3535  34.3535  34.6717  36.7434  36.7434  37.3830  39.5234
    41.8435  41.8435  42.5517  42.5517

          k = 0.0000 0.0000-0.3100 (  3556 PWs)   bands (ev):

  -113.3557-113.3557 -67.5640 -67.5640 -67.5624 -67.5624 -67.5623 -67.5623
    -7.5702  -7.5702   4.1798   4.1798   4.4398   4.4398   4.4398   4.4398
     5.6484   5.6484   5.6484   5.6484   7.8564   7.8564   9.7224   9.7224
     9.7224   9.7224  13.6375  13.6375  20.2657  20.2657  23.4139  23.4139
    23.4139  23.4139  28.4634  28.4635  30.4257  30.4257  30.4257  30.4257
    34.7776  34.7777  35.1581  35.1581  35.1581  35.1581  38.7076  38.7076
    42.1259  42.1259  42.1259  42.1259

          k = 0.0000 0.1155 0.0000 (  3517 PWs)   bands (ev):

  -113.3558-113.3556 -67.5655 -67.5628 -67.5627 -67.5625 -67.5623 -67.5621
    -7.8684  -7.1710   4.3091   4.4006   4.4489   4.5386   4.5931   4.6057
     5.4996   5.5193   5.7367   5.7784   6.0106   8.9587   9.1893   9.5135
     9.9619  10.0420  11.7080  15.8505  18.3651  22.1081  23.2238  23.6467
    24.3721  24.5191  26.2330  27.7701  28.5874  30.2334  31.3138  31.3902
    32.1521  34.0551  34.8802  35.1715  38.0830  38.6899  38.6982  38.9333
    40.6531  40.9203  44.3787  45.7022

          k = 0.0000 0.1155 0.1033 (  3523 PWs)   bands (ev):

  -113.3557-113.3556 -67.5653 -67.5628 -67.5627 -67.5627 -67.5623 -67.5622
    -7.8238  -7.2199   4.2820   4.3879   4.4084   4.4447   4.5718   4.5853
     5.5228   5.5383   5.7272   5.7474   6.3609   9.0070   9.2254   9.2478
     9.8987   9.9861  12.1009  15.5727  18.5953  22.1508  23.2284  23.2593
    23.5811  24.2988  26.9229  28.1894  28.8098  30.1774  31.2872  31.4882
    32.9498  34.0593  34.8145  34.9442  37.3206  38.1567  38.8798  39.0810
    41.0310  41.1141  43.6527  44.2333

          k = 0.0000 0.1155 0.2066 (  3539 PWs)   bands (ev):

  -113.3557-113.3556 -67.5648 -67.5633 -67.5627 -67.5626 -67.5624 -67.5623
    -7.7003  -7.3517   4.1958   4.2127   4.4339   4.4401   4.5240   4.5351
     5.5804   5.5872   5.6968   5.7066   7.0698   8.5792   9.2079   9.4066
     9.7066   9.8330  12.9582  14.8701  19.2316  21.5799  22.4788  23.1665
    23.2931  23.8686  27.7946  29.1134  29.2084  30.0655  31.3202  31.4394
    33.6192  34.3220  34.5910  35.4633  36.8672  36.9347  38.2609  40.0248
    41.4510  41.6224  42.4838  42.9343

          k = 0.0000 0.1155-0.3100 (  3532 PWs)   bands (ev):

  -113.3557-113.3557 -67.5640 -67.5640 -67.5625 -67.5625 -67.5624 -67.5624
    -7.5281  -7.5281   4.1476   4.1476   4.4728   4.4728   4.4784   4.4784
     5.6465   5.6465   5.6487   5.6487   7.8510   7.8510   9.4497   9.4497
     9.6212   9.6212  13.9433  13.9433  20.2421  20.2421  22.7640  22.7640
    23.5006  23.5006  28.5575  28.5575  30.4629  30.4629  30.8409  30.8409
    33.8156  33.8156  35.5134  35.5134  36.5986  36.5986  39.3635  39.3635
    41.7055  41.7055  42.1830  42.1830

          k = 0.0000 0.2309 0.0000 (  3523 PWs)   bands (ev):

  -113.3557-113.3556 -67.5653 -67.5634 -67.5629 -67.5629 -67.5626 -67.5622
    -7.7165  -7.1087   4.1844   4.4750   4.4789   4.5843   4.7329   4.8201
     5.4422   5.5266   5.7469   5.9078   5.9887   8.0901   8.7600   8.8408
     9.7586   9.8467  12.8373  16.7799  18.3434  20.5333  22.3699  23.4672
    23.9545  24.5384  25.5012  27.6660  28.5765  31.3606  32.7942  33.4911
    33.5744  34.0713  35.4745  37.0827  37.5802  38.4141  38.6960  39.5519
    40.1254  41.3996  42.5173  45.9453

          k = 0.0000 0.2309 0.1033 (  3514 PWs)   bands (ev):

  -113.3557-113.3556 -67.5651 -67.5633 -67.5631 -67.5628 -67.5626 -67.5623
    -7.6767  -7.1502   4.1551   4.3833   4.4903   4.5550   4.7092   4.7173
     5.4796   5.5439   5.7348   5.8035   6.4258   8.1557   8.6334   8.9112
     9.6892   9.7816  13.0680  16.3986  18.6041  20.5985  22.2339  23.3690
    23.4686  24.3508  25.7500  28.1177  28.8600  31.5002  32.3239  33.3726
    33.9770  34.3234  35.1699  36.6996  37.7014  38.1026  38.5963  40.2785
    40.3508  41.4674  42.7453  45.2745

          k = 0.0000 0.2309 0.2066 (  3520 PWs)   bands (ev):

  -113.3557-113.3556 -67.5647 -67.5636 -67.5631 -67.5627 -67.5627 -67.5624
    -7.5674  -7.2633   4.0918   4.1810   4.5251   4.5396   4.6249   4.6502
     5.5615   5.5891   5.6995   5.7360   7.1112   8.1403   8.5702   9.1007
     9.4060   9.6024  13.7103  15.5696  19.1895  20.5965  21.8323  22.5012
    23.5174  23.9905  26.5090  28.6107  29.2447  31.7874  32.3297  32.6347
    33.7127  34.1227  35.4253  37.2947  37.4141  38.1918  38.8234  40.2591
    41.3622  41.6914  42.7447  43.6890

          k = 0.0000 0.2309-0.3100 (  3514 PWs)   bands (ev):

  -113.3556-113.3556 -67.5642 -67.5642 -67.5629 -67.5629 -67.5626 -67.5625
    -7.4162  -7.4162   4.0755   4.0755   4.5661   4.5661   4.5818   4.5818
     5.6467   5.6467   5.6544   5.6544   7.7236   7.7236   8.9517   8.9517
     9.3542   9.3542  14.6079  14.6079  19.9704  19.9704  21.9328  21.9328
    23.6862  23.6862  27.6039  27.6039  30.7417  30.7417  32.4233  32.4233
    33.7205  33.7205  36.3314  36.3315  38.1283  38.1283  40.0117  40.0117
    41.9008  41.9008  42.3851  42.3851

          k = 0.0000 0.3464 0.0000 (  3523 PWs)   bands (ev):

  -113.3557-113.3555 -67.5649 -67.5640 -67.5636 -67.5631 -67.5629 -67.5624
    -7.5114  -7.0415   4.0933   4.4439   4.5601   4.7287   4.9147   5.0779
     5.4118   5.5725   5.7587   5.9283   6.1560   7.1746   8.0509   8.3999
     9.4231   9.5899  14.0484  17.5865  18.2465  19.2772  21.4161  22.8626
    23.6527  24.3194  25.8909  28.4468  28.6564  30.4006  33.6286  34.8910
    35.5385  35.9390  36.0383  37.7419  38.4515  38.6834  38.8074  39.7740
    40.3988  41.5114  43.8194  44.1172

          k = 0.0000 0.3464 0.1033 (  3515 PWs)   bands (ev):

  -113.3557-113.3555 -67.5649 -67.5639 -67.5637 -67.5630 -67.5628 -67.5624
    -7.4794  -7.0722   4.0637   4.3508   4.5781   4.7041   4.8837   4.9249
     5.4619   5.5846   5.7449   5.8597   6.5075   7.2918   7.9815   8.4861
     9.4160   9.5142  14.1584  17.0612  18.5730  19.3469  21.3765  22.8779
    23.6572  24.2343  25.3732  28.7005  29.0165  30.9084  32.6841  35.0039
    35.0807  36.2178  36.4461  37.4959  37.8303  38.7384  39.2778  39.9509
    41.3701  41.7129  43.8159  44.6648

          k = 0.0000 0.3464 0.2066 (  3507 PWs)   bands (ev):

  -113.3556-113.3556 -67.5648 -67.5641 -67.5635 -67.5629 -67.5629 -67.5626
    -7.3924  -7.1569   4.0087   4.1456   4.6308   4.6801   4.7785   4.8056
     5.5643   5.6175   5.7090   5.7783   6.9464   7.4378   8.1190   8.7147
     9.2290   9.3056  14.5563  16.1768  18.9851  19.4594  21.3070  22.4643
    23.7036  24.0372  25.4743  28.0858  30.0116  31.9165  32.2266  33.2362
    35.2650  36.1321  36.5904  37.4461  38.5436  38.7232  39.6364  41.2602
    41.5323  41.7851  44.4159  44.6356

          k = 0.0000 0.3464-0.3100 (  3518 PWs)   bands (ev):

  -113.3556-113.3556 -67.5645 -67.5645 -67.5631 -67.5631 -67.5627 -67.5627
    -7.2741  -7.2741   4.0143   4.0143   4.7039   4.7039   4.7120   4.7120
     5.6626   5.6626   5.6773   5.6773   7.2471   7.2471   8.7270   8.7270
     9.0148   9.0148  15.2749  15.2749  19.3312  19.3312  21.6806  21.6806
    23.8348  23.8348  26.6850  26.6850  31.4760  31.4760  32.3180  32.3180
    35.6488  35.6488  37.0379  37.0379  38.7300  38.7300  40.6941  40.6941
    42.7403  42.7403  43.2580  43.2580

          k = 0.0000 0.4619 0.0000 (  3504 PWs)   bands (ev):

  -113.3556-113.3555 -67.5647 -67.5644 -67.5641 -67.5632 -67.5631 -67.5625
    -7.3191  -7.0067   4.1054   4.4062   4.6087   4.9085   5.0864   5.0877
     5.5254   5.6501   5.7715   5.9903   6.1928   6.6934   7.4735   8.0173
     9.0303   9.3686  15.2246  17.6878  17.7848  18.7742  20.9358  22.5295
    23.5099  24.3848  26.0754  28.6306  29.5518  30.0475  33.3886  34.7023
    36.0143  36.4787  37.4375  37.9487  38.9019  39.1722  39.8383  41.3315
    41.8601  42.2462  43.2346  45.8255

          k = 0.0000 0.4619 0.1033 (  3505 PWs)   bands (ev):

  -113.3556-113.3555 -67.5649 -67.5643 -67.5640 -67.5632 -67.5631 -67.5626
    -7.2966  -7.0257   4.0677   4.3094   4.6336   4.8774   5.0126   5.0466
     5.5555   5.6557   5.7578   5.9253   6.2898   6.8244   7.5838   8.1198
     9.0907   9.2846  15.2000  17.1336  18.2363  18.8100  20.8900  22.6933
    23.5551  24.3142  25.3075  28.7811  30.3447  30.4604  32.0687  35.2073
    35.9296  36.7222  36.9487  37.7256  38.5827  39.7311  40.4246  41.2688
    42.0251  43.2751  43.4500  45.2266

          k = 0.0000 0.4619 0.2066 (  3495 PWs)   bands (ev):

  -113.3556-113.3555 -67.5650 -67.5647 -67.5636 -67.5631 -67.5631 -67.5627
    -7.2359  -7.0792   3.9979   4.1139   4.7059   4.8423   4.9140   4.9421
     5.6391   5.6718   5.7278   5.8327   6.4554   6.8028   8.1067   8.3860
     9.0527   9.0731  15.2984  16.4303  18.5976  18.8641  20.9769  22.4687
    23.6897  24.1292  25.0940  27.9737  31.2045  31.5553  31.8314  34.2299
    35.2189  36.7484  36.8920  37.3992  39.4155  40.2294  41.3892  41.5170
    42.4949  43.6766  44.0815  45.3523

          k = 0.0000 0.4619-0.3100 (  3482 PWs)   bands (ev):

  -113.3556-113.3556 -67.5649 -67.5649 -67.5632 -67.5632 -67.5629 -67.5629
    -7.1558  -7.1558   3.9925   3.9925   4.8160   4.8160   4.8548   4.8548
     5.6969   5.6969   5.7375   5.7375   6.6378   6.6378   8.7238   8.7238
     8.7274   8.7274  15.7378  15.7378  18.8035  18.8035  21.5674  21.5674
    23.8971  23.8971  26.3528  26.3528  32.0250  32.0250  32.5431  32.5431
    35.8910  35.8910  37.0854  37.0854  40.0598  40.0598  42.1254  42.1254
    42.8384  42.8384  45.0034  45.0034

          k = 0.0000-0.5774 0.0000 (  3514 PWs)   bands (ev):

  -113.3556-113.3555 -67.5648 -67.5644 -67.5643 -67.5633 -67.5633 -67.5626
    -7.2305  -7.0072   4.1563   4.3755   4.6228   5.0234   5.0246   5.1607
     5.5643   5.6940   5.7781   5.8603   6.3494   6.5630   7.2826   7.8595
     8.8232   9.2801  15.9800  17.0476  17.7512  18.7220  20.7687  22.6186
    23.4053  24.4633  26.0639  28.7393  29.2931  30.8013  33.2056  35.1434
    35.1667  36.2881  37.6067  37.9315  38.6365  39.4472  41.3409  42.9494
    42.9993  43.6754  43.6840  44.8417

          k = 0.0000-0.5774 0.1033 (  3508 PWs)   bands (ev):

  -113.3556-113.3555 -67.5650 -67.5645 -67.5640 -67.5633 -67.5632 -67.5626
    -7.2133  -7.0198   4.1111   4.2745   4.6506   4.9845   4.9999   5.1142
     5.6301   5.6965   5.7644   5.8599   6.3043   6.5104   7.5769   7.9700
     8.9130   9.1930  15.7987  16.8836  17.9729  18.7649  20.7007  22.7723
    23.4700  24.3859  25.2687  28.8376  30.3841  31.0816  31.7975  34.9837
    36.1826  36.4746  36.8002  37.7112  38.9232  39.5961  41.3804  43.1549
    43.3843  43.5269  44.4831  45.1746

          k = 0.0000-0.5774 0.2066 (  3482 PWs)   bands (ev):

  -113.3556-113.3555 -67.5651 -67.5649 -67.5636 -67.5631 -67.5631 -67.5627
    -7.1680  -7.0560   4.0221   4.0900   4.7311   4.9408   4.9571   4.9960
     5.7042   5.7370   5.7387   5.8503   6.2772   6.4061   8.1860   8.2537
     8.9520   8.9830  15.6506  16.4295  18.3384  18.7746  20.8243  22.4691
    23.6510  24.1795  25.0619  28.0340  31.2629  31.8297  31.8981  34.8078
    34.8720  36.5549  36.5719  37.2469  39.9902  40.4776  41.9343  43.0807
    43.2067  43.4370  44.8382  46.2293

          k = 0.0000-0.5774-0.3100 (  3488 PWs)   bands (ev):

  -113.3556-113.3555 -67.5651 -67.5651 -67.5632 -67.5632 -67.5629 -67.5629
    -7.1098  -7.1098   3.9920   3.9920   4.8541   4.8541   4.9324   4.9324
     5.7178   5.7178   5.8136   5.8136   6.3169   6.3169   8.6126   8.6126
     8.7401   8.7401  15.9006  15.9006  18.6194  18.6194  21.4926  21.4926
    23.9089  23.9089  26.3448  26.3448  31.8947  31.8947  33.1827  33.1827
    35.6492  35.6493  36.8148  36.8148  40.5811  40.5811  42.6854  42.6854
    43.7104  43.7104  45.3206  45.3206

          k = 0.1000 0.1732 0.0000 (  3519 PWs)   bands (ev):

  -113.3557-113.3556 -67.5653 -67.5632 -67.5629 -67.5626 -67.5626 -67.5622
    -7.7646  -7.1274   4.2420   4.4124   4.4988   4.5483   4.6982   4.7502
     5.4653   5.5161   5.7429   5.8719   5.9906   8.4432   8.7027   9.1152
     9.8302   9.8755  12.5342  16.5263  18.3608  21.0185  22.5307  23.4760
    23.8504  25.0135  26.0588  26.2720  30.3000  30.5999  31.9920  32.3720
    33.7122  33.7820  35.4576  36.7113  37.3002  38.4779  38.7185  39.8177
    40.2500  40.8223  42.9783  46.1406

          k = 0.1000 0.1732 0.1033 (  3512 PWs)   bands (ev):

  -113.3557-113.3556 -67.5652 -67.5631 -67.5630 -67.5628 -67.5625 -67.5623
    -7.7231  -7.1714   4.2111   4.3608   4.4892   4.4965   4.6669   4.6761
     5.4950   5.5371   5.7315   5.7889   6.4038   8.5194   8.6434   9.0681
     9.7585   9.8119  12.8012  16.1794  18.6100  21.0713  22.5435  23.1195
    23.3687  24.5618  26.6758  26.7975  30.2660  30.6284  32.3977  32.5309
    33.3808  33.8325  35.3290  36.7974  37.1284  38.0570  38.8117  39.6290
    40.8368  41.1159  42.9997  45.0542

          k = 0.1000 0.1732 0.2066 (  3525 PWs)   bands (ev):

  -113.3557-113.3556 -67.5647 -67.5635 -67.5630 -67.5627 -67.5625 -67.5624
    -7.6092  -7.2905   4.1380   4.1835   4.4878   4.4950   4.5942   4.6228
     5.5678   5.5857   5.6975   5.7281   7.1072   8.3227   8.7442   9.1635
     9.4965   9.6376  13.5021  15.3856  19.2210  20.9814  22.0814  22.4073
    23.3276  24.0101  27.6577  27.7147  29.7052  31.0538  31.9240  32.8829
    33.7076  33.7328  35.1813  36.6206  37.3350  37.8202  38.7749  40.3281
    41.3057  41.7137  42.4218  43.3783

          k = 0.1000 0.1732-0.3100 (  3534 PWs)   bands (ev):

  -113.3557-113.3556 -67.5641 -67.5641 -67.5628 -67.5628 -67.5625 -67.5625
    -7.4512  -7.4512   4.1011   4.1011   4.5072   4.5072   4.5726   4.5726
     5.6442   5.6443   5.6538   5.6538   7.7902   7.7902   9.0932   9.0932
     9.4039   9.4039  14.4292  14.4292  20.1072  20.1072  22.0860  22.0861
    23.5707  23.5707  28.2657  28.2657  29.9072  29.9072  32.5819  32.5819
    33.7022  33.7022  35.7155  35.7155  37.8311  37.8311  40.1775  40.1775
    41.3335  41.3335  42.5223  42.5223

          k = 0.1000 0.2887 0.0000 (  3515 PWs)   bands (ev):

  -113.3557-113.3555 -67.5650 -67.5637 -67.5634 -67.5630 -67.5628 -67.5624
    -7.5855  -7.0628   4.1628   4.4243   4.5414   4.6451   4.8591   4.9948
     5.4173   5.5392   5.7530   5.9383   6.0872   7.6230   8.1218   8.5687
     9.5681   9.5969  13.6685  17.4126  18.3877  19.7962  21.6168  22.7861
    23.3227  24.9716  25.8128  26.9503  30.1029  31.4749  32.4937  33.8534
    35.0738  35.2281  36.2882  36.6841  38.2691  38.4492  38.6074  40.5604
    40.8206  41.2950  42.2818  45.1190

          k = 0.1000 0.2887 0.1033 (  3513 PWs)   bands (ev):

  -113.3557-113.3556 -67.5650 -67.5636 -67.5635 -67.5630 -67.5627 -67.5624
    -7.5505  -7.0976   4.1304   4.3541   4.5393   4.6214   4.8290   4.8484
     5.4613   5.5634   5.7400   5.8472   6.4950   7.7163   8.0944   8.5834
     9.5111   9.5480  13.8257  16.9484  18.6529  19.8632  21.6964  22.5564
    23.1222  24.8562  25.7880  27.3762  29.9693  31.9121  32.6293  33.3020
    34.4293  35.3663  36.4431  37.4557  37.7999  38.4446  38.9907  39.9539
    41.2819  41.8147  42.5950  45.5657

          k = 0.1000 0.2887 0.2066 (  3506 PWs)   bands (ev):

  -113.3556-113.3556 -67.5647 -67.5639 -67.5633 -67.5630 -67.5627 -67.5626
    -7.4548  -7.1930   4.0651   4.1679   4.5601   4.6008   4.7196   4.7675
     5.5584   5.6055   5.7050   5.7674   7.0717   7.7637   8.2298   8.7396
     9.2840   9.3411  14.3232  16.0633  19.1237  19.9367  21.5443  22.0461
    23.1887  24.2689  26.4546  28.0031  29.5604  31.4624  32.8159  33.0791
    34.9265  35.6379  36.0446  36.8364  38.3576  38.7462  39.2206  40.3797
    41.7435  42.1431  43.1435  44.5863

          k = 0.1000 0.2887-0.3100 (  3520 PWs)   bands (ev):

  -113.3556-113.3556 -67.5644 -67.5644 -67.5631 -67.5631 -67.5627 -67.5627
    -7.3240  -7.3240   4.0540   4.0540   4.5906   4.5906   4.7047   4.7047
     5.6513   5.6513   5.6739   5.6739   7.4902   7.4902   8.7746   8.7746
     9.0456   9.0456  15.1213  15.1213  19.6529  19.6529  21.5738  21.5738
    23.6682  23.6682  27.5039  27.5039  30.0941  30.0941  33.2459  33.2459
    35.3823  35.3823  36.2557  36.2557  38.5373  38.5373  40.5599  40.5599
    41.7129  41.7129  43.7104  43.7104

          k = 0.1000 0.4041 0.0000 (  3518 PWs)   bands (ev):

  -113.3556-113.3555 -67.5647 -67.5642 -67.5639 -67.5632 -67.5630 -67.5626
    -7.3844  -7.0134   4.1441   4.4408   4.5809   4.8054   5.0359   5.1335
     5.4488   5.5922   5.7688   5.9780   6.2378   6.9111   7.6640   7.9620
     9.1833   9.3203  14.8848  17.7992  18.3305  18.9028  21.1355  22.1850
    22.9599  24.5516  26.1523  28.1266  30.0731  30.6916  33.3373  34.9807
    35.2770  36.3147  36.9235  37.6250  38.1163  38.9077  39.4044  40.0998
    42.2020  42.6028  44.0440  45.6481

          k = 0.1000 0.4041 0.1033 (  3506 PWs)   bands (ev):

  -113.3556-113.3555 -67.5648 -67.5641 -67.5639 -67.5632 -67.5630 -67.5626
    -7.3583  -7.0367   4.1087   4.3566   4.5953   4.7806   4.9905   5.0008
     5.4801   5.6263   5.7569   5.9172   6.4435   7.0658   7.6772   8.0544
     9.1861   9.2655  14.9355  17.3333  18.5973  18.9558  21.0852  22.3020
    22.8123  24.6192  25.8643  28.2324  29.9276  31.5441  32.4871  34.3500
    35.6282  36.2679  37.1108  37.6638  38.3313  39.2614  39.9098  40.2393
    41.8440  43.0020  44.5393  45.6142

          k = 0.1000 0.4041 0.2066 (  3507 PWs)   bands (ev):

  -113.3556-113.3556 -67.5649 -67.5644 -67.5636 -67.5632 -67.5629 -67.5627
    -7.2877  -7.1017   4.0420   4.1646   4.6471   4.7478   4.8513   4.9075
     5.5801   5.6580   5.7312   5.8254   6.7011   7.1128   8.0606   8.3248
     8.9660   9.1716  15.1873  16.5444  18.8809  19.0779  20.9765  21.9184
    23.2276  24.4468  25.8881  27.9382  30.0893  31.7130  32.6905  33.3177
    35.8825  36.2879  36.8391  37.5265  39.2810  39.7794  40.4852  41.0192
    41.7261  43.6555  44.4604  45.1128

          k = 0.1000 0.4041-0.3100 (  3496 PWs)   bands (ev):

  -113.3556-113.3556 -67.5647 -67.5647 -67.5632 -67.5632 -67.5629 -67.5629
    -7.1933  -7.1933   4.0393   4.0393   4.7159   4.7159   4.8255   4.8255
     5.6690   5.6690   5.7323   5.7323   6.9276   6.9276   8.5605   8.5605
     8.8191   8.8191  15.7558  15.7559  19.0654  19.0654  21.2597  21.2597
    23.9161  23.9161  26.7881  26.7881  30.9597  30.9597  32.9667  32.9667
    36.3224  36.3224  36.8882  36.8882  39.9347  39.9347  41.0367  41.0367
    42.5019  42.5019  44.9130  44.9130

          k = 0.1000 0.5196 0.0000 (  3503 PWs)   bands (ev):

  -113.3556-113.3555 -67.5647 -67.5643 -67.5642 -67.5634 -67.5633 -67.5627
    -7.2342  -7.0052   4.1892   4.4719   4.6055   4.9423   5.0706   5.1772
     5.5454   5.6399   5.7884   5.9201   6.2687   6.6915   7.2742   7.7316
     8.8042   9.1460  15.9872  17.5361  17.7880  18.7510  20.8302  22.5212
    22.7703  24.1688  26.1844  29.0558  30.0240  30.6148  33.1035  35.0936
    35.7597  35.9433  37.5621  37.8617  38.1930  38.9770  39.9314  42.3835
    42.8115  43.7184  44.7226  45.2183

          k = 0.1000 0.5196 0.1033 (  3505 PWs)   bands (ev):

  -113.3556-113.3555 -67.5649 -67.5644 -67.5640 -67.5634 -67.5632 -67.5627
    -7.2168  -7.0182   4.1494   4.3628   4.6247   4.9186   5.0316   5.1158
     5.5841   5.6620   5.7826   5.9220   6.2479   6.6793   7.4892   7.8790
     8.8718   9.0730  15.8892  17.2304  18.0786  18.7988  20.6671  22.4199
    22.9265  24.2661  25.8885  28.9355  30.0541  31.5074  32.0522  34.8900
    35.6943  36.4122  37.2283  37.7585  38.5679  39.5207  40.4043  42.4692
    43.1885  43.6046  44.6550  45.2117

          k = 0.1000 0.5196 0.2066 (  3496 PWs)   bands (ev):

  -113.3556-113.3555 -67.5651 -67.5648 -67.5636 -67.5632 -67.5631 -67.5628
    -7.1705  -7.0556   4.0692   4.1622   4.6903   4.8814   4.9695   4.9935
     5.6481   5.6854   5.7903   5.8932   6.2998   6.5675   7.9332   8.3072
     8.7333   9.0273  15.8456  16.7066  18.4280  18.8287  20.5865  21.7838
    23.6075  24.3467  25.7265  27.9534  30.7012  31.7032  32.4806  33.6011
    35.7506  36.4412  37.0042  37.6234  39.6684  40.4612  41.2391  42.5675
    43.4184  43.8811  44.8039  45.4698

          k = 0.1000 0.5196-0.3100 (  3490 PWs)   bands (ev):

  -113.3556-113.3555 -67.5650 -67.5650 -67.5633 -67.5633 -67.5630 -67.5629
    -7.1108  -7.1108   4.0498   4.0498   4.7976   4.7976   4.9382   4.9382
     5.6818   5.6818   5.8370   5.8370   6.4237   6.4237   8.3561   8.3561
     8.8055   8.8055  16.1466  16.1466  18.6900  18.6900  21.0238  21.0238
    24.1670  24.1670  26.5059  26.5059  31.7615  31.7615  32.5226  32.5226
    36.4354  36.4354  36.9853  36.9853  40.1961  40.1961  42.7334  42.7334
    43.6019  43.6019  45.3637  45.3637

          k = 0.2000 0.3464 0.0000 (  3509 PWs)   bands (ev):

  -113.3556-113.3555 -67.5647 -67.5640 -67.5639 -67.5632 -67.5630 -67.5627
    -7.4087  -7.0169   4.2465   4.3602   4.6385   4.7248   5.0243   5.1417
     5.4007   5.5664   5.7680   5.9810   6.2479   7.3042   7.4209   7.9615
     9.2001   9.2667  14.8173  17.8072  18.7402  19.1570  21.0813  22.0721
    22.2095  25.2188  25.7571  27.5130  31.6889  32.1219  32.1415  33.7834
    34.8570  36.1058  36.7170  37.8219  37.8787  38.4449  39.2254  39.9950
    42.4523  43.8688  43.9903  45.3359

          k = 0.2000 0.3464 0.1033 (  3502 PWs)   bands (ev):

  -113.3556-113.3555 -67.5648 -67.5640 -67.5638 -67.5633 -67.5629 -67.5627
    -7.3814  -7.0417   4.2001   4.3236   4.6306   4.6921   4.9585   4.9870
     5.4514   5.6165   5.7573   5.9213   6.5055   7.4187   7.5104   7.9683
     9.1053   9.2944  14.9019  17.4401  18.8217  19.2137  21.2896  21.7543
    22.1908  25.5641  25.6368  27.4561  30.9149  32.4171  32.8241  33.0665
    34.5472  36.5342  37.0456  37.2432  38.4513  39.1095  39.7191  40.0461
    41.7890  43.9622  44.1048  46.1328

          k = 0.2000 0.3464 0.2066 (  3511 PWs)   bands (ev):

  -113.3556-113.3556 -67.5648 -67.5643 -67.5635 -67.5633 -67.5628 -67.5628
    -7.3074  -7.1109   4.1117   4.1912   4.6296   4.6493   4.8214   4.8985
     5.5642   5.6543   5.7350   5.8297   6.8384   7.3068   8.0805   8.1352
     8.8579   9.2027  15.2225  16.6592  19.0440  19.3254  21.1257  21.1712
    22.8512  24.9135  26.3974  27.7094  30.2629  30.7219  33.2844  33.8410
    35.1801  35.7968  37.3021  37.5382  38.9350  39.9915  40.2036  40.5965
    41.4414  44.0725  44.4864  45.2396

          k = 0.2000 0.3464-0.3100 (  3500 PWs)   bands (ev):

  -113.3556-113.3556 -67.5646 -67.5646 -67.5633 -67.5633 -67.5629 -67.5629
    -7.2079  -7.2079   4.0892   4.0892   4.6422   4.6422   4.8182   4.8182
     5.6616   5.6616   5.7370   5.7370   7.0955   7.0955   8.4257   8.4257
     8.8226   8.8226  15.8429  15.8429  19.2913  19.2913  20.9055  20.9055
    23.8927  23.8927  27.3885  27.3885  29.9765  29.9765  33.7019  33.7019
    35.5576  35.5576  37.6389  37.6389  39.4735  39.4735  40.9787  40.9787
    41.9345  41.9345  45.2459  45.2459

          k = 0.2000 0.4619 0.0000 (  3510 PWs)   bands (ev):

  -113.3556-113.3555 -67.5645 -67.5643 -67.5641 -67.5635 -67.5633 -67.5629
    -7.2401  -7.0021   4.2960   4.4830   4.6932   4.8279   5.1499   5.2332
     5.4576   5.5546   5.7939   6.0321   6.1852   6.8757   7.2452   7.4873
     8.7978   8.9224  16.0502  17.8246  18.4665  18.7966  21.0690  21.7325
    21.9757  24.4315  25.6696  28.8866  31.5593  32.0209  32.9793  33.7915
    35.5592  36.2800  36.7871  37.4306  37.6438  38.3616  39.2964  42.1449
    42.8367  44.6316  45.4190  46.3588

          k = 0.2000 0.4619 0.1033 (  3506 PWs)   bands (ev):

  -113.3556-113.3555 -67.5647 -67.5643 -67.5639 -67.5636 -67.5631 -67.5629
    -7.2222  -7.0157   4.2703   4.4159   4.6621   4.8004   5.0785   5.1084
     5.4835   5.6372   5.7916   6.0224   6.2572   6.9114   7.2965   7.7132
     8.7298   8.9718  16.0610  17.6197  18.5596  18.8568  20.6540  21.3892
    22.4442  24.7675  25.8939  28.4137  30.8936  32.1425  33.1139  33.3990
    35.6714  36.0757  37.0021  37.8353  38.4384  38.9914  39.3162  42.4856
    42.9102  44.4955  45.0790  46.0739

          k = 0.2000 0.4619 0.2066 (  3501 PWs)   bands (ev):

  -113.3556-113.3555 -67.5649 -67.5646 -67.5636 -67.5634 -67.5631 -67.5629
    -7.1744  -7.0549   4.1921   4.2661   4.6382   4.7573   4.9641   4.9923
     5.5801   5.6680   5.8057   5.9468   6.4412   6.8119   7.5811   8.1883
     8.5146   9.0385  16.1875  17.1319  18.7360  18.9642  20.1650  20.7416
    23.3835  25.1907  26.1532  27.7213  30.1390  31.2896  33.1249  33.7537
    35.5459  35.9872  37.4523  38.0846  39.4628  39.9163  41.0463  42.9510
    43.2613  43.4101  44.7409  45.6106

          k = 0.2000 0.4619-0.3100 (  3510 PWs)   bands (ev):

  -113.3556-113.3556 -67.5648 -67.5648 -67.5635 -67.5635 -67.5630 -67.5630
    -7.1125  -7.1125   4.1647   4.1648   4.6953   4.6953   4.9340   4.9341
     5.6490   5.6490   5.8609   5.8609   6.6347   6.6347   7.9808   7.9808
     8.8333   8.8333  16.5688  16.5688  18.9149  18.9149  20.2155  20.2155
    24.5001  24.5001  26.8735  26.8735  30.4461  30.4461  33.3816  33.3816
    35.8297  35.8297  37.8953  37.8953  40.5088  40.5089  42.0044  42.0044
    43.5716  43.5716  44.6727  44.6727

          k = 0.2000 0.5774 0.0000 (  3518 PWs)   bands (ev):

  -113.3556-113.3555 -67.5645 -67.5642 -67.5641 -67.5637 -67.5635 -67.5630
    -7.1559  -7.0156   4.2889   4.6117   4.7693   4.8648   5.1500   5.2449
     5.5210   5.5906   5.7995   5.8142   6.4113   6.6828   6.7775   7.7786
     8.4859   8.7929  16.9060  17.7853  17.8150  18.7200  20.8253  21.6625
    22.8985  23.5428  25.5507  30.1503  30.6842  32.0877  32.7552  33.9375
    35.9121  36.6369  37.3007  37.3158  38.0885  38.4010  39.3299  39.7410
    44.5274  44.8407  45.7366  47.6287

          k = 0.2000 0.5774 0.1033 (  3504 PWs)   bands (ev):

  -113.3556-113.3555 -67.5647 -67.5644 -67.5640 -67.5635 -67.5634 -67.5630
    -7.1440  -7.0224   4.2750   4.5792   4.5911   4.8992   5.1059   5.1708
     5.5637   5.6115   5.8335   5.8514   6.3528   6.6209   6.9739   7.9937
     8.4879   8.7990  16.7908  17.6837  17.9999  18.7960  20.3518  21.2958
    23.2027  24.0138  25.8702  29.4429  30.0475  32.2927  32.9153  33.5855
    35.9272  36.4843  37.1227  38.0578  38.5638  39.3464  39.5079  40.0806
    44.6613  44.6918  45.3922  47.3113

          k = 0.2000 0.5774 0.2066 (  3505 PWs)   bands (ev):

  -113.3556-113.3555 -67.5649 -67.5647 -67.5638 -67.5634 -67.5632 -67.5630
    -7.1134  -7.0430   4.2211   4.3318   4.6048   4.8358   5.0499   5.0639
     5.6017   5.6253   5.9092   5.9430   6.3106   6.4922   7.3639   8.2308
     8.4632   8.9233  16.7218  17.3679  18.3323  18.9003  19.7591  20.5800
    24.0136  24.7441  26.3094  27.8360  29.7970  31.7167  32.9462  33.4343
    35.9280  36.4287  37.4979  38.2428  39.0737  40.5895  41.2933  41.5059
    43.8473  44.7351  45.6545  46.3952

          k = 0.2000 0.5774-0.3100 (  3488 PWs)   bands (ev):

  -113.3555-113.3555 -67.5649 -67.5649 -67.5636 -67.5636 -67.5630 -67.5630
    -7.0756  -7.0756   4.2061   4.2061   4.7038   4.7038   5.0318   5.0318
     5.6191   5.6192   5.9662   5.9662   6.3674   6.3674   7.8115   7.8115
     8.8478   8.8478  16.9466  16.9466  18.6682  18.6682  19.9441  19.9441
    24.8914  24.8914  26.5969  26.5969  30.5648  30.5648  33.1619  33.1619
    36.2345  36.2345  37.9029  37.9029  40.1045  40.1045  43.0301  43.0301
    43.9329  43.9329  46.0870  46.0871

          k = 0.3000 0.5196 0.0000 (  3502 PWs)   bands (ev):

  -113.3556-113.3555 -67.5643 -67.5642 -67.5639 -67.5639 -67.5636 -67.5633
    -7.1179  -7.0280   4.3271   4.6585   4.7851   4.9761   5.2408   5.4375
     5.4406   5.5034   5.7364   5.7551   6.4047   6.4577   6.7523   7.8850
     8.4600   8.4821  17.2667  17.8286  18.3281  18.4130  20.9614  21.0995
    22.7949  23.9957  24.6038  30.3715  31.9602  32.1282  32.7002  34.4127
    35.5559  36.4073  36.8110  37.0164  37.5573  38.2832  39.2588  39.3154
    44.4959  45.9935  46.7098  46.8385

          k = 0.3000 0.5196 0.1033 (  3503 PWs)   bands (ev):

  -113.3556-113.3555 -67.5645 -67.5644 -67.5640 -67.5636 -67.5633 -67.5633
    -7.1093  -7.0313   4.3475   4.5654   4.6914   4.9163   5.1767   5.2400
     5.4820   5.5959   5.8001   5.8706   6.3701   6.5927   6.7255   8.0720
     8.3752   8.6031  17.2805  17.8067  18.4274  18.4312  20.3228  20.6462
    23.2409  24.5174  25.1091  29.4604  30.9868  31.5303  33.2865  34.4446
    35.8545  35.9070  37.2588  38.0721  38.3088  38.9182  39.1097  39.5488
    44.6471  45.9799  46.4414  46.9450

          k = 0.3000 0.5196 0.2066 (  3503 PWs)   bands (ev):

  -113.3556-113.3555 -67.5648 -67.5647 -67.5639 -67.5635 -67.5632 -67.5630
    -7.0877  -7.0425   4.3683   4.3974   4.5479   4.7769   5.1020   5.1272
     5.5326   5.5923   5.9120   6.0256   6.3402   6.5440   7.0418   7.9679
     8.5659   8.8420  17.3591  17.7299  18.4890  18.6915  19.3748  19.8473
    24.1738  25.5596  25.8695  27.7181  29.9392  30.6325  33.5822  34.2004
    35.6884  36.1620  37.6832  38.0826  39.6907  40.0285  40.8400  41.5151
    44.3143  45.3977  45.5100  46.2758

          k = 0.3000 0.5196-0.3100 (  3504 PWs)   bands (ev):

  -113.3556-113.3555 -67.5648 -67.5648 -67.5637 -67.5637 -67.5630 -67.5630
    -7.0625  -7.0625   4.3240   4.3240   4.6198   4.6198   5.0897   5.0897
     5.5674   5.5674   6.0148   6.0148   6.4182   6.4182   7.5147   7.5147
     8.8620   8.8620  17.5495  17.5495  18.6862  18.6862  19.2138  19.2138
    25.4287  25.4287  26.5006  26.5006  29.8504  29.8504  33.8313  33.8313
    36.0159  36.0159  37.6621  37.6622  41.2009  41.2009  42.2761  42.2761
    44.4573  44.4573  45.3884  45.3884

          k = 0.0000-0.1155 0.1033 (  3523 PWs)   bands (ev):

  -113.3557-113.3556 -67.5653 -67.5628 -67.5627 -67.5627 -67.5623 -67.5622
    -7.8238  -7.2199   4.2820   4.3879   4.4084   4.4447   4.5718   4.5853
     5.5228   5.5383   5.7272   5.7474   6.3609   9.0070   9.2254   9.2478
     9.8987   9.9861  12.1009  15.5727  18.5953  22.1508  23.2284  23.2593
    23.5811  24.2988  26.9229  28.1894  28.8098  30.1774  31.2872  31.4882
    32.9498  34.0593  34.8145  34.9442  37.3206  38.1568  38.8798  39.0810
    41.0310  41.1141  43.6527  44.2333

          k = 0.0000-0.1155 0.2066 (  3539 PWs)   bands (ev):

  -113.3557-113.3556 -67.5648 -67.5633 -67.5627 -67.5626 -67.5624 -67.5623
    -7.7003  -7.3517   4.1958   4.2127   4.4339   4.4401   4.5240   4.5351
     5.5804   5.5872   5.6968   5.7066   7.0698   8.5792   9.2079   9.4066
     9.7066   9.8330  12.9582  14.8701  19.2316  21.5799  22.4788  23.1665
    23.2931  23.8686  27.7946  29.1133  29.2084  30.0655  31.3202  31.4394
    33.6192  34.3220  34.5910  35.4633  36.8672  36.9347  38.2609  40.0248
    41.4510  41.6224  42.4838  42.9343

          k = 0.0000-0.2309 0.1033 (  3514 PWs)   bands (ev):

  -113.3557-113.3556 -67.5651 -67.5633 -67.5631 -67.5628 -67.5626 -67.5623
    -7.6767  -7.1502   4.1552   4.3833   4.4903   4.5550   4.7092   4.7173
     5.4796   5.5439   5.7348   5.8035   6.4258   8.1557   8.6334   8.9112
     9.6892   9.7816  13.0680  16.3986  18.6041  20.5985  22.2339  23.3690
    23.4686  24.3508  25.7500  28.1177  28.8600  31.5002  32.3239  33.3726
    33.9770  34.3234  35.1699  36.6996  37.7014  38.1026  38.5963  40.2785
    40.3508  41.4674  42.7453  45.2745

          k = 0.0000-0.2309 0.2066 (  3520 PWs)   bands (ev):

  -113.3557-113.3556 -67.5647 -67.5636 -67.5631 -67.5627 -67.5627 -67.5624
    -7.5674  -7.2633   4.0918   4.1810   4.5251   4.5396   4.6249   4.6502
     5.5615   5.5891   5.6995   5.7360   7.1112   8.1403   8.5702   9.1007
     9.4060   9.6024  13.7103  15.5696  19.1895  20.5965  21.8323  22.5012
    23.5174  23.9905  26.5090  28.6107  29.2447  31.7874  32.3297  32.6347
    33.7127  34.1227  35.4253  37.2947  37.4141  38.1918  38.8234  40.2591
    41.3622  41.6914  42.7447  43.6890

          k = 0.0000-0.3464 0.1033 (  3515 PWs)   bands (ev):

  -113.3557-113.3555 -67.5649 -67.5639 -67.5637 -67.5630 -67.5628 -67.5624
    -7.4794  -7.0722   4.0637   4.3508   4.5781   4.7041   4.8837   4.9249
     5.4619   5.5846   5.7449   5.8597   6.5075   7.2918   7.9815   8.4861
     9.4160   9.5142  14.1584  17.0612  18.5730  19.3469  21.3765  22.8779
    23.6572  24.2343  25.3732  28.7005  29.0165  30.9084  32.6841  35.0039
    35.0807  36.2178  36.4461  37.4959  37.8303  38.7384  39.2778  39.9509
    41.3701  41.7129  43.8159  44.6648

          k = 0.0000-0.3464 0.2066 (  3507 PWs)   bands (ev):

  -113.3556-113.3556 -67.5648 -67.5641 -67.5635 -67.5629 -67.5629 -67.5626
    -7.3924  -7.1569   4.0087   4.1456   4.6308   4.6801   4.7785   4.8056
     5.5643   5.6175   5.7090   5.7783   6.9464   7.4378   8.1190   8.7147
     9.2290   9.3056  14.5563  16.1768  18.9851  19.4594  21.3070  22.4643
    23.7036  24.0372  25.4743  28.0858  30.0116  31.9165  32.2266  33.2362
    35.2650  36.1321  36.5904  37.4461  38.5436  38.7232  39.6364  41.2602
    41.5323  41.7851  44.4159  44.6356

          k = 0.0000-0.4619 0.1033 (  3505 PWs)   bands (ev):

  -113.3556-113.3555 -67.5649 -67.5643 -67.5640 -67.5632 -67.5631 -67.5626
    -7.2966  -7.0257   4.0677   4.3094   4.6336   4.8774   5.0126   5.0466
     5.5555   5.6557   5.7578   5.9253   6.2898   6.8244   7.5838   8.1198
     9.0907   9.2846  15.2000  17.1336  18.2363  18.8100  20.8900  22.6933
    23.5551  24.3142  25.3075  28.7811  30.3447  30.4604  32.0687  35.2073
    35.9296  36.7222  36.9487  37.7256  38.5827  39.7311  40.4246  41.2688
    42.0251  43.2751  43.4500  45.2266

          k = 0.0000-0.4619 0.2066 (  3495 PWs)   bands (ev):

  -113.3556-113.3555 -67.5650 -67.5647 -67.5636 -67.5631 -67.5631 -67.5627
    -7.2359  -7.0792   3.9979   4.1139   4.7059   4.8423   4.9140   4.9421
     5.6391   5.6718   5.7278   5.8327   6.4554   6.8028   8.1067   8.3860
     9.0527   9.0731  15.2984  16.4303  18.5976  18.8641  20.9769  22.4687
    23.6897  24.1292  25.0940  27.9737  31.2045  31.5553  31.8314  34.2299
    35.2189  36.7484  36.8920  37.3992  39.4155  40.2294  41.3892  41.5170
    42.4949  43.6766  44.0815  45.3523

          k =-0.1000-0.2887 0.1033 (  3513 PWs)   bands (ev):

  -113.3557-113.3556 -67.5650 -67.5636 -67.5635 -67.5630 -67.5627 -67.5624
    -7.5505  -7.0976   4.1304   4.3541   4.5393   4.6214   4.8290   4.8484
     5.4613   5.5634   5.7400   5.8472   6.4950   7.7163   8.0944   8.5834
     9.5111   9.5480  13.8257  16.9484  18.6529  19.8632  21.6964  22.5564
    23.1222  24.8562  25.7880  27.3762  29.9693  31.9121  32.6293  33.3020
    34.4293  35.3663  36.4431  37.4557  37.7999  38.4446  38.9907  39.9539
    41.2819  41.8146  42.5950  45.5657

          k =-0.1000-0.2887 0.2066 (  3506 PWs)   bands (ev):

  -113.3556-113.3556 -67.5647 -67.5639 -67.5633 -67.5630 -67.5627 -67.5626
    -7.4548  -7.1930   4.0651   4.1679   4.5601   4.6008   4.7196   4.7675
     5.5584   5.6055   5.7050   5.7674   7.0717   7.7637   8.2298   8.7396
     9.2840   9.3411  14.3232  16.0633  19.1237  19.9368  21.5443  22.0461
    23.1887  24.2689  26.4546  28.0031  29.5604  31.4624  32.8159  33.0791
    34.9265  35.6379  36.0446  36.8364  38.3576  38.7462  39.2206  40.3797
    41.7435  42.1431  43.1435  44.5863

          k =-0.1000-0.4041 0.1033 (  3506 PWs)   bands (ev):

  -113.3556-113.3555 -67.5648 -67.5641 -67.5639 -67.5632 -67.5630 -67.5626
    -7.3583  -7.0367   4.1087   4.3566   4.5953   4.7806   4.9905   5.0008
     5.4801   5.6263   5.7569   5.9172   6.4435   7.0658   7.6772   8.0544
     9.1861   9.2655  14.9355  17.3333  18.5973  18.9558  21.0852  22.3021
    22.8123  24.6192  25.8643  28.2324  29.9276  31.5441  32.4871  34.3500
    35.6282  36.2679  37.1108  37.6638  38.3313  39.2614  39.9098  40.2393
    41.8440  43.0020  44.5393  45.6143

          k =-0.1000-0.4041 0.2066 (  3507 PWs)   bands (ev):

  -113.3556-113.3556 -67.5649 -67.5644 -67.5636 -67.5632 -67.5629 -67.5627
    -7.2877  -7.1017   4.0421   4.1646   4.6471   4.7478   4.8513   4.9075
     5.5801   5.6580   5.7312   5.8254   6.7011   7.1128   8.0606   8.3248
     8.9660   9.1716  15.1873  16.5444  18.8809  19.0779  20.9765  21.9184
    23.2276  24.4468  25.8881  27.9382  30.0893  31.7130  32.6905  33.3177
    35.8825  36.2879  36.8391  37.5265  39.2810  39.7794  40.4852  41.0192
    41.7261  43.6555  44.4604  45.1128

          k =-0.1000-0.5196 0.1033 (  3505 PWs)   bands (ev):

  -113.3556-113.3555 -67.5649 -67.5644 -67.5640 -67.5634 -67.5632 -67.5627
    -7.2168  -7.0182   4.1494   4.3628   4.6247   4.9186   5.0316   5.1158
     5.5841   5.6620   5.7826   5.9220   6.2479   6.6793   7.4892   7.8790
     8.8718   9.0730  15.8892  17.2304  18.0786  18.7988  20.6671  22.4200
    22.9265  24.2661  25.8885  28.9355  30.0541  31.5074  32.0522  34.8900
    35.6943  36.4122  37.2283  37.7585  38.5679  39.5207  40.4043  42.4692
    43.1885  43.6046  44.6550  45.2117

          k =-0.1000-0.5196 0.2066 (  3496 PWs)   bands (ev):

  -113.3556-113.3555 -67.5651 -67.5648 -67.5636 -67.5632 -67.5631 -67.5628
    -7.1705  -7.0556   4.0692   4.1622   4.6903   4.8814   4.9695   4.9935
     5.6481   5.6854   5.7903   5.8932   6.2998   6.5675   7.9332   8.3072
     8.7333   9.0273  15.8456  16.7066  18.4280  18.8287  20.5864  21.7839
    23.6075  24.3467  25.7265  27.9534  30.7011  31.7032  32.4806  33.6011
    35.7506  36.4412  37.0042  37.6234  39.6684  40.4612  41.2391  42.5675
    43.4184  43.8811  44.8039  45.4698

          k =-0.2000-0.4619 0.1033 (  3506 PWs)   bands (ev):

  -113.3556-113.3555 -67.5647 -67.5643 -67.5639 -67.5636 -67.5631 -67.5629
    -7.2222  -7.0157   4.2703   4.4159   4.6621   4.8004   5.0785   5.1084
     5.4835   5.6372   5.7916   6.0224   6.2572   6.9114   7.2965   7.7132
     8.7298   8.9718  16.0610  17.6197  18.5596  18.8568  20.6540  21.3892
    22.4442  24.7675  25.8939  28.4137  30.8936  32.1425  33.1139  33.3990
    35.6714  36.0757  37.0021  37.8353  38.4384  38.9913  39.3162  42.4856
    42.9102  44.4955  45.0790  46.0739

          k =-0.2000-0.4619 0.2066 (  3501 PWs)   bands (ev):

  -113.3556-113.3555 -67.5649 -67.5646 -67.5636 -67.5634 -67.5631 -67.5629
    -7.1744  -7.0549   4.1921   4.2661   4.6382   4.7573   4.9641   4.9923
     5.5801   5.6680   5.8057   5.9468   6.4412   6.8119   7.5811   8.1883
     8.5146   9.0385  16.1875  17.1319  18.7360  18.9642  20.1650  20.7416
    23.3835  25.1907  26.1532  27.7213  30.1389  31.2896  33.1249  33.7537
    35.5459  35.9872  37.4523  38.0846  39.4628  39.9163  41.0463  42.9510
    43.2613  43.4101  44.7409  45.6106

     the Fermi energy is    10.5605 ev

!    total energy              =    -864.69010447 Ry
     estimated scf accuracy    <          1.3E-11 Ry
     smearing contrib. (-TS)   =      -0.00000000 Ry
     internal energy E=F+TS    =    -864.69010447 Ry

     The total energy is F=E-TS. E is the sum of the following terms:
     one-electron contribution =    -571.81257987 Ry
     hartree contribution      =     302.50727206 Ry
     xc contribution           =     -87.21424998 Ry
     ewald contribution        =    -508.17054667 Ry

     convergence has been achieved in  12 iterations

     Writing all to output data dir out/mp-2133.save/
 
     init_run     :      1.59s CPU      1.99s WALL (       1 calls)
     electrons    :     28.99s CPU     31.59s WALL (       1 calls)

     Called by init_run:
     wfcinit      :      1.57s CPU      1.92s WALL (       1 calls)
     potinit      :      0.01s CPU      0.01s WALL (       1 calls)
     hinit0       :      0.01s CPU      0.04s WALL (       1 calls)

     Called by electrons:
     c_bands      :     25.93s CPU     27.99s WALL (      12 calls)
     sum_band     :      3.00s CPU      3.33s WALL (      12 calls)
     v_of_rho     :      0.03s CPU      0.03s WALL (      13 calls)
     mix_rho      :      0.03s CPU      0.11s WALL (      12 calls)

     Called by c_bands:
     init_us_2    :      0.11s CPU      0.13s WALL (    1800 calls)
     init_us_2:cp :      0.11s CPU      0.12s WALL (    1800 calls)
     cegterg      :     25.15s CPU     26.11s WALL (     864 calls)

     Called by *egterg:
     cdiaghg      :      8.90s CPU      8.98s WALL (    3091 calls)
     h_psi        :     15.07s CPU     16.08s WALL (    3163 calls)
     g_psi        :      0.07s CPU      0.07s WALL (    2227 calls)

     Called by h_psi:
     h_psi:calbec :      0.50s CPU      0.53s WALL (    3163 calls)
     vloc_psi     :     14.24s CPU     15.19s WALL (    3163 calls)
     add_vuspsi   :      0.28s CPU      0.29s WALL (    3163 calls)

     General routines
     calbec       :      0.49s CPU      0.52s WALL (    3163 calls)
     fft          :      0.01s CPU      0.04s WALL (     129 calls)
     ffts         :      0.00s CPU      0.00s WALL (      12 calls)
     fftw         :     15.77s CPU     16.84s WALL (  289928 calls)
     davcio       :      0.25s CPU      1.47s WALL (    2882 calls)
 
     Parallel routines
 
     PWSCF        :     31.06s CPU     36.12s WALL

 
   This run was terminated on:  16:17:30  19Nov2023            

=------------------------------------------------------------------------------=
   JOB DONE.
=------------------------------------------------------------------------------=
