
     Program PWSCF v.7.1 starts on 19Nov2023 at 16:56:32 

     This program is part of the open-source Quantum ESPRESSO suite
     for quantum simulation of materials; please cite
         "P. Giannozzi et al., J. Phys.:Condens. Matter 21 395502 (2009);
         "P. Giannozzi et al., J. Phys.:Condens. Matter 29 465901 (2017);
         "P. Giannozzi et al., J. Chem. Phys. 152 154105 (2020);
          URL http://www.quantum-espresso.org", 
     in publications or presentations arising from this work. More details at
     http://www.quantum-espresso.org/quote

     Parallel version (MPI), running on    24 processors

     MPI processes distributed on     1 nodes
     123253 MiB available memory on the printing compute node when the environment starts
 
     Reading input from pw_mp-2133_scf_k3000_E80.in
Warning: card &CELL ignored
Warning: card / ignored

     Current dimensions of program PWSCF are:
     Max number of different atomic species (ntypx) = 10
     Max number of k-points (npk) =  40000
     Max angular momentum in pseudopotentials (lmaxx) =  4
 
     R & G space division:  proc/nbgrp/npool/nimage =      24
     Subspace diagonalization in iterative solution of the eigenvalue problem:
     a serial algorithm will be used

 
     Parallelization info
     --------------------
     sticks:   dense  smooth     PW     G-vecs:    dense   smooth      PW
     Min          34      34     10                 1284     1284     202
     Max          35      35     11                 1291     1291     207
     Sum         823     823    241                30903    30903    4867
 
     Using Slab Decomposition
 


     bravais-lattice index     =            4
     lattice parameter (alat)  =       6.1177  a.u.
     unit-cell volume          =     319.8517 (a.u.)^3
     number of atoms/cell      =            4
     number of atomic types    =            2
     number of electrons       =        52.00
     number of Kohn-Sham states=           52
     kinetic-energy cutoff     =      80.0000  Ry
     charge density cutoff     =     320.0000  Ry
     scf convergence threshold =      1.0E-10
     mixing beta               =       0.7000
     number of iterations used =            8  plain     mixing
     Exchange-correlation= PBE
                           (   1   4   3   4   0   0   0)

     celldm(1)=   6.117706  celldm(2)=   0.000000  celldm(3)=   1.613066
     celldm(4)=   0.000000  celldm(5)=   0.000000  celldm(6)=   0.000000

     crystal axes: (cart. coord. in units of alat)
               a(1) = (   1.000000   0.000000   0.000000 )  
               a(2) = (  -0.500000   0.866025   0.000000 )  
               a(3) = (   0.000000   0.000000   1.613066 )  

     reciprocal axes: (cart. coord. in units 2 pi/alat)
               b(1) = (  1.000000  0.577350  0.000000 )  
               b(2) = (  0.000000  1.154701  0.000000 )  
               b(3) = (  0.000000  0.000000  0.619937 )  


     PseudoPot. # 1 for O  read from file:
     /usr/scratch4/magr4985/MG/HTDF/pseudo/SG15/O.upf
     MD5 check sum: e36c48deb68f4e355fffe4602be2c42c
     Pseudo is Norm-conserving, Zval =  6.0
     Generated using ONCVPSP code by D. R. Hamann
     Using radial grid of  602 points,  4 beta functions with: 
                l(1) =   0
                l(2) =   0
                l(3) =   1
                l(4) =   1

     PseudoPot. # 2 for Zn read from file:
     /usr/scratch4/magr4985/MG/HTDF/pseudo/SG15/Zn.upf
     MD5 check sum: 732f41c0cd6489a4b50a33b4ec99a2d3
     Pseudo is Norm-conserving, Zval = 20.0
     Generated using ONCVPSP code by D. R. Hamann
     Using radial grid of  602 points,  6 beta functions with: 
                l(1) =   0
                l(2) =   0
                l(3) =   1
                l(4) =   1
                l(5) =   2
                l(6) =   2

     atomic species   valence    mass     pseudopotential
        O              6.00    15.99940     O ( 1.00)
        Zn            20.00    65.40900     Zn( 1.00)

      6 Sym. Ops. (no inversion) found



   Cartesian axes

     site n.     atom                  positions (alat units)
         1           Zn  tau(   1) = (   0.0000000   0.5773502   0.8074876  )
         2           Zn  tau(   2) = (   0.5000000   0.2886752   0.0009545  )
         3           O   tau(   3) = (   0.0000000   0.5773502   1.4190439  )
         4           O   tau(   4) = (   0.5000000   0.2886752   0.6125108  )

     number of k points=    72  Gaussian smearing, width (Ry)=  0.0005
                       cart. coord. in units 2pi/alat
        k(    1) = (   0.0000000   0.0000000   0.0000000), wk =   0.0033333
        k(    2) = (   0.0000000   0.0000000   0.1033229), wk =   0.0066667
        k(    3) = (   0.0000000   0.0000000   0.2066458), wk =   0.0066667
        k(    4) = (   0.0000000   0.0000000  -0.3099687), wk =   0.0033333
        k(    5) = (   0.0000000   0.1154701   0.0000000), wk =   0.0200000
        k(    6) = (   0.0000000   0.1154701   0.1033229), wk =   0.0200000
        k(    7) = (   0.0000000   0.1154701   0.2066458), wk =   0.0200000
        k(    8) = (   0.0000000   0.1154701  -0.3099687), wk =   0.0200000
        k(    9) = (   0.0000000   0.2309401   0.0000000), wk =   0.0200000
        k(   10) = (   0.0000000   0.2309401   0.1033229), wk =   0.0200000
        k(   11) = (   0.0000000   0.2309401   0.2066458), wk =   0.0200000
        k(   12) = (   0.0000000   0.2309401  -0.3099687), wk =   0.0200000
        k(   13) = (   0.0000000   0.3464102   0.0000000), wk =   0.0200000
        k(   14) = (   0.0000000   0.3464102   0.1033229), wk =   0.0200000
        k(   15) = (   0.0000000   0.3464102   0.2066458), wk =   0.0200000
        k(   16) = (   0.0000000   0.3464102  -0.3099687), wk =   0.0200000
        k(   17) = (   0.0000000   0.4618802   0.0000000), wk =   0.0200000
        k(   18) = (   0.0000000   0.4618802   0.1033229), wk =   0.0200000
        k(   19) = (   0.0000000   0.4618802   0.2066458), wk =   0.0200000
        k(   20) = (   0.0000000   0.4618802  -0.3099687), wk =   0.0200000
        k(   21) = (   0.0000000  -0.5773503   0.0000000), wk =   0.0100000
        k(   22) = (   0.0000000  -0.5773503   0.1033229), wk =   0.0200000
        k(   23) = (   0.0000000  -0.5773503   0.2066458), wk =   0.0200000
        k(   24) = (   0.0000000  -0.5773503  -0.3099687), wk =   0.0100000
        k(   25) = (   0.1000000   0.1732051   0.0000000), wk =   0.0200000
        k(   26) = (   0.1000000   0.1732051   0.1033229), wk =   0.0400000
        k(   27) = (   0.1000000   0.1732051   0.2066458), wk =   0.0400000
        k(   28) = (   0.1000000   0.1732051  -0.3099687), wk =   0.0200000
        k(   29) = (   0.1000000   0.2886751   0.0000000), wk =   0.0400000
        k(   30) = (   0.1000000   0.2886751   0.1033229), wk =   0.0400000
        k(   31) = (   0.1000000   0.2886751   0.2066458), wk =   0.0400000
        k(   32) = (   0.1000000   0.2886751  -0.3099687), wk =   0.0400000
        k(   33) = (   0.1000000   0.4041452   0.0000000), wk =   0.0400000
        k(   34) = (   0.1000000   0.4041452   0.1033229), wk =   0.0400000
        k(   35) = (   0.1000000   0.4041452   0.2066458), wk =   0.0400000
        k(   36) = (   0.1000000   0.4041452  -0.3099687), wk =   0.0400000
        k(   37) = (   0.1000000   0.5196152   0.0000000), wk =   0.0400000
        k(   38) = (   0.1000000   0.5196152   0.1033229), wk =   0.0400000
        k(   39) = (   0.1000000   0.5196152   0.2066458), wk =   0.0400000
        k(   40) = (   0.1000000   0.5196152  -0.3099687), wk =   0.0400000
        k(   41) = (   0.2000000   0.3464102   0.0000000), wk =   0.0200000
        k(   42) = (   0.2000000   0.3464102   0.1033229), wk =   0.0400000
        k(   43) = (   0.2000000   0.3464102   0.2066458), wk =   0.0400000
        k(   44) = (   0.2000000   0.3464102  -0.3099687), wk =   0.0200000
        k(   45) = (   0.2000000   0.4618802   0.0000000), wk =   0.0400000
        k(   46) = (   0.2000000   0.4618802   0.1033229), wk =   0.0400000
        k(   47) = (   0.2000000   0.4618802   0.2066458), wk =   0.0400000
        k(   48) = (   0.2000000   0.4618802  -0.3099687), wk =   0.0400000
        k(   49) = (   0.2000000   0.5773503   0.0000000), wk =   0.0200000
        k(   50) = (   0.2000000   0.5773503   0.1033229), wk =   0.0400000
        k(   51) = (   0.2000000   0.5773503   0.2066458), wk =   0.0400000
        k(   52) = (   0.2000000   0.5773503  -0.3099687), wk =   0.0200000
        k(   53) = (   0.3000000   0.5196152   0.0000000), wk =   0.0200000
        k(   54) = (   0.3000000   0.5196152   0.1033229), wk =   0.0400000
        k(   55) = (   0.3000000   0.5196152   0.2066458), wk =   0.0400000
        k(   56) = (   0.3000000   0.5196152  -0.3099687), wk =   0.0200000
        k(   57) = (   0.0000000  -0.1154701   0.1033229), wk =   0.0200000
        k(   58) = (   0.0000000  -0.1154701   0.2066458), wk =   0.0200000
        k(   59) = (   0.0000000  -0.2309401   0.1033229), wk =   0.0200000
        k(   60) = (   0.0000000  -0.2309401   0.2066458), wk =   0.0200000
        k(   61) = (   0.0000000  -0.3464102   0.1033229), wk =   0.0200000
        k(   62) = (   0.0000000  -0.3464102   0.2066458), wk =   0.0200000
        k(   63) = (   0.0000000  -0.4618802   0.1033229), wk =   0.0200000
        k(   64) = (   0.0000000  -0.4618802   0.2066458), wk =   0.0200000
        k(   65) = (  -0.1000000  -0.2886751   0.1033229), wk =   0.0400000
        k(   66) = (  -0.1000000  -0.2886751   0.2066458), wk =   0.0400000
        k(   67) = (  -0.1000000  -0.4041452   0.1033229), wk =   0.0400000
        k(   68) = (  -0.1000000  -0.4041452   0.2066458), wk =   0.0400000
        k(   69) = (  -0.1000000  -0.5196152   0.1033229), wk =   0.0400000
        k(   70) = (  -0.1000000  -0.5196152   0.2066458), wk =   0.0400000
        k(   71) = (  -0.2000000  -0.4618802   0.1033229), wk =   0.0400000
        k(   72) = (  -0.2000000  -0.4618802   0.2066458), wk =   0.0400000

     Dense  grid:    30903 G-vectors     FFT dimensions: (  36,  36,  60)

     Estimated max dynamical RAM per process >       5.02 MB

     Estimated total dynamical RAM >     120.38 MB

     Initial potential from superposition of free atoms

     starting charge      51.9527, renormalised to      52.0000
     Starting wfcs are random

     total cpu time spent up to now is        0.9 secs

     Self-consistent Calculation

     iteration #  1     ecut=    80.00 Ry     beta= 0.70
     Davidson diagonalization with overlap
     ethr =  1.00E-02,  avg # of iterations =  9.4

     total cpu time spent up to now is        8.4 secs

     total energy              =    -864.24707904 Ry
     estimated scf accuracy    <       0.86208415 Ry

     iteration #  2     ecut=    80.00 Ry     beta= 0.70
     Davidson diagonalization with overlap
     ethr =  1.66E-03,  avg # of iterations =  2.0

     total cpu time spent up to now is       11.2 secs

     total energy              =    -864.43902841 Ry
     estimated scf accuracy    <       1.33103976 Ry

     iteration #  3     ecut=    80.00 Ry     beta= 0.70
     Davidson diagonalization with overlap
     ethr =  1.66E-03,  avg # of iterations =  1.8

     total cpu time spent up to now is       13.5 secs

     total energy              =    -864.68986830 Ry
     estimated scf accuracy    <       0.00603467 Ry

     iteration #  4     ecut=    80.00 Ry     beta= 0.70
     Davidson diagonalization with overlap
     ethr =  1.16E-05,  avg # of iterations =  3.9

     total cpu time spent up to now is       16.9 secs

     total energy              =    -864.69162058 Ry
     estimated scf accuracy    <       0.00437901 Ry

     iteration #  5     ecut=    80.00 Ry     beta= 0.70
     Davidson diagonalization with overlap
     ethr =  8.42E-06,  avg # of iterations =  1.2

     total cpu time spent up to now is       18.9 secs

     total energy              =    -864.69187677 Ry
     estimated scf accuracy    <       0.00043929 Ry

     iteration #  6     ecut=    80.00 Ry     beta= 0.70
     Davidson diagonalization with overlap
     ethr =  8.45E-07,  avg # of iterations =  2.4

     total cpu time spent up to now is       21.3 secs

     total energy              =    -864.69190040 Ry
     estimated scf accuracy    <       0.00004239 Ry

     iteration #  7     ecut=    80.00 Ry     beta= 0.70
     Davidson diagonalization with overlap
     ethr =  8.15E-08,  avg # of iterations =  2.0

     total cpu time spent up to now is       25.6 secs

     total energy              =    -864.69190933 Ry
     estimated scf accuracy    <       0.00001223 Ry

     iteration #  8     ecut=    80.00 Ry     beta= 0.70
     Davidson diagonalization with overlap
     ethr =  2.35E-08,  avg # of iterations =  1.0

     total cpu time spent up to now is       27.6 secs

     total energy              =    -864.69191025 Ry
     estimated scf accuracy    <       0.00000058 Ry

     iteration #  9     ecut=    80.00 Ry     beta= 0.70
     Davidson diagonalization with overlap
     ethr =  1.11E-09,  avg # of iterations =  2.0

     total cpu time spent up to now is       30.0 secs

     total energy              =    -864.69191038 Ry
     estimated scf accuracy    <          7.6E-09 Ry

     iteration # 10     ecut=    80.00 Ry     beta= 0.70
     Davidson diagonalization with overlap
     ethr =  1.46E-11,  avg # of iterations =  1.6

     total cpu time spent up to now is       32.1 secs

     total energy              =    -864.69191038 Ry
     estimated scf accuracy    <          5.2E-10 Ry

     iteration # 11     ecut=    80.00 Ry     beta= 0.70
     Davidson diagonalization with overlap
     ethr =  1.01E-12,  avg # of iterations =  1.8

     total cpu time spent up to now is       34.5 secs

     total energy              =    -864.69191038 Ry
     estimated scf accuracy    <          3.8E-10 Ry

     iteration # 12     ecut=    80.00 Ry     beta= 0.70
     Davidson diagonalization with overlap
     ethr =  7.23E-13,  avg # of iterations =  2.0

     total cpu time spent up to now is       36.8 secs

     End of self-consistent calculation

          k = 0.0000 0.0000 0.0000 (  3875 PWs)   bands (ev):

  -113.3578-113.3576 -67.5660 -67.5630 -67.5630 -67.5628 -67.5625 -67.5625
    -7.9224  -7.1942   4.3692   4.3692   4.4152   4.4964   4.5610   4.5610
     5.5225   5.5225   5.7320   5.7320   6.0236   9.3233   9.3233  10.0278
    10.1139  10.1139  10.9810  15.4373  18.3673  23.1298  23.1298  24.2008
    24.3941  24.3941  26.7569  28.3994  28.3994  30.0814  30.0814  30.1493
    31.4464  33.4048  35.0776  35.0776  37.6897  38.6531  38.6531  38.9987
    41.3673  41.3673  44.7422  44.7422

          k = 0.0000 0.0000 0.1033 (  3868 PWs)   bands (ev):

  -113.3578-113.3576 -67.5658 -67.5630 -67.5630 -67.5630 -67.5625 -67.5625
    -7.8761  -7.2455   4.3670   4.3712   4.3761   4.3761   4.5415   4.5415
     5.5416   5.5416   5.7238   5.7238   6.3429   9.3774   9.3774   9.4800
    10.0622  10.0622  11.6137  15.1923  18.5881  23.1338  23.1338  23.2773
    24.1977  24.1977  27.1144  28.6947  28.6947  29.9474  30.4111  30.4111
    32.5099  33.3768  34.7284  34.7284  38.1352  38.1352  38.3620  38.3930
    41.5375  41.5375  43.5191  43.5191

          k = 0.0000 0.0000 0.2066 (  3838 PWs)   bands (ev):

  -113.3577-113.3576 -67.5652 -67.5636 -67.5629 -67.5629 -67.5626 -67.5626
    -7.7479  -7.3839   4.2119   4.2596   4.3990   4.3990   4.4937   4.4937
     5.5904   5.5904   5.6964   5.6964   7.0430   8.6787   9.5244   9.5244
     9.9200   9.9200  12.6166  14.5423  19.2251  21.6826  23.2001  23.2001
    23.7850  23.7850  27.7146  29.3007  29.4732  29.4732  30.8689  30.8689
    33.8116  34.3530  34.3530  34.6711  36.7424  36.7424  37.3817  39.5212
    41.8400  41.8400  42.5482  42.5482

          k = 0.0000 0.0000-0.3100 (  3820 PWs)   bands (ev):

  -113.3577-113.3576 -67.5644 -67.5644 -67.5627 -67.5627 -67.5627 -67.5627
    -7.5684  -7.5684   4.1802   4.1802   4.4403   4.4403   4.4403   4.4403
     5.6486   5.6486   5.6486   5.6486   7.8569   7.8570   9.7234   9.7234
     9.7234   9.7234  13.6379  13.6379  20.2651  20.2651  23.4136  23.4136
    23.4136  23.4136  28.4629  28.4629  30.4249  30.4249  30.4249  30.4249
    34.7770  34.7770  35.1578  35.1578  35.1578  35.1578  38.7067  38.7067
    42.1220  42.1220  42.1220  42.1220

          k = 0.0000 0.1155 0.0000 (  3881 PWs)   bands (ev):

  -113.3578-113.3576 -67.5659 -67.5632 -67.5631 -67.5629 -67.5627 -67.5625
    -7.8668  -7.1693   4.3095   4.4010   4.4493   4.5390   4.5936   4.6061
     5.4998   5.5194   5.7368   5.7785   6.0108   8.9591   9.1897   9.5142
     9.9621  10.0426  11.7085  15.8505  18.3637  22.1076  23.2233  23.6460
    24.3716  24.5183  26.2327  27.7698  28.5869  30.2330  31.3135  31.3893
    32.1513  34.0535  34.8791  35.1684  38.0795  38.6852  38.6967  38.9289
    40.6529  40.9190  44.3763  45.7006

          k = 0.0000 0.1155 0.1033 (  3874 PWs)   bands (ev):

  -113.3577-113.3576 -67.5657 -67.5632 -67.5631 -67.5630 -67.5627 -67.5625
    -7.8221  -7.2181   4.2824   4.3884   4.4089   4.4451   4.5723   4.5857
     5.5230   5.5385   5.7273   5.7475   6.3611   9.0075   9.2260   9.2483
     9.8989   9.9869  12.1013  15.5726  18.5940  22.1503  23.2279  23.2588
    23.5804  24.2981  26.9225  28.1891  28.8093  30.1768  31.2865  31.4875
    32.9491  34.0577  34.8126  34.9431  37.3189  38.1538  38.8746  39.0794
    41.0289  41.1119  43.6495  44.2313

          k = 0.0000 0.1155 0.2066 (  3857 PWs)   bands (ev):

  -113.3577-113.3576 -67.5651 -67.5637 -67.5631 -67.5629 -67.5627 -67.5626
    -7.6987  -7.3499   4.1963   4.2132   4.4343   4.4405   4.5244   4.5355
     5.5806   5.5873   5.6970   5.7068   7.0702   8.5797   9.2085   9.4074
     9.7072   9.8338  12.9585  14.8701  19.2308  21.5795  22.4783  23.1658
    23.2927  23.8681  27.7940  29.1126  29.2079  30.0650  31.3196  31.4384
    33.6184  34.3210  34.5905  35.4626  36.8664  36.9330  38.2579  40.0230
    41.4475  41.6188  42.4800  42.9308

          k = 0.0000 0.1155-0.3100 (  3868 PWs)   bands (ev):

  -113.3577-113.3577 -67.5644 -67.5644 -67.5629 -67.5629 -67.5628 -67.5628
    -7.5264  -7.5264   4.1480   4.1480   4.4732   4.4732   4.4789   4.4789
     5.6467   5.6467   5.6489   5.6489   7.8514   7.8514   9.4502   9.4502
     9.6221   9.6221  13.9434  13.9434  20.2414  20.2414  22.7634  22.7634
    23.5001  23.5001  28.5567  28.5567  30.4622  30.4622  30.8401  30.8401
    33.8151  33.8151  35.5127  35.5127  36.5969  36.5969  39.3626  39.3626
    41.7011  41.7011  42.1787  42.1787

          k = 0.0000 0.2309 0.0000 (  3879 PWs)   bands (ev):

  -113.3577-113.3576 -67.5656 -67.5637 -67.5633 -67.5632 -67.5630 -67.5626
    -7.7148  -7.1069   4.1848   4.4754   4.4794   4.5847   4.7333   4.8206
     5.4424   5.5268   5.7471   5.9081   5.9889   8.0906   8.7605   8.8414
     9.7588   9.8474  12.8374  16.7797  18.3426  20.5327  22.3693  23.4663
    23.9538  24.5376  25.5006  27.6657  28.5759  31.3594  32.7934  33.4908
    33.5734  34.0706  35.4722  37.0807  37.5790  38.4124  38.6920  39.5517
    40.1234  41.3964  42.5148  45.9428

          k = 0.0000 0.2309 0.1033 (  3880 PWs)   bands (ev):

  -113.3577-113.3576 -67.5655 -67.5637 -67.5635 -67.5632 -67.5630 -67.5627
    -7.6751  -7.1484   4.1555   4.3837   4.4908   4.5554   4.7096   4.7178
     5.4798   5.5440   5.7349   5.8036   6.4261   8.1562   8.6338   8.9117
     9.6894   9.7823  13.0682  16.3982  18.6032  20.5979  22.2330  23.3684
    23.4677  24.3499  25.7493  28.1174  28.8592  31.4992  32.3232  33.3717
    33.9757  34.3224  35.1688  36.6989  37.6999  38.0992  38.5929  40.2761
    40.3484  41.4652  42.7423  45.2733

          k = 0.0000 0.2309 0.2066 (  3872 PWs)   bands (ev):

  -113.3577-113.3576 -67.5651 -67.5640 -67.5635 -67.5631 -67.5631 -67.5628
    -7.5657  -7.2615   4.0922   4.1813   4.5255   4.5400   4.6253   4.6506
     5.5616   5.5893   5.6996   5.7361   7.1116   8.1408   8.5707   9.1013
     9.4064   9.6031  13.7105  15.5693  19.1889  20.5959  21.8314  22.5004
    23.5166  23.9897  26.5084  28.6099  29.2444  31.7866  32.3289  32.6341
    33.7121  34.1211  35.4245  37.2919  37.4130  38.1901  38.8194  40.2579
    41.3587  41.6890  42.7428  43.6870

          k = 0.0000 0.2309-0.3100 (  3858 PWs)   bands (ev):

  -113.3576-113.3576 -67.5646 -67.5646 -67.5633 -67.5632 -67.5629 -67.5629
    -7.4145  -7.4145   4.0759   4.0759   4.5665   4.5665   4.5821   4.5821
     5.6469   5.6469   5.6546   5.6546   7.7239   7.7239   8.9522   8.9522
     9.3547   9.3547  14.6079  14.6079  19.9698  19.9698  21.9318  21.9318
    23.6854  23.6854  27.6032  27.6032  30.7412  30.7412  32.4227  32.4227
    33.7195  33.7195  36.3296  36.3296  38.1256  38.1256  40.0101  40.0101
    41.8994  41.8994  42.3817  42.3817

          k = 0.0000 0.3464 0.0000 (  3861 PWs)   bands (ev):

  -113.3577-113.3575 -67.5653 -67.5644 -67.5639 -67.5635 -67.5632 -67.5628
    -7.5097  -7.0395   4.0937   4.4444   4.5605   4.7292   4.9150   5.0784
     5.4120   5.5726   5.7588   5.9286   6.1563   7.1751   8.0513   8.4004
     9.4235   9.5907  14.0486  17.5862  18.2461  19.2765  21.4154  22.8619
    23.6519  24.3178  25.8901  28.4461  28.6558  30.4000  33.6271  34.8898
    35.5378  35.9383  36.0367  37.7411  38.4487  38.6822  38.8071  39.7720
    40.3976  41.5104  43.8173  44.1161

          k = 0.0000 0.3464 0.1033 (  3873 PWs)   bands (ev):

  -113.3577-113.3576 -67.5653 -67.5642 -67.5641 -67.5634 -67.5632 -67.5628
    -7.4778  -7.0703   4.0641   4.3512   4.5786   4.7045   4.8841   4.9253
     5.4621   5.5847   5.7450   5.8599   6.5079   7.2923   7.9818   8.4865
     9.4165   9.5149  14.1584  17.0608  18.5725  19.3461  21.3754  22.8773
    23.6564  24.2327  25.3724  28.6995  29.0160  30.9075  32.6830  35.0031
    35.0794  36.2170  36.4450  37.4949  37.8276  38.7370  39.2762  39.9493
    41.3686  41.7112  43.8151  44.6643

          k = 0.0000 0.3464 0.2066 (  3867 PWs)   bands (ev):

  -113.3576-113.3576 -67.5652 -67.5645 -67.5639 -67.5633 -67.5633 -67.5629
    -7.3907  -7.1551   4.0091   4.1460   4.6312   4.6804   4.7788   4.8060
     5.5644   5.6176   5.7091   5.7784   6.9467   7.4382   8.1195   8.7151
     9.2294   9.3062  14.5563  16.1765  18.9845  19.4587  21.3058  22.4636
    23.7027  24.0357  25.4736  28.0848  30.0112  31.9154  32.2253  33.2358
    35.2636  36.1308  36.5887  37.4432  38.5427  38.7212  39.6353  41.2586
    41.5312  41.7831  44.4156  44.6351

          k = 0.0000 0.3464-0.3100 (  3870 PWs)   bands (ev):

  -113.3576-113.3576 -67.5649 -67.5649 -67.5635 -67.5635 -67.5631 -67.5631
    -7.2723  -7.2723   4.0148   4.0148   4.7043   4.7043   4.7124   4.7124
     5.6628   5.6628   5.6774   5.6774   7.2474   7.2474   8.7276   8.7276
     9.0154   9.0154  15.2748  15.2748  19.3304  19.3304  21.6797  21.6797
    23.8337  23.8337  26.6842  26.6842  31.4757  31.4757  32.3167  32.3167
    35.6473  35.6473  37.0354  37.0354  38.7286  38.7286  40.6928  40.6928
    42.7395  42.7395  43.2571  43.2571

          k = 0.0000 0.4619 0.0000 (  3861 PWs)   bands (ev):

  -113.3576-113.3575 -67.5650 -67.5648 -67.5645 -67.5636 -67.5635 -67.5629
    -7.3174  -7.0049   4.1058   4.4067   4.6091   4.9090   5.0868   5.0880
     5.5255   5.6503   5.7717   5.9905   6.1932   6.6937   7.4739   8.0178
     9.0307   9.3693  15.2245  17.6875  17.7842  18.7733  20.9348  22.5281
    23.5095  24.3826  26.0748  28.6298  29.5514  30.0462  33.3875  34.7019
    36.0131  36.4770  37.4372  37.9482  38.9010  39.1696  39.8380  41.3303
    41.8589  42.2455  43.2340  45.8221

          k = 0.0000 0.4619 0.1033 (  3862 PWs)   bands (ev):

  -113.3576-113.3575 -67.5653 -67.5647 -67.5644 -67.5636 -67.5635 -67.5629
    -7.2948  -7.0239   4.0682   4.3099   4.6340   4.8778   5.0130   5.0469
     5.5556   5.6558   5.7579   5.9255   6.2901   6.8247   7.5842   8.1203
     9.0913   9.2852  15.2000  17.1333  18.2357  18.8090  20.8890  22.6921
    23.5546  24.3120  25.3069  28.7798  30.3435  30.4595  32.0681  35.2063
    35.9289  36.7211  36.9475  37.7245  38.5812  39.7295  40.4242  41.2681
    42.0241  43.2748  43.4489  45.2241

          k = 0.0000 0.4619 0.2066 (  3879 PWs)   bands (ev):

  -113.3576-113.3576 -67.5654 -67.5650 -67.5640 -67.5634 -67.5634 -67.5631
    -7.2342  -7.0775   3.9983   4.1143   4.7062   4.8426   4.9144   4.9424
     5.6392   5.6720   5.7280   5.8329   6.4557   6.8031   8.1072   8.3863
     9.0531   9.0734  15.2983  16.4301  18.5966  18.8630  20.9760  22.4680
    23.6887  24.1272  25.0931  27.9722  31.2034  31.5544  31.8296  34.2294
    35.2179  36.7473  36.8902  37.3975  39.4140  40.2287  41.3882  41.5166
    42.4940  43.6758  44.0800  45.3511

          k = 0.0000 0.4619-0.3100 (  3874 PWs)   bands (ev):

  -113.3576-113.3576 -67.5653 -67.5653 -67.5636 -67.5636 -67.5633 -67.5633
    -7.1540  -7.1540   3.9929   3.9929   4.8163   4.8163   4.8551   4.8551
     5.6970   5.6971   5.7376   5.7376   6.6381   6.6381   8.7242   8.7242
     8.7277   8.7277  15.7376  15.7376  18.8022  18.8022  21.5667  21.5667
    23.8955  23.8955  26.3515  26.3515  32.0232  32.0232  32.5423  32.5423
    35.8898  35.8898  37.0834  37.0834  40.0591  40.0591  42.1249  42.1249
    42.8375  42.8375  45.0025  45.0025

          k = 0.0000-0.5774 0.0000 (  3876 PWs)   bands (ev):

  -113.3576-113.3575 -67.5652 -67.5647 -67.5647 -67.5637 -67.5637 -67.5629
    -7.2286  -7.0054   4.1568   4.3760   4.6232   5.0237   5.0251   5.1610
     5.5644   5.6942   5.7782   5.8604   6.3497   6.5634   7.2831   7.8600
     8.8236   9.2809  15.9800  17.0471  17.7507  18.7211  20.7675  22.6172
    23.4050  24.4610  26.0634  28.7389  29.2924  30.7997  33.2046  35.1430
    35.1661  36.2879  37.6065  37.9309  38.6360  39.4431  41.3406  42.9492
    42.9989  43.6745  43.6822  44.8414

          k = 0.0000-0.5774 0.1033 (  3850 PWs)   bands (ev):

  -113.3576-113.3575 -67.5654 -67.5649 -67.5644 -67.5636 -67.5636 -67.5630
    -7.2115  -7.0179   4.1116   4.2751   4.6509   4.9849   5.0003   5.1146
     5.6303   5.6967   5.7645   5.8601   6.3046   6.5108   7.5775   7.9706
     8.9136   9.1937  15.7986  16.8831  17.9724  18.7639  20.6998  22.7711
    23.4694  24.3839  25.2681  28.8365  30.3831  31.0799  31.7972  34.9832
    36.1824  36.4740  36.7997  37.7106  38.9223  39.5934  41.3801  43.1538
    43.3827  43.5262  44.4827  45.1741

          k = 0.0000-0.5774 0.2066 (  3886 PWs)   bands (ev):

  -113.3576-113.3576 -67.5655 -67.5652 -67.5639 -67.5635 -67.5635 -67.5631
    -7.1663  -7.0543   4.0226   4.0904   4.7314   4.9411   4.9574   4.9964
     5.7043   5.7371   5.7388   5.8504   6.2774   6.4064   8.1863   8.2541
     8.9524   8.9835  15.6505  16.4291  18.3371  18.7729  20.8235  22.4684
    23.6499  24.1775  25.0606  28.0320  31.2621  31.8277  31.8962  34.8068
    34.8717  36.5547  36.5712  37.2464  39.9886  40.4763  41.9331  43.0792
    43.2037  43.4361  44.8373  46.2282

          k = 0.0000-0.5774-0.3100 (  3860 PWs)   bands (ev):

  -113.3576-113.3576 -67.5655 -67.5655 -67.5636 -67.5636 -67.5633 -67.5633
    -7.1080  -7.1080   3.9925   3.9925   4.8545   4.8545   4.9327   4.9327
     5.7179   5.7179   5.8138   5.8138   6.3171   6.3171   8.6130   8.6130
     8.7404   8.7404  15.9005  15.9005  18.6182  18.6183  21.4921  21.4921
    23.9074  23.9074  26.3433  26.3433  31.8928  31.8928  33.1813  33.1813
    35.6487  35.6487  36.8145  36.8145  40.5807  40.5807  42.6831  42.6831
    43.7091  43.7091  45.3192  45.3192

          k = 0.1000 0.1732 0.0000 (  3875 PWs)   bands (ev):

  -113.3577-113.3576 -67.5657 -67.5635 -67.5633 -67.5630 -67.5630 -67.5626
    -7.7629  -7.1256   4.2424   4.4128   4.4992   4.5488   4.6986   4.7507
     5.4654   5.5163   5.7430   5.8721   5.9909   8.4438   8.7031   9.1158
     9.8306   9.8762  12.5345  16.5261  18.3596  21.0179  22.5299  23.4756
    23.8498  25.0125  26.0583  26.2714  30.2997  30.5993  31.9914  32.3706
    33.7118  33.7807  35.4554  36.7108  37.2976  38.4761  38.7142  39.8158
    40.2491  40.8194  42.9758  46.1379

          k = 0.1000 0.1732 0.1033 (  3875 PWs)   bands (ev):

  -113.3577-113.3576 -67.5656 -67.5635 -67.5634 -67.5632 -67.5629 -67.5626
    -7.7216  -7.1695   4.2115   4.3613   4.4896   4.4969   4.6674   4.6765
     5.4951   5.5372   5.7316   5.7891   6.4040   8.5199   8.6438   9.0687
     9.7585   9.8125  12.8014  16.1792  18.6089  21.0708  22.5425  23.1190
    23.3682  24.5610  26.6754  26.7968  30.2654  30.6279  32.3972  32.5298
    33.3797  33.8315  35.3274  36.7963  37.1269  38.0542  38.8069  39.6274
    40.8345  41.1130  42.9966  45.0524

          k = 0.1000 0.1732 0.2066 (  3873 PWs)   bands (ev):

  -113.3577-113.3576 -67.5651 -67.5639 -67.5633 -67.5631 -67.5629 -67.5628
    -7.6075  -7.2887   4.1384   4.1839   4.4882   4.4955   4.5946   4.6232
     5.5680   5.5858   5.6976   5.7282   7.1076   8.3232   8.7447   9.1641
     9.4971   9.6383  13.5023  15.3854  19.2202  20.9809  22.0807  22.4063
    23.3268  24.0093  27.6572  27.7140  29.7045  31.0530  31.9237  32.8824
    33.7062  33.7321  35.1801  36.6192  37.3327  37.8190  38.7713  40.3259
    41.3028  41.7114  42.4187  43.3757

          k = 0.1000 0.1732-0.3100 (  3868 PWs)   bands (ev):

  -113.3577-113.3576 -67.5645 -67.5645 -67.5632 -67.5631 -67.5629 -67.5629
    -7.4494  -7.4494   4.1015   4.1015   4.5077   4.5077   4.5730   4.5730
     5.6444   5.6444   5.6540   5.6540   7.7906   7.7907   9.0938   9.0938
     9.4046   9.4046  14.4293  14.4293  20.1067  20.1067  22.0853  22.0853
    23.5699  23.5699  28.2650  28.2650  29.9067  29.9067  32.5813  32.5813
    33.7014  33.7014  35.7144  35.7144  37.8285  37.8285  40.1761  40.1761
    41.3308  41.3308  42.5193  42.5193

          k = 0.1000 0.2887 0.0000 (  3859 PWs)   bands (ev):

  -113.3577-113.3575 -67.5654 -67.5641 -67.5638 -67.5633 -67.5631 -67.5628
    -7.5838  -7.0609   4.1632   4.4247   4.5418   4.6455   4.8595   4.9952
     5.4175   5.5393   5.7532   5.9386   6.0874   7.6235   8.1222   8.5691
     9.5686   9.5974  13.6687  17.4121  18.3870  19.7955  21.6161  22.7853
    23.3222  24.9705  25.8120  26.9496  30.1025  31.4743  32.4931  33.8521
    35.0722  35.2266  36.2874  36.6825  38.2683  38.4473  38.6048  40.5591
    40.8193  41.2932  42.2793  45.1177

          k = 0.1000 0.2887 0.1033 (  3872 PWs)   bands (ev):

  -113.3577-113.3576 -67.5653 -67.5640 -67.5639 -67.5634 -67.5631 -67.5628
    -7.5489  -7.0958   4.1308   4.3546   4.5397   4.6218   4.8294   4.8487
     5.4615   5.5636   5.7401   5.8473   6.4953   7.7168   8.0948   8.5838
     9.5116   9.5485  13.8258  16.9479  18.6522  19.8624  21.6954  22.5557
    23.1215  24.8552  25.7871  27.3754  29.9688  31.9115  32.6280  33.3012
    34.4284  35.3650  36.4416  37.4545  37.7971  38.4429  38.9886  39.9523
    41.2808  41.8123  42.5933  45.5642

          k = 0.1000 0.2887 0.2066 (  3860 PWs)   bands (ev):

  -113.3577-113.3576 -67.5651 -67.5643 -67.5637 -67.5634 -67.5631 -67.5629
    -7.4532  -7.1913   4.0655   4.1682   4.5605   4.6012   4.7200   4.7679
     5.5586   5.6056   5.7051   5.7675   7.0720   7.7640   8.2303   8.7401
     9.2845   9.3417  14.3233  16.0627  19.1230  19.9360  21.5433  22.0452
    23.1878  24.2679  26.4538  28.0022  29.5598  31.4620  32.8145  33.0778
    34.9254  35.6370  36.0436  36.8342  38.3555  38.7444  39.2182  40.3776
    41.7416  42.1413  43.1427  44.5851

          k = 0.1000 0.2887-0.3100 (  3864 PWs)   bands (ev):

  -113.3576-113.3576 -67.5647 -67.5647 -67.5634 -67.5634 -67.5631 -67.5631
    -7.3222  -7.3222   4.0544   4.0544   4.5910   4.5910   4.7051   4.7051
     5.6514   5.6515   5.6741   5.6741   7.4906   7.4906   8.7752   8.7752
     9.0463   9.0463  15.1212  15.1212  19.6523  19.6523  21.5729  21.5729
    23.6673  23.6673  27.5032  27.5032  30.0935  30.0936  33.2446  33.2446
    35.3815  35.3815  36.2540  36.2540  38.5351  38.5351  40.5582  40.5582
    41.7111  41.7111  43.7095  43.7095

          k = 0.1000 0.4041 0.0000 (  3859 PWs)   bands (ev):

  -113.3576-113.3575 -67.5651 -67.5646 -67.5643 -67.5636 -67.5634 -67.5630
    -7.3826  -7.0115   4.1445   4.4412   4.5813   4.8059   5.0363   5.1339
     5.4490   5.5924   5.7689   5.9783   6.2382   6.9115   7.6643   7.9626
     9.1839   9.3209  14.8848  17.7987  18.3302  18.9021  21.1347  22.1841
    22.9594  24.5500  26.1514  28.1258  30.0724  30.6910  33.3363  34.9794
    35.2759  36.3141  36.9224  37.6238  38.1152  38.9061  39.4029  40.0987
    42.2014  42.6018  44.0430  45.6468

          k = 0.1000 0.4041 0.1033 (  3856 PWs)   bands (ev):

  -113.3576-113.3575 -67.5652 -67.5645 -67.5643 -67.5636 -67.5633 -67.5630
    -7.3565  -7.0349   4.1092   4.3570   4.5957   4.7810   4.9909   5.0012
     5.4803   5.6264   5.7570   5.9174   6.4439   7.0662   7.6776   8.0549
     9.1866   9.2660  14.9355  17.3327  18.5967  18.9550  21.0842  22.3012
    22.8117  24.6177  25.8634  28.2314  29.9267  31.5433  32.4862  34.3490
    35.6272  36.2669  37.1088  37.6629  38.3297  39.2596  39.9091  40.2382
    41.8431  43.0009  44.5382  45.6132

          k = 0.1000 0.4041 0.2066 (  3870 PWs)   bands (ev):

  -113.3576-113.3576 -67.5653 -67.5648 -67.5639 -67.5635 -67.5633 -67.5631
    -7.2860  -7.0999   4.0425   4.1650   4.6474   4.7482   4.8516   4.9079
     5.5802   5.6581   5.7314   5.8255   6.7014   7.1131   8.0611   8.3253
     8.9665   9.1721  15.1873  16.5441  18.8801  19.0771  20.9756  21.9175
    23.2267  24.4457  25.8868  27.9371  30.0882  31.7124  32.6890  33.3166
    35.8814  36.2866  36.8371  37.5255  39.2793  39.7787  40.4843  41.0177
    41.7253  43.6546  44.4598  45.1119

          k = 0.1000 0.4041-0.3100 (  3888 PWs)   bands (ev):

  -113.3576-113.3576 -67.5651 -67.5651 -67.5636 -67.5636 -67.5632 -67.5632
    -7.1916  -7.1916   4.0397   4.0397   4.7162   4.7162   4.8259   4.8259
     5.6692   5.6692   5.7325   5.7325   6.9278   6.9278   8.5609   8.5609
     8.8196   8.8196  15.7556  15.7556  19.0642  19.0643  21.2588  21.2588
    23.9150  23.9150  26.7868  26.7868  30.9587  30.9587  32.9651  32.9651
    36.3210  36.3210  36.8866  36.8866  39.9337  39.9337  41.0359  41.0359
    42.5010  42.5010  44.9117  44.9117

          k = 0.1000 0.5196 0.0000 (  3861 PWs)   bands (ev):

  -113.3576-113.3575 -67.5651 -67.5647 -67.5646 -67.5638 -67.5637 -67.5631
    -7.2324  -7.0033   4.1897   4.4724   4.6058   4.9428   5.0710   5.1775
     5.5455   5.6400   5.7885   5.9203   6.2691   6.6919   7.2747   7.7321
     8.8046   9.1465  15.9872  17.5354  17.7875  18.7500  20.8291  22.5200
    22.7696  24.1672  26.1836  29.0548  30.0235  30.6135  33.1027  35.0929
    35.7582  35.9429  37.5615  37.8611  38.1922  38.9752  39.9287  42.3828
    42.8110  43.7174  44.7218  45.2152

          k = 0.1000 0.5196 0.1033 (  3866 PWs)   bands (ev):

  -113.3576-113.3575 -67.5653 -67.5648 -67.5644 -67.5637 -67.5636 -67.5631
    -7.2150  -7.0164   4.1499   4.3633   4.6250   4.9190   5.0320   5.1161
     5.5843   5.6622   5.7828   5.9222   6.2482   6.6796   7.4898   7.8795
     8.8723   9.0735  15.8891  17.2299  18.0779  18.7978  20.6660  22.4191
    22.9255  24.2644  25.8877  28.9343  30.0528  31.5065  32.0515  34.8895
    35.6931  36.4114  37.2276  37.7573  38.5672  39.5182  40.4036  42.4684
    43.1876  43.6039  44.6537  45.2097

          k = 0.1000 0.5196 0.2066 (  3872 PWs)   bands (ev):

  -113.3576-113.3576 -67.5654 -67.5652 -67.5640 -67.5636 -67.5635 -67.5632
    -7.1687  -7.0538   4.0697   4.1627   4.6906   4.8817   4.9698   4.9938
     5.6483   5.6855   5.7905   5.8933   6.3000   6.5678   7.9337   8.3076
     8.7337   9.0277  15.8454  16.7062  18.4270  18.8275  20.5856  21.7831
    23.6066  24.3454  25.7251  27.9518  30.6997  31.7020  32.4792  33.6003
    35.7500  36.4398  37.0032  37.6224  39.6669  40.4603  41.2384  42.5667
    43.4168  43.8798  44.8027  45.4690

          k = 0.1000 0.5196-0.3100 (  3864 PWs)   bands (ev):

  -113.3576-113.3576 -67.5654 -67.5654 -67.5637 -67.5637 -67.5633 -67.5633
    -7.1090  -7.1090   4.0503   4.0503   4.7979   4.7979   4.9385   4.9385
     5.6819   5.6819   5.8372   5.8372   6.4239   6.4239   8.3566   8.3566
     8.8059   8.8059  16.1464  16.1464  18.6887  18.6887  21.0231  21.0232
    24.1660  24.1660  26.5042  26.5042  31.7599  31.7599  32.5216  32.5216
    36.4347  36.4347  36.9838  36.9838  40.1956  40.1956  42.7323  42.7323
    43.6010  43.6010  45.3625  45.3625

          k = 0.2000 0.3464 0.0000 (  3845 PWs)   bands (ev):

  -113.3576-113.3575 -67.5651 -67.5644 -67.5643 -67.5636 -67.5634 -67.5631
    -7.4071  -7.0149   4.2468   4.3606   4.6389   4.7253   5.0247   5.1421
     5.4008   5.5666   5.7682   5.9814   6.2483   7.3047   7.4212   7.9621
     9.2005   9.2672  14.8171  17.8066  18.7396  19.1563  21.0807  22.0713
    22.2088  25.2178  25.7554  27.5125  31.6886  32.1215  32.1411  33.7814
    34.8560  36.1055  36.7145  37.8199  37.8775  38.4438  39.2239  39.9933
    42.4512  43.8669  43.9896  45.3351

          k = 0.2000 0.3464 0.1033 (  3856 PWs)   bands (ev):

  -113.3576-113.3575 -67.5652 -67.5644 -67.5642 -67.5637 -67.5632 -67.5631
    -7.3797  -7.0399   4.2004   4.3241   4.6310   4.6925   4.9589   4.9874
     5.4516   5.6167   5.7574   5.9216   6.5059   7.4190   7.5109   7.9687
     9.1058   9.2948  14.9019  17.4394  18.8210  19.2128  21.2888  21.7535
    22.1900  25.5630  25.6356  27.4552  30.9146  32.4164  32.8227  33.0655
    34.5460  36.5323  37.0450  37.2417  38.4490  39.1076  39.7176  40.0454
    41.7883  43.9606  44.1039  46.1305

          k = 0.2000 0.3464 0.2066 (  3868 PWs)   bands (ev):

  -113.3576-113.3576 -67.5652 -67.5647 -67.5638 -67.5637 -67.5632 -67.5632
    -7.3056  -7.1091   4.1121   4.1917   4.6300   4.6497   4.8218   4.8989
     5.5644   5.6544   5.7351   5.8299   6.8387   7.3071   8.0811   8.1357
     8.8584   9.2033  15.2225  16.6588  19.0432  19.3246  21.1248  21.1703
    22.8504  24.9127  26.3964  27.7082  30.2621  30.7210  33.2826  33.8392
    35.1793  35.7957  37.3010  37.5376  38.9336  39.9898  40.2018  40.5958
    41.4402  44.0716  44.4849  45.2386

          k = 0.2000 0.3464-0.3100 (  3886 PWs)   bands (ev):

  -113.3576-113.3576 -67.5650 -67.5650 -67.5637 -67.5636 -67.5633 -67.5633
    -7.2062  -7.2062   4.0896   4.0896   4.6426   4.6426   4.8186   4.8186
     5.6617   5.6617   5.7372   5.7372   7.0958   7.0958   8.4262   8.4262
     8.8230   8.8230  15.8425  15.8425  19.2905  19.2905  20.9044  20.9044
    23.8917  23.8917  27.3875  27.3875  29.9754  29.9754  33.7001  33.7001
    35.5561  35.5561  37.6383  37.6383  39.4728  39.4728  40.9765  40.9765
    41.9333  41.9333  45.2436  45.2436

          k = 0.2000 0.4619 0.0000 (  3848 PWs)   bands (ev):

  -113.3576-113.3575 -67.5648 -67.5646 -67.5645 -67.5639 -67.5637 -67.5633
    -7.2384  -7.0002   4.2965   4.4834   4.6936   4.8283   5.1503   5.2336
     5.4577   5.5548   5.7940   6.0323   6.1856   6.8761   7.2457   7.4878
     8.7983   8.9229  16.0501  17.8241  18.4658  18.7957  21.0681  21.7316
    21.9751  24.4303  25.6685  28.8860  31.5585  32.0205  32.9787  33.7905
    35.5586  36.2790  36.7864  37.4287  37.6425  38.3601  39.2931  42.1445
    42.8355  44.6311  45.4175  46.3584

          k = 0.2000 0.4619 0.1033 (  3856 PWs)   bands (ev):

  -113.3576-113.3575 -67.5651 -67.5647 -67.5643 -67.5640 -67.5635 -67.5633
    -7.2204  -7.0139   4.2708   4.4163   4.6625   4.8008   5.0789   5.1088
     5.4837   5.6373   5.7917   6.0226   6.2576   6.9118   7.2970   7.7137
     8.7303   8.9724  16.0609  17.6191  18.5588  18.8558  20.6532  21.3884
    22.4433  24.7663  25.8928  28.4129  30.8927  32.1419  33.1129  33.3978
    35.6706  36.0750  37.0005  37.8342  38.4367  38.9903  39.3136  42.4850
    42.9092  44.4945  45.0781  46.0727

          k = 0.2000 0.4619 0.2066 (  3864 PWs)   bands (ev):

  -113.3576-113.3576 -67.5653 -67.5650 -67.5640 -67.5638 -67.5635 -67.5633
    -7.1726  -7.0531   4.1925   4.2666   4.6386   4.7577   4.9644   4.9927
     5.5802   5.6682   5.8058   5.9470   6.4415   6.8122   7.5817   8.1889
     8.5150   9.0390  16.1872  17.1314  18.7350  18.9632  20.1642  20.7408
    23.3826  25.1898  26.1519  27.7202  30.1377  31.2885  33.1236  33.7521
    35.5453  35.9859  37.4509  38.0839  39.4615  39.9149  41.0455  42.9501
    43.2605  43.4095  44.7403  45.6094

          k = 0.2000 0.4619-0.3100 (  3870 PWs)   bands (ev):

  -113.3576-113.3576 -67.5652 -67.5652 -67.5639 -67.5639 -67.5633 -67.5633
    -7.1107  -7.1107   4.1652   4.1652   4.6958   4.6958   4.9344   4.9344
     5.6492   5.6492   5.8611   5.8611   6.6350   6.6350   7.9814   7.9814
     8.8338   8.8338  16.5685  16.5685  18.9139  18.9139  20.2147  20.2147
    24.4993  24.4993  26.8722  26.8722  30.4447  30.4447  33.3805  33.3805
    35.8283  35.8283  37.8945  37.8945  40.5080  40.5080  42.0038  42.0038
    43.5708  43.5708  44.6714  44.6714

          k = 0.2000 0.5774 0.0000 (  3860 PWs)   bands (ev):

  -113.3576-113.3575 -67.5649 -67.5645 -67.5645 -67.5641 -67.5638 -67.5634
    -7.1540  -7.0137   4.2893   4.6121   4.7698   4.8653   5.1504   5.2453
     5.5212   5.5907   5.7997   5.8144   6.4117   6.6833   6.7782   7.7792
     8.4865   8.7934  16.9056  17.7842  17.8146  18.7193  20.8245  21.6616
    22.8971  23.5424  25.5499  30.1495  30.6837  32.0873  32.7547  33.9367
    35.9114  36.6348  37.2995  37.3149  38.0874  38.4000  39.3291  39.7375
    44.5261  44.8399  45.7361  47.6288

          k = 0.2000 0.5774 0.1033 (  3858 PWs)   bands (ev):

  -113.3576-113.3575 -67.5651 -67.5648 -67.5644 -67.5639 -67.5637 -67.5634
    -7.1422  -7.0205   4.2755   4.5797   4.5915   4.8996   5.1063   5.1711
     5.5639   5.6117   5.8337   5.8516   6.3532   6.6213   6.9744   7.9942
     8.4884   8.7995  16.7906  17.6828  17.9993  18.7951  20.3509  21.2949
    23.2014  24.0131  25.8693  29.4420  30.0468  32.2917  32.9145  33.5845
    35.9263  36.4831  37.1207  38.0568  38.5625  39.3437  39.5071  40.0801
    44.6604  44.6900  45.3913  47.3076

          k = 0.2000 0.5774 0.2066 (  3868 PWs)   bands (ev):

  -113.3576-113.3575 -67.5653 -67.5651 -67.5642 -67.5638 -67.5636 -67.5633
    -7.1116  -7.0411   4.2216   4.3322   4.6052   4.8363   5.0503   5.0643
     5.6019   5.6254   5.9094   5.9431   6.3109   6.4926   7.3644   8.2313
     8.4638   8.9239  16.7216  17.3674  18.3313  18.8990  19.7584  20.5792
    24.0126  24.7432  26.3082  27.8350  29.7961  31.7154  32.9454  33.4330
    35.9267  36.4274  37.4961  38.2416  39.0727  40.5890  41.2929  41.5053
    43.8469  44.7336  45.6533  46.3942

          k = 0.2000 0.5774-0.3100 (  3860 PWs)   bands (ev):

  -113.3576-113.3576 -67.5653 -67.5653 -67.5640 -67.5639 -67.5634 -67.5634
    -7.0738  -7.0738   4.2066   4.2066   4.7042   4.7042   5.0322   5.0322
     5.6193   5.6193   5.9663   5.9663   6.3677   6.3677   7.8119   7.8119
     8.8482   8.8482  16.9463  16.9463  18.6669  18.6669  19.9433  19.9433
    24.8907  24.8907  26.5952  26.5952  30.5636  30.5636  33.1605  33.1605
    36.2328  36.2328  37.9014  37.9014  40.1041  40.1041  43.0297  43.0297
    43.9324  43.9324  46.0857  46.0857

          k = 0.3000 0.5196 0.0000 (  3855 PWs)   bands (ev):

  -113.3576-113.3575 -67.5647 -67.5646 -67.5643 -67.5643 -67.5639 -67.5637
    -7.1161  -7.0261   4.3274   4.6589   4.7856   4.9766   5.2412   5.4377
     5.4410   5.5035   5.7367   5.7553   6.4051   6.4581   6.7527   7.8855
     8.4605   8.4825  17.2661  17.8282  18.3273  18.4121  20.9604  21.0985
    22.7939  23.9948  24.6032  30.3709  31.9594  32.1275  32.6998  34.4124
    35.5555  36.4060  36.8089  37.0148  37.5557  38.2817  39.2552  39.3137
    44.4954  45.9928  46.7093  46.8379

          k = 0.3000 0.5196 0.1033 (  3859 PWs)   bands (ev):

  -113.3576-113.3575 -67.5649 -67.5648 -67.5644 -67.5640 -67.5637 -67.5637
    -7.1075  -7.0295   4.3480   4.5659   4.6919   4.9168   5.1771   5.2403
     5.4822   5.5961   5.8002   5.8709   6.3704   6.5931   6.7259   8.0725
     8.3756   8.6036  17.2798  17.8063  18.4264  18.4304  20.3220  20.6453
    23.2397  24.5165  25.1083  29.4599  30.9864  31.5294  33.2851  34.4438
    35.8535  35.9057  37.2575  38.0705  38.3078  38.9161  39.1069  39.5484
    44.6465  45.9790  46.4408  46.9439

          k = 0.3000 0.5196 0.2066 (  3852 PWs)   bands (ev):

  -113.3576-113.3575 -67.5652 -67.5651 -67.5643 -67.5639 -67.5635 -67.5634
    -7.0859  -7.0407   4.3688   4.3979   4.5483   4.7774   5.1024   5.1276
     5.5328   5.5924   5.9122   6.0258   6.3405   6.5444   7.0423   7.9683
     8.5663   8.8425  17.3587  17.7294  18.4882  18.6906  19.3741  19.8466
    24.1728  25.5584  25.8686  27.7174  29.9384  30.6313  33.5805  34.1992
    35.6870  36.1601  37.6822  38.0813  39.6896  40.0276  40.8397  41.5147
    44.3138  45.3967  45.5092  46.2751

          k = 0.3000 0.5196-0.3100 (  3846 PWs)   bands (ev):

  -113.3576-113.3575 -67.5652 -67.5652 -67.5641 -67.5641 -67.5634 -67.5634
    -7.0607  -7.0607   4.3245   4.3245   4.6203   4.6203   5.0901   5.0901
     5.5676   5.5676   6.0150   6.0150   6.4186   6.4186   7.5152   7.5152
     8.8627   8.8627  17.5491  17.5491  18.6855  18.6855  19.2129  19.2129
    25.4280  25.4280  26.4994  26.4994  29.8493  29.8493  33.8299  33.8299
    36.0141  36.0141  37.6614  37.6614  41.2002  41.2002  42.2757  42.2757
    44.4568  44.4568  45.3881  45.3881

          k = 0.0000-0.1155 0.1033 (  3874 PWs)   bands (ev):

  -113.3577-113.3576 -67.5657 -67.5632 -67.5631 -67.5630 -67.5627 -67.5625
    -7.8221  -7.2181   4.2824   4.3884   4.4089   4.4451   4.5723   4.5857
     5.5230   5.5385   5.7273   5.7475   6.3611   9.0075   9.2260   9.2483
     9.8989   9.9869  12.1013  15.5726  18.5940  22.1503  23.2279  23.2588
    23.5804  24.2981  26.9225  28.1891  28.8093  30.1768  31.2865  31.4875
    32.9491  34.0577  34.8126  34.9431  37.3189  38.1538  38.8746  39.0794
    41.0289  41.1119  43.6495  44.2313

          k = 0.0000-0.1155 0.2066 (  3857 PWs)   bands (ev):

  -113.3577-113.3576 -67.5651 -67.5637 -67.5631 -67.5629 -67.5627 -67.5626
    -7.6987  -7.3499   4.1963   4.2132   4.4343   4.4405   4.5244   4.5355
     5.5806   5.5873   5.6970   5.7068   7.0702   8.5797   9.2085   9.4074
     9.7072   9.8338  12.9585  14.8701  19.2308  21.5795  22.4783  23.1658
    23.2927  23.8681  27.7940  29.1126  29.2079  30.0650  31.3196  31.4384
    33.6184  34.3210  34.5905  35.4626  36.8664  36.9330  38.2579  40.0230
    41.4475  41.6188  42.4800  42.9308

          k = 0.0000-0.2309 0.1033 (  3880 PWs)   bands (ev):

  -113.3577-113.3576 -67.5655 -67.5637 -67.5635 -67.5632 -67.5630 -67.5627
    -7.6751  -7.1484   4.1555   4.3837   4.4908   4.5554   4.7096   4.7178
     5.4798   5.5440   5.7349   5.8036   6.4261   8.1562   8.6338   8.9117
     9.6894   9.7823  13.0682  16.3982  18.6032  20.5979  22.2330  23.3684
    23.4677  24.3499  25.7493  28.1174  28.8592  31.4992  32.3232  33.3717
    33.9757  34.3224  35.1688  36.6989  37.6999  38.0992  38.5929  40.2761
    40.3484  41.4652  42.7423  45.2733

          k = 0.0000-0.2309 0.2066 (  3872 PWs)   bands (ev):

  -113.3577-113.3576 -67.5651 -67.5640 -67.5635 -67.5631 -67.5631 -67.5628
    -7.5657  -7.2615   4.0922   4.1813   4.5255   4.5400   4.6253   4.6506
     5.5616   5.5893   5.6996   5.7361   7.1116   8.1408   8.5707   9.1013
     9.4064   9.6031  13.7105  15.5693  19.1889  20.5959  21.8314  22.5004
    23.5166  23.9897  26.5084  28.6099  29.2444  31.7866  32.3289  32.6341
    33.7121  34.1211  35.4245  37.2919  37.4130  38.1901  38.8194  40.2579
    41.3587  41.6890  42.7428  43.6870

          k = 0.0000-0.3464 0.1033 (  3873 PWs)   bands (ev):

  -113.3577-113.3576 -67.5653 -67.5642 -67.5641 -67.5634 -67.5632 -67.5628
    -7.4778  -7.0703   4.0641   4.3512   4.5786   4.7045   4.8841   4.9253
     5.4621   5.5847   5.7450   5.8599   6.5079   7.2923   7.9818   8.4865
     9.4165   9.5149  14.1584  17.0608  18.5725  19.3461  21.3754  22.8773
    23.6564  24.2327  25.3724  28.6995  29.0160  30.9075  32.6830  35.0031
    35.0794  36.2170  36.4450  37.4949  37.8276  38.7370  39.2762  39.9493
    41.3686  41.7112  43.8151  44.6643

          k = 0.0000-0.3464 0.2066 (  3867 PWs)   bands (ev):

  -113.3576-113.3576 -67.5652 -67.5645 -67.5639 -67.5633 -67.5633 -67.5629
    -7.3907  -7.1551   4.0091   4.1460   4.6312   4.6804   4.7788   4.8060
     5.5644   5.6176   5.7091   5.7784   6.9467   7.4382   8.1195   8.7151
     9.2294   9.3062  14.5563  16.1765  18.9845  19.4587  21.3058  22.4636
    23.7027  24.0357  25.4736  28.0848  30.0112  31.9154  32.2253  33.2358
    35.2636  36.1308  36.5887  37.4432  38.5427  38.7212  39.6353  41.2586
    41.5312  41.7831  44.4156  44.6351

          k = 0.0000-0.4619 0.1033 (  3862 PWs)   bands (ev):

  -113.3576-113.3575 -67.5653 -67.5647 -67.5644 -67.5636 -67.5635 -67.5629
    -7.2948  -7.0239   4.0682   4.3099   4.6340   4.8778   5.0130   5.0469
     5.5556   5.6558   5.7579   5.9255   6.2901   6.8247   7.5842   8.1203
     9.0913   9.2852  15.2000  17.1333  18.2357  18.8090  20.8890  22.6921
    23.5546  24.3120  25.3069  28.7798  30.3435  30.4595  32.0681  35.2063
    35.9289  36.7211  36.9475  37.7245  38.5812  39.7295  40.4242  41.2681
    42.0241  43.2747  43.4489  45.2241

          k = 0.0000-0.4619 0.2066 (  3879 PWs)   bands (ev):

  -113.3576-113.3576 -67.5654 -67.5650 -67.5640 -67.5634 -67.5634 -67.5631
    -7.2342  -7.0775   3.9984   4.1143   4.7062   4.8426   4.9144   4.9424
     5.6392   5.6720   5.7280   5.8329   6.4557   6.8031   8.1072   8.3863
     9.0531   9.0734  15.2983  16.4301  18.5966  18.8630  20.9760  22.4680
    23.6887  24.1272  25.0931  27.9722  31.2034  31.5544  31.8296  34.2294
    35.2179  36.7473  36.8902  37.3975  39.4140  40.2287  41.3882  41.5166
    42.4940  43.6758  44.0800  45.3511

          k =-0.1000-0.2887 0.1033 (  3872 PWs)   bands (ev):

  -113.3577-113.3576 -67.5653 -67.5640 -67.5639 -67.5634 -67.5631 -67.5628
    -7.5489  -7.0958   4.1308   4.3546   4.5397   4.6218   4.8294   4.8487
     5.4615   5.5636   5.7401   5.8473   6.4953   7.7168   8.0948   8.5838
     9.5116   9.5485  13.8258  16.9479  18.6522  19.8624  21.6954  22.5557
    23.1215  24.8552  25.7871  27.3754  29.9688  31.9115  32.6280  33.3012
    34.4284  35.3650  36.4416  37.4545  37.7971  38.4429  38.9886  39.9523
    41.2808  41.8122  42.5933  45.5642

          k =-0.1000-0.2887 0.2066 (  3860 PWs)   bands (ev):

  -113.3577-113.3576 -67.5651 -67.5643 -67.5637 -67.5634 -67.5631 -67.5629
    -7.4532  -7.1913   4.0655   4.1682   4.5605   4.6012   4.7200   4.7679
     5.5586   5.6056   5.7051   5.7675   7.0720   7.7640   8.2303   8.7401
     9.2845   9.3417  14.3233  16.0627  19.1230  19.9360  21.5433  22.0452
    23.1878  24.2679  26.4538  28.0022  29.5598  31.4620  32.8145  33.0778
    34.9254  35.6370  36.0437  36.8342  38.3555  38.7444  39.2182  40.3776
    41.7416  42.1413  43.1427  44.5851

          k =-0.1000-0.4041 0.1033 (  3856 PWs)   bands (ev):

  -113.3576-113.3575 -67.5652 -67.5645 -67.5643 -67.5636 -67.5633 -67.5630
    -7.3565  -7.0349   4.1092   4.3570   4.5957   4.7810   4.9909   5.0012
     5.4803   5.6264   5.7570   5.9174   6.4439   7.0662   7.6776   8.0549
     9.1866   9.2660  14.9355  17.3327  18.5967  18.9550  21.0842  22.3012
    22.8117  24.6177  25.8634  28.2314  29.9267  31.5433  32.4862  34.3490
    35.6272  36.2669  37.1088  37.6629  38.3297  39.2596  39.9091  40.2382
    41.8431  43.0009  44.5381  45.6132

          k =-0.1000-0.4041 0.2066 (  3870 PWs)   bands (ev):

  -113.3576-113.3576 -67.5653 -67.5648 -67.5639 -67.5635 -67.5633 -67.5631
    -7.2860  -7.0999   4.0425   4.1650   4.6474   4.7482   4.8516   4.9079
     5.5802   5.6581   5.7314   5.8255   6.7014   7.1131   8.0611   8.3253
     8.9665   9.1721  15.1873  16.5441  18.8801  19.0771  20.9755  21.9175
    23.2267  24.4457  25.8868  27.9371  30.0882  31.7124  32.6890  33.3166
    35.8814  36.2866  36.8371  37.5255  39.2793  39.7787  40.4843  41.0177
    41.7253  43.6546  44.4598  45.1120

          k =-0.1000-0.5196 0.1033 (  3866 PWs)   bands (ev):

  -113.3576-113.3575 -67.5653 -67.5648 -67.5644 -67.5637 -67.5636 -67.5631
    -7.2150  -7.0164   4.1499   4.3633   4.6250   4.9190   5.0320   5.1161
     5.5843   5.6622   5.7828   5.9222   6.2482   6.6796   7.4898   7.8795
     8.8723   9.0735  15.8891  17.2299  18.0779  18.7978  20.6660  22.4191
    22.9254  24.2644  25.8877  28.9343  30.0528  31.5065  32.0515  34.8895
    35.6931  36.4114  37.2276  37.7573  38.5672  39.5182  40.4036  42.4684
    43.1876  43.6039  44.6537  45.2096

          k =-0.1000-0.5196 0.2066 (  3872 PWs)   bands (ev):

  -113.3576-113.3576 -67.5654 -67.5652 -67.5640 -67.5636 -67.5635 -67.5632
    -7.1687  -7.0538   4.0697   4.1627   4.6906   4.8817   4.9698   4.9938
     5.6483   5.6855   5.7905   5.8933   6.3000   6.5678   7.9337   8.3076
     8.7337   9.0277  15.8454  16.7062  18.4270  18.8275  20.5856  21.7831
    23.6066  24.3454  25.7251  27.9518  30.6997  31.7020  32.4792  33.6003
    35.7500  36.4398  37.0032  37.6224  39.6669  40.4603  41.2384  42.5667
    43.4168  43.8798  44.8027  45.4690

          k =-0.2000-0.4619 0.1033 (  3856 PWs)   bands (ev):

  -113.3576-113.3575 -67.5651 -67.5647 -67.5643 -67.5640 -67.5635 -67.5633
    -7.2204  -7.0139   4.2708   4.4163   4.6625   4.8008   5.0789   5.1088
     5.4837   5.6373   5.7917   6.0226   6.2576   6.9118   7.2970   7.7137
     8.7303   8.9724  16.0609  17.6191  18.5588  18.8558  20.6531  21.3884
    22.4433  24.7663  25.8928  28.4129  30.8927  32.1419  33.1129  33.3978
    35.6706  36.0750  37.0005  37.8342  38.4367  38.9903  39.3136  42.4850
    42.9092  44.4945  45.0781  46.0726

          k =-0.2000-0.4619 0.2066 (  3864 PWs)   bands (ev):

  -113.3576-113.3576 -67.5653 -67.5650 -67.5640 -67.5638 -67.5635 -67.5633
    -7.1726  -7.0531   4.1925   4.2666   4.6386   4.7577   4.9644   4.9927
     5.5802   5.6682   5.8058   5.9470   6.4415   6.8122   7.5817   8.1889
     8.5150   9.0390  16.1872  17.1314  18.7350  18.9632  20.1642  20.7408
    23.3826  25.1898  26.1519  27.7202  30.1377  31.2885  33.1236  33.7521
    35.5453  35.9859  37.4509  38.0839  39.4615  39.9149  41.0455  42.9501
    43.2605  43.4095  44.7403  45.6095

     the Fermi energy is    10.5601 ev

!    total energy              =    -864.69191038 Ry
     estimated scf accuracy    <          1.4E-11 Ry
     smearing contrib. (-TS)   =      -0.00000000 Ry
     internal energy E=F+TS    =    -864.69191038 Ry

     The total energy is F=E-TS. E is the sum of the following terms:
     one-electron contribution =    -571.81606183 Ry
     hartree contribution      =     302.50969511 Ry
     xc contribution           =     -87.21499699 Ry
     ewald contribution        =    -508.17054667 Ry

     convergence has been achieved in  12 iterations

     Writing all to output data dir out/mp-2133.save/
 
     init_run     :      0.75s CPU      0.89s WALL (       1 calls)
     electrons    :     32.13s CPU     36.02s WALL (       1 calls)

     Called by init_run:
     wfcinit      :      0.72s CPU      0.82s WALL (       1 calls)
     potinit      :      0.01s CPU      0.01s WALL (       1 calls)
     hinit0       :      0.01s CPU      0.04s WALL (       1 calls)

     Called by electrons:
     c_bands      :     29.06s CPU     32.43s WALL (      12 calls)
     sum_band     :      3.03s CPU      3.40s WALL (      12 calls)
     v_of_rho     :      0.03s CPU      0.03s WALL (      13 calls)
     mix_rho      :      0.01s CPU      0.02s WALL (      12 calls)

     Called by c_bands:
     init_us_2    :      0.12s CPU      0.15s WALL (    1800 calls)
     init_us_2:cp :      0.12s CPU      0.15s WALL (    1800 calls)
     cegterg      :     26.06s CPU     28.08s WALL (     864 calls)

     Called by *egterg:
     cdiaghg      :      9.03s CPU     10.01s WALL (    3090 calls)
     h_psi        :     14.67s CPU     15.61s WALL (    3162 calls)
     g_psi        :      0.08s CPU      0.08s WALL (    2226 calls)

     Called by h_psi:
     h_psi:calbec :      0.54s CPU      0.58s WALL (    3162 calls)
     vloc_psi     :     13.74s CPU     14.62s WALL (    3162 calls)
     add_vuspsi   :      0.33s CPU      0.35s WALL (    3162 calls)

     General routines
     calbec       :      0.53s CPU      0.57s WALL (    3162 calls)
     fft          :      0.01s CPU      0.04s WALL (     129 calls)
     ffts         :      0.00s CPU      0.00s WALL (      12 calls)
     fftw         :     15.25s CPU     16.25s WALL (  289714 calls)
     davcio       :      0.26s CPU      1.30s WALL (    2882 calls)
 
     Parallel routines
 
     PWSCF        :     33.34s CPU     38.31s WALL

 
   This run was terminated on:  16:57:10  19Nov2023            

=------------------------------------------------------------------------------=
   JOB DONE.
=------------------------------------------------------------------------------=
