
     Program PWSCF v.7.1 starts on 14Dec2023 at 21:24:52 

     This program is part of the open-source Quantum ESPRESSO suite
     for quantum simulation of materials; please cite
         "P. Giannozzi et al., J. Phys.:Condens. Matter 21 395502 (2009);
         "P. Giannozzi et al., J. Phys.:Condens. Matter 29 465901 (2017);
         "P. Giannozzi et al., J. Chem. Phys. 152 154105 (2020);
          URL http://www.quantum-espresso.org", 
     in publications or presentations arising from this work. More details at
     http://www.quantum-espresso.org/quote

     Parallel version (MPI), running on    24 processors

     MPI processes distributed on     1 nodes
     120985 MiB available memory on the printing compute node when the environment starts
 
     Reading input from pw_mp-22905_scf_k3000_E75.in
Warning: card &CELL ignored
Warning: card / ignored

     Current dimensions of program PWSCF are:
     Max number of different atomic species (ntypx) = 10
     Max number of k-points (npk) =  40000
     Max angular momentum in pseudopotentials (lmaxx) =  4
 
     K-points division:     npool     =       2
     R & G space division:  proc/nbgrp/npool/nimage =      12
     Subspace diagonalization in iterative solution of the eigenvalue problem:
     a serial algorithm will be used

 
     Parallelization info
     --------------------
     sticks:   dense  smooth     PW     G-vecs:    dense   smooth      PW
     Min          79      79     24                 1629     1629     267
     Max          80      80     26                 1633     1633     269
     Sum         955     955    295                19579    19579    3215
 
     Using Slab Decomposition
 


     bravais-lattice index     =            2
     lattice parameter (alat)  =       9.6078  a.u.
     unit-cell volume          =     221.7256 (a.u.)^3
     number of atoms/cell      =            2
     number of atomic types    =            2
     number of electrons       =        10.00
     number of Kohn-Sham states=           10
     kinetic-energy cutoff     =      75.0000  Ry
     charge density cutoff     =     300.0000  Ry
     scf convergence threshold =      1.0E-10
     mixing beta               =       0.7000
     number of iterations used =            8  plain     mixing
     Exchange-correlation= PBE
                           (   1   4   3   4   0   0   0)

     celldm(1)=   9.607829  celldm(2)=   0.000000  celldm(3)=   0.000000
     celldm(4)=   0.000000  celldm(5)=   0.000000  celldm(6)=   0.000000

     crystal axes: (cart. coord. in units of alat)
               a(1) = (  -0.500000   0.000000   0.500000 )  
               a(2) = (   0.000000   0.500000   0.500000 )  
               a(3) = (  -0.500000   0.500000   0.000000 )  

     reciprocal axes: (cart. coord. in units 2 pi/alat)
               b(1) = ( -1.000000 -1.000000  1.000000 )  
               b(2) = (  1.000000  1.000000  1.000000 )  
               b(3) = ( -1.000000  1.000000 -1.000000 )  


     PseudoPot. # 1 for Cl read from file:
     /usr/scratch4/magr4985/MG/HTDF/pseudo/SG15/Cl.upf
     MD5 check sum: 0f993535b366f580ecbcdacce103c843
     Pseudo is Norm-conserving, Zval =  7.0
     Generated using ONCVPSP code by D. R. Hamann
     Using radial grid of  602 points,  4 beta functions with: 
                l(1) =   0
                l(2) =   0
                l(3) =   1
                l(4) =   1

     PseudoPot. # 2 for Li read from file:
     /usr/scratch4/magr4985/MG/HTDF/pseudo/SG15/Li.upf
     MD5 check sum: c91dd4cee9943b136ac3b62641658f95
     Pseudo is Norm-conserving, Zval =  3.0
     Generated using ONCVPSP code by D. R. Hamann
     Using radial grid of  602 points,  4 beta functions with: 
                l(1) =   0
                l(2) =   0
                l(3) =   1
                l(4) =   1

     atomic species   valence    mass     pseudopotential
        Cl             7.00    35.45300     Cl( 1.00)
        Li             3.00     6.94100     Li( 1.00)

     48 Sym. Ops., with inversion, found



   Cartesian axes

     site n.     atom                  positions (alat units)
         1           Li  tau(   1) = (   0.0000000   0.0000000   0.0000000  )
         2           Cl  tau(   2) = (  -0.5000000   0.5000000   0.5000000  )

     number of k points=    72  Gaussian smearing, width (Ry)=  0.0005
                       cart. coord. in units 2pi/alat
        k(    1) = (   0.0000000   0.0000000   0.0000000), wk =   0.0011574
        k(    2) = (  -0.0833333   0.0833333  -0.0833333), wk =   0.0092593
        k(    3) = (  -0.1666667   0.1666667  -0.1666667), wk =   0.0092593
        k(    4) = (  -0.2500000   0.2500000  -0.2500000), wk =   0.0092593
        k(    5) = (  -0.3333333   0.3333333  -0.3333333), wk =   0.0092593
        k(    6) = (  -0.4166667   0.4166667  -0.4166667), wk =   0.0092593
        k(    7) = (   0.5000000  -0.5000000   0.5000000), wk =   0.0046296
        k(    8) = (   0.0000000   0.1666667   0.0000000), wk =   0.0069444
        k(    9) = (  -0.0833333   0.2500000  -0.0833333), wk =   0.0277778
        k(   10) = (  -0.1666667   0.3333333  -0.1666667), wk =   0.0277778
        k(   11) = (  -0.2500000   0.4166667  -0.2500000), wk =   0.0277778
        k(   12) = (  -0.3333333   0.5000000  -0.3333333), wk =   0.0277778
        k(   13) = (   0.5833333  -0.4166667   0.5833333), wk =   0.0277778
        k(   14) = (   0.5000000  -0.3333333   0.5000000), wk =   0.0277778
        k(   15) = (   0.4166667  -0.2500000   0.4166667), wk =   0.0277778
        k(   16) = (   0.3333333  -0.1666667   0.3333333), wk =   0.0277778
        k(   17) = (   0.2500000  -0.0833333   0.2500000), wk =   0.0277778
        k(   18) = (   0.1666667  -0.0000000   0.1666667), wk =   0.0138889
        k(   19) = (   0.0000000   0.3333333   0.0000000), wk =   0.0069444
        k(   20) = (  -0.0833333   0.4166667  -0.0833333), wk =   0.0277778
        k(   21) = (  -0.1666667   0.5000000  -0.1666667), wk =   0.0277778
        k(   22) = (  -0.2500000   0.5833333  -0.2500000), wk =   0.0277778
        k(   23) = (   0.6666667  -0.3333333   0.6666667), wk =   0.0277778
        k(   24) = (   0.5833333  -0.2500000   0.5833333), wk =   0.0277778
        k(   25) = (   0.5000000  -0.1666667   0.5000000), wk =   0.0277778
        k(   26) = (   0.4166667  -0.0833333   0.4166667), wk =   0.0277778
        k(   27) = (   0.3333333   0.0000000   0.3333333), wk =   0.0138889
        k(   28) = (   0.0000000   0.5000000   0.0000000), wk =   0.0069444
        k(   29) = (  -0.0833333   0.5833333  -0.0833333), wk =   0.0277778
        k(   30) = (  -0.1666667   0.6666667  -0.1666667), wk =   0.0277778
        k(   31) = (   0.7500000  -0.2500000   0.7500000), wk =   0.0277778
        k(   32) = (   0.6666667  -0.1666667   0.6666667), wk =   0.0277778
        k(   33) = (   0.5833333  -0.0833333   0.5833333), wk =   0.0277778
        k(   34) = (   0.5000000   0.0000000   0.5000000), wk =   0.0138889
        k(   35) = (   0.0000000   0.6666667   0.0000000), wk =   0.0069444
        k(   36) = (  -0.0833333   0.7500000  -0.0833333), wk =   0.0277778
        k(   37) = (   0.8333333  -0.1666667   0.8333333), wk =   0.0277778
        k(   38) = (   0.7500000  -0.0833333   0.7500000), wk =   0.0277778
        k(   39) = (   0.6666667  -0.0000000   0.6666667), wk =   0.0138889
        k(   40) = (   0.0000000   0.8333333   0.0000000), wk =   0.0069444
        k(   41) = (   0.9166667  -0.0833333   0.9166667), wk =   0.0277778
        k(   42) = (   0.8333333   0.0000000   0.8333333), wk =   0.0138889
        k(   43) = (   0.0000000  -1.0000000   0.0000000), wk =   0.0034722
        k(   44) = (  -0.1666667   0.3333333   0.0000000), wk =   0.0277778
        k(   45) = (  -0.2500000   0.4166667  -0.0833333), wk =   0.0555556
        k(   46) = (  -0.3333333   0.5000000  -0.1666667), wk =   0.0555556
        k(   47) = (   0.5833333  -0.4166667   0.7500000), wk =   0.0555556
        k(   48) = (   0.5000000  -0.3333333   0.6666667), wk =   0.0277778
        k(   49) = (  -0.1666667   0.5000000   0.0000000), wk =   0.0277778
        k(   50) = (  -0.2500000   0.5833333  -0.0833333), wk =   0.0555556
        k(   51) = (   0.6666667  -0.3333333   0.8333333), wk =   0.0555556
        k(   52) = (   0.5833333  -0.2500000   0.7500000), wk =   0.0555556
        k(   53) = (   0.5000000  -0.1666667   0.6666667), wk =   0.0555556
        k(   54) = (   0.4166667  -0.0833333   0.5833333), wk =   0.0555556
        k(   55) = (   0.3333333   0.0000000   0.5000000), wk =   0.0277778
        k(   56) = (  -0.1666667   0.6666667  -0.0000000), wk =   0.0277778
        k(   57) = (   0.7500000  -0.2500000   0.9166667), wk =   0.0555556
        k(   58) = (   0.6666667  -0.1666667   0.8333333), wk =   0.0555556
        k(   59) = (   0.5833333  -0.0833333   0.7500000), wk =   0.0555556
        k(   60) = (   0.5000000   0.0000000   0.6666667), wk =   0.0277778
        k(   61) = (   0.8333333  -0.1666667   1.0000000), wk =   0.0277778
        k(   62) = (   0.7500000  -0.0833333   0.9166667), wk =   0.0555556
        k(   63) = (   0.6666667   0.0000000   0.8333333), wk =   0.0277778
        k(   64) = (  -0.1666667  -1.0000000  -0.0000000), wk =   0.0138889
        k(   65) = (   0.6666667  -0.3333333   1.0000000), wk =   0.0277778
        k(   66) = (   0.5833333  -0.2500000   0.9166667), wk =   0.0555556
        k(   67) = (   0.5000000  -0.1666667   0.8333333), wk =   0.0277778
        k(   68) = (   0.6666667  -0.1666667   1.0000000), wk =   0.0277778
        k(   69) = (   0.5833333  -0.0833333   0.9166667), wk =   0.0555556
        k(   70) = (   0.5000000   0.0000000   0.8333333), wk =   0.0277778
        k(   71) = (  -0.3333333  -1.0000000   0.0000000), wk =   0.0138889
        k(   72) = (  -0.5000000  -1.0000000   0.0000000), wk =   0.0069444

     Dense  grid:    19579 G-vectors     FFT dimensions: (  40,  40,  40)

     Estimated max dynamical RAM per process >       2.19 MB

     Estimated total dynamical RAM >      47.71 MB

     Initial potential from superposition of free atoms

     starting charge       9.8826, renormalised to      10.0000
     Starting wfcs are random

     total cpu time spent up to now is        0.2 secs

     Self-consistent Calculation

     iteration #  1     ecut=    75.00 Ry     beta= 0.70
     Davidson diagonalization with overlap
     ethr =  1.00E-02,  avg # of iterations =  7.5

     Threshold (ethr) on eigenvalues was too large:
     Diagonalizing with lowered threshold

     Davidson diagonalization with overlap
     ethr =  1.05E-04,  avg # of iterations =  3.7

     total cpu time spent up to now is        0.9 secs

     total energy              =     -44.70168052 Ry
     estimated scf accuracy    <       0.01084441 Ry

     iteration #  2     ecut=    75.00 Ry     beta= 0.70
     Davidson diagonalization with overlap
     ethr =  1.08E-04,  avg # of iterations =  2.0

     total cpu time spent up to now is        1.1 secs

     total energy              =     -44.70354804 Ry
     estimated scf accuracy    <       0.00124273 Ry

     iteration #  3     ecut=    75.00 Ry     beta= 0.70
     Davidson diagonalization with overlap
     ethr =  1.24E-05,  avg # of iterations =  2.4

     total cpu time spent up to now is        1.3 secs

     total energy              =     -44.70385315 Ry
     estimated scf accuracy    <       0.00010297 Ry

     iteration #  4     ecut=    75.00 Ry     beta= 0.70
     Davidson diagonalization with overlap
     ethr =  1.03E-06,  avg # of iterations =  3.5

     total cpu time spent up to now is        1.6 secs

     total energy              =     -44.70386760 Ry
     estimated scf accuracy    <       0.00000135 Ry

     iteration #  5     ecut=    75.00 Ry     beta= 0.70
     Davidson diagonalization with overlap
     ethr =  1.35E-08,  avg # of iterations =  2.0

     total cpu time spent up to now is        1.8 secs

     total energy              =     -44.70386812 Ry
     estimated scf accuracy    <       0.00000004 Ry

     iteration #  6     ecut=    75.00 Ry     beta= 0.70
     Davidson diagonalization with overlap
     ethr =  4.16E-10,  avg # of iterations =  2.1

     total cpu time spent up to now is        2.0 secs

     total energy              =     -44.70386814 Ry
     estimated scf accuracy    <          5.8E-10 Ry

     iteration #  7     ecut=    75.00 Ry     beta= 0.70
     Davidson diagonalization with overlap
     ethr =  5.82E-12,  avg # of iterations =  3.0

     total cpu time spent up to now is        2.2 secs

     End of self-consistent calculation

          k = 0.0000 0.0000 0.0000 (  2421 PWs)   bands (ev):

   -41.5862 -11.6196   1.8398   1.8398   1.8398   8.3355  13.9345  13.9345
    13.9345  16.5469

          k =-0.0833 0.0833-0.0833 (  2433 PWs)   bands (ev):

   -41.5860 -11.5834   1.5814   1.8200   1.8200   8.5686  13.4725  13.9612
    13.9613  15.3838

          k =-0.1667 0.1667-0.1667 (  2433 PWs)   bands (ev):

   -41.5854 -11.4816   0.9510   1.7674   1.7674   9.0210  12.8965  13.4933
    13.4933  15.2180

          k =-0.2500 0.2500-0.2500 (  2442 PWs)   bands (ev):

   -41.5846 -11.3355   0.2047   1.6990   1.6990   9.1933  12.6675  12.6675
    12.9992  15.9926

          k =-0.3333 0.3333-0.3333 (  2442 PWs)   bands (ev):

   -41.5838 -11.1800  -0.4616   1.6342   1.6342   9.0039  12.0031  12.0031
    13.7790  17.1473

          k =-0.4167 0.4167-0.4167 (  2431 PWs)   bands (ev):

   -41.5833 -11.0594  -0.9166   1.5888   1.5888   8.7717  11.5903  11.5903
    14.6775  18.4566

          k = 0.5000-0.5000 0.5000 (  2452 PWs)   bands (ev):

   -41.5831 -11.0137  -1.0781   1.5727   1.5727   8.6795  11.4508  11.4508
    15.0856  18.9666

          k = 0.0000 0.1667 0.0000 (  2449 PWs)   bands (ev):

   -41.5859 -11.5711   1.6127   1.7515   1.7515   8.6666  13.4039  13.9596
    13.9596  14.4138

          k =-0.0833 0.2500-0.0833 (  2445 PWs)   bands (ev):

   -41.5855 -11.4906   1.1307   1.6581   1.7242   9.1095  12.8029  13.3583
    13.8506  14.3492

          k =-0.1667 0.3333-0.1667 (  2445 PWs)   bands (ev):

   -41.5847 -11.3581   0.4322   1.5671   1.6658   9.4566  12.4406  12.6474
    13.2711  15.0812

          k =-0.2500 0.4167-0.2500 (  2442 PWs)   bands (ev):

   -41.5840 -11.2039  -0.2482   1.5026   1.5683   9.3797  11.8553  12.5672
    13.1650  16.0949

          k =-0.3333 0.5000-0.3333 (  2440 PWs)   bands (ev):

   -41.5833 -11.0695  -0.7639   1.4605   1.4799   9.1363  11.4890  12.0080
    14.1013  17.2175

          k = 0.5833-0.4167 0.5833 (  2435 PWs)   bands (ev):

   -41.5830 -10.9973  -1.0179   1.3711   1.5032   8.9865  11.3850  11.6764
    14.7876  18.2528

          k = 0.5000-0.3333 0.5000 (  2437 PWs)   bands (ev):

   -41.5831 -11.0129  -0.9627   1.3225   1.5662   9.0110  11.5351  11.6044
    14.6605  18.2961

          k = 0.4167-0.2500 0.4167 (  2433 PWs)   bands (ev):

   -41.5835 -11.1105  -0.6095   1.3274   1.6536   9.1960  11.8074  11.9097
    13.8610  16.9231

          k = 0.3333-0.1667 0.3333 (  2434 PWs)   bands (ev):

   -41.5842 -11.2567  -0.0266   1.3883   1.7443   9.4102  12.2913  12.3974
    13.0821  15.7137

          k = 0.2500-0.0833 0.2500 (  2444 PWs)   bands (ev):

   -41.5850 -11.4076   0.6649   1.4990   1.8143   9.3360  12.5454  13.0546
    13.2782  14.7940

          k = 0.1667-0.0000 0.1667 (  2443 PWs)   bands (ev):

   -41.5856 -11.5250   1.2744   1.6561   1.8429   8.9016  12.9932  13.7335
    14.0793  14.2207

          k = 0.0000 0.3333 0.0000 (  2445 PWs)   bands (ev):

   -41.5851 -11.4327   1.0294   1.5202   1.5202   9.5473  12.4082  12.6960
    14.1355  14.1355

          k =-0.0833 0.4167-0.0833 (  2445 PWs)   bands (ev):

   -41.5846 -11.3197   0.5181   1.3923   1.4178  10.0576  11.9723  12.0449
    14.0053  14.5811

          k =-0.1667 0.5000-0.1667 (  2442 PWs)   bands (ev):

   -41.5839 -11.1767  -0.0813   1.2768   1.3063  10.1683  11.5755  12.1671
    13.4359  15.4449

          k =-0.2500 0.5833-0.2500 (  2437 PWs)   bands (ev):

   -41.5832 -11.0405  -0.5779   1.0893   1.2816   9.9092  11.3399  12.8085
    13.0096  16.4276

          k = 0.6667-0.3333 0.6667 (  2430 PWs)   bands (ev):

   -41.5828 -10.9518  -0.8651   0.9085   1.3229   9.6847  11.3213  12.3161
    13.9325  17.2690

          k = 0.5833-0.2500 0.5833 (  2427 PWs)   bands (ev):

   -41.5828 -10.9407  -0.8855   0.7849   1.4210   9.6232  11.4924  12.0262
    14.2290  18.1882

          k = 0.5000-0.1667 0.5000 (  2427 PWs)   bands (ev):

   -41.5831 -11.0113  -0.6407   0.7561   1.5532   9.7293  11.7978  11.9663
    13.6481  16.9928

          k = 0.4167-0.0833 0.4167 (  2441 PWs)   bands (ev):

   -41.5837 -11.1388  -0.2032   0.8542   1.6866   9.8918  12.0700  12.1438
    12.9770  15.8484

          k = 0.3333 0.0000 0.3333 (  2445 PWs)   bands (ev):

   -41.5844 -11.2839   0.2789   1.1157   1.7838   9.7836  12.1387  12.5384
    13.0150  15.0670

          k = 0.0000 0.5000 0.0000 (  2429 PWs)   bands (ev):

   -41.5841 -11.2283   0.2807   1.2248   1.2248  10.5752  11.4791  11.7095
    14.5542  14.5542

          k =-0.0833 0.5833-0.0833 (  2438 PWs)   bands (ev):

   -41.5835 -11.1040  -0.1484   1.0541   1.1053  10.6206  11.2287  11.8236
    14.4482  15.1060

          k =-0.1667 0.6667-0.1667 (  2428 PWs)   bands (ev):

   -41.5830 -10.9783  -0.5291   0.7967   1.0593  10.3523  11.3597  12.2370
    13.8870  15.9521

          k = 0.7500-0.2500 0.7500 (  2424 PWs)   bands (ev):

   -41.5826 -10.8873  -0.7412   0.4948   1.0956  10.1189  11.5927  12.9441
    13.2758  16.5706

          k = 0.6667-0.1667 0.6667 (  2411 PWs)   bands (ev):

   -41.5824 -10.8605  -0.7336   0.2376   1.2071  10.0270  11.8580  12.7656
    13.5150  16.9148

          k = 0.5833-0.0833 0.5833 (  2430 PWs)   bands (ev):

   -41.5826 -10.9068  -0.5365   0.1271   1.3705  10.0741  12.1422  12.3997
    13.2588  17.4051

          k = 0.5000 0.0000 0.5000 (  2421 PWs)   bands (ev):

   -41.5831 -11.0104  -0.3350   0.3384   1.5468  10.1371  12.1892  12.1914
    12.8350  16.4266

          k = 0.0000 0.6667 0.0000 (  2417 PWs)   bands (ev):

   -41.5831 -11.0024  -0.4455   0.9497   0.9497  10.3654  10.7730  12.5978
    15.1804  15.1804

          k =-0.0833 0.7500-0.0833 (  2423 PWs)   bands (ev):

   -41.5827 -10.8978  -0.7310   0.7609   0.8718  10.2014  10.6972  13.0790
    15.0607  15.7248

          k = 0.8333-0.1667 0.8333 (  2428 PWs)   bands (ev):

   -41.5823 -10.8201  -0.8535   0.4367   0.8863  10.0855  11.1483  13.2987
    14.4270  16.1738

          k = 0.7500-0.0833 0.7500 (  2422 PWs)   bands (ev):

   -41.5822 -10.7933  -0.7513   0.0563   0.9904  10.0408  11.9128  13.3547
    13.6995  16.1678

          k = 0.6667-0.0000 0.6667 (  2424 PWs)   bands (ev):

   -41.5823 -10.8259  -0.4321  -0.2686   1.1646  10.0781  12.6238  12.9649
    13.0042  16.5842

          k = 0.0000 0.8333 0.0000 (  2446 PWs)   bands (ev):

   -41.5824 -10.8205  -0.9749   0.7594   0.7594   9.9774  10.3384  13.9036
    15.8461  15.8461

          k = 0.9167-0.0833 0.9167 (  2431 PWs)   bands (ev):

   -41.5822 -10.7689  -1.0748   0.6024   0.7426   9.9494  10.4252  14.1783
    15.5696  16.0858

          k = 0.8333 0.0000 0.8333 (  2424 PWs)   bands (ev):

   -41.5821 -10.7590  -0.9759   0.3080   0.8245   9.9799  11.0523  13.9863
    14.6945  16.0080

          k = 0.0000-1.0000 0.0000 (  2450 PWs)   bands (ev):

   -41.5821 -10.7498  -1.1696   0.6919   0.6919   9.8478  10.1921  14.5054
    16.1710  16.1710

          k =-0.1667 0.3333 0.0000 (  2436 PWs)   bands (ev):

   -41.5849 -11.3939   0.7323   1.4071   1.7036   9.5841  12.3176  12.6392
    13.7886  14.4582

          k =-0.2500 0.4167-0.0833 (  2440 PWs)   bands (ev):

   -41.5842 -11.2556   0.1569   1.1942   1.6458   9.8938  11.9894  12.2325
    13.3329  15.1429

          k =-0.3333 0.5000-0.1667 (  2431 PWs)   bands (ev):

   -41.5835 -11.1090  -0.4071   1.0645   1.5473   9.7725  11.5949  12.4207
    13.2113  16.1604

          k = 0.5833-0.4167 0.7500 (  2432 PWs)   bands (ev):

   -41.5830 -10.9958  -0.8063   1.0005   1.4544   9.5568  11.3896  12.1237
    13.9842  17.2785

          k = 0.5000-0.3333 0.6667 (  2424 PWs)   bands (ev):

   -41.5828 -10.9529  -0.9498   0.9831   1.4158   9.4691  11.3375  11.9714
    14.4314  18.3717

          k =-0.1667 0.5000 0.0000 (  2442 PWs)   bands (ev):

   -41.5840 -11.2008   0.1237   1.0912   1.3765  10.5434  11.6102  11.6167
    14.1153  14.8190

          k =-0.2500 0.5833-0.0833 (  2427 PWs)   bands (ev):

   -41.5833 -11.0650  -0.3073   0.8378   1.2903  10.5755  11.3923  11.8385
    13.7459  15.6087

          k = 0.6667-0.3333 0.8333 (  2439 PWs)   bands (ev):

   -41.5828 -10.9495  -0.6442   0.6368   1.2156  10.3004  11.3272  12.5096
    13.4082  16.5422

          k = 0.5833-0.2500 0.7500 (  2426 PWs)   bands (ev):

   -41.5826 -10.8900  -0.7935   0.4829   1.2181  10.1332  11.3743  12.6010
    13.6987  17.2333

          k = 0.5000-0.1667 0.6667 (  2424 PWs)   bands (ev):

   -41.5826 -10.9069  -0.7188   0.4106   1.3045  10.1408  11.4708  12.4725
    13.6615  17.4690

          k = 0.4167-0.0833 0.5833 (  2430 PWs)   bands (ev):

   -41.5830 -10.9942  -0.4607   0.4790   1.4400  10.2798  11.5933  12.2537
    13.2873  16.4250

          k = 0.3333 0.0000 0.5000 (  2436 PWs)   bands (ev):

   -41.5836 -11.1231  -0.1386   0.7523   1.5720  10.3015  11.7840  11.9060
    13.3073  15.5482

          k =-0.1667 0.6667-0.0000 (  2429 PWs)   bands (ev):

   -41.5830 -10.9884  -0.4646   0.7989   1.0302  10.5475  11.0220  12.1821
    14.6609  15.4029

          k = 0.7500-0.2500 0.9167 (  2428 PWs)   bands (ev):

   -41.5826 -10.8847  -0.6808   0.5059   0.9658  10.4426  11.2953  12.3863
    14.2619  16.1261

          k = 0.6667-0.1667 0.8333 (  2428 PWs)   bands (ev):

   -41.5823 -10.8240  -0.7175   0.1812   0.9858  10.3393  11.7938  12.6865
    13.6782  16.5814

          k = 0.5833-0.0833 0.7500 (  2426 PWs)   bands (ev):

   -41.5823 -10.8259  -0.5545  -0.0920   1.0982  10.3428  12.0573  12.9701
    13.1233  16.9340

          k = 0.5000 0.0000 0.6667 (  2442 PWs)   bands (ev):

   -41.5826 -10.8896  -0.4202  -0.0320   1.2681  10.4130  11.9949  12.3627
    13.2558  17.1079

          k = 0.8333-0.1667 1.0000 (  2423 PWs)   bands (ev):

   -41.5823 -10.8181  -0.9064   0.5976   0.7883  10.1877  10.6438  13.4586
    15.0845  16.0513

          k = 0.7500-0.0833 0.9167 (  2423 PWs)   bands (ev):

   -41.5821 -10.7729  -0.8998   0.3025   0.7934  10.2411  11.1210  13.5019
    14.3485  16.4111

          k = 0.6667 0.0000 0.8333 (  2431 PWs)   bands (ev):

   -41.5821 -10.7760  -0.6989  -0.0419   0.9094  10.2877  11.9611  13.3404
    13.3833  16.4797

          k =-0.1667-1.0000-0.0000 (  2428 PWs)   bands (ev):

   -41.5821 -10.7522  -1.0722   0.5263   0.7035  10.0666  10.5142  14.2209
    15.0529  16.3738

          k = 0.6667-0.3333 1.0000 (  2433 PWs)   bands (ev):

   -41.5828 -10.9483  -0.4774   0.4213   1.1887  11.0143  11.3434  11.6415
    13.8925  16.0718

          k = 0.5833-0.2500 0.9167 (  2429 PWs)   bands (ev):

   -41.5824 -10.8593  -0.5824   0.1357   1.0721  10.9566  11.3248  12.2729
    13.6248  16.8865

          k = 0.5000-0.1667 0.8333 (  2430 PWs)   bands (ev):

   -41.5823 -10.8259  -0.6189   0.0360   1.0224  10.8763  11.3318  12.9484
    13.1862  17.2691

          k = 0.6667-0.1667 1.0000 (  2425 PWs)   bands (ev):

   -41.5823 -10.8101  -0.7078   0.1958   0.8545  10.8140  11.4323  12.3107
    14.0815  16.6753

          k = 0.5833-0.0833 0.9167 (  2430 PWs)   bands (ev):

   -41.5821 -10.7768  -0.5811  -0.1148   0.8219  10.9934  11.9427  12.4106
    13.2708  17.2211

          k = 0.5000 0.0000 0.8333 (  2435 PWs)   bands (ev):

   -41.5822 -10.7953  -0.4035  -0.2814   0.9105  11.1086  11.8093  12.4226
    13.1755  17.6950

          k =-0.3333-1.0000 0.0000 (  2424 PWs)   bands (ev):

   -41.5821 -10.7570  -0.7919   0.1164   0.7268  10.7169  11.3540  13.3547
    13.4643  16.9916

          k =-0.5000-1.0000 0.0000 (  2468 PWs)   bands (ev):

   -41.5821 -10.7594  -0.3686  -0.3686   0.7384  11.5638  12.1219  12.4317
    12.4317  18.0210

     the Fermi energy is     3.8596 ev

!    total energy              =     -44.70386814 Ry
     estimated scf accuracy    <          1.1E-11 Ry
     smearing contrib. (-TS)   =      -0.00000000 Ry
     internal energy E=F+TS    =     -44.70386814 Ry

     The total energy is F=E-TS. E is the sum of the following terms:
     one-electron contribution =     -10.53328846 Ry
     hartree contribution      =       7.46876467 Ry
     xc contribution           =      -9.19801221 Ry
     ewald contribution        =     -32.44133214 Ry

     convergence has been achieved in   7 iterations

     Writing all to output data dir out/mp-22905.save/
 
     init_run     :      0.07s CPU      0.12s WALL (       1 calls)
     electrons    :      1.77s CPU      2.07s WALL (       1 calls)

     Called by init_run:
     wfcinit      :      0.06s CPU      0.07s WALL (       1 calls)
     potinit      :      0.00s CPU      0.01s WALL (       1 calls)
     hinit0       :      0.00s CPU      0.03s WALL (       1 calls)

     Called by electrons:
     c_bands      :      1.52s CPU      1.73s WALL (       8 calls)
     sum_band     :      0.22s CPU      0.27s WALL (       8 calls)
     v_of_rho     :      0.02s CPU      0.02s WALL (       8 calls)
     mix_rho      :      0.00s CPU      0.01s WALL (       8 calls)

     Called by c_bands:
     init_us_2    :      0.02s CPU      0.03s WALL (     612 calls)
     init_us_2:cp :      0.02s CPU      0.03s WALL (     612 calls)
     cegterg      :      1.40s CPU      1.50s WALL (     288 calls)

     Called by *egterg:
     cdiaghg      :      0.16s CPU      0.17s WALL (    1229 calls)
     h_psi        :      1.17s CPU      1.27s WALL (    1301 calls)
     g_psi        :      0.01s CPU      0.01s WALL (     977 calls)

     Called by h_psi:
     h_psi:calbec :      0.03s CPU      0.03s WALL (    1301 calls)
     vloc_psi     :      1.11s CPU      1.20s WALL (    1301 calls)
     add_vuspsi   :      0.02s CPU      0.02s WALL (    1301 calls)

     General routines
     calbec       :      0.03s CPU      0.03s WALL (    1301 calls)
     fft          :      0.01s CPU      0.03s WALL (      80 calls)
     ffts         :      0.00s CPU      0.00s WALL (       8 calls)
     fftw         :      1.16s CPU      1.26s WALL (   21122 calls)
     davcio       :      0.03s CPU      0.15s WALL (     988 calls)
 
     Parallel routines
 
     PWSCF        :      1.90s CPU      2.40s WALL

 
   This run was terminated on:  21:24:54  14Dec2023            

=------------------------------------------------------------------------------=
   JOB DONE.
=------------------------------------------------------------------------------=
