
     Program PWSCF v.7.1 starts on  5Apr2024 at 11:44:29 

     This program is part of the open-source Quantum ESPRESSO suite
     for quantum simulation of materials; please cite
         "P. Giannozzi et al., J. Phys.:Condens. Matter 21 395502 (2009);
         "P. Giannozzi et al., J. Phys.:Condens. Matter 29 465901 (2017);
         "P. Giannozzi et al., J. Chem. Phys. 152 154105 (2020);
          URL http://www.quantum-espresso.org", 
     in publications or presentations arising from this work. More details at
     http://www.quantum-espresso.org/quote

     Parallel version (MPI), running on     8 processors

     MPI processes distributed on     1 nodes
     248052 MiB available memory on the printing compute node when the environment starts
 
     Reading input from pw_MoSe2_nscf_k0_E48.in
Warning: card &IONS ignored
Warning: card / ignored
Warning: card &CELL ignored
Warning: card / ignored

     Current dimensions of program PWSCF are:
     Max number of different atomic species (ntypx) = 10
     Max number of k-points (npk) =  40000
     Max angular momentum in pseudopotentials (lmaxx) =  4

     Atomic positions and unit cell read from directory:
     out/MoSe2.save/
     Atomic positions from file used, from input discarded
 
 
     R & G space division:  proc/nbgrp/npool/nimage =       8
     Subspace diagonalization in iterative solution of the eigenvalue problem:
     one sub-group per band group will be used
     scalapack distributed-memory algorithm (size of sub-group:  2*  2 procs)

 
     Parallelization info
     --------------------
     sticks:   dense  smooth     PW     G-vecs:    dense   smooth      PW
     Min          63      63     15                 8393     8393    1027
     Max          64      64     16                 8426     8426    1062
     Sum         511     511    121                67305    67305    8293
 
     Using Slab Decomposition
 


     bravais-lattice index     =            4
     lattice parameter (alat)  =       6.2659  a.u.
     unit-cell volume          =    1500.8938 (a.u.)^3
     number of atoms/cell      =            3
     number of atomic types    =            2
     number of electrons       =        26.00
     number of Kohn-Sham states=         1200
     kinetic-energy cutoff     =      48.0000  Ry
     charge density cutoff     =     192.0000  Ry
     Exchange-correlation= PBE
                           (   1   4   3   4   0   0   0)

     celldm(1)=   6.265942  celldm(2)=   0.000000  celldm(3)=   7.044663
     celldm(4)=   0.000000  celldm(5)=   0.000000  celldm(6)=   0.000000

     crystal axes: (cart. coord. in units of alat)
               a(1) = (   1.000000   0.000000   0.000000 )  
               a(2) = (  -0.500000   0.866025   0.000000 )  
               a(3) = (   0.000000   0.000000   7.044663 )  

     reciprocal axes: (cart. coord. in units 2 pi/alat)
               b(1) = (  1.000000  0.577350  0.000000 )  
               b(2) = (  0.000000  1.154701  0.000000 )  
               b(3) = (  0.000000  0.000000  0.141951 )  


     PseudoPot. # 1 for Mo read from file:
     /usr/scratch4/magr4985/FGWC/FGWC/pseudo/SG15/Mo.upf
     MD5 check sum: 2665c9f4159700498d9a5f7573bd8e9f
     Pseudo is Norm-conserving, Zval = 14.0
     Generated using ONCVPSP code by D. R. Hamann
     Using radial grid of  602 points,  6 beta functions with: 
                l(1) =   0
                l(2) =   0
                l(3) =   1
                l(4) =   1
                l(5) =   2
                l(6) =   2

     PseudoPot. # 2 for Se read from file:
     /usr/scratch4/magr4985/FGWC/FGWC/pseudo/SG15/Se.upf
     MD5 check sum: e78e48a4f5d8ce1f8dc76ec1271f249c
     Pseudo is Norm-conserving, Zval =  6.0
     Generated using ONCVPSP code by D. R. Hamann
     Using radial grid of  602 points,  6 beta functions with: 
                l(1) =   0
                l(2) =   0
                l(3) =   1
                l(4) =   1
                l(5) =   2
                l(6) =   2

     atomic species   valence    mass     pseudopotential
        Mo            14.00    95.94000     Mo( 1.00)
        Se             6.00    78.96000     Se( 1.00)

     12 Sym. Ops. (no inversion) found



   Cartesian axes

     site n.     atom                  positions (alat units)
         1           Mo  tau(   1) = (   0.5000000   0.2886752   3.5223315  )
         2           Se  tau(   2) = (   0.0000000   0.0000000   4.0263545  )
         3           Se  tau(   3) = (   0.0000000   0.0000000   3.0183086  )

     number of k points=     1  Gaussian smearing, width (Ry)=  0.0005
                       cart. coord. in units 2pi/alat
        k(    1) = (   0.0000000   0.0000000   0.0000000), wk =   2.0000000

     Dense  grid:    67305 G-vectors     FFT dimensions: (  27,  27, 200)

     Estimated max dynamical RAM per process >     169.09 MB

     Estimated total dynamical RAM >       1.32 GB

     The potential is recalculated from file :
     out/MoSe2.save/charge-density

     Starting wfcs are random

     Band Structure Calculation
     Davidson diagonalization with overlap

     ethr =  5.00E-06,  avg # of iterations = 12.0

     total cpu time spent up to now is      102.6 secs

     End of band structure calculation

          k = 0.0000 0.0000 0.0000 (  8293 PWs)   bands (ev):

   -61.9309 -36.0711 -35.9101 -35.9101 -15.2527 -14.2645  -6.4583  -3.1998
    -3.1998  -2.9125  -2.2200  -2.2200  -1.3476   1.7604   1.7604   1.9874
     1.9874   3.5619   3.8853   4.4093   4.9999   5.2384   6.1359   7.1923
     7.4665   8.2372   9.8311   9.8311  10.0115  10.5492  11.4689  11.8631
    11.8631  13.2108  13.6442  13.6929  15.5135  15.5135  15.6098  15.6098
    15.7235  16.3395  17.6269  17.8515  18.8919  18.8919  20.9229  20.9459
    20.9459  21.1949  21.6108  21.6108  21.7091  22.0071  22.0071  22.1221
    22.1640  22.2417  22.3029  22.3029  22.6470  22.6498  22.6498  22.7374
    22.9145  22.9145  22.9504  22.9504  23.0843  23.3840  23.3840  23.5756
    23.6297  23.7976  23.7976  24.0882  24.4207  24.4207  24.4414  24.4414
    24.6232  25.1231  25.2715  25.2715  25.6205  25.6205  25.6566  26.1786
    26.4614  26.4614  26.7015  26.7015  26.7381  26.8937  27.3058  27.8325
    27.8325  27.8706  28.0684  28.0684  28.5032  28.8950  28.9042  28.9042
    29.6200  29.6200  29.9766  30.6165  31.0187  31.0187  31.1137  31.1137
    31.8881  31.8881  31.9214  32.1534  32.5157  32.7521  33.0725  33.0725
    33.6498  34.2342  34.3025  34.7181  34.7181  34.7659  34.7659  35.4763
    35.4764  35.7780  36.1032  36.9129  36.9129  37.8367  38.2386  38.4968
    38.7288  38.7613  38.7613  38.8418  38.8418  39.3915  39.4492  39.4492
    40.3026  40.3026  40.5307  40.6936  41.6678  41.6678  41.8092  41.8092
    42.2277  42.5218  42.5871  42.5871  43.1295  43.1578  43.1578  43.5002
    44.2190  44.2190  44.2320  44.2320  44.7356  45.0708  45.5360  45.5360
    46.0169  46.6645  47.0567  47.0567  47.2350  48.4050  48.4050  48.6150
    48.9273  48.9274  49.1093  50.2294  50.2294  50.7559  50.9740  51.0782
    51.0782  51.0956  51.0956  51.7835  52.1227  52.2688  52.2688  52.7734
    52.7734  52.9652  52.9907  53.2172  53.3612  54.8215  54.8215  54.8613
    54.8804  54.8804  56.0654  56.0654  56.4740  56.5509  56.5628  56.5628
    56.8397  57.0080  57.3934  57.3934  57.6812  57.7657  57.7657  58.1885
    58.1885  58.2267  58.2267  58.3719  58.5482  58.7707  58.8710  59.0001
    59.0016  59.0016  59.0392  59.0392  59.0713  59.0713  59.2051  59.2051
    59.4826  59.4897  59.4897  59.6835  59.6835  59.8633  59.8781  59.8909
    60.1215  60.2765  60.2765  60.3486  60.3486  60.4418  60.8149  60.8149
    60.9553  60.9553  61.0935  61.0935  61.1130  61.1904  61.6839  61.7282
    61.7594  61.7893  62.1765  62.1765  62.3654  62.3786  62.3787  62.5115
    62.5115  62.9050  62.9050  63.1672  63.2917  63.2917  63.7479  63.7479
    64.3655  64.3815  64.4843  64.4843  64.5092  64.5092  64.6474  64.6807
    64.8795  64.9894  64.9894  65.0970  65.0986  65.0986  65.5013  65.5013
    65.7190  65.7190  66.4830  66.7140  66.7140  67.1539  67.1539  67.5657
    67.5657  67.5670  67.6439  67.6498  68.0600  68.4680  68.6731  68.6731
    68.6818  68.9310  68.9310  69.0203  69.4494  69.4494  69.8953  70.2641
    70.2641  70.2876  70.2876  70.6116  71.4615  71.4615  71.5016  71.5143
    71.5143  71.5253  71.5761  71.7851  72.1239  72.1239  72.3829  72.3829
    72.3976  72.6438  72.6438  73.0375  73.1892  73.1892  73.5139  73.9617
    73.9617  74.1866  74.2042  74.2042  75.2453  75.3366  75.5674  75.5674
    75.6442  75.6442  75.9376  76.0211  76.0211  76.1084  76.4506  76.5964
    76.7993  76.7993  76.8385  76.9954  76.9954  77.0761  77.0869  77.0869
    77.1940  77.1940  77.2734  77.3703  77.4133  77.5006  77.5006  77.6148
    77.6798  77.6798  77.6959  77.6959  77.7300  78.0482  78.0482  78.1593
    78.1852  78.3049  78.3049  78.3530  78.3530  78.5049  78.5286  78.5286
    78.7909  78.7909  78.8499  79.1811  79.1811  79.7097  79.7097  79.8340
    79.9085  80.0524  80.0524  80.1340  80.1340  80.1827  80.4554  80.4602
    80.7808  80.7902  80.7902  80.8625  80.8625  80.9213  81.0744  81.0744
    81.1577  81.1577  81.2309  81.5848  81.8177  81.8177  82.0610  82.3862
    82.3862  82.3916  82.3916  82.5253  82.6391  82.6391  82.7296  82.8832
    83.2337  83.6198  83.6198  83.7108  83.7108  83.9620  84.4413  84.6033
    84.6033  85.0816  85.0816  85.6303  85.7410  85.9073  85.9073  85.9268
    86.0639  86.0639  86.3744  86.4000  86.5356  86.5356  86.7206  86.7206
    86.7671  86.7671  86.9075  86.9970  87.2439  87.2439  87.3203  87.7443
    87.7443  87.9574  87.9574  87.9953  88.0460  88.0460  88.2639  88.7293
    88.8223  88.8223  89.3614  89.4584  89.4584  89.4751  89.4751  89.6023
    89.7233  90.1068  90.1068  90.2574  90.3355  91.0383  91.0383  91.5621
    91.6996  91.8109  91.8109  92.1510  92.1510  92.4250  92.7436  92.7436
    93.1125  93.3539  93.3539  93.6748  93.6748  93.7694  93.8938  94.1686
    94.1686  94.1990  94.1990  94.3661  94.3927  94.5657  94.7770  94.8092
    94.8092  95.2113  95.6467  95.6467  95.8402  95.8402  96.1433  96.1433
    96.3195  96.8614  96.8629  96.8629  97.5337  97.5337  97.7527  97.7563
    98.0117  98.0117  98.6434  98.7231  98.7231  98.7494  98.9439  99.0295
    99.0295  99.5398  99.5398  99.7146  99.7146  99.7385  99.7533  99.8602
    99.9627  99.9627 100.0739 100.0739 100.0780 100.5822 100.7861 101.0410
   101.0410 102.9849 103.2428 103.2945 103.2945 103.6971 103.6971 103.7578
   103.9969 104.0885 104.0885 104.2866 104.3310 105.0198 105.0198 105.0963
   105.1466 105.3383 105.3383 105.6948 105.6948 105.9747 106.3815 106.3815
   106.3818 106.3818 106.5979 106.5979 106.6757 106.6757 107.0376 107.0724
   107.0724 107.3420 107.3548 107.3548 107.4497 107.4620 107.4620 107.5033
   107.6175 107.6175 107.7912 108.6377 108.6922 108.7061 109.0730 109.0730
   109.7838 109.7838 109.8466 109.8466 109.9797 110.2355 111.2429 111.5008
   111.5008 111.5713 111.5713 111.8068 112.0537 112.0537 112.0642 112.5813
   112.6813 112.7805 112.7805 113.4721 113.4721 113.6049 113.6049 113.8591
   113.8591 113.9791 114.3384 114.3384 114.3400 114.5215 115.1347 115.5357
   115.5357 115.8786 115.8786 115.9373 116.0795 116.1689 116.1689 116.2614
   116.2614 116.5313 116.5313 116.6688 116.8211 116.8211 116.9695 117.0902
   117.2642 117.2642 117.2787 117.2787 117.3239 117.3687 117.6124 117.8665
   117.8665 117.9691 118.0184 118.1101 118.1101 118.5622 118.7758 118.7758
   119.0961 119.0961 119.3423 119.5377 119.7675 119.7675 119.9483 120.5858
   121.3944 121.5597 121.5597 121.6209 121.6209 121.9429 121.9583 121.9583
   122.4699 122.4699 122.7745 122.8788 122.8788 123.0891 123.1907 123.1907
   123.4018 123.4018 123.6550 123.9444 123.9807 124.6477 124.7359 124.7359
   124.8293 124.8826 124.8826 124.9526 125.4446 125.4446 125.7256 125.8031
   125.8031 125.8693 125.9800 125.9800 126.4195 126.4195 126.4201 126.7626
   126.7626 126.9816 127.2278 127.2903 127.2903 127.3088 127.3088 127.7841
   127.9247 127.9247 128.0057 128.1087 128.1087 128.5416 128.5416 128.7633
   129.1060 129.9906 129.9906 130.0228 130.3183 130.3492 130.4970 130.4970
   130.5244 130.5895 130.5895 130.7524 130.8368 130.9937 130.9937 131.0557
   131.0557 131.2582 131.2582 131.3254 131.3254 131.5965 131.5965 131.6473
   131.7175 131.7357 131.7357 131.7638 131.8194 131.8194 131.8417 131.8739
   131.8740 131.9791 131.9930 132.0021 132.0032 132.0033 132.0305 132.0959
   132.0961 132.1631 132.1631 132.3059 132.3097 132.3098 132.3794 132.4449
   132.5063 132.5064 132.5132 132.6097 132.6097 132.7317 132.7318 132.7938
   132.8089 132.8094 132.8095 132.8259 132.9090 132.9091 132.9856 132.9856
   133.0272 133.2278 133.2279 133.2571 133.2804 133.3115 133.3116 133.5751
   133.5751 133.6442 133.6537 133.7151 133.7151 133.8682 134.1571 134.1572
   134.1990 134.1990 134.2866 134.3549 134.3550 134.3928 134.3992 134.4414
   134.5093 134.5094 134.6992 134.8227 134.8228 134.8699 134.9110 134.9111
   135.0126 135.0127 135.0701 135.0832 135.1545 135.1545 135.3309 135.3310
   135.5435 135.8649 136.1938 136.4605 136.4606 136.5968 136.5968 136.7530
   136.7530 136.8107 136.8454 136.8569 136.8794 136.8794 136.8861 137.2642
   137.4020 137.4020 137.4602 137.4602 137.5751 137.5751 137.5821 137.5822
   137.7023 137.7135 137.7507 137.7507 138.0344 138.0344 138.0983 138.2367
   138.2367 138.3150 138.8047 138.8047 138.8634 138.8634 139.1200 139.1200
   139.1444 139.4344 139.7022 139.7022 139.7771 139.7945 139.8223 139.8748
   139.8748 140.1970 140.2795 140.2795 140.2898 140.2899 140.3633 140.5616
   140.5617 140.7840 140.7840 140.8120 140.8120 140.9677 140.9881 140.9952
   140.9953 141.0335 141.3316 141.4174 141.4174 141.4858 141.4858 141.8245
   142.2794 142.2884 142.2985 142.2985 142.3998 142.4387 142.4387 142.4734
   142.5595 142.5595 142.9142 143.0127 143.0127 143.0500 143.1008 143.1008
   143.2471 143.3819 143.5868 143.5868 143.9202 144.0290 144.0290 144.0838
   144.0838 144.1530 144.1638 144.2960 144.4902 144.4903 144.6839 144.6839
   144.9077 144.9077 144.9181 144.9366 144.9367 145.0317 145.0395 145.1612
   145.1612 145.6528 146.1976 146.1976 146.3682 146.4770 146.6953 146.6953
   146.9741 147.4022 147.4022 147.4902 147.4902 147.5813 147.7297 147.9743
   148.0944 148.1411 148.3921 148.3921 148.5493 148.5493 148.6063 148.6549
   148.6549 148.7688 148.7688 148.9178 148.9178 149.1153 149.1153 149.2458
   149.2458 149.5116 149.5231 149.5318 149.5366 149.6196 149.6196 149.8245
   149.8245 149.9306 150.0256 150.0257 150.3642 150.3642 150.7438 150.7438
   150.7494 150.9385 151.0847 151.0847 151.0922 151.0922 151.1167 151.1167
   151.2777 151.5690 151.5712 151.8265 151.8265 151.9260 151.9261 151.9652
   151.9891 152.1554 152.1554 152.3134 152.3831 152.6062 152.7525 152.7525
   152.7849 152.7849 152.9719 153.1646 153.1646 153.1709 153.1709 153.5415
   153.7077 153.7077 153.9709 153.9831 153.9831 154.0155 154.5222 154.5222
   154.5573 154.5574 154.6881 154.7321 154.8631 154.8631 155.0244 155.2209
   155.2209 155.2773 155.5315 156.0869 156.0869 156.1250 156.3728 156.8770
   156.8770 157.2598 157.2598 157.4036 157.4435 157.6999 157.6999 158.4097
   158.4097 158.5862 158.6105 158.6920 158.9330 159.0850 159.0850 159.1615
   159.1615 159.4130 159.6497 159.6498 160.0821 160.0821 160.2586 160.2587
   160.2934 160.3362 160.3953 160.5073 160.5073 160.7093 160.7747 160.7747
   161.0152 161.0153 161.0184 161.2609 161.4827 161.4827 161.5069 161.5069
   161.6136 161.8049 161.8049 162.0002 162.0662 162.0662 162.2486 162.2486
   162.3756 162.4099 162.6124 162.6124 162.7013 162.7013 162.8506 162.8506
   163.0680 163.0714 163.0923 163.0923 163.5403 163.6360 163.6360 163.8231
   163.9747 164.2361 164.2361 164.4843 164.4843 164.5863 164.9224 165.2425
   165.2425 165.4744 165.5335 165.5371 165.5371 165.5764 165.7618 165.7618
   166.1791 166.1793 166.3086 166.3086 166.5941 166.6495 166.6866 166.7652
   166.7652 166.8249 166.9828 166.9829 167.2208 167.2919 167.2919 167.8789
   167.8790 167.8882 168.0186 168.0187 168.1944 168.2236 168.3636 168.3637
   168.3905 168.4400 168.4400 168.5402 168.6151 168.6151 168.7080 168.8556
   168.8557 168.9177 168.9177 168.9534 169.0009 169.1713 169.2223 169.2223
   169.2682 169.2683 169.3621 169.3621 169.4900 169.4918 169.4918 169.7046
   169.7330 170.0239 170.3449 170.4188 170.4188 170.6377 170.6378 170.6663
   170.6663 170.7004 170.8129 170.8130 170.8536 171.0665 171.1613 171.1613
   171.1822 171.2408 171.5318 171.5318 171.5838 171.5838 171.7298 171.7627
   171.7627 171.9338 171.9338 172.0090 172.2258 172.6489 172.8334 172.8334

     the Fermi energy is     0.3990 ev
     (compare with:    -0.9195 eV, computed in scf)

     Writing all to output data dir out/MoSe2.save/
 
     init_run     :      0.18s CPU      0.23s WALL (       1 calls)
     electrons    :     99.30s CPU    102.01s WALL (       1 calls)

     Called by init_run:
     wfcinit      :      0.00s CPU      0.00s WALL (       1 calls)
     potinit      :      0.02s CPU      0.03s WALL (       1 calls)
     hinit0       :      0.05s CPU      0.09s WALL (       1 calls)

     Called by electrons:
     c_bands      :     99.30s CPU    102.01s WALL (       1 calls)
     v_of_rho     :      0.02s CPU      0.02s WALL (       1 calls)

     Called by c_bands:
     init_us_2    :      0.00s CPU      0.00s WALL (       1 calls)
     init_us_2:cp :      0.00s CPU      0.00s WALL (       1 calls)
     cegterg      :     97.04s CPU     99.67s WALL (       1 calls)

     Called by *egterg:
     cdiaghg      :     86.32s CPU     88.83s WALL (      13 calls)
     h_psi        :      2.75s CPU      2.80s WALL (      14 calls)
     g_psi        :      0.02s CPU      0.02s WALL (      12 calls)

     Called by h_psi:
     h_psi:calbec :      0.07s CPU      0.08s WALL (      14 calls)
     vloc_psi     :      2.56s CPU      2.60s WALL (      14 calls)
     add_vuspsi   :      0.10s CPU      0.10s WALL (      14 calls)

     General routines
     calbec       :      0.07s CPU      0.08s WALL (      14 calls)
     fft          :      0.01s CPU      0.04s WALL (      10 calls)
     fftw         :      2.37s CPU      2.41s WALL (   21012 calls)
 
     Parallel routines
 
     PWSCF        :   1m39.87s CPU   1m42.88s WALL

 
   This run was terminated on:  11:46:12   5Apr2024            

=------------------------------------------------------------------------------=
   JOB DONE.
=------------------------------------------------------------------------------=
