
     Program PWSCF v.7.1 starts on  5Apr2024 at 22:15:41 

     This program is part of the open-source Quantum ESPRESSO suite
     for quantum simulation of materials; please cite
         "P. Giannozzi et al., J. Phys.:Condens. Matter 21 395502 (2009);
         "P. Giannozzi et al., J. Phys.:Condens. Matter 29 465901 (2017);
         "P. Giannozzi et al., J. Chem. Phys. 152 154105 (2020);
          URL http://www.quantum-espresso.org", 
     in publications or presentations arising from this work. More details at
     http://www.quantum-espresso.org/quote

     Parallel version (MPI), running on    32 processors

     MPI processes distributed on     1 nodes
     228685 MiB available memory on the printing compute node when the environment starts
 
     Reading input from pw_MoSe2_scf_k3000_E48.in
Warning: card &CELL ignored
Warning: card / ignored

     Current dimensions of program PWSCF are:
     Max number of different atomic species (ntypx) = 10
     Max number of k-points (npk) =  40000
     Max angular momentum in pseudopotentials (lmaxx) =  4
 
     R & G space division:  proc/nbgrp/npool/nimage =      32
     Subspace diagonalization in iterative solution of the eigenvalue problem:
     a serial algorithm will be used

 
     Parallelization info
     --------------------
     sticks:   dense  smooth     PW     G-vecs:    dense   smooth      PW
     Min          15      15      4                 2063     2063     324
     Max          16      16      5                 2112     2112     359
     Sum         511     511    151                67305    67305   11033
 
     Using Slab Decomposition
 


     bravais-lattice index     =            4
     lattice parameter (alat)  =       6.2659  a.u.
     unit-cell volume          =    1500.8938 (a.u.)^3
     number of atoms/cell      =            3
     number of atomic types    =            2
     number of electrons       =        26.00
     number of Kohn-Sham states=           26
     kinetic-energy cutoff     =      48.0000  Ry
     charge density cutoff     =     192.0000  Ry
     scf convergence threshold =      1.0E-10
     mixing beta               =       0.7000
     number of iterations used =            8  plain     mixing
     Exchange-correlation= PBE
                           (   1   4   3   4   0   0   0)

     celldm(1)=   6.265942  celldm(2)=   0.000000  celldm(3)=   7.044663
     celldm(4)=   0.000000  celldm(5)=   0.000000  celldm(6)=   0.000000

     crystal axes: (cart. coord. in units of alat)
               a(1) = (   1.000000   0.000000   0.000000 )  
               a(2) = (  -0.500000   0.866025   0.000000 )  
               a(3) = (   0.000000   0.000000   7.044663 )  

     reciprocal axes: (cart. coord. in units 2 pi/alat)
               b(1) = (  1.000000  0.577350  0.000000 )  
               b(2) = (  0.000000  1.154701  0.000000 )  
               b(3) = (  0.000000  0.000000  0.141951 )  


     PseudoPot. # 1 for Mo read from file:
     /usr/scratch4/magr4985/FGWC/FGWC/pseudo/SG15/Mo.upf
     MD5 check sum: 2665c9f4159700498d9a5f7573bd8e9f
     Pseudo is Norm-conserving, Zval = 14.0
     Generated using ONCVPSP code by D. R. Hamann
     Using radial grid of  602 points,  6 beta functions with: 
                l(1) =   0
                l(2) =   0
                l(3) =   1
                l(4) =   1
                l(5) =   2
                l(6) =   2

     PseudoPot. # 2 for Se read from file:
     /usr/scratch4/magr4985/FGWC/FGWC/pseudo/SG15/Se.upf
     MD5 check sum: e78e48a4f5d8ce1f8dc76ec1271f249c
     Pseudo is Norm-conserving, Zval =  6.0
     Generated using ONCVPSP code by D. R. Hamann
     Using radial grid of  602 points,  6 beta functions with: 
                l(1) =   0
                l(2) =   0
                l(3) =   1
                l(4) =   1
                l(5) =   2
                l(6) =   2

     atomic species   valence    mass     pseudopotential
        Mo            14.00    95.94000     Mo( 1.00)
        Se             6.00    78.96000     Se( 1.00)

     12 Sym. Ops. (no inversion) found



   Cartesian axes

     site n.     atom                  positions (alat units)
         1           Mo  tau(   1) = (   0.5000000   0.2886752   3.5223315  )
         2           Se  tau(   2) = (   0.0000000   0.0000000   4.0263545  )
         3           Se  tau(   3) = (   0.0000000   0.0000000   3.0183086  )

     number of k points=    44  Gaussian smearing, width (Ry)=  0.0018
                       cart. coord. in units 2pi/alat
        k(    1) = (   0.0000000   0.0000000   0.0000000), wk =   0.0050000
        k(    2) = (   0.0000000   0.0577350   0.0000000), wk =   0.0300000
        k(    3) = (   0.0000000   0.1154701   0.0000000), wk =   0.0300000
        k(    4) = (   0.0000000   0.1732051   0.0000000), wk =   0.0300000
        k(    5) = (   0.0000000   0.2309401   0.0000000), wk =   0.0300000
        k(    6) = (   0.0000000   0.2886751   0.0000000), wk =   0.0300000
        k(    7) = (   0.0000000   0.3464102   0.0000000), wk =   0.0300000
        k(    8) = (   0.0000000   0.4041452   0.0000000), wk =   0.0300000
        k(    9) = (   0.0000000   0.4618802   0.0000000), wk =   0.0300000
        k(   10) = (   0.0000000   0.5196152   0.0000000), wk =   0.0300000
        k(   11) = (   0.0000000  -0.5773503   0.0000000), wk =   0.0150000
        k(   12) = (   0.0500000   0.0866025   0.0000000), wk =   0.0300000
        k(   13) = (   0.0500000   0.1443376   0.0000000), wk =   0.0600000
        k(   14) = (   0.0500000   0.2020726   0.0000000), wk =   0.0600000
        k(   15) = (   0.0500000   0.2598076   0.0000000), wk =   0.0600000
        k(   16) = (   0.0500000   0.3175426   0.0000000), wk =   0.0600000
        k(   17) = (   0.0500000   0.3752777   0.0000000), wk =   0.0600000
        k(   18) = (   0.0500000   0.4330127   0.0000000), wk =   0.0600000
        k(   19) = (   0.0500000   0.4907477   0.0000000), wk =   0.0600000
        k(   20) = (   0.0500000   0.5484828   0.0000000), wk =   0.0600000
        k(   21) = (   0.1000000   0.1732051   0.0000000), wk =   0.0300000
        k(   22) = (   0.1000000   0.2309401   0.0000000), wk =   0.0600000
        k(   23) = (   0.1000000   0.2886751   0.0000000), wk =   0.0600000
        k(   24) = (   0.1000000   0.3464102   0.0000000), wk =   0.0600000
        k(   25) = (   0.1000000   0.4041452   0.0000000), wk =   0.0600000
        k(   26) = (   0.1000000   0.4618802   0.0000000), wk =   0.0600000
        k(   27) = (   0.1000000   0.5196152   0.0000000), wk =   0.0600000
        k(   28) = (   0.1000000   0.5773503   0.0000000), wk =   0.0300000
        k(   29) = (   0.1500000   0.2598076   0.0000000), wk =   0.0300000
        k(   30) = (   0.1500000   0.3175426   0.0000000), wk =   0.0600000
        k(   31) = (   0.1500000   0.3752777   0.0000000), wk =   0.0600000
        k(   32) = (   0.1500000   0.4330127   0.0000000), wk =   0.0600000
        k(   33) = (   0.1500000   0.4907477   0.0000000), wk =   0.0600000
        k(   34) = (   0.1500000   0.5484828   0.0000000), wk =   0.0600000
        k(   35) = (   0.2000000   0.3464102   0.0000000), wk =   0.0300000
        k(   36) = (   0.2000000   0.4041452   0.0000000), wk =   0.0600000
        k(   37) = (   0.2000000   0.4618802   0.0000000), wk =   0.0600000
        k(   38) = (   0.2000000   0.5196152   0.0000000), wk =   0.0600000
        k(   39) = (   0.2000000   0.5773503   0.0000000), wk =   0.0300000
        k(   40) = (   0.2500000   0.4330127   0.0000000), wk =   0.0300000
        k(   41) = (   0.2500000   0.4907477   0.0000000), wk =   0.0600000
        k(   42) = (   0.2500000   0.5484828   0.0000000), wk =   0.0600000
        k(   43) = (   0.3000000   0.5196152   0.0000000), wk =   0.0300000
        k(   44) = (   0.3000000   0.5773503   0.0000000), wk =   0.0300000

     Dense  grid:    67305 G-vectors     FFT dimensions: (  27,  27, 200)

     Estimated max dynamical RAM per process >       4.40 MB

     Estimated total dynamical RAM >     140.84 MB

     Initial potential from superposition of free atoms

     starting charge      25.8734, renormalised to      26.0000

     negative rho (up, down):  2.185E-04 0.000E+00
     Starting wfcs are random

     total cpu time spent up to now is        1.9 secs

     Self-consistent Calculation

     iteration #  1     ecut=    48.00 Ry     beta= 0.70
     Davidson diagonalization with overlap
     ethr =  1.00E-02,  avg # of iterations = 10.2

     Threshold (ethr) on eigenvalues was too large:
     Diagonalizing with lowered threshold

     Davidson diagonalization with overlap
     ethr =  3.30E-04,  avg # of iterations =  1.9

     negative rho (up, down):  1.957E-05 0.000E+00

     total cpu time spent up to now is        5.0 secs

     total energy              =    -175.09228342 Ry
     estimated scf accuracy    <       0.08304841 Ry

     iteration #  2     ecut=    48.00 Ry     beta= 0.70
     Davidson diagonalization with overlap
     ethr =  3.19E-04,  avg # of iterations =  5.4

     negative rho (up, down):  1.253E-05 0.000E+00

     total cpu time spent up to now is        6.0 secs

     total energy              =    -175.05548882 Ry
     estimated scf accuracy    <       0.32166439 Ry

     iteration #  3     ecut=    48.00 Ry     beta= 0.70
     Davidson diagonalization with overlap
     ethr =  3.19E-04,  avg # of iterations =  3.0

     negative rho (up, down):  5.812E-06 0.000E+00

     total cpu time spent up to now is        6.8 secs

     total energy              =    -175.11056959 Ry
     estimated scf accuracy    <       0.10940470 Ry

     iteration #  4     ecut=    48.00 Ry     beta= 0.70
     Davidson diagonalization with overlap
     ethr =  3.19E-04,  avg # of iterations =  1.0

     negative rho (up, down):  4.822E-07 0.000E+00

     total cpu time spent up to now is        7.6 secs

     total energy              =    -175.12377515 Ry
     estimated scf accuracy    <       0.00082351 Ry

     iteration #  5     ecut=    48.00 Ry     beta= 0.70
     Davidson diagonalization with overlap
     ethr =  3.17E-06,  avg # of iterations =  7.1

     negative rho (up, down):  1.766E-08 0.000E+00

     total cpu time spent up to now is        8.6 secs

     total energy              =    -175.12391188 Ry
     estimated scf accuracy    <       0.00002843 Ry

     iteration #  6     ecut=    48.00 Ry     beta= 0.70
     Davidson diagonalization with overlap
     ethr =  1.09E-07,  avg # of iterations =  2.0

     total cpu time spent up to now is        9.3 secs

     total energy              =    -175.12391612 Ry
     estimated scf accuracy    <       0.00000044 Ry

     iteration #  7     ecut=    48.00 Ry     beta= 0.70
     Davidson diagonalization with overlap
     ethr =  1.68E-09,  avg # of iterations =  2.2

     total cpu time spent up to now is       10.2 secs

     total energy              =    -175.12391625 Ry
     estimated scf accuracy    <       0.00000002 Ry

     iteration #  8     ecut=    48.00 Ry     beta= 0.70
     Davidson diagonalization with overlap
     ethr =  8.50E-11,  avg # of iterations =  2.4

     total cpu time spent up to now is       11.1 secs

     total energy              =    -175.12391625 Ry
     estimated scf accuracy    <          7.0E-10 Ry

     iteration #  9     ecut=    48.00 Ry     beta= 0.70
     Davidson diagonalization with overlap
     ethr =  2.69E-12,  avg # of iterations =  2.6

     total cpu time spent up to now is       11.9 secs

     End of self-consistent calculation

          k = 0.0000 0.0000 0.0000 (  8293 PWs)   bands (ev):

   -61.9309 -36.0711 -35.9100 -35.9100 -15.2527 -14.2645  -6.4583  -3.1998
    -3.1998  -2.9125  -2.2200  -2.2200  -1.3476   1.7604   1.7604   1.9874
     1.9874   3.5620   3.8853   4.4093   4.9999   5.2384   6.1359   7.1923
     7.4665   8.2373

          k = 0.0000 0.0577 0.0000 (  8320 PWs)   bands (ev):

   -61.9304 -36.0698 -35.9161 -35.9114 -15.2192 -14.2461  -6.4162  -3.2907
    -3.1657  -3.0356  -2.2778  -2.1468  -1.3567   1.6462   1.8131   1.8140
     1.9343   3.6597   3.9343   4.4793   5.1395   5.2853   6.1918   7.2697
     7.6584   8.2680

          k = 0.0000 0.1155 0.0000 (  8356 PWs)   bands (ev):

   -61.9288 -36.0662 -35.9335 -35.9154 -15.1203 -14.1917  -6.2943  -3.5433
    -3.3041  -3.0656  -2.4358  -2.0502  -1.3945   1.4083   1.4400   1.7887
     1.9576   3.8628   4.0763   4.6514   5.4227   5.5207   6.3709   7.4213
     8.1936   8.3459

          k = 0.0000 0.1732 0.0000 (  8390 PWs)   bands (ev):

   -61.9264 -36.0606 -35.9606 -35.9217 -14.9611 -14.1042  -6.1075  -3.9094
    -3.6317  -2.9070  -2.6585  -2.0619  -1.4883   1.0710   1.2401   1.5845
     2.1513   4.1093   4.3044   4.8930   5.6461   5.9745   6.7067   7.6316
     8.3929   8.6332

          k = 0.0000 0.2309 0.0000 (  8406 PWs)   bands (ev):

   -61.9234 -36.0535 -35.9946 -35.9295 -14.7504 -13.9887  -5.8893  -4.3277
    -3.9989  -2.9085  -2.7027  -2.2072  -1.6566   0.8250   1.2534   1.3607
     2.3541   4.4013   4.6127   5.2055   5.9503   6.3397   7.1295   7.8651
     8.1908   8.3639

          k = 0.0000 0.2887 0.0000 (  8430 PWs)   bands (ev):

   -61.9200 -36.0456 -36.0319 -35.9382 -14.5010 -13.8530  -5.7192  -4.7121
    -4.3989  -3.1560  -2.4717  -2.4210  -1.8649   0.7375   1.1521   1.4322
     2.5363   4.7389   4.9921   5.5926   6.3239   6.5992   7.2981   7.6603
     7.9316   8.3513

          k = 0.0000 0.3464 0.0000 (  8444 PWs)   bands (ev):

   -61.9167 -36.0691 -36.0377 -35.9469 -14.2314 -13.7078  -5.7705  -4.9032
    -4.8113  -3.3800  -2.6257  -2.2382  -2.0247   0.7761   0.9844   1.7012
     2.6824   5.1058   5.4230   6.0515   6.5006   6.7124   7.1491   7.2684
     8.0839   8.6539

          k = 0.0000 0.4041 0.0000 (  8442 PWs)   bands (ev):

   -61.9136 -36.1024 -36.0306 -35.9547 -13.9662 -13.5672  -6.0614  -5.1983
    -4.8955  -3.5660  -2.7833  -2.0586  -2.0295   0.8722   0.8889   1.9863
     2.7887   5.4212   5.8532   5.9008   6.5923   6.7802   7.3505   7.4000
     8.4069   8.7985

          k = 0.0000 0.4619 0.0000 (  8464 PWs)   bands (ev):

   -61.9112 -36.1287 -36.0249 -35.9609 -13.7370 -13.4481  -6.3789  -5.5153
    -4.8729  -3.7046  -2.8882  -1.9674  -1.8693   0.8149   1.0307   2.2279
     2.8585   5.0501   5.9399   6.1464   6.8045   7.1670   7.6955   7.8234
     8.7069   8.7485

          k = 0.0000 0.5196 0.0000 (  8464 PWs)   bands (ev):

   -61.9097 -36.1455 -36.0213 -35.9648 -13.5790 -13.3675  -6.6058  -5.7232
    -4.8754  -3.7900  -2.9466  -1.8383  -1.7712   0.7962   1.1566   2.3849
     2.8972   4.5476   6.2061   6.2549   6.9706   7.6751   8.1056   8.1571
     8.8491   8.9183

          k = 0.0000-0.5774 0.0000 (  8446 PWs)   bands (ev):

   -61.9092 -36.1513 -36.0200 -35.9662 -13.5222 -13.3389  -6.6875  -5.7956
    -4.8803  -3.8188  -2.9652  -1.7792  -1.7387   0.7936   1.2100   2.4385
     2.9096   4.3526   6.2920   6.3194   7.0243   7.8608   8.2292   8.6080
     8.8979   9.1422

          k = 0.0500 0.0866 0.0000 (  8331 PWs)   bands (ev):

   -61.9293 -36.0674 -35.9277 -35.9142 -15.1530 -14.2097  -6.3341  -3.4612
    -3.2211  -3.0997  -2.4053  -2.0512  -1.3801   1.4662   1.5502   1.8292
     1.9170   3.8046   4.0297   4.5985   5.3774   5.4041   6.3090   7.3754
     8.0357   8.3234

          k = 0.0500 0.1443 0.0000 (  8366 PWs)   bands (ev):

   -61.9273 -36.0628 -35.9497 -35.9197 -15.0239 -14.1387  -6.1790  -3.7665
    -3.4947  -2.9745  -2.6413  -1.9819  -1.4456   1.1985   1.2546   1.6440
     2.0936   4.0209   4.2147   4.8014   5.5577   5.8334   6.5699   7.5513
     8.3999   8.6042

          k = 0.0500 0.2021 0.0000 (  8392 PWs)   bands (ev):

   -61.9246 -36.0564 -35.9797 -35.9271 -14.8388 -14.0371  -5.9732  -4.1526
    -3.8177  -2.9255  -2.8032  -2.0314  -1.5769   0.9022   1.1707   1.4269
     2.2971   4.2881   4.4833   5.0770   5.8219   6.2421   6.9835   7.7861
     8.3483   8.6779

          k = 0.0500 0.2598 0.0000 (  8408 PWs)   bands (ev):

   -61.9214 -36.0489 -36.0149 -35.9359 -14.6084 -13.9111  -5.7677  -4.5515
    -4.1890  -3.2009  -2.6099  -2.1970  -1.7620   0.7363   1.2228   1.2663
     2.4891   4.6060   4.8284   5.4277   6.1629   6.5636   7.3306   7.9319
     8.0730   8.3256

          k = 0.0500 0.3175 0.0000 (  8421 PWs)   bands (ev):

   -61.9181 -36.0516 -36.0410 -35.9452 -14.3482 -13.7700  -5.6900  -4.8415
    -4.5981  -3.4301  -2.4415  -2.4135  -1.9116   0.6989   1.0668   1.4939
     2.6458   4.9667   5.2370   5.8546   6.5616   6.7263   7.2177   7.5616
     8.0383   8.5357

          k = 0.0500 0.3753 0.0000 (  8432 PWs)   bands (ev):

   -61.9149 -36.0863 -36.0335 -35.9539 -14.0795 -13.6261  -5.8857  -5.0083
    -4.8962  -3.6042  -2.6199  -2.3547  -1.9040   0.7398   0.9862   1.7802
     2.7548   5.3389   5.6805   6.2527   6.3669   6.8954   7.2938   7.3366
     8.2962   8.7899

          k = 0.0500 0.4330 0.0000 (  8461 PWs)   bands (ev):

   -61.9122 -36.1157 -36.0271 -35.9613 -13.8303 -13.4950  -6.2041  -5.3704
    -4.8648  -3.7284  -2.7842  -2.2866  -1.7799   0.7886   1.0078   2.0641
     2.8107   5.3776   5.8960   6.0891   6.9050   6.9240   7.5851   7.6578
     8.6177   8.8051

          k = 0.0500 0.4907 0.0000 (  8457 PWs)   bands (ev):

   -61.9102 -36.1369 -36.0225 -35.9667 -13.6344 -13.3939  -6.4783  -5.6398
    -4.8583  -3.8089  -2.8947  -2.1912  -1.6449   0.8053   1.1138   2.3012
     2.8141   4.8152   6.1865   6.3551   6.9920   7.5056   7.9688   8.0214
     8.8063   8.8230

          k = 0.0500 0.5485 0.0000 (  8460 PWs)   bands (ev):

   -61.9092 -36.1481 -36.0200 -35.9696 -13.5253 -13.3385  -6.6330  -5.7834
    -4.8667  -3.8487  -2.9496  -2.1232  -1.5547   0.8073   1.2096   2.4522
     2.7849   4.4468   6.4158   6.4943   7.0599   7.8818   8.2213   8.4601
     8.9236   9.0990

          k = 0.1000 0.1732 0.0000 (  8363 PWs)   bands (ev):

   -61.9251 -36.0574 -35.9741 -35.9269 -14.8689 -14.0535  -6.0027  -4.0849
    -3.7290  -2.9914  -2.8454  -1.9245  -1.5488   0.9392   1.1165   1.4346
     2.2887   4.2534   4.4405   5.0356   5.7790   6.2220   6.9329   7.7537
     8.4178   8.9589

          k = 0.1000 0.2309 0.0000 (  8393 PWs)   bands (ev):

   -61.9222 -36.0507 -36.0044 -35.9362 -14.6637 -13.9410  -5.7991  -4.4422
    -4.0096  -3.3616  -2.7107  -1.9745  -1.6982   0.7345   1.1064   1.2407
     2.4862   4.5477   4.7473   5.3493   6.0816   6.5809   7.3498   7.9997
     8.2986   8.6944

          k = 0.1000 0.2887 0.0000 (  8422 PWs)   bands (ev):

   -61.9190 -36.0432 -36.0377 -35.9467 -14.4216 -13.8089  -5.6528  -4.7505
    -4.3758  -3.6400  -2.6307  -2.1359  -1.8225   0.6218   1.1138   1.2477
     2.6498   4.8961   5.1248   5.7418   6.4560   6.8826   7.3935   8.0305
     8.2232   8.5119

          k = 0.1000 0.3464 0.0000 (  8444 PWs)   bands (ev):

   -61.9158 -36.0708 -36.0357 -35.9572 -14.1604 -13.6677  -5.7266  -4.8651
    -4.8006  -3.8022  -2.6472  -2.3564  -1.8264   0.6109   1.0590   1.4916
     2.7608   5.2821   5.5558   6.2127   6.7014   6.8753   7.3632   7.7336
     8.3716   8.7631

          k = 0.1000 0.4041 0.0000 (  8458 PWs)   bands (ev):

   -61.9129 -36.1005 -36.0289 -35.9667 -13.9046 -13.5311  -5.9954  -5.2067
    -4.8328  -3.8869  -2.6795  -2.5814  -1.7311   0.6890   1.0545   1.7749
     2.8102   5.5989   6.0073   6.1177   6.7594   7.2150   7.6507   7.6711
     8.6300   8.9172

          k = 0.1000 0.4619 0.0000 (  8454 PWs)   bands (ev):

   -61.9106 -36.1239 -36.0235 -35.9742 -13.6844 -13.4154  -6.2777  -5.5357
    -4.8143  -3.9235  -2.7719  -2.6587  -1.5999   0.7892   1.1041   2.0497
     2.7941   5.2003   6.2601   6.4247   7.3324   7.3666   7.9830   7.9860
     8.7827   8.8838

          k = 0.1000 0.5196 0.0000 (  8446 PWs)   bands (ev):

   -61.9092 -36.1389 -36.0200 -35.9790 -13.5333 -13.3373  -6.4790  -5.7490
    -4.8263  -3.9333  -2.9003  -2.6154  -1.4778   0.8196   1.2205   2.2813
     2.7207   4.7054   6.6225   6.7703   7.3700   7.9426   8.2324   8.3247
     8.6771   9.0348

          k = 0.1000 0.5774 0.0000 (  8457 PWs)   bands (ev):

   -61.9086 -36.1440 -36.0189 -35.9807 -13.4791 -13.3096  -6.5516  -5.8229
    -4.8355  -3.9340  -2.9460  -2.5959  -1.4252   0.8158   1.2871   2.4002
     2.6542   4.5120   6.7974   6.9758   7.2829   8.0780   8.3390   8.6271
     8.8500   9.1228

          k = 0.1500 0.2598 0.0000 (  8399 PWs)   bands (ev):

   -61.9193 -36.0439 -36.0323 -35.9479 -14.4465 -13.8221  -5.6432  -4.7066
    -4.2421  -3.7795  -2.7052  -2.0142  -1.7919   0.5914   1.1256   1.1356
     2.6565   4.8738   5.0875   5.7049   6.4191   6.9281   7.4836   8.2139
     8.4513   8.6469

          k = 0.1500 0.3175 0.0000 (  8426 PWs)   bands (ev):

   -61.9163 -36.0607 -36.0368 -35.9609 -14.2025 -13.6891  -5.6341  -4.8263
    -4.6166  -4.0038  -2.8321  -2.1667  -1.7923   0.5348   1.0906   1.2801
     2.7781   5.2522   5.4908   6.1411   6.8220   7.0014   7.4421   8.2068
     8.6690   8.7623

          k = 0.1500 0.3753 0.0000 (  8448 PWs)   bands (ev):

   -61.9134 -36.0873 -36.0300 -35.9735 -13.9523 -13.5537  -5.8181  -5.0481
    -4.7852  -4.0763  -3.0059  -2.3885  -1.7197   0.6051   1.0921   1.4987
     2.8452   5.6421   5.9366   6.4877   6.6640   7.2616   7.7547   8.1001
     8.7245   9.0003

          k = 0.1500 0.4330 0.0000 (  8452 PWs)   bands (ev):

   -61.9109 -36.1097 -36.0243 -35.9845 -13.7222 -13.4306  -6.0578  -5.4260
    -4.7440  -4.0793  -3.1196  -2.6245  -1.6057   0.7467   1.1210   1.7333
     2.8625   5.6074   6.3263   6.3913   7.2485   7.6646   8.0375   8.1697
     8.6437   9.0952

          k = 0.1500 0.4907 0.0000 (  8447 PWs)   bands (ev):

   -61.9092 -36.1258 -36.0201 -35.9925 -13.5430 -13.3358  -6.2588  -5.7013
    -4.7584  -4.0483  -3.1550  -2.8255  -1.4694   0.8025   1.2494   1.9332
     2.8430   5.0762   6.7450   6.8120   7.8557   7.9528   8.1367   8.3763
     8.6102   9.0824

          k = 0.1500 0.5485 0.0000 (  8446 PWs)   bands (ev):

   -61.9082 -36.1342 -36.0179 -35.9967 -13.4440 -13.2839  -6.3722  -5.8462
    -4.7860  -4.0169  -3.1565  -2.9449  -1.3660   0.7740   1.3986   2.0531
     2.8150   4.7229   7.1308   7.1483   7.8587   8.0281   8.4527   8.5169
     8.9013   9.3120

          k = 0.2000 0.3464 0.0000 (  8447 PWs)   bands (ev):

   -61.9136 -36.0819 -36.0304 -35.9768 -13.9687 -13.5614  -5.7472  -4.9711
    -4.7581  -4.1686  -3.1392  -2.3091  -1.7192   0.5741   1.1047   1.3865
     2.8629   5.6455   5.9107   6.6132   6.6881   7.2466   7.7763   8.3690
     8.6528   9.0309

          k = 0.2000 0.4041 0.0000 (  8442 PWs)   bands (ev):

   -61.9111 -36.0996 -36.0246 -35.9925 -13.7426 -13.4384  -5.9057  -5.3474
    -4.6695  -4.1930  -3.4372  -2.5244  -1.6199   0.7155   1.1357   1.5317
     2.9180   5.8884   6.3605   6.3867   7.1668   7.7009   7.8423   8.5195
     8.5686   9.3036

          k = 0.2000 0.4619 0.0000 (  8440 PWs)   bands (ev):

   -61.9092 -36.1128 -36.0201 -36.0057 -13.5509 -13.3345  -6.0442  -5.6572
    -4.6602  -4.1490  -3.6320  -2.7552  -1.4832   0.7746   1.2781   1.6654
     2.9571   5.4873   6.6802   6.8047   7.5332   7.9270   8.1410   8.7695
     8.9202   9.4278

          k = 0.2000 0.5196 0.0000 (  8437 PWs)   bands (ev):

   -61.9079 -36.1209 -36.0171 -36.0146 -13.4211 -13.2646  -6.1353  -5.8577
    -4.7166  -4.0838  -3.7102  -2.9406  -1.3402   0.7059   1.5020   1.7538
     2.9833   5.0496   6.9740   7.1891   7.6082   8.4973   8.5674   8.9961
     9.1720   9.3675

          k = 0.2000 0.5774 0.0000 (  8457 PWs)   bands (ev):

   -61.9075 -36.1236 -36.0177 -36.0161 -13.3750 -13.2399  -6.1669  -5.9270
    -4.7496  -4.0512  -3.7270  -3.0147  -1.2747   0.6594   1.6075   1.7840
     2.9929   4.8722   7.0459   7.3701   7.7371   8.6349   8.8918   8.9482
     9.3769   9.5966

          k = 0.2500 0.4330 0.0000 (  8441 PWs)   bands (ev):

   -61.9092 -36.1069 -36.0201 -36.0117 -13.5538 -13.3341  -5.9497  -5.6387
    -4.5875  -4.1892  -3.8560  -2.7261  -1.4909   0.7621   1.2894   1.5670
     3.0011   5.7289   6.5512   6.7996   7.3810   7.8840   8.1647   8.9189
     8.9953   9.6862

          k = 0.2500 0.4907 0.0000 (  8443 PWs)   bands (ev):

   -61.9077 -36.1097 -36.0281 -36.0167 -13.4099 -13.2543  -5.9420  -5.8620
    -4.6172  -4.1332  -4.1220  -2.9350  -1.3300   0.6578   1.5604   1.5869
     3.0852   5.4001   6.4999   7.2170   7.6195   8.5368   8.6046   9.3073
     9.4601   9.8846

          k = 0.2500 0.5485 0.0000 (  8441 PWs)   bands (ev):

   -61.9070 -36.1100 -36.0380 -36.0150 -13.3317 -13.2108  -5.9818  -5.9115
    -4.7346  -4.2119  -4.0541  -3.0775  -1.2024   0.5431   1.5933   1.7655
     3.1392   5.1410   6.4134   7.5304   8.0397   8.8042   9.1825   9.5634
     9.5729   9.9122

          k = 0.3000 0.5196 0.0000 (  8431 PWs)   bands (ev):

   -61.9068 -36.1021 -36.0482 -36.0146 -13.3170 -13.2006  -6.0013  -5.7672
    -4.7478  -4.4169  -4.0510  -3.1028  -1.1730   0.4940   1.5255   1.8232
     3.1947   5.3603   6.0645   7.5905   8.1330   8.9136   9.2397   9.5505
     9.8024  10.1223

          k = 0.3000 0.5774 0.0000 (  8437 PWs)   bands (ev):

   -61.9065 -36.0965 -36.0581 -36.0139 -13.2845 -13.1817  -6.0505  -5.6449
    -4.9254  -4.4461  -4.0108  -3.1763  -1.0999   0.4144   1.5026   1.9316
     3.2373   5.3525   5.8848   7.7789   8.4666   8.8956   9.4974   9.6543
     9.9751  10.1760

     the Fermi energy is    -0.9188 ev

!    total energy              =    -175.12391625 Ry
     estimated scf accuracy    <          2.4E-11 Ry
     smearing contrib. (-TS)   =      -0.00000000 Ry
     internal energy E=F+TS    =    -175.12391625 Ry

     The total energy is F=E-TS. E is the sum of the following terms:
     one-electron contribution =   -1262.38598943 Ry
     hartree contribution      =     630.32360555 Ry
     xc contribution           =     -23.94780823 Ry
     ewald contribution        =     480.88627587 Ry

     convergence has been achieved in   9 iterations

     Writing all to output data dir out/MoSe2.save/
 
     init_run     :      1.36s CPU      1.68s WALL (       1 calls)
     electrons    :      9.34s CPU     10.38s WALL (       1 calls)

     Called by init_run:
     wfcinit      :      1.29s CPU      1.54s WALL (       1 calls)
     potinit      :      0.02s CPU      0.03s WALL (       1 calls)
     hinit0       :      0.02s CPU      0.07s WALL (       1 calls)

     Called by electrons:
     c_bands      :      8.10s CPU      8.70s WALL (      10 calls)
     sum_band     :      1.20s CPU      1.32s WALL (      10 calls)
     v_of_rho     :      0.03s CPU      0.03s WALL (      10 calls)
     mix_rho      :      0.01s CPU      0.01s WALL (      10 calls)

     Called by c_bands:
     init_us_2    :      0.04s CPU      0.04s WALL (     924 calls)
     init_us_2:cp :      0.04s CPU      0.04s WALL (     924 calls)
     cegterg      :      7.76s CPU      7.97s WALL (     440 calls)

     Called by *egterg:
     cdiaghg      :      1.08s CPU      1.11s WALL (    2055 calls)
     h_psi        :      7.44s CPU      7.68s WALL (    2143 calls)
     g_psi        :      0.01s CPU      0.01s WALL (    1659 calls)

     Called by h_psi:
     h_psi:calbec :      0.16s CPU      0.17s WALL (    2143 calls)
     vloc_psi     :      7.19s CPU      7.41s WALL (    2143 calls)
     add_vuspsi   :      0.08s CPU      0.08s WALL (    2143 calls)

     General routines
     calbec       :      0.16s CPU      0.17s WALL (    2143 calls)
     fft          :      0.02s CPU      0.07s WALL (     100 calls)
     ffts         :      0.00s CPU      0.00s WALL (      10 calls)
     fftw         :      8.10s CPU      8.36s WALL (   82520 calls)
     davcio       :      0.06s CPU      0.51s WALL (    1494 calls)
 
     Parallel routines
 
     PWSCF        :     11.03s CPU     14.66s WALL

 
   This run was terminated on:  22:15:55   5Apr2024            

=------------------------------------------------------------------------------=
   JOB DONE.
=------------------------------------------------------------------------------=
