
     Program PWSCF v.7.1 starts on 17Nov2023 at 21:33:52 

     This program is part of the open-source Quantum ESPRESSO suite
     for quantum simulation of materials; please cite
         "P. Giannozzi et al., J. Phys.:Condens. Matter 21 395502 (2009);
         "P. Giannozzi et al., J. Phys.:Condens. Matter 29 465901 (2017);
         "P. Giannozzi et al., J. Chem. Phys. 152 154105 (2020);
          URL http://www.quantum-espresso.org", 
     in publications or presentations arising from this work. More details at
     http://www.quantum-espresso.org/quote

     Parallel version (MPI), running on    24 processors

     MPI processes distributed on     1 nodes
     123300 MiB available memory on the printing compute node when the environment starts
 
     Reading input from pw_mp-20351_nscf_k690_E56.in
Warning: card &IONS ignored
Warning: card / ignored
Warning: card &CELL ignored
Warning: card / ignored

     Current dimensions of program PWSCF are:
     Max number of different atomic species (ntypx) = 10
     Max number of k-points (npk) =  40000
     Max angular momentum in pseudopotentials (lmaxx) =  4

     Atomic positions and unit cell read from directory:
     out/mp-20351.save/
     Atomic positions from file used, from input discarded
 
 
     K-points division:     npool     =       2
     R & G space division:  proc/nbgrp/npool/nimage =      12
     Subspace diagonalization in iterative solution of the eigenvalue problem:
     one sub-group per band group will be used
     scalapack distributed-memory algorithm (size of sub-group:  3*  3 procs)

 
     Parallelization info
     --------------------
     sticks:   dense  smooth     PW     G-vecs:    dense   smooth      PW
     Min          79      79     24                 1632     1632     273
     Max          80      80     25                 1635     1635     275
     Sum         955     955    295                19603    19603    3287
 
     Using Slab Decomposition
 


     bravais-lattice index     =            2
     lattice parameter (alat)  =      11.1569  a.u.
     unit-cell volume          =     347.1883 (a.u.)^3
     number of atoms/cell      =            2
     number of atomic types    =            2
     number of electrons       =        18.00
     number of Kohn-Sham states=         1200
     kinetic-energy cutoff     =      56.0000  Ry
     charge density cutoff     =     224.0000  Ry
     Exchange-correlation= PBE
                           (   1   4   3   4   0   0   0)

     celldm(1)=  11.156853  celldm(2)=   0.000000  celldm(3)=   0.000000
     celldm(4)=   0.000000  celldm(5)=   0.000000  celldm(6)=   0.000000

     crystal axes: (cart. coord. in units of alat)
               a(1) = (  -0.500000   0.000000   0.500000 )  
               a(2) = (   0.000000   0.500000   0.500000 )  
               a(3) = (  -0.500000   0.500000   0.000000 )  

     reciprocal axes: (cart. coord. in units 2 pi/alat)
               b(1) = ( -1.000000 -1.000000  1.000000 )  
               b(2) = (  1.000000  1.000000  1.000000 )  
               b(3) = ( -1.000000  1.000000 -1.000000 )  


     PseudoPot. # 1 for In read from file:
     /usr/scratch4/magr4985/MG/HTDF/pseudo/SG15/In.upf
     MD5 check sum: 2123f823f6143602c63cd302e3a0bdd6
     Pseudo is Norm-conserving, Zval = 13.0
     Generated using ONCVPSP code by D. R. Hamann
     Using radial grid of  602 points,  6 beta functions with: 
                l(1) =   0
                l(2) =   0
                l(3) =   1
                l(4) =   1
                l(5) =   2
                l(6) =   2

     PseudoPot. # 2 for P  read from file:
     /usr/scratch4/magr4985/MG/HTDF/pseudo/SG15/P.upf
     MD5 check sum: 0688a67b2b263c6b42d3d97c42745426
     Pseudo is Norm-conserving, Zval =  5.0
     Generated using ONCVPSP code by D. R. Hamann
     Using radial grid of  602 points,  4 beta functions with: 
                l(1) =   0
                l(2) =   0
                l(3) =   1
                l(4) =   1

     atomic species   valence    mass     pseudopotential
        In            13.00   114.81800     In( 1.00)
        P              5.00    30.97380     P ( 1.00)

     24 Sym. Ops. (no inversion) found



   Cartesian axes

     site n.     atom                  positions (alat units)
         1           In  tau(   1) = (   0.0000000   0.0000000   0.0000000  )
         2           P   tau(   2) = (  -0.2500000   0.2500000   0.2500001  )

     number of k points=    29  Gaussian smearing, width (Ry)=  0.0005
                       cart. coord. in units 2pi/alat
        k(    1) = (   0.0000000   0.0000000   0.0000000), wk =   0.0039062
        k(    2) = (  -0.1250000   0.1250000  -0.1250000), wk =   0.0312500
        k(    3) = (  -0.2500000   0.2500000  -0.2500000), wk =   0.0312500
        k(    4) = (  -0.3750000   0.3750000  -0.3750000), wk =   0.0312500
        k(    5) = (   0.5000000  -0.5000000   0.5000000), wk =   0.0156250
        k(    6) = (   0.0000000   0.2500000   0.0000000), wk =   0.0234375
        k(    7) = (  -0.1250000   0.3750000  -0.1250000), wk =   0.0937500
        k(    8) = (  -0.2500000   0.5000000  -0.2500000), wk =   0.0937500
        k(    9) = (   0.6250000  -0.3750000   0.6250000), wk =   0.0937500
        k(   10) = (   0.5000000  -0.2500000   0.5000000), wk =   0.0937500
        k(   11) = (   0.3750000  -0.1250000   0.3750000), wk =   0.0937500
        k(   12) = (   0.2500000   0.0000000   0.2500000), wk =   0.0468750
        k(   13) = (   0.0000000   0.5000000   0.0000000), wk =   0.0234375
        k(   14) = (  -0.1250000   0.6250000  -0.1250000), wk =   0.0937500
        k(   15) = (   0.7500000  -0.2500000   0.7500000), wk =   0.0937500
        k(   16) = (   0.6250000  -0.1250000   0.6250000), wk =   0.0937500
        k(   17) = (   0.5000000   0.0000000   0.5000000), wk =   0.0468750
        k(   18) = (   0.0000000   0.7500000   0.0000000), wk =   0.0234375
        k(   19) = (   0.8750000  -0.1250000   0.8750000), wk =   0.0937500
        k(   20) = (   0.7500000   0.0000000   0.7500000), wk =   0.0468750
        k(   21) = (   0.0000000  -1.0000000   0.0000000), wk =   0.0117188
        k(   22) = (  -0.2500000   0.5000000   0.0000000), wk =   0.0937500
        k(   23) = (   0.6250000  -0.3750000   0.8750000), wk =   0.1875000
        k(   24) = (   0.5000000  -0.2500000   0.7500000), wk =   0.0937500
        k(   25) = (   0.7500000  -0.2500000   1.0000000), wk =   0.0937500
        k(   26) = (   0.6250000  -0.1250000   0.8750000), wk =   0.1875000
        k(   27) = (   0.5000000   0.0000000   0.7500000), wk =   0.0937500
        k(   28) = (  -0.2500000  -1.0000000   0.0000000), wk =   0.0468750
        k(   29) = (  -0.5000000  -1.0000000   0.0000000), wk =   0.0234375

     Dense  grid:    19603 G-vectors     FFT dimensions: (  40,  40,  40)

     Estimated max dynamical RAM per process >     103.38 MB

     Estimated total dynamical RAM >       2.42 GB

     The potential is recalculated from file :
     out/mp-20351.save/charge-density

     Starting wfcs are random

     Band Structure Calculation
     ParO style diagonalization

     ethr =  5.00E-06,  avg # of iterations =  6.2

     total cpu time spent up to now is      783.7 secs

     End of band structure calculation

          k = 0.0000 0.0000 0.0000 (  2445 PWs)   bands (ev):

    -6.8742  -6.8742  -6.8742  -6.7319  -6.7319  -4.0441   7.3249   7.3249
     7.3249   7.9173  11.4290  11.4290  11.4290  15.8074  16.7300  16.7300
    18.5220  18.5220  18.5220  21.1634  28.8766  28.8766  28.8766  31.0253
    31.1118  31.1118  31.1118  31.8547  31.8547  31.8583  31.8583  31.8583
    40.0505  40.9348  40.9348  41.9463  41.9463  41.9463  42.5142  44.4346
    44.4346  44.4346  45.3722  45.3722  45.3722  45.9241  45.9241  45.9241
    47.1018  47.1018  47.1018  47.6085  47.6085  47.6085  50.6980  51.0093
    51.0093  53.5219  53.5219  53.5219  53.7042  54.0444  54.0444  54.0444
    60.9776  63.4933  63.4933  64.5878  64.5878  64.5878  68.1924  68.1924
    68.1924  69.0514  69.1301  69.1301  69.1301  74.8006  74.8006  76.4092
    76.4092  76.4092  76.6433  76.7066  76.7066  76.7066  78.5627  78.5627
    79.0406  79.0406  79.0406  82.9293  82.9293  82.9293  83.4423  83.4423
    83.4423  83.5279  83.5279  83.5279  85.1024  85.1024  85.1024  85.3747
    85.3747  86.4828  86.6698  87.5509  87.5509  87.5509  87.6186  87.6186
    87.6186  87.6879  87.6879  88.0142  88.0142  88.0142  92.7112  94.0652
    94.0652  94.0652  98.0990  98.0990  98.0990  98.2553  98.2553  98.2553
    99.2901  99.2901  99.2901  99.7303  99.8360  99.8360  99.8360 100.6512
   100.6512 101.4242 101.4242 101.4242 101.7477 101.7477 104.9646 107.5058
   108.6252 108.6252 108.6252 109.5557 109.5557 111.2181 111.2181 111.2181
   112.1342 112.7377 112.7377 112.7377 113.6498 113.6498 113.6498 113.9000
   114.3332 114.3332 114.3332 114.5092 114.5092 114.5092 115.6634 115.6634
   115.6634 118.0007 118.0007 118.0007 119.0436 119.0436 122.5402 124.2934
   124.2934 124.2934 124.6589 124.6589 124.6589 126.0127 126.0127 126.0127
   128.4674 128.4674 130.2848 134.8372 134.8372 134.8372 135.7709 137.2117
   137.2117 138.2066 138.2066 138.2066 139.4671 139.4671 139.4671 141.1350
   141.1350 141.1350 142.9306 142.9306 142.9306 144.5642 144.5642 144.5642
   144.9909 144.9909 145.9588 145.9588 145.9588 146.1025 146.1025 146.1025
   146.3640 147.7225 147.7225 147.7225 147.7833 148.0237 148.0237 148.4718
   148.4718 148.4718 149.1973 149.5880 149.5880 149.5880 150.0564 150.0564
   150.0564 150.5404 150.6158 150.6158 150.6158 151.1088 151.1088 151.3937
   152.4648 152.4648 152.4648 152.6206 152.6206 154.1304 154.1304 154.1304
   154.8335 154.8335 154.8335 155.2207 155.2207 155.2207 155.4748 155.4748
   155.5877 155.5877 155.5877 158.0347 158.0347 160.8935 160.8935 160.8935
   161.6422 163.0038 163.0038 163.0038 167.3813 167.3813 167.3813 167.4971
   168.2288 168.2288 168.2288 168.3536 168.3536 168.3536 168.6515 168.6515
   170.2504 170.2504 170.2504 170.7345 170.7345 170.7345 171.7568 171.9817
   171.9817 172.0505 172.0505 172.0505 172.1441 176.7871 176.7871 176.7871
   177.4068 177.4068 177.4068 178.0664 178.0664 178.0664 178.4284 178.4284
   178.4284 179.0905 179.0905 180.2727 183.2772 183.2772 183.2772 184.6742
   184.6742 184.6742 185.0465 185.0465 186.2196 186.2196 186.2196 186.6036
   187.2883 187.2883 187.2883 187.4563 187.4563 187.4563 188.1473 188.1473
   188.5394 188.5394 188.5394 192.7183 192.7183 192.7183 194.6650 194.6650
   197.0917 198.5564 198.5564 198.5564 199.8454 200.6077 200.6077 200.6077
   201.6548 201.6548 201.6548 202.0997 202.0997 203.1548 203.9502 203.9502
   203.9502 206.7446 206.7446 206.7446 207.1333 207.3849 207.3849 207.7643
   207.7643 207.7643 208.5989 208.5989 208.5989 210.5656 210.6975 210.6975
   210.6975 211.9246 211.9246 211.9693 211.9693 211.9693 213.5809 215.9925
   215.9925 215.9925 216.3860 216.3860 216.3860 216.5353 216.5353 216.5353
   216.6298 216.6298 216.6298 220.4851 220.4851 220.5438 220.5438 220.5438
   220.5696 220.6814 220.6814 220.6814 220.7478 220.7478 220.7478 220.8209
   220.8560 220.8560 220.8560 222.0501 222.0501 222.0501 223.3350 223.3350
   223.4552 223.4552 223.4552 224.8671 225.1260 225.1260 225.1260 225.9256
   225.9256 225.9256 226.5688 226.5688 227.3244 229.5165 229.5165 229.5165
   229.5756 229.5756 229.5756 230.6157 230.6157 230.6157 231.0237 231.0237
   231.0237 232.1386 232.1386 235.7752 235.7752 235.7752 235.8876 235.8876
   236.8832 236.8832 236.8832 237.3695 237.3695 237.3695 237.4064 237.4064
   237.4064 238.3110 238.3110 238.3110 238.4515 238.4515 238.7405 238.8636
   240.0715 240.0715 240.0715 240.1458 240.1458 240.1458 240.3725 240.6183
   240.6183 240.6183 240.9803 241.8002 241.8002 245.4355 245.4355 245.4355
   246.5205 246.5205 246.8607 246.8607 246.8607 246.8850 246.8850 246.8850
   247.2368 247.2368 247.2368 248.5108 249.2459 249.2459 249.2459 249.5283
   249.5700 249.5700 249.5700 251.4272 251.4272 251.4922 251.4922 251.4922
   251.5432 251.5432 251.5432 251.8624 251.8624 251.8624 251.8644 251.8644
   251.8644 252.1574 252.1574 252.2495 252.5814 252.5814 252.5814 252.9712
   252.9712 252.9712 253.3395 253.4444 253.4444 253.4920 253.4920 253.4920
   253.5284 253.5284 253.5284 253.7171 253.7171 253.7171 253.9929 253.9929
   254.0043 254.0043 254.0043 267.1587 267.1587 268.3097 268.3097 268.3097
   268.5764 269.5081 269.5081 269.5081 271.1969 271.1969 271.1969 271.2664
   271.4819 271.4819 273.6439 275.4997 275.4997 275.4997 277.7768 277.7768
   277.7768 278.2953 278.2953 278.4106 278.4106 278.4106 278.7623 278.7623
   278.7623 279.8431 280.1037 280.1037 280.1037 282.5674 282.5674 282.5674
   282.7642 283.3035 283.3035 283.9968 283.9968 283.9968 285.9327 288.7726
   288.7726 288.7726 288.9357 288.9357 288.9357 289.1766 289.1766 289.1766
   289.2634 289.2634 289.2634 290.0735 290.0735 291.1393 291.1393 291.1393
   291.3160 291.3160 291.3160 291.5024 291.5024 291.5900 291.5900 291.5900
   291.6531 291.6531 291.6531 292.3788 292.3788 292.3788 292.3814 292.3814
   292.4718 293.6563 293.6563 293.6563 294.2467 294.2467 294.9169 294.9169
   294.9169 294.9886 294.9886 294.9886 295.1220 300.2408 300.2408 300.9784
   300.9784 300.9784 302.1948 302.5784 302.5784 302.5784 303.5475 303.5475
   303.5475 303.6707 303.6707 303.6707 303.9825 303.9825 304.5758 304.5758
   304.5758 305.2085 305.5653 305.5653 305.5653 305.5998 305.5998 305.5998
   305.6971 305.6971 305.6971 307.1392 307.3312 307.3312 307.3312 307.4344
   307.4344 313.3562 313.3753 313.3753 313.3753 313.8521 313.8521 313.8521
   314.5965 316.5900 316.5900 316.5900 316.6102 316.6102 316.6807 316.6807
   316.6807 317.0987 317.0987 317.0987 317.3133 317.8891 317.9585 317.9585
   318.0706 318.0706 318.0706 318.2376 318.2376 318.2376 318.3088 318.3088
   318.3088 319.6873 319.6873 319.7878 319.7878 319.7878 320.1999 320.1999
   320.1999 320.4469 320.4469 320.4469 320.6804 323.7550 323.7550 323.8726
   323.8726 323.8726 324.0159 324.0159 324.0159 324.3093 324.3093 324.3093
   324.6071 326.4718 326.4718 326.4877 326.4877 326.4877 326.4907 326.4907
   326.4907 326.6030 326.6030 326.6030 326.6509 336.3582 336.3582 336.3582
   336.4073 336.4073 336.8508 337.4258 337.4258 337.4258 337.4703 337.4703
   337.8391 338.3280 338.3280 338.3280 339.2400 339.2400 339.2400 339.2562
   339.2562 339.2562 339.5039 339.5039 339.5039 340.6260 340.6260 340.6338
   340.6338 340.6338 340.6651 341.3771 341.3771 341.3771 342.0865 342.1719
   342.1719 342.1719 343.5734 343.5734 343.5734 344.4863 344.4863 344.4863
   344.9581 344.9581 344.9581 345.2410 345.8119 345.8119 347.3148 347.3148
   347.3148 347.7171 347.7171 349.2416 349.4725 349.4725 349.4725 349.5179
   349.5179 350.6366 350.6366 350.6366 351.5810 351.5810 351.5810 351.6745
   351.6745 351.6745 352.0604 352.0604 352.0604 352.4120 352.4120 352.8034
   352.8034 352.8034 352.8832 352.8832 353.6075 353.6075 353.6075 354.1418
   354.4625 354.5085 354.6854 354.6854 354.6854 355.2001 355.2001 355.2001
   355.2723 355.2723 355.2723 355.6598 355.6598 355.6598 355.6882 355.9358
   355.9358 355.9358 356.1133 356.1133 356.1133 357.2637 357.2637 357.5287
   357.5287 357.5287 357.8272 357.8272 357.8272 358.0354 358.0354 358.0354
   358.1905 358.1905 358.1905 358.4247 358.4247 360.4633 360.4633 360.7158
   360.7158 360.7158 361.1819 361.1819 361.1819 361.2223 361.4128 361.4128
   361.4128 361.4670 361.4670 361.4670 361.8415 361.8415 361.8415 361.9057
   361.9057 362.2111 362.2111 362.2111 362.3888 367.4985 367.4985 367.4985
   367.5679 367.7431 367.7431 367.7431 367.9196 376.8823 376.8823 376.9971
   376.9971 376.9971 377.0876 377.0876 377.0876 377.1468 377.1468 377.1468
   377.2451 377.2451 377.2451 377.2624 377.2624 381.5162 381.5162 382.0354
   382.0354 382.0354 382.0661 383.1639 383.1639 383.4163 383.4163 383.4163
   383.4931 383.4931 383.4931 383.5206 383.6053 383.6053 383.6053 383.6268
   383.6268 383.6268 383.7813 383.7813 383.7813 389.4206 389.4206 389.4493
   389.4493 389.4493 389.4740 389.4740 389.4740 389.4981 389.6066 389.6066
   389.6066 389.6275 389.6275 389.6275 389.7999 389.7999 389.7999 390.5648
   390.5648 390.6657 390.6657 390.6657 390.7891 400.4282 400.5361 400.5361
   400.5361 401.0544 401.0544 401.0544 401.5839 403.2937 403.2937 403.6055
   403.6055 403.6055 403.9540 403.9540 403.9540 404.4067 404.4067 404.4067
   404.4588 404.4588 404.4588 404.5248 404.5248 405.6721 405.8480 405.8480
   405.8480 406.3390 406.3390 406.3390 407.2241 407.2241 407.3110 407.3110
   407.3110 411.3487 412.3138 412.3138 412.3138 413.0313 413.0313 413.0313
   413.9364 413.9364 413.9364 413.9852 413.9852 414.2493 415.7072 415.7072
   415.7072 416.7004 416.7004 416.7004 417.2215 418.7663 418.7663 419.0832
   419.0832 419.0832 420.2074 420.2074 420.2074 420.2364 420.2364 420.5404
   420.5404 420.5404 420.6652 420.6652 420.6652 421.3056 422.2470 422.2779
   422.2779 422.2779 422.5633 422.5633 422.5634 424.5721 424.5721 424.8571
   424.8571 424.8571 425.1922 425.1922 425.1922 425.2005 425.2005 425.2005
   425.2041 425.2041 425.3753 425.3753 425.3753 425.4684 425.7520 425.7520
   425.7520 425.7776 425.7776 426.8378 427.0108 427.0108 427.0108 427.1753
   427.1753 427.1753 427.3383 427.3383 427.3419 427.3419 427.3419 429.9449
   429.9449 429.9449 429.9549 429.9549 429.9637 429.9637 429.9637 430.0130
   430.0566 430.0566 430.0566 433.7607 433.7607 434.0915 434.2974 434.2974
   434.2974 436.5371 436.5371 436.5371 436.6125 436.6125 436.6125 436.9827
   436.9827 437.3484 437.3484 437.3484 437.7689 439.4815 439.5093 439.5093
   439.5093 439.5230 439.5230 439.5230 439.5295 439.5295 439.5455 439.5455
   439.5455 440.9670 440.9670 440.9670 441.3773 441.3773 441.3773 441.6902
   441.6902 441.6902 441.8344 442.2973 442.2973 443.9955 443.9955 443.9955
   444.4243 444.4243 444.4243 444.4867 444.4867 444.4867 444.7938 444.7938
   444.7938 445.3877 445.3877 445.3930 445.3930 445.3930 445.4650 445.4650
   445.4650 445.5289 445.5289 445.5289 445.5947 447.6973 447.6973 447.7727
   447.7727 447.7727 447.9028 450.2209 450.7941 450.7941 450.7941 451.4465
   451.4465 451.4825 451.5311 451.5311 451.5311 452.7245 452.7245 452.7245
   453.3463 453.3463 453.3463 454.1678 454.1678 454.1678 454.5643 454.5643
   454.5643 455.0865 455.1029 455.1029 455.3200 455.3200 455.3496 455.3496
   455.3496 455.7428 455.7428 455.7428 456.1692 456.1692 456.1692 456.6217
   456.6217 456.6217 456.7694 457.4613 457.4613 457.4613 457.8153 457.8153
   457.8758 457.8758 457.8758 458.0467 458.0707 458.0707 458.0707 458.2747
   458.2747 458.2747 458.5025 458.8321 458.8321 458.8827 458.8827 458.8827

          k =-0.1250 0.1250-0.1250 (  2481 PWs)   bands (ev):

    -6.8910  -6.8674  -6.8674  -6.7320  -6.7320  -3.8725   5.7804   7.1464
     7.1464   8.8959  11.5641  11.6983  11.6983  16.1175  16.1175  16.5874
    18.0026  19.7180  19.7180  22.4646  26.9465  27.1687  27.1687  30.5579
    30.5579  31.0250  31.5602  31.5602  31.9976  32.3389  34.4909  34.4909
    39.2024  39.2024  39.6314  40.9376  41.5558  41.5558  41.9628  43.2726
    43.4803  43.4803  44.2686  44.7918  44.7918  45.7362  46.2559  46.2559
    48.2863  48.2863  48.6865  49.2664  49.5007  49.5007  49.6478  51.3967
    51.3967  52.3858  53.2162  53.2162  54.2549  56.3089  56.3089  58.0499
    61.2795  61.2795  62.4475  63.0027  64.2930  64.2930  66.2404  67.8554
    67.8554  68.9634  69.5841  69.5841  72.1478  73.2155  73.2155  74.4674
    75.3825  75.3825  76.2889  76.2889  76.8915  77.1904  78.7778  78.7778
    79.0557  79.2608  79.7896  79.7896  80.1183  81.0183  81.0183  82.5649
    82.5649  83.3685  83.8889  83.8889  84.5884  84.5884  84.6131  85.6735
    85.8761  85.8761  87.0679  87.0679  88.1935  88.6559  89.1683  89.1683
    89.6334  89.6334  89.9838  92.1332  92.1332  92.1701  93.1152  93.2537
    93.2538  94.7970  94.8346  95.1574  95.1574  96.6175  96.6175  97.3022
    99.0454  99.0454  99.1965  99.9597  99.9598 101.1662 101.2839 101.2839
   101.6835 102.2612 102.2612 103.1442 104.1381 104.6562 105.5883 105.5883
   107.1425 107.1425 107.4231 108.7489 109.1216 109.1216 109.4151 110.0742
   110.0742 110.8268 111.0213 111.0213 112.2099 112.2099 112.7149 113.6017
   114.8997 114.8997 115.6972 115.6972 116.8109 117.1764 118.4287 118.4287
   119.7301 120.1818 120.1819 120.6082 120.6082 121.1272 122.4157 122.4157
   123.2595 124.6997 124.7487 125.6191 125.6191 125.6955 126.9939 126.9939
   129.0112 129.0112 132.8881 132.8881 133.1277 133.9439 134.4397 135.4968
   135.4968 136.1078 136.5580 136.5580 137.9521 138.6234 138.6234 139.3831
   139.7863 139.7863 141.0630 141.2633 141.2633 141.4904 142.1489 142.3966
   142.3966 143.7730 143.7730 144.3868 144.3868 144.5295 144.8825 144.8825
   145.5670 145.6243 145.6243 146.0502 146.8571 147.4535 147.4535 147.9647
   147.9714 147.9714 148.8199 148.9813 148.9813 149.6941 150.3120 150.3120
   151.5093 151.5167 151.5167 152.0691 152.0691 152.5490 153.0045 153.0045
   153.3175 153.5817 154.4946 154.4946 155.1004 155.1004 155.5459 156.4598
   156.5779 156.5779 157.0550 157.0550 157.2874 157.4874 158.4237 158.4237
   159.0117 159.0117 159.1112 159.6874 160.6318 160.6318 161.1316 161.2994
   162.2153 162.2153 163.5757 163.5757 163.5862 164.8214 165.0995 165.0995
   165.3042 165.3042 166.6477 166.6477 166.8083 167.2809 167.3162 167.3162
   168.5554 168.5554 170.2742 170.9023 170.9023 172.2288 173.3574 173.8116
   173.9104 173.9104 174.8166 174.8166 174.8696 175.5830 175.5830 176.1167
   176.6409 176.6409 178.2861 178.2861 178.3955 179.6713 179.8110 179.8110
   179.8455 179.9753 179.9753 181.6306 181.7797 181.8695 181.8695 182.3462
   182.3462 183.6513 184.8323 185.4482 185.4482 186.0165 186.9756 186.9756
   187.6380 187.6380 187.7078 189.2566 189.2903 189.2903 190.9645 190.9645
   192.3633 192.4438 192.4438 193.5095 194.0828 194.0828 194.5769 194.5769
   194.7159 195.5061 198.0756 198.1371 198.1371 198.6699 198.6699 200.4133
   200.4133 200.5476 201.0282 201.6091 201.7223 201.7223 202.7525 202.7525
   202.7995 204.1000 204.1000 205.1653 207.1018 207.1018 207.1342 207.4510
   208.7183 208.7183 208.9232 209.5876 209.6078 209.6078 209.8007 209.8007
   210.6043 210.6043 210.8080 211.3023 211.4074 211.4074 211.4541 212.9255
   212.9255 213.4223 213.6755 213.6755 214.4952 215.6294 215.6294 215.8150
   217.1518 217.5526 217.5526 218.5275 218.5275 219.1371 219.1371 219.3021
   219.8484 219.8484 219.8684 220.3427 220.4598 220.4598 221.1724 222.4282
   222.4282 222.7344 223.3786 223.3786 223.4016 223.9550 223.9550 224.3054
   225.0004 225.1350 225.1350 225.5216 225.5216 225.7176 225.8005 225.8005
   226.2326 227.2527 227.3350 227.3350 227.6754 228.0248 228.0248 228.6828
   231.1631 231.1631 231.2106 231.4431 231.4431 231.9116 231.9929 232.3000
   232.3000 233.2183 233.2183 233.2184 233.6620 233.6620 234.2007 234.2007
   234.4218 234.7031 234.8846 234.8846 235.3043 235.3043 235.5028 237.0730
   237.3959 237.3959 237.7472 238.2260 238.7983 238.7983 239.1119 239.1119
   239.5875 239.8027 239.8027 240.1891 240.8671 240.8671 241.0541 241.2762
   241.3377 241.3377 241.6102 241.9435 241.9435 242.3896 242.3896 243.6524
   243.7159 243.7159 245.2736 245.3603 245.3603 245.5300 245.5300 245.8954
   246.6351 246.6351 246.6388 246.7047 246.8525 246.8525 247.3238 247.3238
   247.6941 249.4245 249.4245 249.4902 249.9310 249.9310 250.0581 250.3015
   250.3015 250.8007 250.8007 250.9087 251.3493 252.4062 252.4062 253.0621
   253.3900 254.4565 254.6284 254.6284 255.9631 256.0409 256.0409 256.8423
   256.8575 256.8575 257.1703 257.6973 257.6973 258.5325 258.8292 258.8292
   259.8123 259.8123 260.7354 261.0604 261.0604 261.2005 261.2645 261.7415
   261.7415 262.3294 262.5940 262.5940 264.2094 264.2094 264.8296 265.3584
   265.5047 265.5047 267.2894 267.2894 267.6520 267.6520 268.5927 271.0082
   271.2739 272.8140 272.8140 273.3893 273.3893 274.1444 275.0272 275.0272
   276.3469 276.7272 276.7272 277.0915 277.0915 277.5306 278.2824 278.2824
   279.1096 279.5690 279.5690 279.9288 280.2105 280.2105 280.5552 281.6211
   282.0093 282.0093 282.7023 282.7023 282.8325 283.3523 283.3523 284.7166
   284.8066 284.8066 284.8080 285.0686 285.0686 285.1714 285.7035 286.6811
   286.6811 287.4270 288.5766 288.5766 288.7550 289.5785 289.5785 289.7369
   289.9687 289.9687 290.7567 291.4899 291.4899 292.5810 292.7409 292.7409
   293.2933 293.2933 293.6314 293.9168 294.3898 294.3898 295.4807 295.4807
   295.5359 296.5660 296.5660 296.6715 296.7676 297.1454 297.1454 297.1682
   297.5853 297.7070 297.7070 298.4378 298.4378 298.6060 298.6783 299.0254
   299.0507 299.0507 301.5243 301.5243 301.6338 302.1055 302.1055 302.2968
   302.9261 302.9261 303.2307 303.6467 303.6467 304.0425 304.0425 304.1485
   304.1916 305.0412 305.0412 305.1296 305.4239 305.4239 307.1659 307.3756
   307.3756 307.6500 307.6500 307.8348 307.8348 308.1450 308.1768 308.8593
   308.8593 309.1907 310.7714 310.7904 310.7904 312.9536 312.9536 313.3021
   313.5183 313.5183 313.7565 315.1396 315.1729 315.1729 315.6115 315.6115
   315.9016 316.0667 316.0667 316.0799 316.4085 316.4085 316.6182 318.0065
   318.0065 318.0977 318.2414 318.2414 318.4086 318.5684 318.7026 318.7026
   319.6140 319.6140 319.7497 320.9857 320.9857 321.1058 321.2621 321.2621
   321.3368 322.4000 323.4390 323.4390 323.5241 323.6617 323.6617 323.7845
   324.9215 324.9215 326.9416 327.2093 327.2093 327.4358 327.4358 327.5501
   327.8018 327.8018 327.8285 328.1070 328.2103 328.2103 328.6278 329.8015
   329.8015 330.6752 330.7965 330.7965 330.9543 331.3470 332.2980 332.2980
   332.8812 332.8812 333.4567 333.4567 333.9154 333.9503 333.9735 333.9735
   335.1828 335.4386 335.9136 335.9136 336.2833 336.5055 336.5055 337.0453
   337.0453 337.1715 338.2895 338.5345 338.5345 339.5095 339.5095 339.6203
   339.7493 340.2911 340.2911 340.2962 340.4334 340.4334 340.9478 341.5962
   341.5962 342.6880 343.1819 343.1819 343.5904 343.5905 343.7031 343.7031
   344.2459 344.2851 344.3532 344.3532 345.4461 345.5621 345.8033 345.8033
   346.0721 346.3252 346.3252 346.4750 346.5122 346.5122 346.8751 346.8751
   346.8838 347.0396 347.0396 347.3083 349.0134 349.0134 349.0653 349.1724
   349.1724 349.3009 349.4570 349.4570 349.9065 350.9847 351.2343 351.2343
   351.3322 352.2331 352.4766 352.5301 352.5301 352.8940 352.8940 353.1859
   353.1859 353.4009 353.6913 353.6913 354.2823 354.4748 354.4748 354.6227
   354.9181 355.3477 355.3477 355.7384 356.1750 356.1750 356.2978 357.4068
   357.4068 358.2280 358.5613 358.5613 359.3788 359.7121 359.7121 359.9511
   360.1435 360.1435 360.2246 360.2246 360.4762 361.1216 361.1216 361.8700
   361.8700 362.3231 362.3748 362.3790 362.3790 362.9284 363.1998 363.1998
   363.6644 363.6644 363.8094 364.9190 365.3017 365.3017 365.3571 366.0447
   366.0447 366.1063 366.1063 366.3113 368.4326 368.4326 368.8164 369.0505
   369.0505 369.0601 369.8257 369.8257 370.4318 370.5182 370.8054 370.8054
   370.8175 371.3229 371.3229 371.8059 372.1711 372.1711 372.6137 372.7578
   373.0514 373.0514 373.2167 373.2167 373.4594 373.5949 373.5949 373.6678
   373.6678 373.8426 376.0322 376.0322 376.2677 376.8179 376.8179 377.5169
   378.1356 378.1356 378.1610 380.7079 380.8783 380.8783 381.1407 381.1407
   381.1823 381.6838 381.6838 381.6908 383.8531 384.7183 384.7432 384.7432
   384.7460 384.8997 384.8997 384.9407 387.2239 387.2239 388.3126 388.3126
   388.3519 390.3236 391.6850 391.6850 391.9320 391.9320 391.9798 392.5950
   392.5950 392.7098 392.9786 392.9786 393.3466 394.4695 394.4695 395.3428
   395.3846 395.3846 395.8292 395.8292 395.9456 396.4290 397.3938 397.3938
   397.3951 399.4230 399.4230 400.0197 400.1498 400.1498 400.4876 400.4876
   400.5405 400.5804 402.4434 402.8135 402.8135 402.9720 402.9720 403.3709
   403.7922 403.7922 404.0004 404.0004 404.2197 404.9960 405.2987 405.2987
   406.2717 406.3713 406.3713 406.9075 407.6326 407.6326 408.7600 409.0154
   409.0154 409.9627 409.9627 410.4193 410.5441 410.5441 410.6567 411.6148
   411.9064 411.9828 411.9828 412.5662 412.5662 412.9743 413.0796 413.0796
   413.8584 413.8584 413.9921 414.8208 414.8208 414.9952 415.0961 415.0961
   415.3222 415.5196 415.9005 415.9005 417.7607 417.7607 417.8732 417.8844
   418.2978 418.2978 418.6161 419.8261 419.8261 419.9942 419.9942 420.0025
   420.2514 420.8821 420.8821 420.9329 421.2540 421.2540 422.4175 422.8842
   422.8842 423.2924 423.2924 423.8483 424.6417 424.6417 424.7130 425.8089
   425.8089 426.0203 426.0556 426.4290 426.4290 426.4928 426.6732 426.6732
   426.8627 426.8627 426.8855 428.5577 428.7305 428.7305 428.9540 428.9540
   429.2612 429.4935 430.0167 430.0167 430.6658 430.7160 430.7160 431.0402
   431.0402 431.0433 431.2103 431.3745 431.3745 431.9873 432.3984 432.3984
   432.5992 432.5992 432.7989 432.9855 433.2618 433.2947 433.2947 433.4623
   433.4623 433.4762 433.5066 435.0187 435.0187 435.2446 435.3093 435.3093
   435.5860 435.8986 435.9300 435.9300 436.9842 436.9842 437.4674 437.4674
   438.0652 438.0652 438.0731 439.0826 439.3139 439.3139 439.3377 440.2321
   440.2635 440.2635 440.3472 440.3649 440.3649 440.5650 440.5650 440.9707
   441.3345 441.5453 441.5453 441.5973 441.8866 441.8920 441.8920 442.2410
   442.4845 442.4845 442.5896 442.5896 442.8243 443.2957 443.2957 443.3356
   443.3356 443.6752 444.9301 445.0933 445.1376 445.1376 445.3418 445.3418
   445.4341 445.5332 445.5332 446.2289 446.2308 446.2308 446.8108 446.8108
   446.9764 447.0216 447.1959 447.1959 447.6402 447.6541 447.6541 448.2744
   448.2744 448.4809 449.6899 450.0234 450.0234 450.8743 450.8743 451.0980
   452.1723 452.1826 452.1826 452.3182 452.4038 452.4038 453.0891 453.0891
   453.2716 453.5278 453.8032 453.8032 454.3988 454.3988 454.4537 454.6364
   454.6364 455.0054 455.0054 455.0299 455.0889 455.7657 455.7851 455.7851
   455.9614 455.9614 456.0454 456.0454 456.0706 456.0970 456.4034 457.0307
   457.0307 457.9350 458.1296 458.1296 458.8028 458.8028 459.5317 459.5321
   459.6837 459.6837 459.8074 460.3185 460.3185 460.8592 460.8592 460.8794

          k =-0.2500 0.2500-0.2500 (  2463 PWs)   bands (ev):

    -6.9294  -6.8528  -6.8528  -6.7295  -6.7295  -3.3937   3.9253   6.7888
     6.7888   9.0614  12.1139  12.1139  12.6018  15.9036  15.9036  16.4468
    19.5757  21.8394  21.8394  23.8960  24.3617  24.3617  25.2909  30.5239
    30.5239  31.0247  31.9499  31.9499  32.3800  32.8014  34.6168  34.6168
    36.9028  38.9400  38.9400  40.0977  40.3922  40.3922  41.0007  41.2003
    41.7965  41.7965  43.4720  44.9613  44.9613  45.5951  46.9136  46.9136
    48.0392  49.6860  49.6860  50.5274  50.5274  50.5824  53.2865  53.6919
    53.8248  53.8248  55.9329  55.9329  56.5296  58.3521  58.3521  59.4251
    59.5054  59.5054  61.6605  61.6605  62.6671  63.0353  66.0816  66.0816
    67.5679  68.3033  69.0518  69.0518  71.0657  71.0657  71.5380  73.5816
    73.8052  73.9380  73.9380  76.2894  76.2894  76.7240  77.1545  77.1545
    77.6261  77.6922  78.4933  78.4933  80.8057  81.3317  81.3317  82.0378
    82.2627  82.2627  83.2806  83.2806  84.0308  85.7187  85.7187  86.1708
    86.1708  86.4457  87.6519  87.6519  87.9708  90.0851  90.0851  90.4184
    91.5400  91.9379  91.9379  92.1703  93.4229  93.5789  93.5789  94.3040
    94.3040  95.4953  95.5259  95.5259  96.5365  97.3793  97.3793  98.6693
    98.9879  99.1472  99.1472  99.4878 100.3391 100.3391 101.2715 101.2715
   101.7154 102.3389 102.9924 102.9924 104.7816 104.7880 104.8588 104.8588
   105.4589 105.4589 106.1484 106.9219 107.8610 107.9905 107.9905 109.0514
   109.5265 109.5265 111.8513 111.8513 112.3716 112.3716 112.4902 115.5948
   115.6067 115.6067 117.8820 118.7995 118.7995 119.0152 119.0152 120.5290
   122.0593 122.0593 122.2416 123.4683 123.4683 123.5773 124.9425 125.1309
   125.1309 126.1719 126.1719 126.2778 126.4468 127.2615 127.2615 127.8721
   127.8721 128.5725 129.7810 129.7810 130.4806 131.0752 131.6734 132.4417
   132.4417 132.8370 133.6789 133.6789 135.1606 135.2354 135.2354 136.8066
   136.9998 136.9998 138.1032 138.1032 138.5674 140.0489 140.0489 140.4464
   140.6026 140.6026 141.5902 142.6529 142.6529 142.7773 144.1523 144.5961
   144.5961 145.0676 145.5854 145.5854 146.4842 146.4842 146.4914 148.0282
   148.0282 148.2971 148.8998 149.0006 149.0006 149.9380 150.0564 150.0564
   150.5543 152.2895 152.5594 152.5594 152.9602 152.9602 153.1681 153.9307
   153.9307 154.1566 154.1869 154.7297 154.7297 156.3031 156.3031 157.7207
   157.7207 158.7851 158.8483 158.8483 159.8439 159.8840 159.8840 160.1009
   160.2325 160.2325 160.9115 162.2626 162.2626 162.5376 162.9464 163.4330
   163.5402 163.5402 163.9497 163.9915 163.9915 165.1715 165.1715 166.2634
   166.2634 167.1554 167.1733 167.3512 167.3512 167.7086 167.7086 168.5192
   169.7753 169.7753 169.8369 170.4732 171.2967 171.2967 172.5528 173.0337
   173.0337 173.7172 175.9382 175.9382 175.9669 176.3572 176.4635 176.4635
   177.5150 177.8553 177.8553 178.2245 178.2245 178.9756 179.5052 179.5052
   180.1514 181.6814 181.6814 182.6035 183.5343 183.5501 183.5501 184.8766
   184.8766 186.2475 186.6497 186.6497 187.8424 187.8424 188.0132 188.6542
   189.2537 189.2538 189.5351 189.8655 189.8655 190.2040 190.9176 191.0750
   191.0751 192.8934 192.8934 193.8738 194.5274 194.7152 194.7152 195.9623
   195.9623 196.0982 197.6900 197.6900 198.2742 198.5962 198.9725 199.6677
   199.7902 199.7902 200.1263 200.1263 201.1249 201.5807 201.5807 201.7552
   201.7552 201.7920 202.8253 202.8253 203.0239 203.2753 203.8420 203.8420
   204.4289 204.8250 204.8250 205.6640 205.6640 206.5172 206.5172 206.5387
   207.0123 208.8620 209.1715 209.1715 209.9091 209.9091 210.3308 211.0149
   211.0149 211.8295 211.8295 212.9118 212.9118 213.3561 214.2954 214.5916
   216.7779 216.7779 218.3442 218.3442 218.4343 219.0004 219.6282 219.6282
   219.8374 220.1008 220.1008 220.4569 220.4569 220.8562 221.5902 222.4620
   222.4620 223.0153 223.2401 223.2401 224.5278 224.5278 224.5825 225.0128
   225.0128 225.3944 225.7176 225.8431 226.2783 226.2783 226.6688 226.6688
   227.0225 227.0225 227.1116 227.9032 227.9032 227.9032 228.0084 228.8854
   228.8854 229.5099 229.6486 229.6486 229.8717 230.2734 230.2734 230.4406
   230.4406 231.5115 231.6242 232.5335 232.5335 232.5922 232.6733 233.5622
   233.5622 234.4285 234.4286 234.5729 234.7999 234.7999 235.6404 236.7941
   236.7941 237.0518 237.1690 237.1690 237.2956 238.1789 238.1880 238.1880
   240.1813 240.3438 240.3438 240.8302 240.8302 241.1689 242.1317 242.1779
   242.1779 242.5720 242.6941 242.6941 242.8848 243.1961 243.1961 243.4060
   243.7941 243.7941 244.1025 245.2998 245.7639 245.7639 247.2275 247.2275
   247.2738 247.5360 247.5360 247.6794 249.0449 249.0769 249.0769 249.6810
   249.6810 251.1859 251.1859 251.2320 252.1057 252.8398 252.8398 252.8491
   253.5885 253.5885 254.0899 254.1357 254.1357 255.2624 255.2870 257.0814
   257.0814 257.6765 257.6765 258.2393 258.2393 258.4269 258.9124 259.4267
   259.4267 259.7028 260.1698 260.2320 260.2320 260.8019 260.8019 261.7126
   261.7126 262.1606 262.7503 262.7503 263.7139 263.7587 263.7587 264.1357
   264.6733 265.7362 265.7362 266.1242 266.1242 266.4350 266.4636 266.6028
   266.6028 268.1003 269.6529 269.6529 269.7463 269.7463 270.3119 270.8999
   271.0563 271.3399 271.3399 271.4912 271.5920 271.5920 271.9466 271.9466
   272.2125 272.6039 272.6039 275.3213 276.5575 276.7040 276.7040 277.1326
   277.1326 277.2866 277.5373 277.5373 278.4417 278.7727 278.7727 278.8878
   278.9688 278.9688 279.1960 279.2343 279.5339 279.5340 279.9619 279.9619
   280.3381 281.6131 281.6131 283.5804 283.5804 283.7709 285.0391 285.7872
   285.7872 286.5171 287.4049 287.4049 287.7302 287.9674 287.9674 288.1130
   288.6959 288.6959 288.9428 290.6344 290.6344 291.4942 291.4942 291.7017
   292.0412 292.0412 292.1001 292.3013 292.4469 292.4469 292.6722 295.0554
   295.0554 295.4084 295.5766 296.0767 296.0767 296.4102 296.4102 296.5709
   296.7455 296.7997 296.7997 297.3108 297.7519 297.7520 298.2134 298.2134
   298.3365 299.9012 300.6383 300.6383 301.4398 301.4398 301.6163 302.5541
   302.9496 302.9860 302.9860 303.7864 303.7864 304.2724 304.5860 304.6547
   304.6547 305.4056 305.4056 306.1660 306.1660 306.4081 306.9128 307.2935
   307.2935 307.7805 309.0671 310.5900 310.5900 311.2688 311.2688 311.8042
   312.3902 312.3902 312.6671 313.1970 313.1970 313.4270 314.6138 314.6138
   314.8023 315.1359 315.1359 315.2429 315.2687 315.2687 315.4176 315.5155
   315.6605 315.6605 317.6283 317.6283 317.6441 317.9795 317.9795 318.0586
   318.3126 318.3126 319.4508 320.3169 320.3280 320.3280 320.9417 320.9417
   321.5315 321.5315 321.7719 321.8006 322.1147 322.1147 322.4587 322.4587
   322.6287 322.9848 322.9848 323.0389 323.4122 323.4122 323.8434 324.0864
   324.1045 324.1045 324.7020 324.7973 324.7973 325.4681 325.6946 325.6946
   325.9360 325.9360 326.0257 327.1328 327.1328 327.1476 328.0790 328.3300
   328.3300 329.0632 329.4783 329.4783 329.7412 330.3565 330.3565 330.4416
   330.8770 330.8770 331.3598 331.3598 331.6364 331.7236 331.7236 331.9397
   331.9719 331.9719 332.6136 333.1172 333.1172 333.1777 333.2679 333.3061
   333.3061 334.8266 334.8266 334.9907 336.2310 336.9836 337.2757 337.2757
   337.4190 337.8648 337.8648 338.6076 338.6076 339.1305 339.6426 339.6717
   339.6717 340.3861 340.6233 340.6233 342.8496 342.9916 342.9916 343.0393
   343.3089 343.3391 343.3391 343.6163 343.6163 343.6594 343.6594 344.3071
   344.3071 344.5208 346.5308 347.2135 347.2680 347.2680 347.4208 347.4208
   347.6121 347.7209 347.7209 347.8810 347.8810 348.1933 348.2421 348.9658
   348.9658 349.3024 349.3203 349.3286 349.3286 352.7276 352.7374 352.7374
   352.9311 353.0352 353.0352 353.4634 353.4634 353.6477 353.6608 353.6608
   353.8053 355.4333 355.4333 355.5666 355.7369 355.7369 356.3721 356.5890
   356.5890 357.4891 357.5932 358.4506 358.4506 359.3859 359.3859 359.9131
   361.3475 361.4721 361.4721 361.8014 361.8014 361.9322 362.1847 362.1847
   362.3118 363.3056 363.3056 363.5959 363.8808 363.8808 364.2735 364.9864
   364.9864 365.2255 365.4094 365.5192 365.5192 366.5791 366.5791 366.6678
   366.8157 366.8157 366.9021 367.2318 368.3747 368.5186 368.5186 368.8742
   368.9651 368.9651 369.4434 369.4434 369.4507 369.8502 369.8502 370.5172
   370.8876 370.8876 371.3233 372.1851 372.1851 372.6325 372.7672 372.7672
   373.0018 373.5590 373.5590 373.6678 373.6678 373.6950 373.7950 373.8559
   373.8559 373.9459 374.8446 375.2926 375.2926 375.9328 375.9328 376.0548
   377.3674 377.3674 377.3914 378.0928 378.0928 378.2857 379.0250 379.0250
   379.8717 379.8717 379.9311 380.4724 381.4020 381.4020 381.5277 381.8520
   382.0223 382.0223 382.3024 382.3024 383.5836 384.8638 384.8638 385.0220
   386.6639 386.6639 386.6642 387.2146 387.2146 387.4534 387.8423 387.8423
   387.9049 388.0329 388.1909 388.1909 389.3934 389.3934 390.7087 390.9149
   390.9149 392.8096 392.8096 393.5857 393.5857 393.6010 393.6683 393.8244
   393.8499 393.8499 397.1756 397.1937 397.1937 397.4248 397.6209 397.6209
   400.1420 400.1420 400.3190 400.7271 400.7271 400.7939 400.8042 400.8042
   400.8480 400.8972 400.8972 401.5307 401.8766 401.8766 402.1949 402.2809
   402.5349 403.0216 403.0216 403.1017 403.6431 403.6431 404.5226 404.5612
   404.5612 404.7381 404.7381 404.8593 406.0122 406.0582 406.0582 407.2044
   407.2044 407.6363 407.6654 407.9961 407.9961 409.2369 409.2369 409.9326
   410.5240 410.5416 410.5416 411.2142 411.2142 411.4829 411.7351 412.0584
   412.0584 412.1821 412.1821 412.3298 412.3298 412.4079 412.5656 412.8636
   412.8636 413.2164 413.2164 413.4377 413.7076 413.8621 413.8621 414.4072
   414.5952 414.5952 415.3155 416.4804 416.6388 416.6388 417.8910 417.8910
   417.9957 418.2877 418.4821 418.4821 418.7229 418.7229 418.7680 420.0483
   420.0483 420.3408 420.3795 420.3795 420.7811 420.8211 420.8211 422.7480
   422.7480 422.8193 423.1455 423.8854 423.8854 424.6097 424.9578 424.9578
   425.4781 425.7429 425.9071 425.9071 425.9465 426.1222 426.1222 426.2705
   426.2705 426.4675 426.5988 426.7123 426.7123 428.3825 428.4096 428.4096
   428.4972 428.5624 428.5624 429.4142 429.4223 429.4223 429.6265 429.6265
   430.3485 431.1904 431.4568 431.5009 431.5009 431.6714 431.6714 431.6948
   431.7715 431.7715 433.9838 433.9920 433.9920 434.1052 434.1052 434.1315
   434.5878 434.5878 434.6020 435.1511 435.1511 435.2238 436.3842 437.9116
   437.9616 437.9616 438.3219 438.4865 438.4865 438.6290 438.6290 438.7455
   438.7804 438.7804 439.1149 439.1343 439.1343 440.7468 440.8012 440.8012
   440.9157 440.9157 440.9570 441.0989 441.2867 441.2867 441.6122 441.6122
   441.6371 442.0197 442.3683 442.3683 442.6637 442.8780 442.8780 443.0955
   444.3725 444.4586 444.4586 445.0355 445.0355 445.3813 445.6560 445.6560
   446.2482 446.2851 446.2851 446.7923 446.7923 447.0291 447.4905 447.8181
   447.8181 448.4924 448.4924 448.6467 450.2093 450.2149 450.2149 450.4720
   450.4720 450.5147 450.7062 452.2278 452.3082 452.3082 452.7225 452.7225
   452.8859 453.1338 453.2578 453.2578 453.2985 453.4595 453.4595 453.5130
   453.5224 453.5224 453.6369 453.6369 454.9764 455.4678 455.7431 455.7431
   456.9147 457.8506 457.8603 457.8603 458.2932 458.2932 460.1806 460.1806
   460.3716 460.7201 460.7201 461.0825 461.3969 461.3969 461.5215 461.9527
   461.9527 462.0766 462.1735 462.1735 462.4636 462.4636 462.5528 462.7027
   462.7027 463.0564 463.0564 463.3040 463.3212 463.7047 464.1036 464.1036

          k =-0.3750 0.3750-0.3750 (  2458 PWs)   bands (ev):

    -6.9658  -6.8417  -6.8417  -6.7235  -6.7235  -2.7566   2.3841   6.4965
     6.4965   8.8643  12.1854  12.1854  13.9420  16.2287  16.8229  16.8229
    20.7990  21.5194  21.5194  23.1618  24.5683  24.5683  28.0938  30.0748
    30.0748  30.8966  31.0397  31.6445  31.6445  32.8611  33.1750  33.1750
    35.4151  37.2385  38.8119  38.8119  39.3637  39.5015  39.5015  39.9264
    42.8578  42.8578  43.2391  45.1756  45.1756  46.9886  46.9886  47.2147
    48.8899  50.8749  50.8749  52.1721  52.6621  52.6621  53.7748  54.2513
    54.2513  57.0720  57.0720  57.3153  57.9136  58.5715  58.5715  59.3978
    61.0832  61.0832  61.3128  61.9759  61.9759  63.8998  63.8998  65.9721
    66.2896  66.9915  66.9915  67.9295  69.2595  69.2595  69.4965  70.7836
    70.9001  70.9001  73.1035  74.9730  74.9730  76.4096  76.4096  76.4260
    78.1557  79.0005  79.0005  79.3431  80.5743  80.8264  80.8264  82.1535
    82.1535  83.1294  83.9322  83.9322  84.2523  84.4372  84.4372  85.4562
    88.0327  88.0327  88.4945  88.5070  88.6580  88.6580  89.5211  91.3066
    91.3066  92.0902  92.0902  93.0400  93.4936  93.8040  93.8040  94.4717
    94.4847  94.4847  95.9416  96.7041  96.7041  98.0363  98.0363  98.1523
    98.9717  98.9717  99.4034 100.6021 100.8192 100.8526 100.8526 101.6873
   101.6873 102.7981 103.6512 103.6512 104.0793 105.0568 106.1190 106.1190
   106.3156 107.1277 107.1277 107.5448 108.0460 108.0460 109.2091 109.2091
   109.8117 109.8117 111.1563 112.5636 112.8578 113.5849 113.5849 117.0540
   117.2576 117.2576 119.1672 119.2772 119.2772 120.4304 120.4304 121.2864
   121.2864 121.5177 121.6450 122.0335 122.9656 122.9656 123.1485 124.3199
   125.1646 125.1646 125.4596 125.4596 126.6356 126.6356 126.6431 127.7209
   128.2963 128.2963 129.4894 129.4894 129.8478 130.6739 131.1291 131.1291
   132.2974 132.7081 132.7081 133.2260 134.3883 134.5011 134.5011 135.2031
   136.4151 136.4151 137.1098 137.1098 137.6184 138.0942 138.0942 139.7087
   140.4433 140.4433 141.1724 141.8414 141.8414 142.0080 142.9990 142.9990
   143.6236 144.3938 144.7471 144.7471 146.0083 146.0083 146.0588 146.5231
   146.5231 146.7358 147.8464 147.8464 148.1571 148.1571 148.6154 149.3704
   150.4746 151.1075 151.1075 152.4771 152.4771 152.7510 153.3469 154.0756
   154.0756 154.9485 154.9485 155.1647 155.5782 155.9133 155.9133 156.8123
   156.8123 157.8714 158.6214 158.6214 158.8441 159.5570 159.5890 159.5890
   160.0890 160.3102 160.3102 162.0574 162.0574 162.3842 162.7686 162.7686
   163.4624 163.5238 165.5129 165.5129 166.8074 167.0636 167.0636 168.0010
   169.7994 169.7994 170.1813 170.5467 170.5467 171.2274 171.2940 171.2940
   171.5634 171.7025 173.0028 173.0028 173.1708 173.6450 173.6450 174.4468
   174.4468 174.8258 175.6259 175.6259 176.4552 177.2988 177.2988 177.3519
   178.1741 178.1741 179.7386 179.7386 180.0743 180.3712 181.9834 181.9834
   182.3719 183.0640 183.0640 183.0880 184.4090 185.0633 185.0633 185.9954
   185.9954 186.0271 186.7135 187.7739 187.7739 188.4186 188.4749 188.4749
   189.6297 190.2581 190.6345 190.6345 191.5913 191.5913 192.1371 192.1371
   192.5363 193.1940 193.1940 193.4076 193.7730 193.7730 194.5008 194.7264
   194.7264 194.8604 194.9159 195.8021 195.8021 196.1821 196.4913 196.4913
   197.1967 197.1967 197.6761 198.5697 198.5697 198.6188 200.1872 200.1872
   200.4599 200.7564 200.7564 201.2280 202.8840 203.0399 203.0621 203.0621
   203.6449 203.7971 203.7971 204.6697 204.6697 205.8637 206.2988 206.5256
   206.5256 207.2555 207.2555 207.4043 208.3402 208.4778 210.0739 210.0739
   211.1484 211.1484 211.5883 211.5883 212.5731 212.9226 212.9226 214.1281
   214.3176 214.3176 214.6673 214.6673 214.9331 217.4694 217.4694 217.5552
   218.8351 218.8793 218.8793 218.9543 219.4731 219.4731 219.8377 219.8377
   219.9887 219.9909 221.7459 221.7459 222.4582 222.4582 222.4747 222.5929
   222.5929 223.0937 224.1039 224.1039 224.4619 225.1633 225.1633 225.4440
   227.1834 227.1834 227.7512 227.7755 227.7755 228.0392 228.3221 228.3221
   229.1084 229.6776 230.6952 231.0477 231.0477 231.6021 231.6021 232.3500
   233.3534 233.3534 233.7875 234.0495 234.0495 234.7469 234.7469 234.7660
   235.7288 235.8281 235.8343 235.8343 236.6698 236.6698 237.4368 237.4368
   237.8961 238.1945 238.2755 238.2755 238.5372 239.3678 239.3678 239.4337
   240.0305 240.0305 240.8372 240.8807 240.8807 241.1947 241.9148 242.9507
   242.9507 243.1170 244.0103 244.0103 244.9644 245.0545 245.0545 245.3413
   245.3413 245.8065 245.8065 245.8735 245.9016 246.1167 247.6982 247.6982
   247.8470 248.2902 248.2902 248.3701 249.1000 249.1000 250.1987 250.1987
   250.7594 252.5345 252.5345 254.1777 254.1777 254.2793 254.6834 254.6834
   254.6896 255.7660 255.7660 255.9753 257.0120 257.1549 257.4333 257.4333
   257.5918 258.0582 258.0611 258.0611 259.1520 259.1520 260.3001 260.3001
   260.4512 260.8223 260.8223 261.3964 262.5101 262.5101 263.0101 263.0602
   263.6754 263.6754 263.8920 264.2022 264.2022 264.6952 264.8608 265.1390
   265.1390 265.7569 266.2106 266.2106 266.4381 266.5302 266.5302 267.4892
   267.4966 267.4966 267.7429 267.7429 268.0174 268.0174 268.3541 268.4649
   269.9081 269.9081 270.3744 273.1587 273.1587 273.2574 273.4823 273.4823
   273.6264 274.3820 274.3820 274.6922 276.8596 276.8596 277.1310 277.3879
   277.3879 277.7411 278.4118 278.4430 278.4430 278.6349 278.6349 278.8860
   279.8459 279.8459 279.8618 280.3147 280.3602 280.3602 280.6654 280.6654
   281.2412 281.3308 281.3430 281.3430 281.4558 281.7543 281.7543 281.8634
   283.0195 283.6270 283.6270 284.0591 284.0591 285.6595 285.6595 285.9667
   287.0432 287.0432 287.6088 288.4210 288.4210 288.7749 289.7168 289.7168
   289.8367 290.1710 292.2794 292.4634 292.4634 293.2449 293.4317 293.4317
   294.0623 294.3458 294.3458 295.0449 295.8202 295.8202 296.4074 296.4987
   296.4987 296.8527 296.8527 297.1211 297.3207 297.3207 298.0055 298.0055
   299.2222 299.5866 300.2419 300.2419 300.6567 300.6567 300.6815 302.4840
   302.4840 302.9473 303.2604 303.2604 303.4302 303.5087 303.5087 304.2482
   304.8799 304.8799 304.9241 304.9767 305.7103 305.7103 306.1122 306.4892
   306.4892 309.2957 309.4642 309.4642 310.0768 310.6389 310.6389 311.7229
   311.7805 311.7805 313.1465 313.1465 313.4766 314.3487 314.5418 314.5418
   314.9557 314.9557 315.0242 315.3333 315.3507 315.5256 315.5256 316.4521
   316.4521 316.7631 316.8434 316.9298 316.9298 317.2274 317.2274 317.4540
   317.4540 317.5749 317.6186 317.8122 317.8122 318.1947 318.3031 318.3031
   318.6303 318.6303 319.4968 319.7825 320.9177 321.5996 322.2626 322.2626
   323.7876 323.7876 324.0977 324.2019 324.2019 324.7396 324.7396 324.8585
   324.9118 324.9118 325.0818 325.5895 325.5895 325.8239 325.8239 325.9077
   326.0048 326.2834 326.5794 326.5794 327.0689 327.4891 327.4891 327.8999
   327.8999 327.9179 328.0462 328.0462 328.4993 329.1010 329.1010 329.9649
   330.2833 330.4541 330.4541 330.9324 330.9324 331.2033 331.4833 331.4833
   332.0509 332.2556 332.3014 332.3014 332.7793 332.7793 333.0467 334.1520
   334.1520 334.5324 334.8117 334.8117 334.8123 335.2800 335.2800 335.3025
   335.4727 335.4727 335.8164 336.5194 336.5194 336.8868 338.3069 338.3069
   339.2349 339.2349 339.3765 341.9570 341.9570 342.1678 342.2811 342.6001
   342.6001 342.9392 342.9392 343.0655 344.3094 344.6549 344.6549 345.1569
   345.1569 345.4749 345.7025 345.7025 346.4148 347.6454 347.6454 347.9495
   349.5355 349.5355 349.6671 350.0909 351.0267 351.0267 352.2083 352.2208
   352.2494 352.2494 352.5315 352.5315 352.7732 353.0157 353.0157 353.1961
   353.6787 353.8673 353.8673 354.3516 354.3516 355.2304 355.2725 355.2937
   355.2937 355.7398 355.7398 356.2296 356.2605 356.2605 357.3279 357.8561
   357.8561 358.3369 358.3369 358.4413 359.1552 360.3253 360.3253 360.4433
   360.5577 360.6279 360.6279 362.4435 362.4435 362.9723 362.9723 362.9787
   363.3060 363.8233 363.9969 363.9969 365.1581 365.1581 365.2273 365.3187
   365.6668 365.6668 366.1243 366.3869 366.3984 366.4849 366.4849 366.7386
   366.7386 366.9811 366.9811 367.0998 368.7795 368.7795 368.8900 368.8900
   368.9310 369.4117 369.5364 369.5364 370.4815 371.0258 371.0258 371.2481
   371.2481 372.3959 373.8811 373.8957 373.8957 375.0485 375.0485 375.4202
   375.5242 375.5701 375.5701 375.7073 375.7073 375.8031 376.3817 376.3817
   377.7095 378.0354 378.2310 378.2310 379.3881 379.4044 379.4044 379.6638
   379.6638 380.0744 380.0744 380.2012 380.2739 380.4819 381.4010 381.4094
   381.4094 381.5880 381.5880 383.3083 383.4296 383.4296 384.2053 384.2053
   384.4706 384.4934 384.4934 384.5139 386.5358 386.5358 386.6567 386.6583
   386.7387 386.7387 388.0298 388.7192 388.7192 388.7710 388.8523 388.8523
   390.1229 390.4576 390.4576 391.1828 391.8049 391.8049 391.8313 391.9106
   391.9106 392.2902 392.2902 392.7099 393.4707 393.4927 393.5324 393.5453
   393.5453 393.5885 393.5885 394.3353 394.3353 394.4993 395.0108 395.0108
   396.1593 396.3872 396.3872 397.5701 399.3671 399.3671 399.4276 400.3620
   400.3620 400.5572 401.2508 401.4021 401.4021 401.6093 401.6093 402.0021
   402.8532 402.8532 402.9408 403.6016 403.6016 403.6383 403.8900 403.8900
   403.9401 403.9524 403.9945 403.9945 405.1782 405.3277 405.3277 405.8629
   405.8629 405.9758 406.1778 406.3412 406.3412 406.7218 406.7218 406.7636
   407.3793 407.5395 407.5395 407.6883 407.7476 407.7476 408.5071 408.5071
   408.8435 409.3268 409.3268 409.3415 409.3415 409.9277 410.1619 410.1619
   410.2523 410.3080 410.6672 410.7303 410.7303 410.9783 411.1206 411.1206
   413.6359 413.6359 413.6627 414.2479 414.5156 414.5156 415.1398 415.3029
   415.3029 415.5064 415.8998 415.8998 416.3902 416.3902 416.5571 416.6011
   416.6011 417.5545 417.5978 417.8977 417.8977 418.0603 418.3743 418.3743
   420.2843 421.9495 421.9495 421.9541 423.4373 423.4773 423.4773 424.0189
   424.0189 424.0477 424.4799 424.4799 424.7924 424.8194 425.9472 426.0156
   426.0156 426.2571 426.2571 426.3309 426.9771 426.9771 427.0580 427.2976
   427.2976 427.6140 427.6140 427.6465 428.8005 428.8269 428.8269 429.2184
   429.2513 429.2513 429.8634 429.8854 429.8854 430.1442 430.1489 430.1489
   430.6517 430.6517 432.1187 432.1187 432.1655 432.2680 432.5507 432.5507
   433.0466 433.0467 433.5210 434.0737 434.2539 434.2539 435.3970 435.5877
   435.6381 435.6381 435.7989 435.7989 435.8677 435.8677 435.8874 437.9795
   438.0884 438.1388 438.1388 440.1361 440.1361 440.4636 440.4636 440.5656
   441.0214 441.1924 441.1924 441.2948 441.3167 441.3167 442.1279 442.2178
   442.2178 442.4666 442.5506 442.5506 443.6926 443.6926 443.7973 443.9307
   443.9307 444.2707 444.2987 444.2987 444.8229 444.8229 444.8364 445.1919
   448.1690 448.1690 448.2365 449.0708 449.0708 449.1725 449.2929 449.2929
   449.3961 450.2892 450.3529 450.3529 450.5812 450.5812 450.6666 451.0477
   451.0477 451.0790 451.1427 451.1427 451.2525 451.5366 451.6860 451.6860
   452.2553 452.2553 452.5744 452.9132 453.1347 453.1347 453.7033 453.7033
   453.8725 454.0793 454.5533 454.5533 454.5802 456.3429 456.3429 456.6946
   456.7470 456.7470 456.8087 456.8992 456.8992 457.6716 458.4481 458.4481
   458.5369 458.6722 458.6722 458.9884 461.5854 461.5854 461.9154 461.9338
   461.9338 462.2603 464.3955 464.3955 464.4334 464.9657 465.0377 465.0377
   466.4750 466.6328 466.6328 466.7179 466.7953 466.7953 467.3597 467.4113

          k = 0.5000-0.5000 0.5000 (  2452 PWs)   bands (ev):

    -6.9804  -6.8382  -6.8382  -6.7197  -6.7197  -2.3977   1.7125   6.3884
     6.3884   8.7742  12.1412  12.1412  14.4063  16.7294  17.9522  17.9522
    19.5331  19.9081  19.9081  25.3697  26.6672  26.6672  27.7563  28.3352
    28.3352  31.0253  31.2583  31.2583  32.1187  32.6336  33.1085  33.3674
    33.3674  36.3832  38.2384  38.2384  38.7291  39.1688  39.1688  39.5131
    43.0631  43.7031  43.7031  45.3872  45.3872  47.5266  47.5266  48.4814
    49.8035  51.6480  51.6480  51.7953  52.8885  52.8885  53.8827  53.8827
    53.9470  56.2637  56.2637  57.2920  59.7902  59.7902  60.1197  60.9928
    61.1761  61.1761  62.4497  62.6580  62.8977  62.8977  65.2941  65.4718
    65.4718  65.5820  65.5820  66.6162  67.5507  67.5507  70.0548  70.1280
    70.1280  70.1714  72.4215  72.4215  74.8294  75.7142  75.9146  75.9146
    78.3631  79.2245  79.2245  79.3757  81.4782  81.5240  81.5240  82.4812
    82.4812  83.6499  83.9421  83.9421  84.8708  85.6219  85.9552  85.9552
    86.6861  86.6861  87.0113  87.1203  88.1107  89.6371  89.6371  90.1035
    90.1035  92.8948  92.8948  93.1304  93.4472  94.2298  94.2298  94.9018
    94.9018  95.8025  96.4179  96.4179  96.5300  97.1145  97.8013  97.8013
    98.0944  98.8281  99.4079  99.4079 100.2642 100.2642 101.0071 102.6072
   102.6072 102.7621 103.6884 103.6884 103.8358 104.8678 105.2890 105.2890
   107.8495 107.8495 109.3394 109.4822 109.4822 111.4589 111.4589 112.1423
   112.4619 112.4619 113.1133 114.0001 114.0658 114.1357 114.1357 116.3362
   116.4156 116.4156 116.6944 116.6944 117.1760 117.1760 117.2669 118.3101
   119.0388 119.8480 120.0595 120.0595 123.2179 123.2179 123.8812 123.8812
   125.0400 125.1473 125.1473 126.4493 126.6666 126.6666 126.8616 127.3703
   127.9307 129.6515 129.6516 129.8088 130.8960 130.8960 132.3698 132.3698
   132.5433 134.1368 134.1368 134.1486 134.5713 135.3306 135.3306 135.5680
   135.7368 135.7368 137.2812 137.2812 138.5217 138.5217 138.6208 139.2152
   139.2895 139.3516 139.3516 140.9648 140.9648 141.0654 141.7050 141.7050
   141.9921 142.7726 142.7726 145.3392 145.9841 145.9841 146.2461 146.2664
   146.2664 146.8566 146.8566 147.4738 147.5070 147.5070 148.2568 148.2568
   148.3538 149.2640 151.9408 152.7927 152.7927 152.8033 153.9885 153.9885
   155.2546 155.2629 155.2939 155.2939 156.0430 156.0430 156.3061 156.8788
   156.8788 157.4302 157.7922 157.7922 157.8733 158.4372 158.4372 158.7871
   158.9136 160.4385 161.5036 161.5036 163.1551 163.7830 163.7830 164.0999
   164.7332 164.7332 165.0070 165.7184 165.7184 166.6811 166.6811 167.1552
   167.3368 168.4891 168.4891 169.2430 169.2430 171.2452 171.2452 172.8593
   174.2479 174.5123 174.5123 175.6552 175.7136 175.7136 176.2435 176.2435
   176.3257 178.2012 178.4136 178.4136 178.7817 178.9826 179.7744 179.7744
   180.3164 180.3164 180.4560 180.4726 181.6910 183.2443 183.2443 183.3019
   183.3019 183.5056 183.8615 183.8615 184.6742 184.6742 185.2827 185.2827
   185.5319 185.7455 185.9737 186.6545 186.6545 186.7462 188.2163 188.2163
   189.0980 189.0980 189.1373 189.1373 189.4619 189.9299 190.1951 190.1951
   190.4937 190.5935 190.5935 191.7410 191.7905 191.8043 192.4392 192.4392
   194.5818 195.4887 195.4887 196.2385 196.2385 196.3758 198.5610 198.5610
   199.1540 199.1540 199.1849 199.2249 199.4587 199.4587 199.8533 199.9352
   199.9352 201.1081 201.3063 201.3063 201.6952 203.0306 203.0306 203.4653
   203.4653 203.7933 203.8789 203.8789 204.1394 204.4526 204.4526 204.9769
   206.6363 207.8462 207.8462 208.4273 208.4314 208.4314 208.6642 208.7621
   208.7621 209.1941 209.1941 210.9521 211.4132 211.4132 212.0970 212.8068
   213.1603 213.1603 213.9152 213.9152 214.2306 214.2306 214.8691 215.2728
   215.5686 217.7354 217.7354 217.8886 218.6397 218.6397 218.6442 219.1267
   220.7164 220.7164 220.8432 221.5778 221.5778 222.4528 222.9690 223.3932
   223.3932 223.8337 223.8337 224.1162 224.1162 224.1864 225.2783 225.2783
   226.1413 226.1413 227.0054 228.0993 229.2135 229.2135 229.9736 230.3885
   230.3885 230.4744 231.5935 231.7451 231.7451 231.8801 232.6022 232.8412
   232.8412 232.9110 232.9110 232.9723 234.2606 234.2606 235.5384 235.5384
   236.5064 236.5064 236.6969 236.9416 236.9416 237.8924 238.2975 238.2975
   238.4812 238.8947 238.8947 239.4915 239.8122 239.8122 240.1064 240.3482
   240.3482 240.4877 240.7200 240.7200 241.8317 242.4868 242.4868 243.1114
   243.5011 243.5011 244.1382 244.2885 244.3969 244.3969 245.1368 245.1368
   245.2959 245.4625 245.4625 245.6786 247.1374 247.1374 247.3745 247.3745
   249.3883 249.6702 250.2438 250.4914 251.0226 251.7637 251.7637 251.9183
   251.9183 252.2867 252.7398 252.7398 253.4026 253.4026 253.8794 254.2141
   255.3731 255.3731 255.5065 255.5065 256.0380 256.0380 256.2951 256.4273
   256.4273 256.7656 256.9814 257.6671 258.7216 258.7216 259.6355 259.9770
   259.9770 260.3334 262.4200 262.4200 262.7628 262.8270 262.8270 263.0549
   265.8682 265.8682 265.9679 266.1097 266.1490 266.1490 267.8778 267.8778
   267.9838 268.1853 268.1853 268.3958 268.4187 268.4187 268.5626 268.6053
   268.6053 268.8157 269.3243 269.5856 269.6197 269.6197 269.7767 269.7767
   270.1707 270.1707 270.2618 270.4449 270.6648 270.6648 271.6900 271.6900
   272.2414 272.2947 272.2947 273.2172 273.3946 273.4642 273.7918 273.7918
   274.1523 274.1523 275.5789 275.5789 275.6239 275.6239 276.1115 276.2235
   277.5538 278.4098 278.4098 278.4500 278.7937 278.7937 278.8402 278.9617
   282.6337 282.6337 282.8099 282.8099 283.3501 283.3501 283.5490 283.6204
   284.0522 284.0522 287.9855 287.9855 288.2063 288.9711 288.9711 290.0410
   290.7086 290.7086 290.8599 290.8599 290.9915 291.1757 291.1757 291.5388
   291.5524 291.5524 291.9013 291.9209 292.4462 292.8929 292.8929 292.9183
   293.0293 293.0293 294.1587 294.1587 294.8495 294.9039 295.2046 295.3184
   295.8165 295.8165 296.0098 296.0098 296.2524 296.4302 296.4302 297.1854
   297.1854 297.5942 297.6248 297.6248 300.5926 300.9362 300.9362 302.1739
   302.1739 302.3264 302.9707 302.9707 303.1149 303.1149 303.3789 303.4799
   303.6683 304.1505 305.9775 305.9775 306.4702 306.4702 306.4767 307.1148
   307.6665 307.6665 307.9410 308.6300 308.6300 309.0985 309.5509 309.5509
   310.1581 310.3380 310.3380 311.7699 311.7699 311.8010 311.8010 312.0048
   312.0376 312.5051 313.2714 313.2714 313.4836 313.4836 314.7712 314.7990
   314.7990 314.9059 314.9213 314.9213 316.9362 316.9362 317.1976 317.2243
   317.2243 317.3041 317.7460 317.7460 317.8850 317.8850 318.4468 318.5823
   319.7524 319.8189 319.8189 319.8993 319.9604 319.9604 321.3428 321.3428
   321.8554 321.8554 321.9043 322.2405 322.5698 322.8740 322.9537 322.9537
   323.1819 323.1819 326.0364 326.0617 326.0617 326.3660 326.3660 326.5579
   327.6488 327.9846 327.9846 328.4456 328.5033 328.5033 328.7790 329.2363
   329.8529 329.8529 330.0677 330.0677 330.0803 330.2562 330.2562 330.3307
   330.3307 330.6121 331.2319 331.2925 331.2925 331.4212 331.4212 331.4409
   334.1598 334.1598 334.2700 334.4414 334.4414 335.0243 335.3957 335.5445
   336.9282 336.9282 336.9943 336.9943 337.1401 337.1436 337.1436 337.1609
   337.4185 337.5682 337.5682 337.8473 338.7421 338.7421 338.8104 338.8104
   339.9369 340.5098 341.3525 341.3525 341.5084 341.5700 341.5700 341.7824
   341.9028 341.9028 342.2312 342.2312 342.4881 342.4881 342.5523 342.5523
   342.8915 342.9091 343.9224 344.4102 344.7568 344.7568 344.8305 344.8305
   344.9605 345.1150 348.7633 348.7633 349.3166 349.3166 350.4497 350.6296
   352.5128 352.6265 352.6265 352.7884 352.7884 352.9142 354.0384 354.0384
   354.0873 354.0873 355.9311 355.9311 356.0620 356.0620 356.1305 356.3347
   356.6279 356.6279 356.8036 356.9698 356.9698 357.2467 359.6427 359.6427
   359.8596 359.8596 360.1006 360.2245 360.2245 360.2495 360.2495 360.2657
   360.5280 360.6675 360.7119 360.7355 360.7851 360.7851 360.8383 360.8383
   362.9768 363.0537 363.0537 363.2466 363.2466 363.3499 365.7581 365.8171
   365.8171 365.8920 365.8920 366.2575 369.4044 369.4491 369.5070 369.5070
   369.5508 369.5508 370.4419 370.4419 370.6115 370.6115 370.8146 370.9786
   371.1086 371.6022 371.7186 371.7186 371.9310 371.9310 372.8054 372.8954
   372.9038 372.9038 373.0663 373.0663 373.1592 373.1593 373.3092 373.3092
   373.4279 373.6047 374.8864 374.9762 374.9762 374.9790 375.0152 375.0152
   378.0898 378.0898 378.0999 378.0999 378.4575 378.4606 380.0866 380.2440
   382.0069 382.1516 382.1516 382.2566 382.7949 382.7949 383.5913 383.5913
   383.7211 383.7211 384.5275 384.9352 385.5760 385.5760 385.7159 385.7181
   385.7181 386.0120 386.9052 386.9052 386.9455 386.9455 387.2954 387.4142
   388.2236 388.2236 388.3729 388.3729 389.1811 389.2056 389.7922 389.7922
   389.9250 389.9250 390.4394 390.5714 391.4557 391.5231 391.5231 391.7536
   391.7536 391.8864 393.5306 393.5791 394.1835 394.1835 394.2154 394.2154
   395.1920 395.1920 395.2362 395.2362 395.2789 395.3441 395.9594 395.9594
   395.9712 395.9712 396.4264 396.4273 397.6348 397.7009 397.7009 397.7539
   397.7581 397.7581 397.8593 397.8593 397.9252 397.9252 397.9840 398.0461
   401.5607 401.8110 401.8110 401.8688 402.0133 402.0133 402.2610 402.7182
   402.7182 402.9478 402.9478 403.2785 404.0391 404.0391 404.1574 404.1574
   404.7592 404.8629 405.2072 405.2348 405.6546 405.6546 405.6685 405.6685
   406.2684 406.5359 406.5359 406.8247 406.8247 406.9424 407.3527 407.4726
   409.9770 409.9770 409.9816 410.0437 410.0437 410.0817 410.5513 410.5513
   410.5767 410.5768 412.5085 412.5991 412.5991 412.8785 412.9248 412.9248
   412.9738 413.2214 413.2214 414.0615 414.0615 414.2613 414.6235 414.8078
   414.8078 414.9639 415.1048 415.1048 415.7486 416.0376 416.0376 416.7951
   416.7951 416.9265 417.8953 418.2624 418.3360 418.3360 418.3713 418.3713
   419.0668 419.0668 419.1453 419.2718 419.2718 419.5855 419.6308 419.8739
   419.8739 420.0216 420.0216 420.0499 420.8356 420.8425 422.7990 422.7990
   422.8280 422.8280 426.3961 426.3961 426.3978 426.3978 426.8810 426.9646
   426.9646 426.9921 426.9921 427.0001 427.5257 427.5269 428.9367 428.9367
   428.9393 428.9507 428.9507 428.9801 432.2853 432.2853 432.4315 432.7602
   433.0477 433.0477 436.1439 436.1439 436.2738 436.4172 436.4172 436.5356
   436.9519 437.0694 437.1045 437.1045 437.1573 437.1573 437.3501 437.4158
   437.4158 437.6380 437.6380 437.6512 437.7248 437.7248 437.8690 438.0705
   438.0705 438.0787 438.9300 439.1986 439.2366 439.5329 439.5329 440.0612
   440.0612 440.2767 441.3109 441.3109 441.6409 441.6994 441.7203 441.7203
   441.7770 441.8445 441.8445 442.0794 442.0794 442.2370 442.5804 442.5804
   442.6224 442.7518 442.7518 443.0038 443.2477 443.2477 443.3245 443.3383
   443.3383 443.3954 443.4922 443.5152 443.5152 443.5372 443.6086 443.6086
   448.9230 448.9230 448.9442 448.9442 449.2757 449.3147 449.4208 449.4208
   449.4349 449.4349 449.8703 449.8703 449.8788 449.9277 449.9908 449.9908
   450.3843 450.3911 450.3917 450.3917 450.4043 450.4043 452.4523 452.4523
   452.5175 452.6461 452.7062 452.7062 457.6858 457.6858 457.7172 457.7172
   457.7270 457.7761 460.6509 460.6509 460.6562 460.8205 460.8428 460.8428
   460.8972 460.9681 460.9681 461.0892 461.0892 461.1677 463.4928 463.5208
   463.5208 463.5873 463.8440 463.8440 463.9588 463.9588 464.0786 464.0786
   464.2377 464.3208 469.2044 469.2044 469.2157 469.5482 469.8118 469.8118

          k = 0.0000 0.2500 0.0000 (  2481 PWs)   bands (ev):

    -6.9036  -6.8609  -6.8609  -6.7374  -6.7272  -3.8158   5.7602   6.8298
     6.8298   9.4182  10.7997  12.1397  12.1397  15.1345  16.8796  16.9834
    19.0373  19.0373  19.3682  23.1275  26.5064  26.5064  28.0437  28.8377
    29.6148  31.0252  31.6774  31.6774  33.2766  33.9004  33.9004  34.8069
    37.6045  39.8653  39.8653  40.5642  41.0366  41.9004  42.0549  42.0549
    42.5253  44.0134  44.2559  44.2559  45.5955  46.4085  46.5256  46.5256
    47.7167  48.1073  48.9257  48.9257  49.3790  50.5370  50.5370  51.3798
    51.4865  51.9125  51.9125  54.0573  54.9969  57.1173  57.9430  57.9430
    58.8676  62.6945  62.9267  63.2643  63.2643  65.2138  67.2228  67.2612
    67.2612  68.3922  69.6074  69.6074  71.0587  71.6573  73.5401  74.9185
    74.9692  74.9692  76.2753  76.2753  76.3565  77.8482  78.0072  78.0072
    79.0323  79.7546  79.8142  79.8674  79.8674  80.3075  82.0040  82.0040
    82.5534  83.0570  83.5179  84.1644  84.1644  84.1699  84.9820  86.1371
    86.4820  86.4820  86.6777  87.5701  89.0135  89.0135  89.2686  89.7903
    89.7903  90.4567  90.6456  90.6456  90.8555  92.3321  93.7319  93.7319
    94.5791  94.5842  94.5842  95.7013  95.9323  96.3481  96.6328  96.7860
    96.7860  97.6551  98.3483 100.1705 100.4489 100.4489 101.3725 101.9177
   102.0589 102.7028 102.7028 104.7028 104.8666 104.8666 104.9674 105.7654
   105.7654 107.1258 108.2666 108.2956 108.2956 109.1360 109.1939 109.2671
   110.3118 110.3118 111.9015 111.9015 112.9792 113.6523 114.7139 114.9115
   114.9115 115.4665 115.6159 115.8507 115.8508 116.1561 116.8594 117.3740
   117.3740 118.5632 119.5318 120.8461 122.2866 122.2866 122.9201 123.2945
   124.6980 124.6980 125.0303 125.3824 125.9813 125.9813 127.4426 128.9359
   129.0897 129.0897 131.1334 132.7449 132.7449 134.3068 134.7969 134.7969
   135.2883 135.4565 136.0402 136.9296 137.6636 137.6636 138.4550 138.6999
   138.6999 138.8430 139.8472 140.1353 140.3081 140.3081 141.4474 142.5157
   142.7952 143.3109 143.3109 143.5571 144.2786 144.2786 145.2375 145.6268
   145.7734 145.7734 146.2146 146.3254 147.0381 147.0381 147.1946 147.3545
   147.3545 147.7078 148.6806 149.3366 149.6208 149.6686 150.5572 150.5572
   151.0088 151.4060 151.4060 151.8288 152.4701 152.8291 152.8291 153.2190
   153.4174 153.4174 154.1464 154.5098 154.5098 154.7124 154.9589 155.9591
   156.2885 156.2885 158.3135 158.3135 158.4390 158.7200 159.2863 159.2863
   159.4660 159.6253 160.0172 160.5485 161.0930 161.0930 161.4340 161.8186
   162.2887 162.2887 163.2261 163.4230 164.1992 164.1992 164.4979 165.9653
   166.5890 167.1105 167.1105 167.1772 167.8642 167.9729 168.2789 168.2789
   168.8943 169.1373 169.1373 169.8701 171.0044 171.8230 171.8230 173.0840
   173.2248 173.7266 173.7266 174.1703 174.2171 174.4245 174.4245 174.9994
   176.0424 176.1354 176.1354 177.5728 177.8543 178.7621 180.6565 180.6565
   181.2760 181.2760 181.5146 182.3457 182.3457 182.4134 182.5286 182.6501
   183.5424 183.5424 184.8276 185.2999 185.9136 186.7135 186.7135 187.7345
   187.7345 188.3246 188.9451 189.4348 190.0423 190.0464 190.0464 191.8825
   192.1895 192.3376 192.6946 192.6946 193.0678 193.3835 193.3835 193.9887
   195.5004 195.9627 196.7698 197.1682 197.1682 197.3612 198.6408 198.6408
   199.6770 200.8131 201.2062 202.0986 202.2661 202.2661 202.4443 202.4443
   202.6333 203.1698 205.9488 205.9488 207.2288 207.5029 207.5090 207.5090
   208.7414 208.7683 208.7683 209.4146 209.4188 209.4188 209.7101 210.4957
   210.4957 210.6302 211.4928 211.4928 211.7182 211.8359 213.0861 213.0987
   213.0987 213.6552 214.0067 214.3322 215.3088 215.3088 215.6937 216.8987
   216.9953 216.9953 217.3376 217.6004 217.8333 217.9848 217.9848 218.6694
   219.0727 219.0727 219.1900 219.9361 220.0482 221.1527 221.1527 221.1643
   221.4271 221.4271 221.6269 222.2552 222.2552 222.4312 222.6789 223.3624
   223.9407 224.0898 224.2557 224.2557 225.4099 225.4748 226.9345 226.9345
   227.9843 228.0730 228.3577 228.3577 229.2960 229.5826 229.9224 229.9224
   230.2112 230.2793 230.2793 230.7015 231.1554 231.2168 231.2168 231.6945
   232.3840 232.7579 232.7579 232.9076 233.5381 233.6059 233.6059 233.7290
   234.7298 234.7469 235.0417 235.0417 235.6036 235.6036 235.8931 236.1858
   237.0973 237.5176 237.5176 237.8387 237.8387 238.0395 238.5024 238.6027
   239.0295 239.8322 239.8322 240.4131 240.4131 241.0387 241.4716 241.5997
   242.4750 242.4750 242.5701 243.2441 243.6279 243.7741 243.7741 243.8816
   244.3814 244.4942 244.4942 244.9045 245.3749 245.3749 245.5166 245.8767
   246.0307 246.0307 246.0317 246.6874 246.6874 246.7803 248.1654 248.5491
   249.0540 249.0540 249.1276 249.3646 249.5856 249.5856 249.5856 249.8662
   250.4636 250.8450 250.8450 251.6835 251.7018 252.2495 252.2495 252.8646
   253.6810 253.8157 253.8157 254.0626 256.8111 257.1199 257.1752 257.1752
   257.3648 258.2389 258.3006 258.3006 258.3142 258.7882 259.5832 259.5832
   260.3195 260.3278 260.3278 261.4713 262.8236 263.5447 263.5512 263.6019
   263.6019 263.7250 264.0142 264.0142 264.1406 265.7250 266.2265 266.2265
   266.7211 267.6112 267.7682 267.7682 268.4912 268.5476 268.5754 268.6353
   268.6353 269.1762 271.4749 271.4749 272.2941 272.2941 272.6322 272.8112
   272.8112 273.3275 273.6940 275.4156 277.4028 277.7555 277.7555 277.8181
   279.4872 280.3624 280.3624 280.5497 280.7157 281.0328 281.1643 281.2765
   281.2765 281.9377 281.9377 282.3960 283.6777 283.9504 283.9504 284.3705
   284.6032 284.7859 284.7859 284.9793 285.3396 286.0528 286.6738 287.8984
   287.8984 288.4766 288.4766 288.5230 288.8233 289.5627 289.6027 289.6027
   289.7669 289.7669 289.8122 289.8743 290.2518 290.5870 291.1106 291.1106
   291.4206 291.7232 293.1472 293.1472 293.9284 294.4778 294.4824 294.4824
   294.7556 295.0144 295.5429 295.5429 295.5466 296.5742 298.2410 298.2410
   298.8272 299.4734 299.9209 300.0586 300.0586 300.1874 300.9176 301.3967
   301.3967 301.6790 301.8181 302.4966 302.4966 302.9959 303.2173 303.2268
   303.3418 303.3418 303.4169 303.4169 303.6581 304.5370 304.7724 304.9404
   304.9404 305.2884 305.5099 305.6606 305.6606 306.0048 306.3159 306.3159
   306.3806 306.8818 306.8834 306.8834 307.6974 307.7880 307.8120 307.8120
   309.2765 309.7581 309.7581 309.8338 310.2210 310.7988 310.9657 310.9748
   310.9748 311.6860 311.9731 311.9731 312.1916 314.1618 314.1885 314.1885
   314.2225 315.9258 315.9258 316.0939 316.2797 317.1135 317.1591 317.1687
   317.1687 317.2183 317.2871 317.3009 317.3009 318.7328 320.1539 321.3022
   321.4160 321.6086 321.6086 321.6105 321.6702 321.6702 321.6983 321.7399
   322.0409 322.0409 322.6125 322.6125 323.9499 323.9561 324.3887 324.5187
   324.5187 325.3004 326.5762 326.5762 328.1872 328.6794 328.8744 328.8889
   328.8889 328.9133 329.8798 329.8798 330.0211 330.0233 330.0913 330.3311
   330.3311 330.4579 330.9287 331.5253 331.8807 331.9090 331.9090 332.0574
   332.3714 332.3714 333.0459 333.3925 333.3925 333.5009 333.6498 334.5142
   334.5142 334.7099 335.7309 336.5393 336.5393 336.9031 337.2022 337.2022
   337.4249 337.5466 338.3820 338.3820 338.7675 338.9094 339.2715 339.2894
   339.2894 339.5988 339.6015 339.6443 339.6443 339.9196 339.9402 339.9402
   340.0175 340.2751 340.2751 340.3971 340.5304 342.4562 342.9620 343.2886
   343.2886 344.0228 344.3138 344.3138 344.6858 344.8501 344.9702 344.9702
   345.2657 346.6946 346.7281 346.8488 346.8488 347.0117 347.0193 347.0193
   347.0500 347.7083 347.9291 347.9291 348.0659 348.8328 348.9402 348.9402
   349.0892 349.7407 349.8610 349.8610 350.3003 350.4870 350.8714 350.8714
   350.8815 352.4682 352.6232 352.6232 352.9118 353.4085 354.0990 354.2396
   354.2396 354.7074 354.9887 355.2051 355.2051 355.8771 355.8771 355.8914
   355.9627 356.0513 356.2221 356.4417 356.4417 356.6600 356.6600 356.9352
   356.9569 357.2794 357.3253 357.3473 357.3473 357.8941 358.7184 358.7184
   359.1760 360.5956 360.7089 360.7089 360.9760 361.2847 361.5230 362.0768
   362.0768 362.2643 362.7516 362.9792 362.9792 363.9822 364.2081 364.3421
   364.4532 364.4578 364.4578 364.6118 364.6118 364.6877 364.7678 364.7678
   364.8874 365.6550 367.8114 367.8319 367.8319 367.8434 367.8940 368.1569
   368.1569 368.2725 368.5144 368.5144 368.8501 369.3683 369.6914 370.1301
   370.3717 370.5819 370.5819 370.7469 370.7469 371.0543 371.5399 372.1442
   372.1442 373.7087 373.9824 375.6829 375.6829 377.4653 377.5158 377.7675
   377.8235 377.8235 378.4030 378.4030 378.5209 378.6210 378.7126 378.7126
   378.9954 379.1589 379.1864 379.1957 379.1957 385.3045 385.6872 385.6872
   385.7950 385.9692 386.0212 386.0212 386.3118 386.4119 386.4600 386.4600
   386.7081 386.9195 387.0197 387.1082 387.1082 387.3928 387.5875 387.5875
   387.6707 388.0054 388.0541 388.0541 388.1198 390.3111 390.3826 390.3826
   390.4594 390.8958 391.0328 391.0328 392.2608 393.1202 393.5728 393.5728
   393.7098 394.1994 394.6708 394.6708 394.6975 394.7818 395.3798 395.3798
   395.5822 395.5855 395.7028 395.7028 396.4841 397.9481 399.2103 399.2103
   399.9713 400.5190 401.3543 401.7034 402.0130 402.0130 402.8329 402.9342
   403.0074 403.0074 403.0319 403.5829 403.5829 405.0155 406.9494 407.2505
   407.3530 407.3530 409.0520 409.1677 409.1677 409.3554 409.8329 410.0316
   410.0316 410.2127 410.8116 410.9124 410.9601 410.9601 411.6410 411.8637
   411.8637 412.1600 412.2781 412.5723 412.5723 412.5952 412.7360 413.0112
   413.0112 413.2175 413.3441 414.6113 414.7213 414.7213 414.8767 415.6973
   415.8163 415.8163 415.9082 416.1342 416.1636 416.1636 416.2083 416.3519
   416.5995 416.5995 416.7136 419.8150 419.8150 419.9334 420.0805 420.6081
   420.6081 421.2320 421.2320 421.3579 421.3611 421.6404 421.9104 423.2609
   423.2609 423.7595 423.9915 424.1007 424.1007 424.1542 424.1977 424.2598
   424.2641 424.2641 425.1409 425.1409 425.8458 426.2622 426.6805 426.6805
   426.8034 426.8042 427.6208 427.8214 427.8214 427.8376 427.9805 428.5712
   428.5712 428.9243 429.4590 429.8470 429.8470 429.9581 430.1059 430.1790
   430.1790 430.2485 430.2874 430.6599 430.6599 430.7352 431.0388 431.0388
   431.1572 431.3130 432.0594 433.5446 433.6920 433.8308 433.8308 434.1011
   434.3855 434.3855 434.6493 434.6493 434.9263 435.9123 436.0001 436.0001
   436.0599 436.9732 437.1743 437.3699 437.8799 437.8799 437.9789 438.1742
   438.1742 438.6082 438.6712 439.1906 439.4097 439.4097 439.6212 439.6631
   439.6631 440.1487 440.5677 440.8196 441.0212 441.0212 441.1632 441.1632
   441.4505 441.5634 441.7367 441.8373 442.1821 442.1821 442.3666 442.4075
   442.4430 442.4430 442.5164 442.7412 442.7485 442.7485 443.2687 443.3109
   443.3109 443.4862 444.2184 444.4210 444.4210 444.5543 445.4730 445.6884
   445.6884 445.7145 445.8492 445.8492 445.8844 445.9818 446.1685 446.2577
   446.3015 446.3015 446.8334 447.6721 447.6918 447.7196 447.7196 448.3345
   448.4502 448.4502 448.5761 449.3471 449.4290 449.4290 449.4385 450.6080
   450.6622 450.7212 450.7212 451.8521 451.9979 451.9979 452.1525 452.4906
   452.9786 452.9786 453.5002 453.7276 454.2145 454.2395 454.2395 454.2773
   454.4896 454.4896 454.6758 455.3966 456.6748 456.7593 456.7593 456.8102
   457.5764 457.6441 457.6441 457.7964 457.7964 457.8497 457.9558 457.9650
   458.3215 458.3215 458.4566 459.0000 459.4329 459.7977 459.7977 460.0790
   461.0577 461.1561 461.1561 461.2396 461.8625 462.0148 462.0148 462.4517

          k =-0.1250 0.3750-0.1250 (  2471 PWs)   bands (ev):

    -6.9351  -6.8482  -6.8453  -6.7412  -6.7227  -3.4388   4.3726   6.4243
     6.4372   9.8662  10.8982  12.6792  12.7313  14.8532  16.7769  17.6782
    19.2230  20.4839  21.4685  24.0774  24.1656  25.2219  26.8678  28.4022
    28.7603  31.0248  32.0460  32.0463  33.6692  34.1952  34.4095  35.6415
    36.8969  38.1690  38.7414  38.9414  39.8137  40.6952  41.6994  42.0105
    42.1715  43.2588  43.4345  44.1205  45.2476  46.0357  46.8885  47.2010
    47.9791  48.4129  49.5975  49.9222  50.2937  51.2955  51.4596  52.6348
    54.0768  54.3865  54.9246  55.2335  56.5688  57.2775  58.4372  59.1593
    60.4670  60.9574  62.3309  62.4486  63.5993  64.8554  66.2441  66.5373
    66.7994  66.9370  69.0267  69.3457  70.2523  71.0124  72.3066  72.6771
    73.3038  73.9591  74.6260  75.0444  76.0013  76.4329  76.9851  77.4250
    78.2277  78.6902  79.0192  79.6837  79.8673  80.3649  81.4311  81.8446
    82.3231  82.6097  82.9966  83.8424  84.1540  84.8069  86.0588  86.5260
    86.6823  87.4895  87.9789  88.5836  88.9541  89.2065  89.7025  89.7501
    90.6865  90.7541  91.1891  92.5151  92.6215  93.3500  93.4517  93.9842
    94.8232  95.6000  95.9997  96.0088  96.4941  96.9360  97.0278  97.9195
    98.2164  98.7567  99.1954  99.3777  99.7950 100.3527 100.3890 101.0822
   101.4742 102.1241 102.1909 103.4786 103.5531 104.6739 105.2653 105.4302
   106.3752 106.8498 107.3792 107.9920 108.3310 109.3121 110.2801 111.0052
   111.0210 111.3275 111.4662 112.1452 112.3007 112.9481 113.2498 114.0534
   114.8857 115.3684 115.5248 116.4799 117.1180 117.8735 119.2324 120.3257
   120.4100 120.8058 121.5428 122.6889 122.8185 123.1002 123.4983 123.7988
   125.0414 125.2965 125.5713 126.8363 127.0527 127.9659 128.0793 129.0130
   129.1902 129.8523 130.4989 130.5725 131.1002 131.2737 132.2399 132.6988
   132.8734 133.5027 133.9781 134.7741 134.8005 135.9596 136.0142 136.3679
   136.9798 137.5187 137.7186 138.4022 138.4286 139.0381 139.6310 140.5608
   140.5694 141.2181 141.8949 142.0194 142.5475 142.8894 143.0130 144.0666
   144.1988 144.7724 145.4666 145.7839 145.8517 146.4434 146.8565 147.7122
   147.8425 148.4893 148.5501 148.7304 149.4864 149.6323 149.9287 150.5879
   151.1126 151.5993 151.9335 152.4202 152.4784 153.2586 153.2641 153.4616
   154.2509 154.4567 155.1971 155.6324 155.7087 156.3551 157.0737 157.3959
   157.9768 158.2572 158.5030 158.8570 159.1609 159.7984 160.2322 160.5113
   160.7981 161.1640 161.1966 162.2251 162.3352 162.6726 162.8662 163.4743
   163.4992 163.9825 164.3315 164.7481 165.2070 165.4190 165.4343 165.5936
   165.6542 165.8042 167.4330 167.9855 168.7453 168.9983 169.3794 169.4528
   170.0369 170.1867 170.5090 170.7333 170.9229 171.2530 171.9173 172.1609
   172.3037 173.0563 173.5414 174.3417 174.4335 174.6691 175.1819 175.7990
   176.4306 176.8700 177.6353 177.7992 178.4679 178.6034 179.5243 180.1610
   180.5812 182.2250 182.4305 182.5579 183.0020 183.1936 183.9188 184.0407
   184.6855 185.3363 186.4895 186.5065 187.0486 187.3936 187.3952 187.9674
   188.0859 188.8919 189.2514 189.5535 190.0830 190.2244 190.6079 191.1548
   191.6200 192.0740 192.6691 193.2622 193.8581 194.5520 194.6884 194.8363
   196.0539 196.3336 196.4617 197.6049 197.7615 197.8789 198.4091 198.5485
   198.8041 199.1919 199.8422 200.3108 200.7951 201.3905 201.4450 202.3284
   202.5811 202.8763 203.4913 203.8815 204.3643 204.7745 204.8918 205.7530
   206.3694 206.7990 207.7188 207.8006 208.4170 208.5512 209.1875 209.4444
   209.8358 210.0076 210.4913 210.5597 210.8411 211.4790 211.6679 212.2674
   212.5347 212.6065 213.0587 213.6258 213.7526 213.9804 214.1774 214.5059
   214.8043 215.3284 216.4300 216.5753 217.0470 217.1573 217.6769 218.3262
   218.6077 218.7246 219.0492 219.2786 219.9874 220.4474 220.5184 220.9534
   220.9963 221.4940 221.6332 222.5134 222.8374 223.1945 223.8273 224.0004
   224.3953 224.5693 224.9756 225.1292 225.5002 225.7385 226.2625 226.5336
   226.8155 226.9334 227.4182 227.7465 227.8193 228.0265 228.7001 228.7830
   229.0464 229.4571 229.8963 230.1406 230.3885 230.5700 230.6358 231.1775
   231.1834 231.6237 231.8719 232.1879 232.4513 232.7109 233.0049 233.0231
   233.4895 233.8631 234.3502 234.5063 234.9496 235.4362 235.7647 236.5641
   236.9380 237.2888 237.3949 237.6841 237.7752 238.4516 238.8697 239.3086
   239.5002 239.8595 240.0575 240.7943 241.0817 241.6131 241.7360 242.0080
   242.0195 242.1156 242.4034 243.3518 243.6114 243.8249 244.0351 244.0595
   244.3228 244.7731 244.8465 245.6390 245.9305 246.1381 246.2614 246.9004
   246.9201 247.2931 247.7458 248.3117 248.7729 248.9909 249.6592 249.9013
   250.5018 251.0949 252.1434 252.2398 252.5354 252.6300 252.6420 252.8760
   252.9629 253.2399 253.6153 253.7230 254.2349 254.5188 255.2878 255.3425
[...]
   245.6473 246.2900 246.4279 246.7327 247.4531 247.6788 248.0414 248.3860
   248.8206 248.9075 250.0712 250.2354 251.7546 252.0450 252.5598 252.7857
   252.8551 253.1703 253.2836 253.6051 254.3055 255.2286 255.5864 256.0647
   256.4630 257.2610 257.3391 257.4886 258.3052 258.3626 258.9210 259.1013
   259.5322 259.8654 260.1117 260.2545 260.7767 261.1522 261.5549 261.9105
   263.1546 263.3195 263.9111 263.9723 264.0288 264.4453 264.6214 264.7180
   265.2428 265.7697 266.6458 266.9425 267.2214 267.5763 267.7667 268.0890
   268.1203 268.2671 269.0546 269.1755 269.5815 269.8407 269.9371 270.1040
   270.4108 270.4642 271.2871 271.5525 271.8176 272.2071 272.4663 272.9759
   273.3915 273.4234 273.4770 273.7241 274.5896 274.6895 274.9723 275.2942
   275.3021 276.0212 276.2015 276.3131 276.4751 276.5956 277.0720 277.1101
   277.8892 277.9928 278.1806 278.2373 278.7266 278.7831 278.8286 278.9761
   279.0511 279.2543 279.5608 279.8178 280.8345 280.9394 281.3075 281.7309
   282.0933 282.3019 282.9683 283.0707 283.3198 283.3633 284.2053 284.2897
   284.5083 284.8010 284.9687 285.2216 285.7683 286.0512 286.3934 286.4012
   286.6010 286.7076 287.0017 287.4260 287.6734 287.7380 288.0703 288.1625
   288.2792 288.4530 289.1012 289.1249 289.4531 289.5500 289.7420 290.8403
   291.5336 291.8476 291.8963 291.9076 292.2953 292.4915 293.2026 293.2886
   293.5191 293.5669 294.5747 294.9968 295.0947 295.1038 295.4897 295.6002
   296.2708 296.3470 296.7440 297.1657 297.4220 297.6674 300.0606 300.0763
   300.4033 300.4777 301.7194 301.7332 302.0425 302.0840 302.2162 302.3422
   302.5057 302.6748 302.6985 302.8430 304.3430 304.8608 305.4757 305.7659
   305.9069 305.9979 306.3140 306.5725 306.6451 306.7265 306.9939 307.5457
   308.1070 308.4395 309.2239 309.4658 309.4973 309.5340 309.9170 309.9622
   310.0845 310.2204 310.3383 310.3467 310.7230 310.7515 311.5688 311.8169
   312.5788 312.8472 313.0801 313.0836 313.1636 313.3913 313.7040 313.8296
   314.6195 314.7022 315.0203 315.3707 315.4367 315.5431 316.0216 316.2083
   317.7128 317.7655 318.0046 318.3419 319.0323 319.0715 319.1250 319.1344
   320.9758 321.0274 321.5824 321.6083 322.1787 322.4747 322.7250 322.7504
   322.8605 322.9959 323.3335 323.4774 323.8281 323.9233 324.8594 325.2313
   326.9454 327.1071 327.1760 327.3390 327.9450 328.2731 328.6382 328.8431
   329.1663 329.4885 329.4918 329.6537 329.6656 330.1029 330.4585 330.5436
   331.6009 331.6149 332.1311 332.2376 332.4810 332.5663 332.6325 332.6552
   333.4139 333.4508 334.1773 334.3299 336.1991 336.2582 337.1668 337.1683
   337.8661 337.9070 339.3093 339.4916 339.9071 339.9337 340.5242 340.5534
   340.8143 340.8937 340.9771 341.0267 341.2486 341.2816 342.4153 342.5995
   343.5366 343.6741 344.0696 344.1509 344.3328 344.4987 344.6407 344.6461
   344.9678 345.0266 345.9249 346.2487 346.3446 346.7557 346.8064 347.4926
   347.5789 347.6963 347.7297 347.7375 348.3316 348.7824 348.8517 349.2303
   350.2847 350.3457 350.5468 350.6466 352.1542 352.2003 352.3511 352.3941
   353.4709 353.5784 354.3797 354.4494 355.2347 355.5030 355.5769 355.6651
   356.4540 356.4542 356.9467 356.9746 357.2873 357.4598 357.5983 357.6342
   357.8657 357.8832 358.2168 358.3112 360.4427 360.5507 360.8964 360.9310
   361.2431 361.5897 361.7071 361.8209 362.0752 362.1611 362.2008 362.6991
   362.7715 363.0503 363.0731 363.1220 363.2509 363.3247 364.5356 364.6793
   364.8185 364.9267 365.0994 365.2241 365.5458 365.6230 366.1285 366.1310
   366.1486 367.0742 367.2632 367.4251 367.4812 367.6492 367.6510 367.7844
   368.1749 368.2711 368.5329 368.5379 368.7263 368.8092 369.4689 369.5060
   369.9962 370.4729 372.0526 372.1915 372.3771 372.4024 372.7558 372.7812
   373.0350 373.0926 373.3266 373.3646 374.2860 374.3251 374.7712 374.8474
   375.0810 375.1101 375.3876 375.4459 376.2508 376.3585 377.5508 377.5594
   377.7322 377.9594 378.2841 378.3365 378.3643 378.3875 379.1014 379.1896
   379.9231 379.9358 381.3982 381.5108 381.5635 381.6381 381.7989 381.8002
   381.8737 381.9083 381.9354 381.9627 382.0051 382.0829 382.1157 382.3665
   382.3923 382.7052 382.9945 383.0482 384.1499 384.1793 384.2515 384.9761
   385.9366 385.9667 386.2045 386.2117 387.8428 387.8657 387.9120 388.0483
   388.0801 388.1428 388.5197 388.5908 388.6980 388.7446 388.8858 389.0573
   389.5046 389.6379 389.7778 389.8758 390.1545 390.1985 390.4719 390.5091
   392.8434 392.9260 393.2618 393.2720 393.6307 393.6829 394.1406 394.1874
   394.6673 394.7593 395.4094 395.4235 395.7841 395.8451 397.5736 397.5777
   397.6074 397.7114 397.9190 398.0893 398.0939 398.1891 398.2370 398.2967
   398.5483 398.7052 398.9335 399.0649 399.2959 399.5035 399.8272 400.3209
   400.4296 400.7371 400.7552 401.0173 401.1012 401.1208 401.3733 401.4877
   403.2100 403.2729 404.0482 404.1419 405.6179 405.6267 406.2068 406.2985
   406.3884 407.4524 407.5723 407.7540 408.3231 408.5378 408.6725 408.8314
   410.3241 410.3308 410.3545 410.3787 410.5849 410.6169 412.7045 412.7149
   412.7884 412.9779 413.1508 413.1772 413.8715 413.9741 414.5647 414.7403
   414.8446 414.8540 415.0894 415.2545 415.4634 415.4837 415.5420 415.5718
   415.5792 415.6733 417.0214 417.0776 417.0968 417.3157 418.5741 418.8905
   419.3203 419.5931 419.7393 419.8555 419.9122 419.9933 420.2911 420.3196
   420.3753 420.4856 421.2226 421.2381 421.4279 421.4378 421.7228 421.8299
   421.9964 422.1138 422.5103 422.5550 422.8087 422.8933 423.1277 423.4148
   423.4168 423.4612 423.8044 424.0059 424.2198 424.2321 424.5847 424.6272
   426.4223 426.5519 426.8886 426.9102 427.3494 427.5779 427.6628 427.8008
   427.8235 428.0709 428.0732 428.2471 428.6066 428.7789 428.7892 428.9986
   429.3963 429.4023 430.4322 430.4954 430.7834 430.7974 433.0145 433.1237
   433.2079 433.2576 433.2904 433.3497 433.6371 433.6717 433.6796 433.6928
   434.6809 434.8039 435.1028 435.1222 436.5012 436.6083 437.3784 437.6951
   438.0928 438.0998 438.3416 438.3935 439.3393 439.3764 439.4966 439.5092
   440.3591 440.3970 440.6049 440.6122 441.5243 441.6850 441.8237 441.8339
   442.2485 442.3151 442.8595 442.8664 443.2422 443.2652 443.9275 444.0140
   444.5437 444.5593 444.9740 445.0128 445.0252 445.0595 445.3431 445.3869
   445.9091 446.0959 446.2182 446.2565 446.7944 446.9821 448.1590 448.1927
   448.4780 448.5625 448.6576 448.7243 449.2772 449.3067 449.3919 450.5980
   450.8150 450.9941 451.3659 451.5964 451.8057 451.9944 452.1282 452.1629
   453.0244 453.0892 453.1143 453.1576 453.6652 453.7217 454.1987 454.2069
   454.4128 454.4132 457.8416 458.0683 458.2408 458.8091 458.8536 459.0391
   459.0636 459.1490 459.2664 459.5176 459.5697 459.5769 459.8680 460.1556
   460.1785 460.3222 460.4151 460.5743 460.6040 460.6363 461.5574 461.5877
   461.5936 461.6496 462.7466 462.8611 464.0372 464.0395 465.4608 465.5297
   465.5826 465.6595 466.4004 466.5072 466.5464 466.9526 467.5055 467.6321

          k =-0.5000-1.0000 0.0000 (  2468 PWs)   bands (ev):

    -7.0116  -6.8193  -6.7853  -6.7510  -6.7180  -1.6995   1.8163   4.4664
     4.5183  11.6238  11.6262  12.8545  13.5477  17.3470  18.5422  19.3011
    19.3365  21.8047  23.8668  24.5735  24.6611  24.8042  25.7523  26.2370
    29.0714  31.0243  31.1327  31.1526  31.4972  31.5508  32.6566  32.9143
    33.5938  34.5216  37.6078  37.9049  39.7105  40.2544  40.5020  40.7919
    41.1003  42.4751  44.8404  47.3425  47.5379  48.0406  48.5654  49.0628
    49.4190  49.8754  50.3535  51.6456  51.7095  52.9267  55.0738  55.8594
    55.8897  56.3460  56.5341  58.1592  58.3342  58.4158  59.3061  59.4878
    60.3605  60.3892  61.4920  63.2032  63.5434  64.8962  64.9180  65.2558
    66.6484  66.9962  69.2784  69.3271  70.1169  70.9792  71.2990  71.5714
    71.7446  72.4405  72.4961  73.1461  73.4440  73.7605  74.5652  75.2365
    75.6210  76.1055  76.3644  77.1073  77.5903  77.9143  77.9811  80.0796
    81.2090  81.2975  81.9518  82.3490  82.9680  83.2467  84.4773  85.1740
    85.5291  85.8208  85.9780  87.2958  87.9397  88.3309  89.0719  89.2120
    89.8825  90.4933  91.4212  94.4449  94.9150  95.2586  95.7958  96.3348
    96.3613  97.3337  98.3272  98.4394  98.9775  99.3230 100.1366 100.5026
   100.8691 100.9081 101.7003 102.0614 102.4119 102.7741 103.3148 103.8021
   104.5256 104.8098 105.5615 106.3573 106.3833 106.8098 106.9357 108.1148
   108.1746 108.6999 109.0107 109.7471 109.8001 110.1960 110.3018 110.5032
   112.0609 112.1049 112.5726 112.7366 113.4422 113.6978 113.9223 114.3206
   114.6709 116.0455 116.3061 117.0155 118.0969 118.4609 119.0652 119.7382
   120.3035 121.1059 121.2373 121.4953 121.7115 122.6266 122.6901 124.0044
   124.0957 124.5057 124.9175 125.3015 125.5597 125.7110 125.8050 126.3078
   126.5369 127.0799 127.9724 128.0233 128.5718 129.4856 129.8857 130.1040
   130.7085 130.7742 131.3055 132.4667 132.6003 132.7405 133.0646 133.5533
   133.7741 134.8291 134.8436 135.5111 135.5675 136.3176 137.0060 137.2173
   137.6010 138.2356 138.9193 139.4330 140.0915 140.8212 141.1100 143.6963
   144.3611 144.5570 144.9722 145.4290 145.7700 146.2234 146.4122 146.6138
   147.1523 147.6312 148.4566 148.6656 149.0293 149.2130 149.4977 149.5999
   150.3682 150.7909 151.2474 152.0264 152.6041 152.7227 153.8541 153.8583
   154.9849 155.4200 155.5059 155.7742 155.8574 156.0458 156.6282 157.4652
   159.6008 159.6485 159.6690 159.6800 160.1520 160.1612 160.4921 160.7046
   162.6996 162.8305 162.9737 164.5867 164.6550 164.7040 164.9516 165.1214
   165.4024 165.5723 166.1211 166.2801 166.2928 166.4092 166.8222 167.2630
   167.5476 168.1771 169.6764 169.9679 170.1137 171.3203 171.5153 171.7326
   171.9993 172.2565 172.4872 173.1361 173.3972 176.1677 176.1779 176.6412
   178.5282 178.8039 178.9122 179.0975 179.6670 179.7606 179.8295 180.0821
   180.3160 180.7024 180.9244 181.4190 181.5995 181.9127 181.9151 181.9787
   182.2274 182.4954 182.7279 182.9077 183.0778 183.0942 183.2799 183.7377
   184.6861 185.4721 185.8860 186.3289 187.0438 187.6236 187.7627 189.3264
   189.6073 189.7632 189.9089 190.4038 190.8102 191.1695 191.3567 192.0677
   192.0888 192.1438 192.2376 192.7868 192.9703 193.7993 193.9759 193.9983
   194.4589 194.8199 195.0453 195.4012 195.7786 196.0497 196.7030 197.3138
   198.6875 198.7234 198.8740 199.9726 199.9960 200.1863 200.2209 200.3463
   200.5482 200.6938 200.9099 201.0684 201.0959 201.2110 201.2456 202.0807
   203.1692 203.8285 203.8355 204.0488 205.6688 205.6756 205.7452 205.7801
   206.2894 206.3387 206.4187 206.4265 207.7931 208.0717 208.0755 208.3624
   208.9256 208.9771 209.2350 210.1873 210.3528 210.9928 211.2609 211.6164
   211.7056 211.7889 211.9299 212.1890 214.6935 214.9589 215.2647 215.3139
   215.9726 216.3097 216.3373 216.6475 217.2749 217.6654 217.7337 218.3128
   219.1890 220.2355 220.5396 220.5524 221.5137 221.5456 221.7134 222.0175
   223.0768 223.1113 223.4349 223.4961 224.5802 224.7183 224.7671 224.8319
   225.7927 225.9713 226.0080 226.5700 228.1162 228.2201 228.9882 229.0118
   229.9244 230.0545 230.3263 230.5363 231.9144 232.3993 232.5584 232.7571
   232.8244 233.2206 233.3524 233.3625 233.5771 233.8626 234.1726 234.2783
   234.3612 234.4298 234.7320 234.8093 235.7430 235.9204 236.0642 236.0807
   237.6699 237.7747 238.0476 238.0500 238.8196 238.8373 239.4945 239.5370
   239.7267 239.8056 240.7846 240.8998 242.1075 242.4861 242.6334 242.6854
   242.7963 244.4848 244.8927 245.2938 246.5363 246.6150 246.7883 246.9050
   247.0131 247.6528 247.9061 248.0060 248.0821 248.2098 248.5900 248.8001
   249.4486 249.7911 249.8047 250.3452 250.6747 251.1983 251.7309 251.7528
   252.0905 252.4049 252.6979 253.0661 253.8034 253.9779 254.3846 254.5965
   256.5834 256.7468 256.9774 256.9992 257.4507 257.5051 257.5575 257.7728
   257.9951 257.9984 258.0261 258.2858 258.9277 258.9560 259.0687 259.6634
   259.7063 259.7837 260.2366 260.3104 262.4140 264.0409 264.8071 264.9552
   265.1744 265.2252 265.9959 266.3628 267.4535 267.5668 267.6066 267.8384
   268.5238 268.5858 268.9705 269.2577 269.3583 269.7338 269.9713 270.2835
   271.3272 271.3515 271.5120 272.6089 272.6284 272.6643 273.0868 273.0899
   273.3785 273.8654 274.4844 275.0099 275.1972 275.4239 275.5973 275.7628
   276.0106 276.0219 276.5974 276.9573 277.1479 277.4181 277.5759 277.7579
   277.9163 278.1699 278.2361 278.3042 278.4853 278.5507 278.5742 278.9797
   280.4754 280.7211 280.9666 281.2982 281.3217 281.6939 281.7073 282.0925
   282.1759 282.2486 282.2981 282.3890 282.8364 282.9484 283.0133 283.0669
   284.4578 284.5823 284.6088 284.6994 284.9051 284.9524 285.0564 285.0955
   287.1047 287.1260 287.2601 287.2797 287.6538 287.7482 287.8143 288.0564
   288.4528 288.5035 288.5336 288.6102 290.7062 290.9074 290.9216 291.2101
   292.9644 293.1228 293.2689 293.4718 294.2228 294.2452 294.3381 294.3401
   295.1688 295.4529 295.4982 295.6341 296.5589 296.7666 296.9622 297.0574
   298.1763 298.4186 298.4284 298.5961 299.0370 299.2554 299.4877 299.8426
   300.2199 300.2250 300.3622 300.4147 300.5455 300.7448 301.1621 301.1783
   301.1981 301.3782 301.4847 301.8945 302.2680 302.2870 302.2985 302.4449
   306.2010 306.9034 307.3697 307.4357 308.2114 308.2892 308.3654 308.3708
   309.4480 309.6360 309.6637 309.7447 309.8280 310.0208 310.1290 310.4029
   310.5923 310.7072 310.7188 310.9337 311.1724 311.4075 311.4533 311.4898
   311.5808 311.5873 311.6399 311.7703 311.8165 311.8726 312.0301 312.0889
   313.4330 313.4348 313.8196 313.8455 316.8841 317.5281 317.7573 317.9179
   317.9842 318.2220 318.4442 318.5200 319.7544 319.8719 319.8937 320.0625
   320.0988 320.7729 320.8136 320.8260 320.9612 321.1129 321.2278 321.3196
   321.5889 321.7115 321.7422 321.8662 323.3508 323.6288 323.7248 323.7809
   324.7436 324.7878 324.9338 325.6333 327.5777 327.5883 327.7270 327.7564
   328.2705 328.3855 328.3982 328.4069 329.3390 329.3551 329.3874 329.4206
   330.0697 330.0717 330.4869 330.5578 334.0640 334.0748 334.3671 334.5278
   334.6896 334.7320 335.0358 335.0795 338.0610 338.1600 338.3490 338.4265
   339.0646 339.1598 339.1608 339.3087 340.3490 340.4835 340.4848 340.5178
   342.2302 342.2409 342.2969 342.5699 342.7304 342.7828 342.8022 343.0319
   343.2466 343.5503 343.6649 343.6876 346.2534 346.3075 346.3350 346.3656
   346.5217 346.5592 346.5674 346.5859 347.4943 347.7690 348.0474 348.3286
   348.3868 349.1591 349.2328 349.4288 349.9023 350.0163 350.5861 350.7775
   352.1771 352.2395 352.5065 352.6403 352.7667 352.8402 352.8488 352.8938
   353.0294 353.0367 353.1621 353.2466 353.5171 353.8140 354.0687 354.3573
   355.5117 355.5776 355.6031 355.6133 358.0148 358.0376 358.1559 358.3697
   358.7349 358.7885 358.9302 358.9547 360.0920 360.2209 360.5461 360.5809
   360.9935 361.0205 361.1556 361.3589 361.7013 361.7404 361.7864 361.8073
   362.6854 362.8002 362.8389 362.9113 363.1133 363.1334 363.2056 363.3173
   364.0006 364.0108 364.0175 364.0458 364.6627 364.7529 364.8963 364.9002
   364.9321 364.9500 365.0798 365.3556 365.5066 365.7856 365.8808 365.9976
   368.3889 368.4729 368.7152 368.7455 369.2853 369.3010 369.6956 369.7583
   370.4584 370.4675 370.8108 370.9282 371.1665 371.3409 371.4288 371.5912
   371.7269 371.7408 371.7437 371.7669 371.9569 371.9674 371.9779 372.0077
   372.1547 372.2022 372.2413 372.2773 376.7641 376.7858 376.7885 376.9168
   378.8490 378.8708 378.9650 379.0618 379.1614 379.3214 379.3992 379.4918
   380.0584 380.0851 380.7276 380.7368 380.9301 380.9435 380.9966 381.0281
   382.5726 382.6684 382.7557 382.8153 383.4553 383.5933 383.6024 383.6093
   384.1557 384.2685 384.2742 384.5449 384.7313 384.7529 384.8426 384.8725
   385.8517 385.8660 385.8781 385.9016 386.1402 386.6220 386.6652 386.7057
   386.7610 386.7818 387.8537 387.8624 389.0658 389.1322 389.1411 389.1954
   390.3312 390.3909 390.5220 390.5890 391.0336 391.2879 391.3219 391.5435
   392.7634 392.7885 392.8617 392.8761 392.9306 392.9382 393.1541 393.1977
   397.1445 397.1525 397.1716 397.1746 397.7599 397.7650 397.7986 397.7996
   400.4502 400.6295 400.6380 400.7588 401.0699 401.1056 401.9907 402.1909
   402.4679 402.5380 402.6449 402.6580 403.2074 403.2083 403.2098 403.3181
   403.7391 403.7459 403.7721 403.8088 403.9715 403.9988 404.0746 404.1204
   404.1456 404.2700 404.2717 404.3599 404.7469 404.8554 405.3581 405.4401
   407.3371 407.4334 407.7474 407.7724 408.2706 408.2826 408.3435 408.3702
   409.0101 409.0369 409.1222 409.2442 410.6205 410.6230 410.6933 410.6941
   411.6722 411.7731 411.7822 411.7889 413.2964 413.4162 413.4597 413.6220
   413.6423 413.7764 413.8046 413.8701 414.2534 414.4112 414.4634 414.6497
   415.1935 415.2199 415.2475 415.2659 415.2961 415.3473 415.4416 415.4457
   415.8635 415.9792 416.0059 416.0820 416.9831 417.0127 417.0263 417.1442
   417.4772 417.4850 417.4883 417.4950 422.1366 422.1749 422.2528 422.6569
   423.1363 423.2114 423.2268 423.2753 423.3177 423.3283 423.5269 423.5273
   424.4458 424.4495 424.5141 424.5263 425.0779 425.1899 425.2114 425.2328
   426.4011 426.4054 426.4212 426.5001 427.8983 427.9102 427.9214 427.9268
   428.0698 428.0982 428.1030 428.1298 429.5929 429.6836 429.7228 429.9586
   431.7171 431.7201 431.7340 431.7519 432.1893 432.2047 432.4899 432.4976
   433.1294 433.1811 433.4542 433.4985 435.6170 435.7801 435.8333 436.1681
   436.1743 436.3580 436.4519 436.5659 436.5955 436.6061 436.8605 436.9279
   437.9210 437.9284 437.9600 438.0198 439.0408 439.0818 439.1072 439.1488
   439.5684 439.6119 439.8429 439.8448 439.9623 439.9830 440.0313 440.0406
   440.2237 440.2497 440.2509 440.2732 441.0615 441.0617 441.1208 441.1297
   441.6177 441.6246 441.7037 441.7100 441.9579 442.0701 442.0709 442.1099
   445.2476 445.5256 445.6158 445.7547 448.3565 448.3843 448.4806 448.5790
   448.7338 448.8476 448.8803 448.9089 449.7592 449.7604 449.8332 449.8348
   451.3048 451.3078 451.3098 451.3166 454.1075 454.1754 454.1860 454.2369
   454.4971 454.5617 454.5723 454.7671 456.5835 456.6259 456.6399 456.7818
   456.9384 456.9924 457.0049 457.1152 457.3450 457.5195 457.5366 457.5957
   458.2543 458.2581 458.3118 458.3151 458.5055 458.5129 458.6499 458.6657
   459.5965 459.6794 459.6889 459.7065 460.2206 460.3089 460.3602 460.3953
   462.0710 462.1121 462.1408 462.1436 463.4716 463.5008 463.5014 463.5047
   466.2896 466.3165 466.3175 466.3737 466.4657 466.4666 466.4921 466.4997

     the Fermi energy is     7.8002 ev
     (compare with:     7.6136 eV, computed in scf)

     Writing all to output data dir out/mp-20351.save/
 
     init_run     :      0.02s CPU      0.03s WALL (       1 calls)
     electrons    :    736.51s CPU    783.52s WALL (       1 calls)

     Called by init_run:
     wfcinit      :      0.00s CPU      0.00s WALL (       1 calls)
     potinit      :      0.01s CPU      0.01s WALL (       1 calls)
     hinit0       :      0.01s CPU      0.01s WALL (       1 calls)

     Called by electrons:
     c_bands      :    736.50s CPU    783.47s WALL (       1 calls)
     v_of_rho     :      0.00s CPU      0.00s WALL (       1 calls)

     Called by c_bands:
     init_us_2    :      0.00s CPU      0.00s WALL (      15 calls)
     init_us_2:cp :      0.00s CPU      0.00s WALL (      15 calls)
     paro_k       :    713.26s CPU    758.54s WALL (      15 calls)

     Called by paro_*:
     h_psi        :     16.62s CPU     17.62s WALL (    1659 calls)
     g_psi        :      0.35s CPU      0.40s WALL (  157183 calls)

     Called by h_psi:
     h_psi:calbec :      0.39s CPU      0.42s WALL (    1659 calls)
     vloc_psi     :     15.86s CPU     16.82s WALL (    1659 calls)
     add_vuspsi   :      0.22s CPU      0.23s WALL (    1659 calls)

     General routines
     calbec       :      0.39s CPU      0.41s WALL (    1659 calls)
     fft          :      0.00s CPU      0.00s WALL (      10 calls)
     fftw         :     14.19s CPU     15.06s WALL (  257306 calls)
 
     Parallel routines
 
     PWSCF        :  12m17.59s CPU  13m 5.54s WALL

 
   This run was terminated on:  21:46:58  17Nov2023            

=------------------------------------------------------------------------------=
   JOB DONE.
=------------------------------------------------------------------------------=
