
     Program PWSCF v.7.1 starts on 17Nov2023 at 20:16:56 

     This program is part of the open-source Quantum ESPRESSO suite
     for quantum simulation of materials; please cite
         "P. Giannozzi et al., J. Phys.:Condens. Matter 21 395502 (2009);
         "P. Giannozzi et al., J. Phys.:Condens. Matter 29 465901 (2017);
         "P. Giannozzi et al., J. Chem. Phys. 152 154105 (2020);
          URL http://www.quantum-espresso.org", 
     in publications or presentations arising from this work. More details at
     http://www.quantum-espresso.org/quote

     Parallel version (MPI), running on     8 processors

     MPI processes distributed on     1 nodes
     123546 MiB available memory on the printing compute node when the environment starts
 
     Reading input from pw_mp-20351_nscf_k60_E56.in
Warning: card &IONS ignored
Warning: card / ignored
Warning: card &CELL ignored
Warning: card / ignored

     Current dimensions of program PWSCF are:
     Max number of different atomic species (ntypx) = 10
     Max number of k-points (npk) =  40000
     Max angular momentum in pseudopotentials (lmaxx) =  4

     Atomic positions and unit cell read from directory:
     out/mp-20351.save/
     Atomic positions from file used, from input discarded
 
 
     R & G space division:  proc/nbgrp/npool/nimage =       8
     Subspace diagonalization in iterative solution of the eigenvalue problem:
     one sub-group per band group will be used
     scalapack distributed-memory algorithm (size of sub-group:  2*  2 procs)

 
     Parallelization info
     --------------------
     sticks:   dense  smooth     PW     G-vecs:    dense   smooth      PW
     Min         119     119     35                 2448     2448     389
     Max         120     120     36                 2452     2452     391
     Sum         955     955    283                19603    19603    3119
 
     Using Slab Decomposition
 


     bravais-lattice index     =            2
     lattice parameter (alat)  =      11.1569  a.u.
     unit-cell volume          =     347.1883 (a.u.)^3
     number of atoms/cell      =            2
     number of atomic types    =            2
     number of electrons       =        18.00
     number of Kohn-Sham states=         1200
     kinetic-energy cutoff     =      56.0000  Ry
     charge density cutoff     =     224.0000  Ry
     Exchange-correlation= PBE
                           (   1   4   3   4   0   0   0)

     celldm(1)=  11.156853  celldm(2)=   0.000000  celldm(3)=   0.000000
     celldm(4)=   0.000000  celldm(5)=   0.000000  celldm(6)=   0.000000

     crystal axes: (cart. coord. in units of alat)
               a(1) = (  -0.500000   0.000000   0.500000 )  
               a(2) = (   0.000000   0.500000   0.500000 )  
               a(3) = (  -0.500000   0.500000   0.000000 )  

     reciprocal axes: (cart. coord. in units 2 pi/alat)
               b(1) = ( -1.000000 -1.000000  1.000000 )  
               b(2) = (  1.000000  1.000000  1.000000 )  
               b(3) = ( -1.000000  1.000000 -1.000000 )  


     PseudoPot. # 1 for In read from file:
     /usr/scratch4/magr4985/MG/HTDF/pseudo/SG15/In.upf
     MD5 check sum: 2123f823f6143602c63cd302e3a0bdd6
     Pseudo is Norm-conserving, Zval = 13.0
     Generated using ONCVPSP code by D. R. Hamann
     Using radial grid of  602 points,  6 beta functions with: 
                l(1) =   0
                l(2) =   0
                l(3) =   1
                l(4) =   1
                l(5) =   2
                l(6) =   2

     PseudoPot. # 2 for P  read from file:
     /usr/scratch4/magr4985/MG/HTDF/pseudo/SG15/P.upf
     MD5 check sum: 0688a67b2b263c6b42d3d97c42745426
     Pseudo is Norm-conserving, Zval =  5.0
     Generated using ONCVPSP code by D. R. Hamann
     Using radial grid of  602 points,  4 beta functions with: 
                l(1) =   0
                l(2) =   0
                l(3) =   1
                l(4) =   1

     atomic species   valence    mass     pseudopotential
        In            13.00   114.81800     In( 1.00)
        P              5.00    30.97380     P ( 1.00)

     24 Sym. Ops. (no inversion) found



   Cartesian axes

     site n.     atom                  positions (alat units)
         1           In  tau(   1) = (   0.0000000   0.0000000   0.0000000  )
         2           P   tau(   2) = (  -0.2500000   0.2500000   0.2500001  )

     number of k points=     8  Gaussian smearing, width (Ry)=  0.0005
                       cart. coord. in units 2pi/alat
        k(    1) = (   0.0000000   0.0000000   0.0000000), wk =   0.0312500
        k(    2) = (  -0.2500000   0.2500000  -0.2500000), wk =   0.2500000
        k(    3) = (   0.5000000  -0.5000000   0.5000000), wk =   0.1250000
        k(    4) = (   0.0000000   0.5000000   0.0000000), wk =   0.1875000
        k(    5) = (   0.7500000  -0.2500000   0.7500000), wk =   0.7500000
        k(    6) = (   0.5000000   0.0000000   0.5000000), wk =   0.3750000
        k(    7) = (   0.0000000  -1.0000000   0.0000000), wk =   0.0937500
        k(    8) = (  -0.5000000  -1.0000000   0.0000000), wk =   0.1875000

     Dense  grid:    19603 G-vectors     FFT dimensions: (  40,  40,  40)

     Estimated max dynamical RAM per process >      98.27 MB

     Estimated total dynamical RAM >     786.19 MB

     The potential is recalculated from file :
     out/mp-20351.save/charge-density

     Starting wfcs are random

     Band Structure Calculation
     ParO style diagonalization

     ethr =  5.00E-06,  avg # of iterations =  6.6

     total cpu time spent up to now is      616.6 secs

     End of band structure calculation

          k = 0.0000 0.0000 0.0000 (  2445 PWs)   bands (ev):

    -6.8742  -6.8742  -6.8742  -6.7319  -6.7319  -4.0441   7.3249   7.3249
     7.3249   7.9173  11.4290  11.4290  11.4290  15.8074  16.7300  16.7300
    18.5220  18.5220  18.5220  21.1634  28.8766  28.8766  28.8766  31.0253
    31.1118  31.1118  31.1118  31.8547  31.8547  31.8583  31.8583  31.8583
    40.0505  40.9348  40.9348  41.9463  41.9463  41.9463  42.5142  44.4346
    44.4346  44.4346  45.3722  45.3722  45.3722  45.9241  45.9241  45.9241
    47.1018  47.1018  47.1018  47.6085  47.6085  47.6085  50.6980  51.0093
    51.0093  53.5219  53.5219  53.5219  53.7042  54.0444  54.0444  54.0444
    60.9776  63.4933  63.4933  64.5878  64.5878  64.5878  68.1924  68.1924
    68.1924  69.0514  69.1301  69.1301  69.1301  74.8006  74.8006  76.4092
    76.4092  76.4092  76.6433  76.7066  76.7066  76.7066  78.5627  78.5627
    79.0406  79.0406  79.0406  82.9293  82.9293  82.9293  83.4423  83.4423
    83.4423  83.5279  83.5279  83.5279  85.1024  85.1024  85.1024  85.3747
    85.3747  86.4828  86.6698  87.5509  87.5509  87.5509  87.6186  87.6186
    87.6186  87.6879  87.6879  88.0142  88.0142  88.0142  92.7112  94.0652
    94.0652  94.0652  98.0990  98.0990  98.0990  98.2553  98.2553  98.2553
    99.2901  99.2901  99.2901  99.7303  99.8360  99.8360  99.8360 100.6512
   100.6512 101.4242 101.4242 101.4242 101.7477 101.7477 104.9646 107.5058
   108.6252 108.6252 108.6252 109.5557 109.5557 111.2181 111.2181 111.2181
   112.1342 112.7377 112.7377 112.7377 113.6498 113.6498 113.6498 113.9000
   114.3332 114.3332 114.3332 114.5092 114.5092 114.5092 115.6634 115.6634
   115.6634 118.0007 118.0007 118.0007 119.0436 119.0436 122.5402 124.2934
   124.2934 124.2934 124.6589 124.6589 124.6589 126.0127 126.0127 126.0127
   128.4674 128.4674 130.2848 134.8372 134.8372 134.8372 135.7709 137.2117
   137.2117 138.2066 138.2066 138.2066 139.4671 139.4671 139.4671 141.1350
   141.1350 141.1350 142.9306 142.9306 142.9306 144.5642 144.5642 144.5642
   144.9909 144.9909 145.9588 145.9588 145.9588 146.1025 146.1025 146.1025
   146.3640 147.7225 147.7225 147.7225 147.7833 148.0237 148.0237 148.4718
   148.4718 148.4718 149.1973 149.5880 149.5880 149.5880 150.0564 150.0564
   150.0564 150.5404 150.6158 150.6158 150.6158 151.1088 151.1088 151.3937
   152.4648 152.4648 152.4648 152.6206 152.6206 154.1304 154.1304 154.1304
   154.8335 154.8335 154.8335 155.2207 155.2207 155.2207 155.4748 155.4748
   155.5877 155.5877 155.5877 158.0347 158.0347 160.8935 160.8935 160.8935
   161.6422 163.0038 163.0038 163.0038 167.3813 167.3813 167.3813 167.4971
   168.2288 168.2288 168.2288 168.3536 168.3536 168.3536 168.6515 168.6515
   170.2504 170.2504 170.2504 170.7345 170.7345 170.7345 171.7568 171.9817
   171.9817 172.0505 172.0505 172.0505 172.1441 176.7871 176.7871 176.7871
   177.4068 177.4068 177.4068 178.0664 178.0664 178.0664 178.4284 178.4284
   178.4284 179.0905 179.0905 180.2727 183.2772 183.2772 183.2772 184.6742
   184.6742 184.6742 185.0465 185.0465 186.2196 186.2196 186.2196 186.6036
   187.2883 187.2883 187.2883 187.4563 187.4563 187.4563 188.1473 188.1473
   188.5394 188.5394 188.5394 192.7183 192.7183 192.7183 194.6650 194.6650
   197.0917 198.5564 198.5564 198.5564 199.8454 200.6077 200.6077 200.6077
   201.6548 201.6548 201.6548 202.0997 202.0997 203.1548 203.9502 203.9502
   203.9502 206.7446 206.7446 206.7446 207.1333 207.3849 207.3849 207.7643
   207.7643 207.7643 208.5989 208.5989 208.5989 210.5656 210.6975 210.6975
   210.6975 211.9246 211.9246 211.9693 211.9693 211.9693 213.5809 215.9925
   215.9925 215.9925 216.3860 216.3860 216.3860 216.5353 216.5353 216.5353
   216.6298 216.6298 216.6298 220.4851 220.4851 220.5438 220.5438 220.5438
   220.5696 220.6814 220.6814 220.6814 220.7478 220.7478 220.7478 220.8209
   220.8560 220.8560 220.8560 222.0501 222.0501 222.0501 223.3350 223.3350
   223.4552 223.4552 223.4552 224.8671 225.1260 225.1260 225.1260 225.9256
   225.9256 225.9256 226.5688 226.5688 227.3244 229.5165 229.5165 229.5165
   229.5756 229.5756 229.5756 230.6157 230.6157 230.6157 231.0237 231.0237
   231.0237 232.1386 232.1386 235.7752 235.7752 235.7752 235.8876 235.8876
   236.8832 236.8832 236.8832 237.3695 237.3695 237.3695 237.4064 237.4064
   237.4064 238.3110 238.3110 238.3110 238.4515 238.4515 238.7405 238.8636
   240.0715 240.0715 240.0715 240.1458 240.1458 240.1458 240.3725 240.6183
   240.6183 240.6183 240.9803 241.8002 241.8002 245.4355 245.4355 245.4355
   246.5205 246.5205 246.8607 246.8607 246.8607 246.8850 246.8850 246.8850
   247.2368 247.2368 247.2368 248.5108 249.2459 249.2459 249.2459 249.5283
   249.5700 249.5700 249.5700 251.4272 251.4272 251.4922 251.4922 251.4922
   251.5432 251.5432 251.5432 251.8624 251.8624 251.8624 251.8644 251.8644
   251.8644 252.1574 252.1574 252.2495 252.5814 252.5814 252.5814 252.9712
   252.9712 252.9712 253.3395 253.4444 253.4444 253.4920 253.4920 253.4920
   253.5284 253.5284 253.5284 253.7171 253.7171 253.7171 253.9929 253.9929
   254.0043 254.0043 254.0043 267.1587 267.1587 268.3097 268.3097 268.3097
   268.5764 269.5081 269.5081 269.5081 271.1969 271.1969 271.1969 271.2664
   271.4819 271.4819 273.6439 275.4997 275.4997 275.4997 277.7768 277.7768
   277.7768 278.2953 278.2953 278.4106 278.4106 278.4106 278.7623 278.7623
   278.7623 279.8431 280.1037 280.1037 280.1037 282.5674 282.5674 282.5674
   282.7642 283.3035 283.3035 283.9968 283.9968 283.9968 285.9327 288.7726
   288.7726 288.7726 288.9357 288.9357 288.9357 289.1766 289.1766 289.1766
   289.2634 289.2634 289.2634 290.0735 290.0735 291.1393 291.1393 291.1393
   291.3160 291.3160 291.3160 291.5024 291.5024 291.5900 291.5900 291.5900
   291.6531 291.6531 291.6531 292.3788 292.3788 292.3788 292.3814 292.3814
   292.4718 293.6563 293.6563 293.6563 294.2467 294.2467 294.9169 294.9169
   294.9169 294.9886 294.9886 294.9886 295.1220 300.2408 300.2408 300.9784
   300.9784 300.9784 302.1948 302.5784 302.5784 302.5784 303.5475 303.5475
   303.5475 303.6707 303.6707 303.6707 303.9825 303.9825 304.5758 304.5758
   304.5758 305.2085 305.5653 305.5653 305.5653 305.5998 305.5998 305.5998
   305.6971 305.6971 305.6971 307.1392 307.3312 307.3312 307.3312 307.4344
   307.4344 313.3562 313.3753 313.3753 313.3753 313.8521 313.8521 313.8521
   314.5965 316.5900 316.5900 316.5900 316.6102 316.6102 316.6807 316.6807
   316.6807 317.0987 317.0987 317.0987 317.3133 317.8890 317.9585 317.9585
   318.0706 318.0706 318.0706 318.2376 318.2376 318.2376 318.3088 318.3088
   318.3088 319.6873 319.6873 319.7878 319.7878 319.7878 320.1999 320.1999
   320.1999 320.4469 320.4469 320.4469 320.6804 323.7550 323.7550 323.8726
   323.8726 323.8726 324.0159 324.0159 324.0159 324.3093 324.3093 324.3093
   324.6071 326.4718 326.4718 326.4877 326.4877 326.4877 326.4907 326.4907
   326.4907 326.6030 326.6030 326.6030 326.6509 336.3582 336.3582 336.3582
   336.4073 336.4073 336.8508 337.4258 337.4258 337.4258 337.4703 337.4703
   337.8391 338.3280 338.3280 338.3280 339.2400 339.2400 339.2400 339.2562
   339.2562 339.2562 339.5039 339.5039 339.5039 340.6260 340.6260 340.6338
   340.6338 340.6338 340.6651 341.3771 341.3771 341.3771 342.0865 342.1719
   342.1719 342.1719 343.5734 343.5734 343.5734 344.4863 344.4863 344.4863
   344.9581 344.9581 344.9581 345.2410 345.8119 345.8119 347.3148 347.3148
   347.3148 347.7171 347.7171 349.2416 349.4725 349.4725 349.4725 349.5179
   349.5179 350.6366 350.6366 350.6366 351.5810 351.5810 351.5810 351.6745
   351.6745 351.6745 352.0604 352.0604 352.0604 352.4120 352.4120 352.8034
   352.8034 352.8034 352.8832 352.8832 353.6075 353.6075 353.6075 354.1418
   354.4625 354.5085 354.6854 354.6854 354.6854 355.2001 355.2001 355.2001
   355.2723 355.2723 355.2723 355.6598 355.6598 355.6598 355.6882 355.9358
   355.9358 355.9358 356.1133 356.1133 356.1133 357.2637 357.2637 357.5287
   357.5287 357.5287 357.8272 357.8272 357.8272 358.0354 358.0354 358.0354
   358.1905 358.1905 358.1905 358.4247 358.4247 360.4633 360.4633 360.7158
   360.7158 360.7158 361.1819 361.1819 361.1819 361.2223 361.4128 361.4128
   361.4128 361.4670 361.4670 361.4670 361.8415 361.8415 361.8415 361.9057
   361.9057 362.2111 362.2111 362.2111 362.3888 367.4985 367.4985 367.4985
   367.5679 367.7431 367.7431 367.7431 367.9196 376.8823 376.8823 376.9971
   376.9971 376.9971 377.0876 377.0876 377.0876 377.1468 377.1468 377.1468
   377.2451 377.2451 377.2451 377.2624 377.2624 381.5162 381.5162 382.0354
   382.0354 382.0354 382.0661 383.1639 383.1639 383.4163 383.4163 383.4163
   383.4931 383.4931 383.4931 383.5206 383.6053 383.6053 383.6053 383.6268
   383.6268 383.6268 383.7813 383.7813 383.7813 389.4206 389.4206 389.4493
   389.4493 389.4493 389.4740 389.4740 389.4740 389.4981 389.6066 389.6066
   389.6066 389.6275 389.6275 389.6275 389.7999 389.7999 389.7999 390.5648
   390.5648 390.6657 390.6657 390.6657 390.7891 400.4282 400.5361 400.5361
   400.5361 401.0544 401.0544 401.0544 401.5839 403.2937 403.2937 403.6055
   403.6055 403.6055 403.9540 403.9540 403.9540 404.4067 404.4067 404.4067
   404.4588 404.4588 404.4588 404.5248 404.5248 405.6721 405.8480 405.8480
   405.8480 406.3390 406.3390 406.3390 407.2241 407.2241 407.3110 407.3110
   407.3110 411.3487 412.3138 412.3138 412.3138 413.0313 413.0313 413.0313
   413.9364 413.9364 413.9364 413.9852 413.9852 414.2493 415.7072 415.7072
   415.7072 416.7004 416.7004 416.7004 417.2215 418.7663 418.7663 419.0832
   419.0832 419.0832 420.2074 420.2074 420.2074 420.2364 420.2364 420.5404
   420.5404 420.5404 420.6652 420.6652 420.6652 421.3056 422.2470 422.2779
   422.2779 422.2779 422.5633 422.5633 422.5634 424.5721 424.5721 424.8571
   424.8571 424.8571 425.1922 425.1922 425.1922 425.2005 425.2005 425.2005
   425.2041 425.2041 425.3753 425.3753 425.3753 425.4684 425.7520 425.7520
   425.7520 425.7776 425.7776 426.8378 427.0108 427.0108 427.0108 427.1753
   427.1753 427.1753 427.3383 427.3383 427.3419 427.3419 427.3419 429.9449
   429.9449 429.9449 429.9549 429.9549 429.9637 429.9637 429.9637 430.0130
   430.0566 430.0566 430.0566 433.7607 433.7607 434.0915 434.2974 434.2974
   434.2974 436.5371 436.5371 436.5371 436.6125 436.6125 436.6125 436.9827
   436.9827 437.3484 437.3484 437.3484 437.7689 439.4815 439.5093 439.5093
   439.5093 439.5230 439.5230 439.5230 439.5295 439.5295 439.5455 439.5455
   439.5455 440.9670 440.9670 440.9670 441.3773 441.3773 441.3773 441.6902
   441.6902 441.6902 441.8344 442.2973 442.2973 443.9955 443.9955 443.9955
   444.4243 444.4243 444.4243 444.4867 444.4867 444.4867 444.7938 444.7938
   444.7938 445.3877 445.3877 445.3930 445.3930 445.3930 445.4650 445.4650
   445.4650 445.5289 445.5289 445.5289 445.5947 447.6973 447.6973 447.7727
   447.7727 447.7727 447.9028 450.2209 450.7941 450.7941 450.7941 451.4465
   451.4465 451.4825 451.5311 451.5311 451.5311 452.7245 452.7245 452.7245
   453.3463 453.3463 453.3463 454.1678 454.1678 454.1678 454.5643 454.5643
   454.5643 455.0865 455.1029 455.1029 455.3200 455.3200 455.3496 455.3496
   455.3496 455.7428 455.7428 455.7428 456.1692 456.1692 456.1692 456.6217
   456.6217 456.6217 456.7694 457.4613 457.4613 457.4613 457.8153 457.8153
   457.8758 457.8758 457.8758 458.0467 458.0707 458.0707 458.0707 458.2747
   458.2747 458.2747 458.5025 458.8321 458.8321 458.8827 458.8827 458.8827

          k =-0.2500 0.2500-0.2500 (  2463 PWs)   bands (ev):

    -6.9294  -6.8528  -6.8528  -6.7296  -6.7296  -3.3937   3.9253   6.7888
     6.7888   9.0614  12.1139  12.1139  12.6018  15.9036  15.9036  16.4468
    19.5757  21.8394  21.8394  23.8960  24.3617  24.3617  25.2909  30.5239
    30.5239  31.0247  31.9499  31.9499  32.3800  32.8014  34.6168  34.6168
    36.9028  38.9400  38.9400  40.0977  40.3922  40.3922  41.0007  41.2003
    41.7965  41.7965  43.4720  44.9613  44.9613  45.5951  46.9136  46.9136
    48.0392  49.6860  49.6860  50.5274  50.5274  50.5824  53.2865  53.6919
    53.8248  53.8248  55.9329  55.9329  56.5296  58.3521  58.3521  59.4251
    59.5054  59.5054  61.6605  61.6605  62.6671  63.0353  66.0816  66.0816
    67.5679  68.3033  69.0518  69.0518  71.0657  71.0657  71.5380  73.5816
    73.8052  73.9380  73.9380  76.2894  76.2894  76.7240  77.1545  77.1545
    77.6261  77.6922  78.4933  78.4933  80.8057  81.3317  81.3317  82.0378
    82.2627  82.2627  83.2806  83.2806  84.0308  85.7187  85.7187  86.1708
    86.1708  86.4457  87.6519  87.6519  87.9708  90.0851  90.0851  90.4184
    91.5400  91.9379  91.9379  92.1703  93.4229  93.5789  93.5789  94.3040
    94.3040  95.4953  95.5259  95.5259  96.5365  97.3793  97.3793  98.6693
    98.9879  99.1472  99.1472  99.4878 100.3391 100.3391 101.2715 101.2715
   101.7154 102.3389 102.9924 102.9924 104.7816 104.7880 104.8588 104.8588
   105.4589 105.4589 106.1484 106.9219 107.8610 107.9905 107.9905 109.0514
   109.5265 109.5265 111.8513 111.8513 112.3716 112.3716 112.4902 115.5948
   115.6067 115.6067 117.8820 118.7995 118.7995 119.0152 119.0152 120.5290
   122.0593 122.0593 122.2416 123.4683 123.4683 123.5773 124.9425 125.1309
   125.1309 126.1719 126.1719 126.2778 126.4468 127.2615 127.2615 127.8721
   127.8721 128.5725 129.7810 129.7810 130.4806 131.0752 131.6734 132.4417
   132.4417 132.8370 133.6789 133.6789 135.1606 135.2354 135.2354 136.8066
   136.9998 136.9998 138.1032 138.1032 138.5674 140.0489 140.0489 140.4464
   140.6026 140.6026 141.5902 142.6529 142.6529 142.7773 144.1523 144.5961
   144.5961 145.0676 145.5854 145.5854 146.4842 146.4842 146.4914 148.0282
   148.0282 148.2971 148.8998 149.0006 149.0006 149.9380 150.0564 150.0564
   150.5543 152.2895 152.5594 152.5594 152.9602 152.9602 153.1681 153.9307
   153.9307 154.1566 154.1869 154.7297 154.7297 156.3031 156.3031 157.7207
   157.7207 158.7851 158.8483 158.8483 159.8439 159.8840 159.8840 160.1009
   160.2325 160.2325 160.9115 162.2626 162.2626 162.5376 162.9464 163.4330
   163.5402 163.5402 163.9497 163.9915 163.9915 165.1715 165.1715 166.2634
   166.2634 167.1554 167.1733 167.3512 167.3512 167.7086 167.7086 168.5192
   169.7753 169.7753 169.8369 170.4732 171.2967 171.2967 172.5528 173.0337
   173.0337 173.7172 175.9382 175.9382 175.9669 176.3572 176.4635 176.4635
   177.5150 177.8553 177.8553 178.2245 178.2245 178.9756 179.5052 179.5052
   180.1514 181.6814 181.6814 182.6035 183.5343 183.5501 183.5501 184.8766
   184.8766 186.2475 186.6497 186.6497 187.8424 187.8424 188.0132 188.6542
   189.2537 189.2538 189.5351 189.8655 189.8655 190.2040 190.9176 191.0750
   191.0751 192.8934 192.8934 193.8738 194.5274 194.7152 194.7152 195.9623
   195.9623 196.0982 197.6900 197.6900 198.2742 198.5962 198.9725 199.6677
   199.7902 199.7902 200.1263 200.1263 201.1249 201.5807 201.5807 201.7552
   201.7552 201.7920 202.8253 202.8253 203.0239 203.2753 203.8420 203.8420
   204.4289 204.8250 204.8250 205.6640 205.6640 206.5172 206.5172 206.5387
   207.0123 208.8620 209.1715 209.1715 209.9091 209.9091 210.3308 211.0149
   211.0149 211.8295 211.8295 212.9118 212.9118 213.3561 214.2954 214.5916
   216.7779 216.7779 218.3442 218.3442 218.4343 219.0004 219.6282 219.6282
   219.8374 220.1008 220.1008 220.4569 220.4569 220.8562 221.5902 222.4620
   222.4620 223.0153 223.2401 223.2401 224.5278 224.5278 224.5825 225.0128
   225.0128 225.3944 225.7176 225.8431 226.2783 226.2783 226.6688 226.6688
   227.0225 227.0225 227.1116 227.9032 227.9032 227.9032 228.0084 228.8854
   228.8854 229.5099 229.6486 229.6486 229.8717 230.2734 230.2734 230.4406
   230.4406 231.5115 231.6242 232.5335 232.5335 232.5922 232.6733 233.5622
   233.5622 234.4285 234.4286 234.5729 234.7999 234.7999 235.6404 236.7941
   236.7941 237.0518 237.1690 237.1690 237.2956 238.1789 238.1880 238.1880
   240.1813 240.3438 240.3438 240.8302 240.8302 241.1689 242.1317 242.1779
   242.1779 242.5720 242.6941 242.6941 242.8848 243.1961 243.1961 243.4060
   243.7941 243.7941 244.1025 245.2998 245.7639 245.7639 247.2275 247.2275
   247.2738 247.5360 247.5360 247.6794 249.0449 249.0769 249.0769 249.6810
   249.6810 251.1859 251.1859 251.2320 252.1057 252.8398 252.8398 252.8491
   253.5885 253.5885 254.0899 254.1357 254.1357 255.2624 255.2870 257.0814
   257.0814 257.6765 257.6765 258.2393 258.2393 258.4269 258.9124 259.4267
   259.4267 259.7028 260.1698 260.2320 260.2320 260.8019 260.8019 261.7126
   261.7126 262.1606 262.7503 262.7503 263.7139 263.7587 263.7587 264.1357
   264.6733 265.7362 265.7362 266.1242 266.1242 266.4350 266.4636 266.6028
   266.6028 268.1003 269.6529 269.6529 269.7463 269.7463 270.3119 270.8999
   271.0563 271.3399 271.3399 271.4912 271.5920 271.5920 271.9466 271.9466
   272.2125 272.6039 272.6039 275.3213 276.5575 276.7040 276.7040 277.1326
   277.1326 277.2866 277.5373 277.5373 278.4417 278.7727 278.7727 278.8878
   278.9688 278.9688 279.1960 279.2343 279.5339 279.5340 279.9619 279.9619
   280.3381 281.6131 281.6131 283.5804 283.5804 283.7709 285.0391 285.7872
   285.7872 286.5171 287.4049 287.4049 287.7302 287.9674 287.9674 288.1130
   288.6959 288.6959 288.9428 290.6344 290.6344 291.4942 291.4942 291.7017
   292.0412 292.0412 292.1001 292.3013 292.4469 292.4469 292.6722 295.0554
   295.0554 295.4084 295.5766 296.0767 296.0767 296.4102 296.4102 296.5709
   296.7455 296.7997 296.7997 297.3108 297.7519 297.7520 298.2134 298.2134
   298.3365 299.9012 300.6383 300.6383 301.4398 301.4398 301.6163 302.5541
   302.9496 302.9860 302.9860 303.7864 303.7864 304.2724 304.5860 304.6547
   304.6547 305.4056 305.4056 306.1660 306.1660 306.4081 306.9128 307.2935
   307.2935 307.7805 309.0671 310.5900 310.5900 311.2688 311.2688 311.8042
   312.3902 312.3902 312.6671 313.1970 313.1970 313.4270 314.6138 314.6138
   314.8023 315.1359 315.1359 315.2429 315.2687 315.2687 315.4176 315.5155
   315.6605 315.6605 317.6283 317.6283 317.6441 317.9795 317.9795 318.0586
   318.3126 318.3126 319.4508 320.3169 320.3280 320.3280 320.9417 320.9417
   321.5315 321.5315 321.7719 321.8006 322.1147 322.1147 322.4587 322.4587
   322.6287 322.9848 322.9848 323.0389 323.4122 323.4122 323.8434 324.0864
   324.1045 324.1045 324.7020 324.7973 324.7973 325.4681 325.6946 325.6946
   325.9360 325.9360 326.0257 327.1328 327.1328 327.1476 328.0790 328.3300
   328.3300 329.0632 329.4783 329.4783 329.7412 330.3565 330.3565 330.4416
   330.8770 330.8770 331.3598 331.3598 331.6364 331.7236 331.7236 331.9397
   331.9719 331.9719 332.6136 333.1172 333.1172 333.1777 333.2679 333.3061
   333.3061 334.8266 334.8266 334.9907 336.2310 336.9836 337.2757 337.2757
   337.4190 337.8648 337.8648 338.6076 338.6076 339.1305 339.6426 339.6717
   339.6717 340.3861 340.6233 340.6233 342.8496 342.9916 342.9916 343.0393
   343.3089 343.3391 343.3391 343.6163 343.6163 343.6594 343.6594 344.3071
   344.3071 344.5208 346.5308 347.2135 347.2680 347.2680 347.4208 347.4208
   347.6121 347.7209 347.7209 347.8810 347.8810 348.1933 348.2421 348.9658
   348.9658 349.3024 349.3203 349.3286 349.3286 352.7276 352.7374 352.7374
   352.9311 353.0352 353.0352 353.4634 353.4634 353.6477 353.6608 353.6608
   353.8053 355.4333 355.4333 355.5666 355.7369 355.7369 356.3721 356.5890
   356.5890 357.4891 357.5932 358.4506 358.4506 359.3859 359.3859 359.9131
   361.3475 361.4721 361.4721 361.8014 361.8014 361.9322 362.1847 362.1847
   362.3118 363.3056 363.3056 363.5959 363.8808 363.8808 364.2735 364.9864
   364.9864 365.2255 365.4094 365.5192 365.5192 366.5791 366.5791 366.6678
   366.8157 366.8157 366.9021 367.2318 368.3747 368.5186 368.5186 368.8742
   368.9651 368.9651 369.4434 369.4434 369.4507 369.8502 369.8502 370.5172
   370.8876 370.8876 371.3233 372.1851 372.1851 372.6325 372.7672 372.7672
   373.0018 373.5590 373.5590 373.6678 373.6678 373.6950 373.7950 373.8559
   373.8559 373.9459 374.8446 375.2926 375.2926 375.9328 375.9328 376.0548
   377.3674 377.3674 377.3914 378.0928 378.0928 378.2857 379.0250 379.0250
   379.8717 379.8717 379.9311 380.4724 381.4020 381.4020 381.5277 381.8520
   382.0223 382.0223 382.3024 382.3024 383.5836 384.8638 384.8638 385.0220
   386.6639 386.6639 386.6642 387.2146 387.2146 387.4534 387.8423 387.8423
   387.9049 388.0329 388.1909 388.1909 389.3934 389.3934 390.7087 390.9149
   390.9149 392.8096 392.8096 393.5857 393.5857 393.6010 393.6683 393.8244
   393.8499 393.8499 397.1756 397.1937 397.1937 397.4248 397.6209 397.6209
   400.1420 400.1420 400.3190 400.7271 400.7271 400.7939 400.8042 400.8042
   400.8480 400.8972 400.8972 401.5307 401.8766 401.8766 402.1949 402.2809
   402.5349 403.0216 403.0216 403.1017 403.6431 403.6431 404.5226 404.5612
   404.5612 404.7381 404.7381 404.8593 406.0122 406.0582 406.0582 407.2044
   407.2044 407.6363 407.6654 407.9961 407.9961 409.2369 409.2369 409.9326
   410.5240 410.5416 410.5416 411.2142 411.2142 411.4829 411.7351 412.0584
   412.0584 412.1821 412.1821 412.3298 412.3298 412.4079 412.5656 412.8636
   412.8636 413.2164 413.2164 413.4377 413.7076 413.8621 413.8621 414.4072
   414.5952 414.5952 415.3155 416.4804 416.6388 416.6388 417.8910 417.8910
   417.9957 418.2877 418.4821 418.4821 418.7229 418.7229 418.7680 420.0483
   420.0483 420.3408 420.3795 420.3795 420.7811 420.8211 420.8211 422.7480
   422.7480 422.8193 423.1455 423.8854 423.8854 424.6097 424.9578 424.9578
   425.4781 425.7429 425.9071 425.9071 425.9465 426.1222 426.1222 426.2705
   426.2705 426.4675 426.5988 426.7123 426.7123 428.3825 428.4096 428.4096
   428.4972 428.5624 428.5624 429.4142 429.4223 429.4223 429.6265 429.6265
   430.3485 431.1904 431.4568 431.5009 431.5009 431.6714 431.6714 431.6948
   431.7715 431.7715 433.9838 433.9920 433.9920 434.1052 434.1052 434.1315
   434.5878 434.5878 434.6020 435.1511 435.1511 435.2238 436.3842 437.9116
   437.9616 437.9616 438.3219 438.4865 438.4865 438.6290 438.6290 438.7455
   438.7804 438.7804 439.1149 439.1343 439.1343 440.7468 440.8012 440.8012
   440.9157 440.9157 440.9570 441.0989 441.2867 441.2867 441.6122 441.6122
   441.6371 442.0197 442.3683 442.3683 442.6637 442.8780 442.8780 443.0955
   444.3725 444.4586 444.4586 445.0355 445.0355 445.3813 445.6560 445.6560
   446.2482 446.2851 446.2851 446.7923 446.7923 447.0291 447.4905 447.8181
   447.8181 448.4924 448.4924 448.6467 450.2093 450.2149 450.2149 450.4720
   450.4720 450.5147 450.7062 452.2278 452.3082 452.3082 452.7225 452.7225
   452.8859 453.1338 453.2578 453.2578 453.2985 453.4595 453.4595 453.5130
   453.5224 453.5224 453.6369 453.6369 454.9764 455.4678 455.7431 455.7431
   456.9147 457.8506 457.8603 457.8603 458.2932 458.2932 460.1806 460.1806
   460.3716 460.7201 460.7201 461.0825 461.3969 461.3969 461.5215 461.9527
   461.9527 462.0766 462.1735 462.1735 462.4636 462.4636 462.5528 462.7027
   462.7027 463.0564 463.0564 463.3040 463.3212 463.7047 464.1036 464.1036

          k = 0.5000-0.5000 0.5000 (  2452 PWs)   bands (ev):

    -6.9804  -6.8382  -6.8382  -6.7197  -6.7197  -2.3977   1.7125   6.3884
     6.3884   8.7742  12.1412  12.1412  14.4063  16.7294  17.9522  17.9522
    19.5331  19.9081  19.9081  25.3697  26.6672  26.6672  27.7563  28.3352
    28.3352  31.0253  31.2583  31.2583  32.1187  32.6336  33.1085  33.3674
    33.3674  36.3832  38.2384  38.2384  38.7291  39.1688  39.1688  39.5131
    43.0631  43.7031  43.7031  45.3872  45.3872  47.5266  47.5266  48.4814
    49.8035  51.6480  51.6480  51.7953  52.8885  52.8885  53.8827  53.8827
    53.9470  56.2637  56.2637  57.2920  59.7902  59.7902  60.1197  60.9928
    61.1761  61.1761  62.4497  62.6580  62.8977  62.8977  65.2941  65.4718
    65.4718  65.5820  65.5820  66.6162  67.5507  67.5507  70.0548  70.1280
    70.1280  70.1714  72.4215  72.4215  74.8294  75.7142  75.9146  75.9146
    78.3631  79.2245  79.2245  79.3757  81.4782  81.5240  81.5240  82.4812
    82.4812  83.6499  83.9421  83.9421  84.8708  85.6219  85.9552  85.9552
    86.6861  86.6861  87.0113  87.1203  88.1107  89.6371  89.6371  90.1035
    90.1035  92.8948  92.8948  93.1304  93.4472  94.2298  94.2298  94.9018
    94.9018  95.8025  96.4179  96.4179  96.5300  97.1145  97.8013  97.8013
    98.0944  98.8281  99.4079  99.4079 100.2642 100.2642 101.0071 102.6072
   102.6072 102.7621 103.6884 103.6884 103.8358 104.8678 105.2890 105.2890
   107.8495 107.8495 109.3394 109.4822 109.4822 111.4589 111.4589 112.1423
   112.4619 112.4619 113.1133 114.0001 114.0658 114.1357 114.1357 116.3362
   116.4156 116.4156 116.6944 116.6944 117.1760 117.1760 117.2669 118.3101
   119.0388 119.8480 120.0595 120.0595 123.2179 123.2179 123.8812 123.8812
   125.0400 125.1473 125.1473 126.4493 126.6666 126.6666 126.8616 127.3703
   127.9307 129.6515 129.6516 129.8088 130.8960 130.8960 132.3698 132.3698
   132.5433 134.1368 134.1368 134.1486 134.5713 135.3306 135.3306 135.5680
   135.7368 135.7368 137.2812 137.2812 138.5217 138.5217 138.6208 139.2152
   139.2895 139.3516 139.3516 140.9648 140.9648 141.0654 141.7050 141.7050
   141.9921 142.7726 142.7726 145.3392 145.9841 145.9841 146.2461 146.2664
   146.2664 146.8566 146.8566 147.4738 147.5070 147.5070 148.2568 148.2568
   148.3538 149.2640 151.9408 152.7927 152.7927 152.8033 153.9885 153.9885
   155.2546 155.2629 155.2939 155.2939 156.0430 156.0430 156.3061 156.8788
   156.8788 157.4302 157.7922 157.7922 157.8733 158.4372 158.4372 158.7871
   158.9136 160.4385 161.5036 161.5036 163.1551 163.7830 163.7830 164.0999
   164.7332 164.7332 165.0070 165.7184 165.7184 166.6811 166.6811 167.1552
   167.3368 168.4891 168.4891 169.2430 169.2430 171.2452 171.2452 172.8593
   174.2479 174.5123 174.5123 175.6552 175.7136 175.7136 176.2435 176.2435
   176.3257 178.2012 178.4136 178.4136 178.7817 178.9826 179.7744 179.7744
   180.3164 180.3164 180.4560 180.4726 181.6910 183.2443 183.2443 183.3019
   183.3019 183.5056 183.8615 183.8615 184.6742 184.6742 185.2827 185.2827
   185.5319 185.7455 185.9737 186.6545 186.6545 186.7462 188.2163 188.2163
   189.0980 189.0980 189.1373 189.1373 189.4619 189.9299 190.1951 190.1951
   190.4937 190.5935 190.5935 191.7410 191.7905 191.8043 192.4392 192.4392
   194.5818 195.4887 195.4887 196.2385 196.2385 196.3758 198.5610 198.5610
   199.1540 199.1540 199.1849 199.2249 199.4587 199.4587 199.8533 199.9352
   199.9352 201.1081 201.3063 201.3063 201.6952 203.0306 203.0306 203.4653
   203.4653 203.7933 203.8789 203.8789 204.1394 204.4526 204.4526 204.9769
   206.6363 207.8462 207.8462 208.4273 208.4314 208.4314 208.6642 208.7621
   208.7621 209.1941 209.1941 210.9521 211.4132 211.4132 212.0970 212.8068
   213.1603 213.1603 213.9152 213.9152 214.2306 214.2306 214.8691 215.2728
   215.5686 217.7354 217.7354 217.8886 218.6397 218.6397 218.6442 219.1267
   220.7164 220.7164 220.8432 221.5778 221.5778 222.4528 222.9690 223.3932
   223.3932 223.8337 223.8337 224.1162 224.1162 224.1864 225.2783 225.2783
   226.1413 226.1413 227.0054 228.0993 229.2135 229.2135 229.9736 230.3885
   230.3885 230.4744 231.5935 231.7451 231.7451 231.8801 232.6022 232.8412
   232.8412 232.9110 232.9110 232.9723 234.2606 234.2606 235.5384 235.5384
   236.5064 236.5064 236.6969 236.9416 236.9416 237.8924 238.2975 238.2975
   238.4812 238.8947 238.8947 239.4915 239.8122 239.8122 240.1064 240.3482
   240.3482 240.4877 240.7200 240.7200 241.8317 242.4868 242.4868 243.1114
   243.5011 243.5011 244.1382 244.2885 244.3969 244.3969 245.1368 245.1368
   245.2959 245.4625 245.4625 245.6786 247.1374 247.1374 247.3745 247.3745
   249.3883 249.6702 250.2438 250.4914 251.0226 251.7637 251.7637 251.9183
   251.9183 252.2867 252.7398 252.7398 253.4026 253.4026 253.8794 254.2141
   255.3731 255.3731 255.5065 255.5065 256.0380 256.0380 256.2951 256.4273
   256.4273 256.7656 256.9814 257.6671 258.7216 258.7216 259.6355 259.9770
   259.9770 260.3334 262.4200 262.4200 262.7628 262.8270 262.8270 263.0549
   265.8682 265.8682 265.9679 266.1097 266.1490 266.1490 267.8778 267.8778
   267.9838 268.1853 268.1853 268.3958 268.4187 268.4187 268.5626 268.6053
   268.6053 268.8157 269.3243 269.5856 269.6197 269.6197 269.7767 269.7767
   270.1707 270.1707 270.2618 270.4449 270.6648 270.6648 271.6900 271.6900
   272.2414 272.2947 272.2947 273.2172 273.3946 273.4642 273.7918 273.7918
   274.1523 274.1523 275.5789 275.5789 275.6239 275.6239 276.1115 276.2235
   277.5538 278.4098 278.4098 278.4500 278.7937 278.7937 278.8402 278.9617
   282.6337 282.6337 282.8099 282.8099 283.3501 283.3501 283.5490 283.6204
   284.0522 284.0522 287.9855 287.9855 288.2063 288.9711 288.9711 290.0410
   290.7086 290.7086 290.8599 290.8599 290.9915 291.1757 291.1757 291.5388
   291.5524 291.5524 291.9013 291.9209 292.4462 292.8929 292.8929 292.9183
   293.0293 293.0293 294.1587 294.1587 294.8495 294.9039 295.2046 295.3184
   295.8165 295.8165 296.0098 296.0098 296.2524 296.4302 296.4302 297.1854
   297.1854 297.5942 297.6248 297.6248 300.5926 300.9362 300.9362 302.1739
   302.1739 302.3264 302.9707 302.9707 303.1149 303.1149 303.3789 303.4799
   303.6683 304.1505 305.9775 305.9775 306.4702 306.4702 306.4767 307.1148
   307.6665 307.6665 307.9410 308.6300 308.6300 309.0985 309.5509 309.5509
   310.1581 310.3380 310.3380 311.7699 311.7699 311.8010 311.8010 312.0048
   312.0376 312.5051 313.2714 313.2714 313.4836 313.4836 314.7712 314.7990
   314.7990 314.9059 314.9213 314.9213 316.9362 316.9362 317.1976 317.2243
   317.2243 317.3041 317.7460 317.7460 317.8850 317.8850 318.4468 318.5823
   319.7524 319.8189 319.8189 319.8993 319.9604 319.9604 321.3428 321.3428
   321.8554 321.8554 321.9043 322.2405 322.5698 322.8740 322.9537 322.9537
   323.1819 323.1819 326.0364 326.0617 326.0617 326.3660 326.3660 326.5579
   327.6488 327.9846 327.9846 328.4456 328.5033 328.5033 328.7790 329.2363
   329.8529 329.8529 330.0677 330.0677 330.0803 330.2562 330.2562 330.3307
   330.3307 330.6121 331.2319 331.2925 331.2925 331.4212 331.4212 331.4409
   334.1598 334.1598 334.2700 334.4414 334.4414 335.0243 335.3957 335.5445
   336.9282 336.9282 336.9943 336.9943 337.1401 337.1436 337.1436 337.1609
   337.4185 337.5682 337.5682 337.8473 338.7421 338.7421 338.8104 338.8104
   339.9369 340.5098 341.3525 341.3525 341.5084 341.5700 341.5700 341.7824
   341.9028 341.9028 342.2312 342.2312 342.4881 342.4881 342.5523 342.5523
   342.8915 342.9091 343.9224 344.4102 344.7568 344.7568 344.8305 344.8305
   344.9605 345.1150 348.7633 348.7633 349.3166 349.3166 350.4497 350.6296
   352.5128 352.6265 352.6265 352.7884 352.7884 352.9142 354.0384 354.0384
   354.0873 354.0873 355.9311 355.9311 356.0620 356.0620 356.1305 356.3347
   356.6279 356.6279 356.8036 356.9698 356.9698 357.2466 359.6427 359.6427
   359.8596 359.8596 360.1006 360.2245 360.2245 360.2495 360.2495 360.2657
   360.5280 360.6675 360.7119 360.7355 360.7851 360.7851 360.8383 360.8383
   362.9768 363.0537 363.0537 363.2466 363.2466 363.3499 365.7581 365.8171
   365.8171 365.8920 365.8920 366.2575 369.4044 369.4491 369.5070 369.5070
   369.5508 369.5508 370.4419 370.4419 370.6115 370.6115 370.8146 370.9786
   371.1086 371.6022 371.7186 371.7186 371.9310 371.9310 372.8054 372.8954
   372.9038 372.9038 373.0663 373.0663 373.1592 373.1593 373.3092 373.3092
   373.4279 373.6047 374.8864 374.9762 374.9762 374.9790 375.0152 375.0152
   378.0898 378.0898 378.0999 378.0999 378.4575 378.4606 380.0866 380.2440
   382.0069 382.1516 382.1516 382.2566 382.7949 382.7949 383.5913 383.5913
   383.7211 383.7211 384.5275 384.9352 385.5760 385.5760 385.7159 385.7181
   385.7181 386.0120 386.9052 386.9052 386.9455 386.9455 387.2954 387.4142
   388.2236 388.2236 388.3729 388.3729 389.1811 389.2056 389.7922 389.7922
   389.9250 389.9250 390.4394 390.5714 391.4557 391.5231 391.5231 391.7536
   391.7536 391.8864 393.5306 393.5791 394.1835 394.1835 394.2154 394.2154
   395.1920 395.1920 395.2362 395.2362 395.2789 395.3441 395.9594 395.9594
   395.9712 395.9712 396.4264 396.4273 397.6348 397.7009 397.7009 397.7539
   397.7581 397.7581 397.8593 397.8593 397.9252 397.9252 397.9840 398.0461
   401.5607 401.8110 401.8110 401.8688 402.0133 402.0133 402.2610 402.7182
   402.7182 402.9478 402.9478 403.2785 404.0391 404.0391 404.1574 404.1574
   404.7592 404.8629 405.2072 405.2348 405.6546 405.6546 405.6685 405.6685
   406.2684 406.5359 406.5359 406.8247 406.8247 406.9424 407.3527 407.4726
   409.9770 409.9770 409.9816 410.0437 410.0437 410.0817 410.5513 410.5513
   410.5767 410.5768 412.5085 412.5991 412.5991 412.8785 412.9248 412.9248
   412.9738 413.2214 413.2214 414.0615 414.0615 414.2613 414.6235 414.8078
   414.8078 414.9639 415.1048 415.1048 415.7486 416.0376 416.0376 416.7951
   416.7951 416.9265 417.8953 418.2624 418.3360 418.3360 418.3713 418.3713
   419.0668 419.0668 419.1453 419.2718 419.2718 419.5855 419.6308 419.8739
   419.8739 420.0216 420.0216 420.0499 420.8356 420.8425 422.7990 422.7990
   422.8280 422.8280 426.3961 426.3961 426.3978 426.3978 426.8810 426.9646
   426.9646 426.9921 426.9921 427.0001 427.5257 427.5269 428.9367 428.9367
   428.9393 428.9507 428.9507 428.9801 432.2853 432.2853 432.4315 432.7602
   433.0477 433.0477 436.1439 436.1439 436.2738 436.4172 436.4172 436.5356
   436.9519 437.0694 437.1045 437.1045 437.1573 437.1573 437.3501 437.4158
   437.4158 437.6380 437.6380 437.6512 437.7248 437.7248 437.8690 438.0705
   438.0705 438.0787 438.9300 439.1986 439.2366 439.5329 439.5329 440.0612
   440.0612 440.2767 441.3109 441.3109 441.6409 441.6994 441.7203 441.7203
   441.7770 441.8445 441.8445 442.0794 442.0794 442.2370 442.5804 442.5804
   442.6224 442.7518 442.7518 443.0038 443.2477 443.2477 443.3245 443.3383
   443.3383 443.3954 443.4922 443.5152 443.5152 443.5372 443.6086 443.6086
   448.9230 448.9230 448.9442 448.9442 449.2757 449.3147 449.4208 449.4208
   449.4349 449.4349 449.8703 449.8703 449.8788 449.9277 449.9908 449.9908
   450.3843 450.3911 450.3917 450.3917 450.4043 450.4043 452.4523 452.4523
   452.5175 452.6461 452.7062 452.7062 457.6858 457.6858 457.7172 457.7172
   457.7270 457.7761 460.6509 460.6509 460.6562 460.8205 460.8428 460.8428
   460.8972 460.9681 460.9681 461.0892 461.0892 461.1677 463.4928 463.5208
   463.5208 463.5873 463.8440 463.8440 463.9588 463.9588 464.0786 464.0786
   464.2377 464.3208 469.2044 469.2044 469.2157 469.5482 469.8118 469.8118

          k = 0.0000 0.5000 0.0000 (  2477 PWs)   bands (ev):

    -6.9666  -6.8274  -6.8274  -6.7530  -6.7159  -3.1785   4.0024   5.9661
     5.9661   9.8358  10.4052  13.6676  13.6676  14.2325  17.2993  19.3021
    20.5383  20.5383  20.6546  23.5021  23.5021  25.4131  26.2309  27.0571
    29.5540  31.0248  32.1929  32.3457  32.3457  34.0488  34.0488  35.5121
    36.5113  37.8956  38.8174  38.8174  40.2377  40.2377  41.3692  42.3719
    42.6984  42.7781  42.7781  43.7748  45.7183  45.7972  46.8513  46.8513
    47.9124  49.6059  49.6059  49.7062  50.4622  52.3153  52.7461  52.7461
    52.7491  53.6292  56.2547  57.1459  57.1459  59.2264  59.2264  59.2325
    60.4028  61.7504  63.3778  63.3778  64.0294  65.6924  65.8670  67.2791
    67.2791  68.2332  68.2845  68.2845  68.3145  69.8251  70.4765  70.4765
    71.2878  72.2609  72.9576  73.6762  73.6762  75.8558  77.1904  77.1904
    77.5845  78.6295  79.0164  79.0164  80.7289  81.3925  82.4299  82.4299
    82.4655  82.9068  84.0627  84.0627  84.1753  84.9612  85.8893  85.8893
    86.1300  87.4217  88.5290  89.0095  89.0095  89.2245  90.4679  90.5662
    90.5662  90.6684  91.9591  92.9458  92.9653  93.0959  93.0959  93.7345
    93.7345  94.3071  95.7240  95.7556  95.7556  96.3467  96.3666  96.3666
    97.8261  98.0335  98.4744  99.8021  99.8021 101.4540 101.6665 102.8346
   102.8346 103.5024 103.7298 104.8315 105.2436 105.2436 106.9672 106.9672
   107.1530 108.0265 108.1933 108.4803 109.2822 109.2822 109.7105 110.2913
   110.2913 110.6849 111.1913 111.7971 111.7971 114.1672 114.8501 114.8501
   115.3388 115.9174 118.2106 118.2310 118.2310 118.2665 118.5754 119.3104
   119.3104 119.5995 120.6468 121.9255 122.8018 123.0777 123.0777 123.6722
   124.7247 124.7247 125.1999 126.8279 126.8279 127.0342 127.0344 128.4310
   128.9380 129.7505 129.8334 129.8334 130.5728 130.5728 131.5637 131.9593
   132.5907 132.5907 133.3894 133.4837 134.1911 135.3216 135.3216 135.8268
   136.8744 137.4627 137.4627 138.3631 138.4090 138.5192 138.5192 139.4421
   139.4421 139.8686 141.9628 142.7358 143.1016 143.6463 143.6463 143.8967
   143.9672 143.9672 144.5382 144.6255 145.0240 145.3493 145.3493 145.9399
   147.4690 147.4698 147.4698 148.5694 148.7220 148.7220 149.1580 150.6458
   150.6458 150.9706 151.8422 151.8422 152.4291 152.6660 153.0880 153.0880
   153.2684 154.9575 155.3426 155.4509 157.0349 157.1413 157.1413 157.9921
   158.8587 159.0620 159.0620 160.0356 160.0356 160.3430 161.2347 161.5766
   161.7446 161.7446 162.1806 163.1212 163.4939 163.4939 163.7898 164.9684
   165.4736 165.9246 165.9246 166.6920 166.9597 166.9597 167.4207 167.6123
   168.0687 168.0687 168.3654 168.5148 168.7755 168.7755 169.8702 169.8868
   169.9157 169.9157 170.1631 170.4581 170.4581 170.7112 173.2627 173.4904
   174.0585 174.0585 174.3593 174.4623 174.7116 174.7116 175.1599 176.6075
   177.1405 177.7876 177.7876 178.4405 178.8771 178.8771 178.9995 179.1955
   179.4389 179.4389 180.3976 181.3240 181.3816 181.8201 181.8201 183.0359
   184.1145 184.8569 185.0404 185.3333 185.7443 185.7443 186.9031 187.1543
   187.5262 187.5262 189.0868 189.0868 189.1504 189.9316 189.9316 190.6658
   190.9772 193.3174 193.3174 193.7541 195.7676 195.7676 196.5040 197.3620
   197.4678 198.1823 198.1823 198.5944 198.8112 198.8553 199.1866 199.1866
   199.1935 199.7858 199.9931 199.9931 200.9192 201.4269 201.6820 201.6820
   201.7624 202.4171 202.4171 202.5593 203.7683 204.2518 204.7120 204.7120
   205.4856 207.0485 207.3736 207.3736 208.5497 209.1263 209.1263 209.1375
   209.7510 209.7510 210.2963 211.1662 211.2234 211.2234 212.2779 212.5742
   212.5742 212.7987 212.8432 212.8432 213.0629 213.8073 214.4157 215.6615
   215.6615 216.4014 217.0094 217.0161 217.3069 217.4796 217.4796 217.6725
   218.3382 219.2327 219.2327 219.4843 219.4904 219.6445 219.6445 220.0329
   220.3266 220.3266 220.5986 221.6761 221.8073 221.8073 222.0951 222.5370
   222.5370 222.5370 223.3973 223.5029 223.6399 223.6399 224.2424 224.3980
   224.5974 224.5974 224.8879 225.8805 225.9529 225.9529 226.0151 226.2701
   226.5242 226.8541 226.8541 228.8127 229.1622 229.1622 229.3836 229.9331
   230.0468 230.0468 230.3973 231.2912 231.8431 231.8431 232.0566 234.3644
   235.4852 235.9274 236.0523 236.1911 236.1911 236.5269 236.9932 237.4852
   237.4852 237.5588 237.6903 237.6903 238.3707 239.1590 239.8107 239.8107
   239.9055 240.2316 240.9874 240.9874 241.0529 242.1190 242.1707 242.5884
   242.7051 242.7051 243.0048 244.9329 244.9329 246.5360 246.9185 247.0039
   247.0039 247.0582 247.3659 247.3868 247.3868 247.4983 247.4983 248.1242
   248.2975 248.4043 249.0119 249.3635 249.3635 250.1835 250.1835 250.6446
   251.4494 251.4494 251.6814 252.0231 252.0983 252.9372 253.7384 253.9520
   253.9520 254.7005 254.9555 254.9555 255.0586 255.7226 255.7226 255.7734
   256.2791 256.2791 256.4243 257.6793 257.7591 257.7591 258.9563 259.2286
   260.6249 260.6249 260.7183 261.7901 262.1340 263.0737 263.5410 263.5410
   263.5668 263.8201 263.9639 263.9639 263.9874 264.4845 264.7780 264.7780
   265.1930 265.2339 265.2339 265.5733 265.6805 265.8742 265.8742 266.3113
   267.3535 268.8165 268.8165 269.5286 269.9675 270.0369 270.3260 270.3260
   270.6693 270.6732 270.6732 270.7838 271.6916 272.4607 272.4607 272.5284
   274.1054 274.1054 274.2728 274.5737 275.0345 275.2471 275.2471 275.3213
   275.8978 276.1559 276.2776 276.2776 276.4722 277.2076 277.2350 277.2350
   277.2654 278.0457 278.6497 278.6497 278.7676 279.1441 279.1441 280.2547
   283.2444 283.4153 283.4153 284.2797 284.9256 285.6791 285.6791 285.9726
   286.3863 288.1754 288.1754 288.6688 288.8744 289.1159 289.4472 289.4472
   289.6534 290.7605 290.7605 290.7763 291.4503 291.4503 291.5131 291.9229
   292.1493 292.3866 292.9937 292.9937 293.7309 293.9347 293.9553 293.9553
   294.1822 294.6412 294.6412 294.8339 295.0116 295.1406 295.1406 295.6243
   296.0702 296.9368 296.9368 297.9379 298.2197 298.7211 298.8257 298.8257
   299.3400 299.3400 299.3694 299.5184 299.9451 300.0566 300.0566 300.3442
   300.8578 301.1264 301.1832 301.1832 301.9042 302.7376 302.7376 302.8573
   302.8744 303.5736 303.7934 303.7934 304.0059 304.2643 305.1858 306.4963
   306.7923 306.7923 307.5372 307.5372 307.8790 308.0844 309.0938 309.0938
   309.2035 309.2476 311.7516 311.7516 312.3205 312.4005 312.7887 312.7887
   313.0226 314.2897 314.8091 314.8682 315.2645 315.2968 315.2968 315.9569
   316.0443 316.6862 316.6862 316.9123 316.9883 316.9958 316.9958 317.7001
   317.7001 318.4491 318.5045 318.6233 318.6233 319.1974 319.7434 319.7818
   319.7818 319.8436 320.5711 320.9839 320.9839 321.2707 321.6615 321.7114
   321.8362 321.8362 322.2248 322.4041 322.4041 322.7593 323.4626 323.4626
   323.5646 323.8548 324.1730 324.1730 324.2676 324.4964 324.4964 324.5192
   326.0048 326.6557 326.6557 327.1938 327.2794 328.0394 328.0472 328.0472
   328.4224 329.0519 329.0519 329.3514 329.3531 329.9160 330.2827 330.2827
   330.7445 331.6389 332.2100 332.2100 332.2129 335.0705 335.5346 335.7476
   335.7476 336.7092 337.1780 337.3068 337.3951 337.3951 338.0155 338.0155
   338.2788 338.3470 338.7805 339.2629 339.5116 339.5116 339.8742 339.8742
   340.1505 340.3871 340.3871 340.8838 340.9904 341.2080 341.3547 341.3547
   341.5141 341.6660 341.6660 341.7640 342.7927 342.8622 343.0262 343.0262
   343.4939 343.6975 344.6299 344.8452 344.8452 345.5238 345.5297 345.7849
   345.7849 346.0296 346.0303 346.1862 346.3832 346.3832 346.5384 346.6634
   346.6634 347.1009 347.1194 347.1194 347.1381 347.9763 347.9763 347.9866
   347.9952 350.1949 350.5625 350.5625 350.9519 351.4166 351.6424 351.6601
   351.6601 351.7690 351.7690 351.8096 351.9325 351.9558 352.0802 352.0802
   352.5268 352.8041 352.8041 352.8666 353.1116 353.5756 353.7360 353.7360
   353.8705 355.6365 355.7705 355.7705 355.7924 356.2474 356.4533 356.4533
   356.5215 358.2782 358.7428 358.7428 359.2812 359.5990 359.6494 359.6497
   359.6497 360.2699 360.4897 360.4897 360.6240 361.2540 361.5072 361.5072
   361.7062 366.5035 366.7076 366.7076 366.8076 368.7847 369.3248 369.3312
   369.3312 369.6537 369.6537 370.2483 370.3930 370.4803 370.9846 370.9846
   370.9987 371.5104 371.9432 371.9432 372.2217 372.6384 372.7142 372.7435
   372.7435 373.0715 373.2067 373.2161 373.2161 373.2180 373.4500 373.9457
   373.9457 375.7785 376.2993 376.4087 376.4087 376.7710 376.7710 376.9708
   377.8895 378.3225 378.4484 378.8318 378.8318 379.4235 379.9373 379.9373
   380.6745 380.7108 381.2152 381.7077 381.7077 382.7173 382.8994 383.2225
   383.3534 383.3534 384.0184 384.1988 384.2843 384.2843 384.3841 384.4514
   384.8782 384.8782 385.2815 385.5113 385.5840 385.5840 386.0636 386.3147
   386.6690 386.6690 387.1790 387.1790 387.6295 387.6750 388.1492 388.4328
   388.8615 389.2681 389.2681 389.5895 389.8695 390.0437 390.0437 390.5885
   391.0211 391.2535 391.2535 391.3632 391.3632 391.5144 391.5521 392.1154
   392.1154 392.1464 392.7759 393.0560 393.3561 395.0900 395.7536 395.7536
   396.1913 396.2980 396.2980 396.3316 396.3316 396.3921 396.9773 399.6072
   399.8345 399.8345 399.9005 400.4831 400.5033 400.5033 400.5590 401.1358
   401.1779 401.2334 401.2334 401.3173 401.3173 401.3624 401.9321 401.9321
   402.0333 402.2210 402.2210 402.3297 402.4689 403.5265 404.1314 404.1513
   404.1513 404.1841 404.2151 404.2151 404.6075 404.9546 406.0189 406.3022
   406.3022 406.5326 406.6867 406.8964 406.9162 406.9163 408.5354 408.5354
   408.5448 408.5745 409.0735 409.3875 409.3875 409.5760 409.9207 410.1326
   410.1326 410.2118 411.6542 413.3904 413.7841 413.9044 413.9044 414.7088
   414.7088 414.9247 414.9573 415.5267 415.5267 417.5247 417.9488 418.2599
   418.2599 419.3641 419.8331 420.6701 420.6701 420.9841 420.9991 421.2414
   421.2414 421.2568 421.3183 421.4227 421.4349 421.4350 421.6197 421.8328
   422.0031 422.0031 422.1998 423.0972 423.0972 423.1018 424.9669 424.9758
   425.1234 425.1234 425.6015 425.9273 425.9273 426.2346 427.6772 427.7268
   427.7268 427.7531 428.1167 428.1712 428.1712 428.2094 429.1940 429.2673
   429.2673 429.8885 430.3498 430.3498 430.4078 430.4608 430.6858 431.0189
   431.0189 431.0259 432.0700 432.1450 432.1523 432.1523 432.9491 433.0801
   433.0801 433.5176 433.9164 434.0590 434.0590 434.0684 434.7007 435.1529
   435.1529 435.2503 435.5966 435.7461 435.7513 435.7513 436.4284 436.5242
   436.5242 436.6373 437.3673 437.4562 437.4562 437.8056 437.8182 437.9321
   437.9321 438.0216 438.6420 438.6420 438.6477 438.9121 440.4905 441.0433
   441.0433 441.8275 443.3499 443.4135 443.4663 443.4663 443.5750 443.9870
   443.9870 444.4015 444.5694 444.6163 444.6163 444.6398 444.9777 445.2944
   445.5160 445.5160 445.6496 445.9703 445.9703 446.9045 447.3959 447.5295
   447.5295 447.5621 447.9881 448.0828 448.0873 448.0873 449.2013 449.7387
   449.7387 449.8380 451.4049 451.7178 451.7178 451.7596 451.8869 452.2443
   452.2443 452.6561 452.6955 452.6955 452.6958 452.9110 453.7636 453.8309
   453.9866 453.9866 453.9978 454.0698 454.0698 454.1049 454.1114 454.8596
   454.9319 454.9319 455.0104 455.0104 455.1722 455.4349 455.5694 455.6181
   455.6181 455.7014 456.3081 456.5647 456.6257 456.6257 456.6826 456.8449
   456.8449 457.2231 460.3424 460.8475 461.0303 461.0303 461.1659 461.1659
   461.1932 461.2041 461.3905 461.4468 461.7081 461.7081 462.2635 462.4646
   462.6910 462.6910 462.8268 462.9326 462.9350 462.9350 463.1387 463.1387

          k = 0.7500-0.2500 0.7500 (  2454 PWs)   bands (ev):

    -7.0028  -6.8171  -6.8059  -6.7501  -6.7126  -2.1460   2.0895   4.6950
     5.6460   9.8809  11.6701  13.4859  13.9687  16.6836  18.0768  19.2066
    19.5508  20.3294  23.4640  24.1231  24.1424  26.1420  26.6247  27.0427
    27.8949  30.9621  31.0169  31.0392  32.0034  32.4398  33.0342  34.1451
    34.1835  35.9399  36.9430  38.2086  39.7633  39.7953  40.2004  41.5564
    41.8077  42.5108  44.7422  44.9080  46.5888  47.3090  47.7276  48.3643
    49.7393  50.3474  50.8231  51.5881  51.8221  53.0569  53.1322  54.9159
    55.5508  56.2452  56.5446  58.0289  58.6059  59.2713  59.5561  60.8740
    60.9422  62.2719  62.4878  63.0202  63.7868  63.9791  64.5707  65.1503
    65.6211  67.0608  67.3800  68.1912  68.7477  69.3256  70.0645  70.3820
    71.0885  71.1784  72.8042  73.2837  74.3444  74.4518  75.2524  75.6069
    76.3712  77.5537  77.5602  78.4384  78.4996  79.2505  79.7129  81.3899
    81.5703  81.6770  83.0068  83.2927  83.9679  84.0749  84.8064  85.1953
    85.9756  86.9751  87.0802  87.5229  88.1653  89.5236  89.8522  90.7186
    91.1779  91.7823  92.7282  93.1194  93.4144  93.8166  94.9096  95.0557
    95.4927  96.2767  96.6759  96.7150  97.5248  97.6282  98.3143  99.2105
    99.3853 100.2258 100.4300 100.8899 101.4981 101.7318 102.5099 102.5446
   103.1364 104.1595 104.4504 104.7142 106.1127 106.1413 106.9476 108.3016
   108.6989 109.0206 109.4690 109.5555 110.3095 110.4521 111.2867 111.6134
   112.2969 112.3809 113.0783 113.1787 113.5892 113.9916 114.9848 115.6723
   115.6988 116.8086 117.3400 117.4016 117.8090 118.1390 118.5197 119.1197
   119.4627 119.7808 120.4073 120.4982 121.2658 122.1810 122.3309 122.8962
   123.3641 124.0328 124.6603 124.9029 125.7950 126.0421 126.4539 127.3302
   127.5175 128.1226 128.4164 128.9434 129.3497 130.1225 130.4424 130.4497
   131.2560 131.8307 132.0336 132.5168 133.2491 133.3412 134.3900 135.2088
   135.6279 135.8979 136.7079 136.7448 137.5186 138.0601 138.3351 138.4568
   138.8540 139.7973 139.8190 140.2056 141.0150 141.5853 142.2769 142.8845
   143.0318 143.5523 143.8226 144.3209 144.9284 145.1315 145.6793 145.7855
   146.3054 146.7526 147.3098 147.4651 148.1162 148.2505 149.2605 149.7899
   149.8335 150.3904 151.0668 151.5871 151.8094 152.3390 153.4810 153.7173
   153.7216 154.2821 155.6323 156.1298 156.3967 157.1170 157.3894 157.9421
   158.3536 159.0480 159.5824 160.1685 160.3271 160.7097 160.9608 161.2788
   161.6376 161.8239 162.7876 163.0180 163.8631 163.9871 164.7286 164.8446
   165.0460 165.6321 166.5447 167.1352 167.3262 167.3962 167.8927 168.1098
   168.4663 169.6184 169.6407 169.8484 170.7862 171.1405 171.3661 171.8425
   172.4529 172.6217 173.2533 173.5515 174.0904 174.5923 175.3270 175.4604
   175.9502 175.9634 177.1567 177.5251 177.8561 177.9171 178.6198 178.9901
   179.0527 179.2902 179.4505 179.8304 180.6823 181.3018 181.4052 181.6115
   181.8130 182.7577 183.0224 183.1567 183.5224 183.9848 184.3970 184.6962
   184.7713 185.6487 185.8662 186.0724 186.8783 187.5607 187.7232 187.8006
   188.4733 188.5595 189.3016 189.8239 189.8626 190.4409 190.7812 190.8847
   191.2489 192.2330 192.3145 192.5244 192.5590 193.6452 193.8403 194.3255
   195.0346 195.6680 195.9646 196.1833 196.6803 196.8011 196.9897 197.6147
   198.0097 198.3707 198.5965 199.0077 199.2879 199.5725 200.2984 200.5880
   200.9616 201.4871 201.7926 202.4356 202.6330 203.1085 203.1619 203.6228
   203.8629 204.4325 204.4436 204.8849 205.4234 205.9550 206.3575 206.8793
   207.1822 207.7624 208.0683 208.1283 208.7447 209.3048 209.6576 209.8343
   210.3348 210.5076 211.1700 211.4517 211.8183 212.0688 212.5002 212.8338
   213.0152 213.5110 213.5750 213.8582 214.2770 214.4283 215.1188 215.7814
   215.9038 216.4935 216.7823 216.9038 217.2588 218.5824 218.8205 219.4364
   219.6151 220.2588 220.5396 221.3409 221.3500 221.6000 221.9283 222.2256
   222.9619 223.1982 223.2710 223.4250 223.8093 223.9551 224.2673 224.3228
   224.7220 224.9605 225.4616 225.7240 226.2442 226.2641 226.7695 227.1456
   227.8887 227.9958 228.6453 228.6884 229.2367 229.6784 229.9191 230.0663
   230.4078 231.4066 232.4208 232.6778 233.3926 233.6937 234.5000 234.9738
   235.1178 235.2721 235.5416 236.9845 237.1494 237.2491 237.8386 238.0424
   238.1517 238.6093 238.8768 239.4139 239.4682 240.3372 240.6239 240.9597
   241.0444 241.4785 241.8225 242.2837 242.6144 243.5498 244.0773 244.2603
   244.6512 244.8553 244.9909 245.5657 245.6178 246.0830 246.2291 246.5711
   246.7708 246.8968 247.7110 247.9683 248.2878 248.7667 248.9999 249.1016
   249.3250 249.7771 250.3266 250.4066 250.6733 251.0728 251.1650 251.4770
   251.7604 252.7186 252.7739 253.9001 254.0098 254.5296 254.5390 254.9775
   255.2204 255.4147 255.6968 255.8614 256.0647 256.2858 256.3184 256.6051
   256.7666 256.9534 258.0595 258.8850 258.9654 260.0063 260.3383 260.5281
   261.7372 261.8212 261.9915 262.7422 263.1281 263.3375 263.8695 263.9331
   264.7524 264.8843 265.3307 265.3451 265.8793 266.0575 266.2410 266.3762
   266.4703 267.0176 267.0958 267.6144 267.9803 268.1671 268.2602 268.3585
   268.5232 268.7312 269.0471 269.5741 269.6009 270.2588 270.6807 271.0072
   271.1248 271.7733 271.8390 272.0070 272.4587 273.0819 273.2176 273.3556
   273.5016 274.7226 274.7850 275.2047 275.5936 275.7565 276.3229 276.3290
   276.7985 276.9506 277.1469 278.3777 278.7561 278.9967 279.8639 280.1126
   280.3074 280.3530 280.5348 280.5630 280.6940 280.8136 281.0710 281.2651
   282.1459 282.2043 283.4054 283.4699 283.8629 284.8279 284.8780 285.1219
   285.3683 285.9582 286.0078 286.9167 287.3518 287.4829 287.8637 287.9031
   288.4518 288.8038 288.9239 289.0402 289.5017 289.5841 290.1444 290.4236
   290.6481 291.2652 291.4313 291.5176 291.7362 291.7643 292.0254 292.2745
   292.3700 292.4788 292.9658 292.9786 293.3164 293.3987 293.9783 294.0555
   294.2147 294.4684 295.1826 295.6094 296.4426 296.8245 297.1633 297.2871
   297.9661 298.3310 299.0185 299.2240 299.4610 299.4720 299.8228 299.8633
   300.1807 300.4387 300.7356 300.9489 301.2897 302.1204 302.2888 302.3965
   302.8506 303.0097 303.2090 303.5526 303.6907 303.8307 304.5575 304.7470
   304.8635 305.1992 305.4474 305.7566 305.9386 306.4757 307.4141 307.4450
   307.8501 307.8904 308.8583 309.1475 309.2807 309.3795 309.6411 309.8732
   310.2579 310.3732 310.9116 311.1126 311.2962 311.3395 311.9916 312.1554
   312.3078 312.9279 313.9801 314.1684 314.2559 314.7503 315.2249 316.0261
   316.3769 316.6822 316.8046 317.4319 318.0990 319.3836 319.4216 319.4509
   319.9049 320.0381 320.3659 320.3961 320.6223 320.8699 320.9312 321.2455
   321.3725 321.4651 321.7985 321.9409 322.1912 322.2854 322.3204 322.6410
   322.8982 323.5106 324.4754 324.5362 324.7592 325.3007 325.3890 325.5681
   325.7471 325.9491 325.9865 326.8428 326.9710 327.4492 327.5838 328.1526
   328.3336 328.8604 329.8471 330.0930 330.2297 330.4493 330.6799 330.7008
   330.8315 331.7057 331.7836 331.9734 332.8675 333.2561 333.7225 334.2801
   334.2820 334.6156 334.8829 334.8857 336.2211 337.1991 337.5221 337.7112
   337.9385 338.2723 338.4065 338.8342 338.9089 339.2538 339.6299 339.6878
   339.7830 340.0962 340.2250 340.2285 340.8393 340.9202 340.9886 341.6795
   341.7136 342.0109 342.1378 342.7819 342.9900 343.4587 343.5570 343.6295
   343.7123 344.8057 345.0058 345.2753 345.7641 345.7948 346.4636 346.8081
   346.8409 347.1850 347.4648 347.5535 348.2238 348.2527 348.6389 349.0496
   349.1377 349.2416 350.0217 350.4338 350.8110 350.9842 351.4181 351.4534
   351.7220 351.9382 352.0054 352.0615 352.3259 352.6430 353.0700 353.2516
   353.6039 353.6637 354.3742 354.4627 354.6461 354.9753 355.1816 355.4654
   355.7290 356.0541 356.2392 356.5690 356.9755 356.9909 357.1663 357.9506
   358.0116 358.1077 358.2081 358.8509 358.9897 359.2763 359.4781 359.5399
   361.0621 361.2624 361.5627 361.7875 361.8750 362.2624 363.2218 363.6679
   364.1972 364.4677 364.9468 365.5338 365.5638 365.9111 366.8920 366.9207
   367.5991 367.7653 368.1182 368.2138 368.7725 368.8251 369.0992 369.2174
   369.2950 369.3506 369.6907 369.8027 369.8654 369.9410 370.1938 370.8263
   371.0164 371.3373 371.3820 371.6250 371.6457 372.2108 372.2379 372.3077
   372.8787 373.3968 373.6525 373.8816 373.9787 374.6069 374.6161 375.2501
   375.6126 376.0851 376.1236 376.4322 376.8750 376.9688 377.0597 377.2107
   377.6125 377.8096 377.9919 378.7447 378.7806 379.3974 379.4258 379.4694
   379.6703 379.8894 379.9634 381.0045 381.3509 381.6086 382.2200 382.6125
   382.7247 382.7505 383.1980 383.3795 383.6590 383.6989 383.8465 383.9404
   384.1941 384.3781 384.3941 384.5605 385.2986 385.4306 385.7492 386.1584
   386.5681 386.6955 387.4620 387.5587 387.7201 387.7615 388.0670 388.1180
   388.9115 389.0111 389.6068 390.0537 390.1772 390.3128 390.3764 390.5876
   390.6996 391.1393 391.2156 391.3558 391.3736 392.1409 392.7089 392.9482
   393.0691 393.1545 393.3704 393.4495 393.6665 394.0027 395.0176 395.1020
   395.5927 396.3489 396.5310 396.8288 396.9524 397.3630 397.3768 397.6466
   398.0576 398.1322 398.2539 398.6095 398.8330 398.9349 399.1892 399.4767
   399.6041 400.7995 401.1230 401.2353 401.2785 401.8094 401.8771 402.9751
   403.0863 403.1518 403.2602 403.9493 404.2274 404.2639 404.4163 404.9920
   405.1983 405.2013 405.4548 405.6583 405.6846 405.7107 405.7666 405.8100
   406.2605 406.2627 406.4518 406.8892 407.0105 407.0688 407.1834 407.2086
   407.7505 408.3236 408.5707 408.6529 409.1548 409.1650 409.4113 410.2966
   410.3376 410.3936 410.5651 410.5657 411.0304 411.2529 411.3485 411.5696
   411.6072 412.0001 412.4745 412.5347 413.3345 414.1207 414.5749 415.7298
   415.8946 415.9772 416.2297 416.5436 416.8045 416.8621 416.9935 417.6224
   417.7146 417.7741 417.8537 418.5338 418.8700 419.6995 419.7000 419.9728
   419.9902 420.2597 420.3385 420.6358 420.8986 421.4050 421.4856 421.6536
   421.8233 421.9695 422.3015 422.3531 422.4424 423.0635 423.6056 424.0874
   424.5289 425.0481 425.3759 425.4060 426.0183 426.4055 426.6115 426.6907
   426.7242 426.7899 426.8602 427.0374 427.0743 427.3148 427.5497 427.6539
   428.4040 428.4249 428.4863 429.0343 429.4813 429.5251 429.6753 430.4080
   430.7891 431.6654 431.6988 431.9713 432.0540 432.8958 432.9876 433.9119
   433.9939 434.2638 434.7125 434.8831 434.8931 435.6481 435.8805 435.9394
   436.2539 436.6422 436.9232 437.1854 437.4690 437.5762 437.8259 437.9384
   437.9837 438.0513 438.1393 438.4660 438.5082 438.7017 439.0316 440.3067
   440.4419 440.6699 440.8315 440.8666 440.9406 440.9714 441.4648 441.6079
   441.7720 442.2542 442.5025 442.7458 443.3039 443.3796 443.7779 443.7785
   445.0714 445.2800 445.4738 445.4757 445.7511 445.8994 446.1436 446.4886
   446.6946 447.5114 447.5550 448.0909 448.1004 448.2341 448.2950 448.8743
   448.9612 449.0494 449.3319 449.4363 450.4319 450.7353 450.8534 450.8623
   450.8887 450.9145 451.1357 451.1674 451.6009 452.2568 452.3108 452.5083
   452.6476 452.8720 452.9018 453.0925 453.3015 453.9792 456.0499 456.1087
   456.1224 456.4397 456.7304 456.7475 457.0643 457.1692 457.1978 457.7605
   458.5842 458.9153 459.1039 459.1572 459.4911 459.6556 459.7165 459.9043
   459.9648 460.0079 460.0780 460.2031 460.8492 460.8967 461.3393 461.4488
   461.5541 461.6312 462.3595 462.3759 462.6227 462.6295 462.7177 463.7759
   463.7767 464.2672 464.4421 464.5015 465.0049 466.5562 466.6088 466.6453

          k = 0.5000 0.0000 0.5000 (  2461 PWs)   bands (ev):

    -6.9760  -6.8318  -6.8253  -6.7329  -6.7273  -2.5158   2.6243   4.5920
     6.3357  10.2834  12.3740  12.8685  12.9538  15.4197  17.6202  19.1127
    19.4727  20.5318  23.0227  23.9770  24.7301  25.7036  26.7145  27.8751
    29.9300  30.4309  30.5787  31.0263  31.7442  32.6512  32.8731  33.5106
    36.5202  36.9162  37.9352  38.8936  39.3588  39.7512  40.1589  40.5391
    41.2650  42.8292  42.9074  43.8236  46.9475  47.3033  48.4939  48.8537
    49.5845  50.2950  50.9112  51.3822  52.1976  52.5884  53.8339  54.6325
    55.3642  55.7320  56.7075  57.2965  57.7108  58.6545  58.9156  59.7846
    59.9511  60.3588  62.6071  62.8750  63.1130  64.1800  64.7635  65.2023
    66.4403  66.9541  67.9657  68.3217  69.1490  69.9868  70.4235  71.0116
    71.0881  72.6645  73.4135  73.7754  74.5894  74.9354  75.2838  75.5578
    76.6034  76.8814  78.6659  79.1143  79.5677  80.0821  80.6218  81.2213
    81.3375  82.2041  82.2304  82.4011  84.0088  84.5120  85.1702  85.6942
    86.4813  86.9490  88.1264  88.4011  89.5884  89.6793  90.6910  90.7928
    91.4275  92.1033  92.5408  92.8464  93.5954  93.8068  93.8648  94.8184
    95.2439  95.8214  96.8810  97.0030  97.4696  97.6214  98.3097  98.9539
    98.9773  99.4166  99.5387 100.2271 100.9062 101.6754 101.8288 102.2589
   102.5085 103.1675 103.5395 103.7400 104.6638 104.8214 105.8567 106.7054
   107.0226 107.9945 108.0327 108.7032 108.9122 109.4792 110.3781 110.9677
   112.0764 112.3700 112.8399 113.2036 113.4752 114.1149 115.1156 115.6823
   115.7044 116.3475 117.1664 117.3895 117.5302 118.5246 118.6549 119.2862
   119.8271 119.8629 120.5979 121.5541 122.3642 122.8733 124.4321 124.4946
   124.7105 124.7272 125.0410 125.6045 126.8162 127.0084 127.4747 127.5258
   128.1127 128.7077 129.5784 129.8046 130.4764 130.5619 131.1370 131.4926
   131.7967 132.2678 132.3376 133.0931 133.4203 133.7513 134.3243 134.8456
   135.2651 135.6072 136.3408 136.6530 137.4840 137.9506 138.5842 138.6051
   140.2443 140.4615 140.7406 140.8044 141.5554 141.9600 142.1026 143.0417
   143.1042 143.2277 143.6419 143.8078 144.8074 145.1133 145.7212 146.0710
   146.5853 146.5864 147.0839 147.4226 148.2838 149.0871 149.3099 149.6394
   150.5249 150.8285 152.0421 152.1279 152.1342 152.3005 153.7126 154.1155
   154.6393 155.2613 155.2881 155.4472 155.6658 156.1347 156.6980 157.2916
   157.6816 157.9707 158.8572 158.8776 159.5052 160.5003 160.8116 160.9813
   161.5420 161.7743 162.0634 162.3074 162.7155 163.2740 163.8358 164.0442
   164.5257 165.2578 165.5047 165.9598 166.5289 166.6206 166.7400 167.1996
   167.8504 168.9230 169.3103 169.6625 169.7972 169.8100 170.8296 171.3609
   171.8655 172.7936 173.1525 173.7346 173.9417 174.6083 175.4638 175.7209
   176.1073 177.0593 177.2476 177.7525 178.1747 178.3935 178.5963 179.2067
   179.2874 179.8535 180.2769 180.5306 180.9781 181.2819 181.4482 181.4811
   181.7671 182.4282 182.6931 182.7610 183.0797 183.3430 183.8432 184.0273
   184.6653 185.2154 185.2446 185.9557 186.1773 187.0449 187.6347 188.0340
   188.5065 188.9299 189.2300 189.3692 189.6867 190.2126 190.3753 190.4783
   190.6722 190.9784 191.1185 191.8984 192.0029 193.4300 194.4131 194.7324
   195.2567 195.8178 195.9995 196.4103 196.8250 197.5045 198.3327 198.4069
   199.1072 199.2394 199.2943 199.8338 200.0246 200.0475 200.5549 200.8688
   202.0364 202.7706 203.0386 203.0941 203.3145 203.6751 203.7204 204.3015
   204.5941 204.9891 205.1186 205.2823 205.8084 205.8179 206.1914 206.6099
   206.6307 206.8650 206.9747 207.2853 208.4801 208.9596 209.3000 209.6498
   209.9472 210.2778 210.9164 211.4831 211.9613 212.5729 212.7305 212.7336
   213.3699 213.6833 213.7440 214.2452 214.9593 214.9878 215.9657 216.2224
   216.6889 217.2356 218.0555 218.2411 218.5836 218.7380 219.0080 219.0387
   219.1304 219.2863 220.2219 220.4989 220.9243 220.9308 221.3697 221.5410
   221.9009 222.4383 223.2503 223.3511 224.1968 224.7472 224.8394 225.8000
   226.2056 226.3673 226.4231 226.6704 226.8694 227.6641 227.9091 227.9700
   227.9915 229.0229 229.0433 229.7319 231.0763 231.2277 231.2408 231.7442
   231.8659 232.1990 233.4441 233.7773 234.3003 234.4407 235.0515 235.1775
   235.2924 235.9832 236.4162 236.4819 237.0650 237.2624 237.4748 238.0031
   238.0071 238.1208 238.9346 239.1978 239.4053 239.5574 239.9694 240.1924
   241.6435 241.8379 242.0644 242.3791 242.5853 243.0696 243.1417 243.5326
   243.6429 244.3579 244.4621 244.7340 244.9973 245.0154 245.0975 245.6217
   246.3461 246.5005 246.5069 246.5539 247.4450 247.6505 248.0715 248.6939
   248.8152 249.4118 250.4995 250.8801 251.1260 251.4020 251.5158 251.6771
   251.8591 252.1465 252.1630 252.4182 252.5652 253.6202 253.7695 253.9605
   254.3606 254.4893 254.6654 254.6700 254.9977 255.4311 255.7710 255.8199
   256.1720 258.7962 259.1491 259.2977 259.5617 260.1429 260.1723 260.3455
   261.1965 262.0920 262.2952 262.5024 262.5056 262.6160 262.6784 262.9077
   263.2318 263.7826 263.9797 264.0606 264.1963 264.4923 264.6012 265.1933
   266.5919 266.6726 266.9506 267.0472 267.0866 267.4593 267.8186 268.0797
   268.2493 268.6247 268.9959 269.1103 269.3761 269.4974 269.7189 269.7285
   270.2338 270.5427 270.7984 271.1310 271.9988 272.0542 272.1115 272.6799
   273.4515 273.4618 273.9162 274.1083 275.6248 276.2622 276.4375 276.7476
   277.1006 277.5267 277.7661 277.8445 278.0236 278.1658 278.1921 278.4639
   278.7952 279.3688 279.7130 280.2997 280.5337 280.6600 280.8295 281.3261
   282.0677 282.6384 283.0126 283.0404 283.5028 283.5950 284.7439 284.7991
   284.9402 284.9902 286.1042 286.5567 287.6559 288.0005 289.2681 289.4730
   289.6670 289.7279 289.8625 290.1012 290.1972 290.3450 290.4567 290.4886
   290.7453 290.7688 291.9140 292.0948 292.2577 292.4486 292.5489 292.9400
   293.2132 293.2431 293.5930 294.1270 294.3662 294.7960 294.8378 295.1612
   295.1799 295.2501 295.9485 296.0764 296.3503 296.4760 297.2049 297.4737
   297.7067 297.7611 297.9371 299.8260 300.5680 300.7519 300.9069 300.9599
   301.5230 301.6048 301.6304 301.7182 302.4327 303.1575 303.3942 303.5789
   303.7989 304.4300 304.8432 305.0752 305.6102 305.6793 305.9117 306.3681
   306.5344 306.6064 306.7091 306.9188 307.2516 307.6324 307.6862 307.9981
   308.5017 309.0769 309.2445 309.3822 309.9464 309.9531 310.3680 310.6413
   310.6597 311.1456 311.5900 311.5942 311.9499 311.9882 313.4578 313.5719
   313.5862 313.7257 314.9330 315.2864 315.7247 316.1124 316.2844 316.7860
   317.5137 317.5305 317.9332 317.9811 319.2359 319.3862 319.5541 319.6142
   319.7462 320.0729 320.6106 320.6569 320.9758 321.6653 321.6678 321.9469
   322.0197 322.0425 322.0451 322.1157 322.9001 322.9997 323.1337 323.9035
   324.2391 324.4960 325.3898 325.4962 325.5556 325.6163 326.2180 326.6318
   326.6687 326.7844 326.9020 326.9516 327.3566 327.4628 327.4898 327.5238
   328.2192 328.3836 328.4057 328.5287 329.1112 329.2867 329.4663 329.6629
   331.9235 331.9398 332.4534 332.9376 333.2309 333.4873 333.7949 333.9090
   334.0756 334.2268 334.6859 334.7276 334.7809 335.0721 335.1490 335.7102
   336.0475 336.1989 336.4295 336.4861 336.6853 336.7434 336.8051 337.1489
   337.2377 337.4090 338.8767 338.9831 340.5223 340.7244 341.0039 341.3284
   341.4041 341.4235 341.4405 341.6946 341.8675 342.0553 343.7714 343.8005
   344.2685 344.4989 344.5168 344.5493 345.3365 346.3913 346.5406 346.6776
   346.6934 347.0344 347.1731 347.1732 347.2763 347.6185 348.3469 348.4469
   348.5370 348.6584 348.8261 349.0578 349.0927 350.2370 350.7155 350.8979
   350.9403 351.0800 351.1706 352.1835 352.2602 352.5480 352.5622 352.7852
   352.7927 352.8499 353.1079 353.3416 353.4740 354.5339 355.5485 355.7172
   355.7552 355.9634 356.1463 356.1531 356.2941 356.9465 357.0568 357.3313
   357.4281 358.0230 359.1740 359.4599 359.6966 359.8739 359.9192 360.2283
   360.5338 360.7950 361.6207 361.6759 362.3745 362.5021 362.6301 363.2043
   363.4543 363.5784 363.6853 363.7382 363.9114 363.9389 364.0672 364.2431
   364.4142 364.5064 364.8342 365.0230 367.1351 367.1890 367.5120 369.2038
   369.2207 369.2551 369.3135 370.2712 370.3322 371.1622 371.3652 371.4540
   371.4806 371.6233 371.6654 371.7658 371.8544 372.1269 372.4101 372.4503
   373.1317 373.2608 373.8213 374.4206 374.5410 374.6414 374.7214 375.6085
   375.7113 376.0011 376.0867 376.2184 376.2591 376.7401 376.7603 376.9440
   377.0826 377.0836 377.2045 377.5209 377.9246 377.9336 378.9451 378.9976
   379.0148 379.8597 379.9822 380.0956 380.3149 380.3911 381.5065 382.2154
   382.4157 382.9633 383.0757 383.2144 383.3803 383.5578 383.8559 384.1487
   384.2304 384.4695 384.5555 384.7334 385.2117 385.2143 385.5470 385.8295
   385.8916 386.1887 386.7134 386.9402 387.3494 387.4259 387.4983 388.1273
   388.1892 388.7092 388.8734 389.1510 389.1812 390.2078 390.2200 390.3850
   390.5979 391.4724 391.8061 393.3619 394.1224 394.3688 394.9776 395.0780
   396.1379 396.3672 396.4291 396.7970 397.0818 397.3368 397.3702 397.5362
   397.7037 397.7575 397.9396 398.1455 398.1774 398.1929 398.3859 398.4829
   398.5544 398.6593 398.6780 399.0297 399.9589 399.9604 400.0878 400.1049
   400.1475 400.4002 401.2003 401.3595 401.9804 402.0332 402.0634 402.7516
   402.8271 402.8812 402.8936 403.0679 403.4827 403.5847 403.7915 404.1240
   404.2479 404.3972 404.5158 405.7299 405.7349 405.7628 405.8207 406.1070
   406.7797 406.7993 406.9228 407.0358 407.1615 407.9579 408.5162 408.5488
   408.8843 409.0457 409.1279 409.2399 409.4461 409.5343 410.0552 410.7066
   410.8074 410.8896 411.2712 411.3492 412.0252 412.0264 412.2076 412.3956
   412.4659 413.4246 413.5468 413.6426 414.6833 414.8424 415.2125 415.2316
   415.3568 415.4617 415.5593 415.9695 416.0070 416.5864 416.7108 416.9231
   417.0367 418.3443 418.3764 418.3857 418.4208 420.7008 420.9356 421.0109
   421.3025 421.7704 421.9865 422.3326 422.4758 422.7043 422.9392 423.4291
   423.4667 423.7358 423.8608 424.3443 424.4431 424.6455 424.7985 424.8996
   424.9895 425.0335 425.0572 425.8026 425.8997 425.9802 426.2648 426.2837
   426.5122 426.6147 426.7778 427.1446 427.1985 427.8856 427.9980 428.4060
   428.4062 429.0485 429.2737 429.5925 429.6166 430.0324 430.3941 430.6015
   430.6647 430.6687 430.9249 432.4137 432.5232 432.9877 433.0467 433.0592
   433.1065 433.4994 433.5003 434.4261 434.4473 434.5066 434.7745 434.9248
   434.9622 437.0193 437.1568 437.9110 438.0347 438.1187 438.1984 438.2802
   438.3242 438.3721 438.4532 438.6162 438.6674 438.8224 438.8602 439.1379
   439.1733 439.8200 440.0188 440.1908 440.3972 440.5582 440.5855 441.0663
   441.1251 441.8916 441.9905 442.0407 442.0642 442.2617 442.3274 443.4574
   443.5487 443.6875 443.7693 443.8239 443.8413 444.8279 445.2723 445.4933
   445.5410 446.0090 446.0862 446.9624 447.0876 447.8107 448.0199 448.8989
   448.9634 449.0498 449.0914 449.6404 449.7593 450.8434 450.8836 451.2643
   451.3220 452.2966 452.4325 452.5194 452.5563 453.4883 453.5107 453.6997
   453.7609 454.6319 454.6986 455.0307 455.1297 455.7213 456.0728 456.4161
   456.4398 456.4952 456.5832 456.9176 456.9883 457.0993 457.2446 457.3260
   457.4593 457.9950 458.0547 458.7469 458.8860 460.2222 460.3418 460.3975
   460.5123 461.2691 461.4473 461.5982 461.6016 461.6498 461.8169 461.8423
   461.9673 462.0620 462.1716 462.1887 462.2101 462.6088 462.6180 462.9956
   463.1819 463.4772 463.6041 463.6867 463.7953 463.8439 464.0578 464.9051

          k = 0.0000-1.0000 0.0000 (  2450 PWs)   bands (ev):

    -7.0429  -6.7783  -6.7783  -6.7779  -6.6998  -1.7699   1.6698   5.0832
     5.0832   9.1328   9.5945  16.4254  16.7787  16.7787  18.1515  19.0948
    19.0948  20.6243  23.3100  23.5685  25.8191  25.8191  26.2302  26.7401
    26.7401  27.0231  27.6379  31.0253  31.8227  34.1072  34.1072  35.0654
    36.7531  37.5417  37.5417  37.9259  38.7213  40.5865  40.9668  40.9668
    42.0831  43.5579  43.5579  44.6828  44.8289  45.2394  46.0776  46.0776
    48.4370  51.9248  52.2078  52.2078  53.2230  54.0610  54.0641  56.5469
    56.5521  56.5521  57.7168  57.7168  58.2557  59.1524  59.5708  60.5837
    60.5837  62.1608  62.1608  62.8570  62.8838  63.2593  66.3061  66.5133
    66.5133  66.9277  68.6217  69.2323  69.9955  69.9955  70.3182  71.4495
    71.4495  71.7216  72.3504  72.3504  72.5493  73.9298  74.5815  74.5815
    75.3061  75.3738  77.1714  77.5866  77.5866  78.0264  78.0264  78.7355
    81.4609  81.4787  82.9641  82.9641  83.0109  84.1746  85.4308  85.4308
    86.7630  87.2550  87.2550  87.3727  88.2627  88.3884  88.3884  88.6000
    90.8415  91.9129  92.1532  92.1532  93.2858  94.0218  94.0218  94.3529
    95.6292  96.1124  96.1124  98.0826  99.2015  99.2596  99.2674  99.2674
    99.6354 100.5432 100.8648 102.7471 102.7471 103.1930 104.3036 104.4401
   105.1438 105.1438 105.4424 106.8857 107.5386 108.0085 108.2499 108.5680
   108.5680 109.8745 109.8745 109.9453 110.3307 110.3307 110.9814 110.9814
   111.8346 111.9161 112.4793 113.7532 113.7532 114.6185 114.6492 114.6522
   116.8986 117.1894 117.1894 117.2058 119.2388 119.2388 119.8460 119.9786
   120.6049 121.5839 121.7667 121.7667 122.1223 122.1223 122.2861 123.5187
   123.5187 123.6128 124.5732 125.5298 125.9452 126.1404 126.3885 126.5982
   126.5982 126.6503 126.9219 126.9219 127.7426 127.7426 128.1474 128.4453
   128.5226 128.5226 129.2662 129.4624 129.9207 129.9207 130.6385 133.3611
   133.3611 133.8450 135.1804 135.2982 135.2982 135.4196 136.3473 138.1160
   139.4704 139.4704 139.5920 140.7726 140.7726 141.3613 142.1090 142.5812
   142.5812 143.6539 144.8600 144.9098 145.6259 146.2627 146.2627 147.3702
   147.4351 147.4351 147.5480 147.5830 149.7666 149.7666 151.2254 152.4635
   152.8834 153.4560 153.4560 153.8802 154.5288 155.2618 155.2919 155.3334
   155.3334 155.7530 155.8519 155.8519 156.4929 158.1716 158.1716 159.0623
   159.2879 159.3624 159.8991 159.9055 159.9055 160.5014 160.5014 161.4553
   161.4553 161.8190 163.0121 163.0121 163.1507 163.2542 163.3116 163.8727
   163.8727 166.0371 167.2228 168.4653 168.9145 169.2236 169.2236 169.9214
   170.0464 170.0693 170.0693 170.0897 170.7482 171.5949 171.9722 171.9722
   172.0213 172.6147 172.6147 173.0053 173.9961 173.9961 174.0836 174.2262
   174.2262 174.6765 174.7834 175.0061 175.0061 175.9151 177.8806 178.6253
   178.6365 178.6365 178.6981 178.6981 178.7060 178.8189 179.8532 180.7352
   181.0396 181.0396 182.1783 182.5028 182.5028 182.8888 186.0649 186.6890
   187.9574 188.0678 188.0678 188.4962 188.5040 188.5040 189.0275 189.1867
   189.2945 189.5187 189.5187 190.9125 191.2485 191.4355 191.5167 191.5167
   191.8489 191.9223 191.9223 192.2463 192.2463 192.2525 192.5758 194.5638
   195.4074 196.0692 196.6908 196.6908 196.7932 196.8840 196.8840 196.9427
   197.4378 197.4463 197.7997 197.7997 198.2974 198.8238 198.8902 198.8902
   200.9881 201.1572 201.1572 201.3171 201.6596 201.6596 203.6345 203.8041
   203.8065 203.8065 204.7458 204.8223 206.5606 206.8511 206.8511 207.0589
   207.8184 208.1726 208.5504 208.5504 208.9906 209.3283 209.3283 209.5075
   209.6407 210.1737 210.5992 210.5992 212.5692 212.8532 212.8532 213.0904
   214.0445 214.1451 214.2116 214.2712 214.4454 214.4454 214.4607 214.5193
   214.6404 214.6404 219.6494 219.6494 220.5940 221.2324 221.4785 221.5073
   221.5954 221.5954 222.0503 222.0503 222.1489 222.1489 222.9206 223.3331
   223.8290 224.9304 224.9304 225.0453 225.1555 225.4102 225.4102 225.4769
   225.8996 225.9370 225.9370 225.9747 226.2852 226.2852 226.3327 226.5626
   226.5626 227.1354 227.6824 227.8227 227.8227 227.8539 227.8727 228.3122
   228.4111 228.5579 228.5579 229.1362 229.4577 229.7450 229.9426 229.9426
   230.8329 231.0301 231.0301 231.3846 233.5682 233.5682 233.6412 233.9845
   236.4148 236.4148 237.2446 237.3101 239.0596 239.4591 240.0937 240.0937
   241.1750 241.4608 241.4608 243.4993 243.5217 244.4254 244.4254 244.6252
   244.7828 244.9819 245.3162 245.3162 245.3269 245.4221 245.4494 245.4494
   246.5463 246.5483 246.5483 247.2278 248.3254 248.3801 248.3801 248.5427
   248.8481 249.3925 249.7235 249.7235 250.8624 250.9391 251.8438 251.8438
   252.9807 252.9936 252.9936 253.9747 254.2875 255.2739 255.9859 255.9859
   257.1678 257.1678 257.9013 257.9458 258.9507 259.0782 259.2552 259.2552
   261.9531 262.4183 262.4408 262.7277 262.7277 262.7300 263.3069 263.3069
   264.0826 264.0826 264.0844 264.3275 264.5189 264.5969 264.6968 264.6968
   265.6226 265.6524 265.6524 265.7453 267.4152 267.9777 268.5111 268.5111
   269.0789 269.5150 269.7110 269.7110 270.1331 270.3135 270.6605 271.0205
   271.3825 271.3825 271.7587 271.7587 272.7525 272.9951 273.0087 273.2296
   273.4975 273.4975 273.5788 273.6730 274.0659 274.0659 274.5045 274.6954
   275.5827 276.0025 276.0025 276.2224 276.4667 276.4667 276.8444 277.0089
   277.0089 277.0850 277.0850 277.2500 277.5958 277.6718 279.3919 279.4249
   279.7893 279.8942 280.1829 280.1829 280.5558 280.5558 280.9694 280.9694
   281.0651 281.2394 281.2394 281.4371 282.5245 282.6343 282.7497 282.7554
   282.9177 282.9177 282.9844 282.9844 285.2342 285.5165 285.6514 285.6514
   285.9419 285.9419 286.3772 286.4249 288.7304 289.3635 289.3635 289.5015
   289.5215 289.6285 289.9949 290.4837 290.4837 291.0844 291.7386 291.7386
   291.9113 292.0089 292.2048 292.5286 292.5286 292.7769 292.7769 292.9981
   292.9981 293.5731 294.0723 294.1008 294.2643 294.4817 294.7082 294.7082
   294.9455 294.9455 295.0146 295.3680 295.6595 295.9818 296.4386 296.4386
   300.1833 300.2346 300.2494 300.2525 300.2539 300.2539 300.3065 300.3065
   300.3747 300.4181 300.5356 300.5356 306.6955 306.6955 307.0108 307.4027
   307.4746 307.8835 307.9981 307.9981 308.3980 308.7154 308.7154 308.9676
   309.1086 309.1809 309.2076 309.3535 309.7915 309.7915 310.5106 310.8726
   310.8726 311.0135 311.1958 311.1958 311.6015 311.9245 311.9245 312.1427
   312.1879 312.1879 312.3337 312.3456 314.5977 314.6708 314.6756 314.6756
   316.4152 316.4287 316.5299 316.5299 316.5487 316.5487 316.8907 317.1982
   317.4556 317.4556 317.5228 317.5292 318.1266 318.1266 318.6550 319.0416
   319.9212 319.9212 319.9991 320.2949 322.9028 323.3427 323.9987 323.9987
   324.3489 324.5037 324.7019 324.7019 325.6698 325.6698 326.1155 326.6602
   326.7220 326.8660 327.0823 327.0823 328.0921 328.4894 328.6453 328.6453
   329.1398 329.1398 329.2335 329.4795 329.4879 329.6535 329.6535 329.6944
   330.4209 330.4590 330.4590 330.4612 331.5276 331.5955 331.5955 331.6503
   333.7494 333.7781 333.7781 333.8080 336.3372 336.5393 337.7455 337.7455
   337.8856 338.1447 338.1447 338.6363 341.0600 341.2194 341.4218 341.4218
   341.9827 342.2761 342.3217 342.3431 342.3431 342.4969 342.5854 343.0297
   343.5752 343.5752 344.2369 344.2369 344.5271 344.5684 345.2769 345.2769
   345.3078 345.6183 345.9682 345.9682 346.4754 346.4862 346.8504 346.9262
   346.9262 347.1134 347.1134 347.2378 347.2790 347.7861 347.7861 348.0308
   348.3360 348.3899 348.4733 348.5398 348.7831 348.7831 348.9630 349.2601
   350.6025 350.6025 350.8588 350.8588 351.6651 351.6840 353.5793 353.7532
   354.5744 355.1733 355.1733 355.2542 355.2542 355.2864 356.1913 356.6276
   360.9920 361.2385 361.5074 361.5074 361.5691 361.5931 361.5931 361.9428
   361.9428 362.1660 362.1660 362.2006 362.7429 362.8751 363.0220 363.0220
   363.1827 363.3707 363.5376 363.5376 364.7220 364.8597 364.8597 364.8757
   365.6847 365.7921 366.2567 366.2627 366.3218 366.3218 367.4042 367.4283
   367.4628 367.4628 367.4909 367.5914 367.6187 367.6187 371.6863 372.0773
   372.0773 372.1512 372.4559 372.7119 372.7119 372.7395 372.7526 373.0091
   373.0245 373.0850 373.3106 373.3106 373.5276 373.5276 373.6990 373.7341
   374.8511 374.9620 375.0431 375.0431 375.0621 375.0621 375.2942 375.3369
   376.1452 376.1452 376.1673 376.1673 376.2956 376.3335 376.4883 376.4982
   376.9967 376.9967 377.1029 377.1029 380.1802 380.2337 380.5125 380.5790
   380.7239 380.7239 380.7995 380.7995 380.8752 380.9297 381.2754 381.3022
   381.6202 381.6202 381.9196 381.9196 381.9841 382.1142 383.4481 383.6044
   383.6044 383.6270 383.6430 383.6697 383.7019 383.7019 383.9832 384.0851
   384.5925 384.5925 384.6184 384.6184 384.8231 384.8529 385.6124 385.6155
   385.6403 385.6403 385.6846 385.6846 385.7149 385.7184 386.5168 386.6073
   386.6073 386.6394 386.9033 386.9033 386.9043 386.9617 391.7095 391.7234
   391.7544 391.7544 391.7823 391.8104 391.8104 391.8346 394.0516 394.1540
   394.1708 394.1708 394.2276 394.2276 394.3018 394.3406 396.1816 396.5219
   396.6896 396.6896 397.0138 397.4851 397.4851 397.6933 398.5874 398.6379
   398.6379 398.8045 400.0909 400.0909 400.0971 400.3586 400.3626 400.3626
   400.3771 400.3873 401.8187 401.8699 401.8699 401.9336 402.4208 402.4625
   402.4700 402.4700 402.9352 402.9352 402.9606 402.9688 406.8674 406.9294
   407.1538 407.1538 407.9567 408.3805 408.7553 408.7553 408.7796 408.7796
   408.9512 409.0766 410.2344 410.5395 410.5800 410.5800 410.9208 411.2261
   411.2433 411.2433 413.0823 413.0858 413.6223 413.6223 413.6781 413.6781
   414.0868 414.1699 415.2137 415.2371 415.7081 415.7081 416.7776 416.8807
   416.9236 416.9236 416.9248 417.0675 417.0675 417.1760 417.5838 417.8011
   417.8011 417.8651 418.0356 418.1604 418.1604 418.2670 418.5469 418.5878
   419.0165 419.0165 419.0187 419.0187 419.4274 419.4307 421.0922 421.4459
   424.1663 424.1663 424.3297 424.3297 425.6150 425.8005 427.3138 427.4599
   427.4599 427.4678 428.1073 428.1146 428.1520 428.2722 428.2722 428.4486
   428.5751 428.7595 428.7595 428.9236 429.8270 429.8603 429.8603 429.8743
   430.0714 430.1503 430.1802 430.1802 430.2167 430.2167 431.4187 431.4454
   431.4634 431.5635 431.9998 432.0600 432.0600 432.2866 432.3494 432.3494
   432.4087 432.4577 432.4577 432.5483 433.4967 433.4971 433.7300 433.7441
   434.3342 434.3342 434.3536 434.3536 434.8780 434.9093 434.9144 435.0600
   435.1624 435.1624 437.6364 437.6364 437.6469 437.6469 437.7442 437.8165
   437.8201 437.8201 440.1986 440.7455 440.7455 440.7655 440.9400 441.1887
   441.1888 441.3470 441.4603 441.6545 441.6545 441.7536 441.9376 442.0099
   442.0418 442.0418 445.8282 445.9049 445.9937 445.9937 446.0317 446.0317
   446.0630 446.0986 447.0598 447.1656 447.1656 447.2601 448.4626 448.5529
   448.5529 448.6169 451.2283 451.3618 451.4921 451.4921 452.3187 452.3461
   452.3461 452.3897 452.5174 452.5383 452.6670 452.6670 453.4977 453.4977
   453.5060 453.5337 453.5389 453.5569 453.6454 453.6454 453.8042 453.8330
   453.8330 453.9654 458.1840 458.2343 458.2487 458.2487 459.4509 459.5360
   459.6326 459.6326 461.9125 462.4340 462.4340 462.9198 462.9738 462.9738
   462.9930 463.0669 463.1374 463.3887 463.3887 463.6038 464.2287 464.2671
   464.6525 464.6713 464.6713 464.6756 465.0766 465.0899 465.0899 465.0903
   465.1044 465.1750 465.1750 465.2187 465.2650 465.2650 465.2825 465.4007

          k =-0.5000-1.0000 0.0000 (  2468 PWs)   bands (ev):

    -7.0116  -6.8193  -6.7853  -6.7510  -6.7180  -1.6995   1.8163   4.4664
     4.5183  11.6238  11.6262  12.8545  13.5477  17.3470  18.5422  19.3011
    19.3365  21.8047  23.8668  24.5735  24.6611  24.8042  25.7523  26.2370
    29.0714  31.0243  31.1327  31.1526  31.4972  31.5508  32.6566  32.9143
    33.5938  34.5216  37.6078  37.9049  39.7105  40.2544  40.5020  40.7919
    41.1003  42.4751  44.8404  47.3425  47.5379  48.0406  48.5654  49.0628
    49.4190  49.8754  50.3535  51.6456  51.7095  52.9267  55.0738  55.8594
    55.8897  56.3460  56.5341  58.1592  58.3342  58.4158  59.3061  59.4878
    60.3605  60.3892  61.4920  63.2032  63.5434  64.8962  64.9180  65.2558
    66.6484  66.9962  69.2784  69.3271  70.1169  70.9792  71.2990  71.5714
    71.7446  72.4405  72.4961  73.1461  73.4440  73.7605  74.5652  75.2365
    75.6210  76.1055  76.3644  77.1073  77.5903  77.9143  77.9811  80.0796
    81.2090  81.2975  81.9518  82.3490  82.9680  83.2467  84.4773  85.1740
    85.5291  85.8208  85.9780  87.2958  87.9397  88.3309  89.0719  89.2120
    89.8825  90.4933  91.4212  94.4449  94.9150  95.2586  95.7958  96.3348
    96.3613  97.3337  98.3272  98.4394  98.9775  99.3230 100.1366 100.5026
   100.8691 100.9081 101.7003 102.0614 102.4119 102.7741 103.3148 103.8021
   104.5256 104.8098 105.5615 106.3573 106.3833 106.8098 106.9357 108.1148
   108.1746 108.6999 109.0107 109.7471 109.8001 110.1960 110.3018 110.5032
   112.0609 112.1049 112.5726 112.7366 113.4422 113.6978 113.9223 114.3206
   114.6709 116.0455 116.3061 117.0155 118.0969 118.4609 119.0652 119.7382
   120.3035 121.1059 121.2373 121.4953 121.7115 122.6266 122.6901 124.0044
   124.0957 124.5057 124.9175 125.3015 125.5597 125.7110 125.8050 126.3078
   126.5369 127.0799 127.9724 128.0233 128.5718 129.4856 129.8857 130.1040
   130.7085 130.7742 131.3055 132.4667 132.6003 132.7405 133.0646 133.5533
   133.7741 134.8291 134.8436 135.5111 135.5675 136.3176 137.0060 137.2173
   137.6010 138.2356 138.9193 139.4330 140.0915 140.8212 141.1100 143.6963
   144.3611 144.5570 144.9722 145.4290 145.7700 146.2234 146.4122 146.6138
   147.1523 147.6312 148.4566 148.6656 149.0293 149.2130 149.4977 149.5999
   150.3682 150.7909 151.2474 152.0264 152.6041 152.7227 153.8541 153.8583
   154.9849 155.4200 155.5059 155.7742 155.8574 156.0458 156.6282 157.4652
   159.6008 159.6485 159.6690 159.6800 160.1520 160.1612 160.4921 160.7046
   162.6996 162.8305 162.9737 164.5867 164.6550 164.7040 164.9516 165.1214
   165.4024 165.5723 166.1211 166.2801 166.2928 166.4092 166.8222 167.2630
   167.5476 168.1771 169.6764 169.9679 170.1137 171.3203 171.5153 171.7326
   171.9993 172.2565 172.4872 173.1361 173.3972 176.1677 176.1779 176.6412
   178.5282 178.8039 178.9122 179.0975 179.6670 179.7606 179.8295 180.0821
   180.3160 180.7024 180.9244 181.4190 181.5995 181.9127 181.9151 181.9787
   182.2274 182.4954 182.7279 182.9077 183.0778 183.0942 183.2799 183.7377
   184.6861 185.4721 185.8860 186.3289 187.0438 187.6236 187.7627 189.3264
   189.6073 189.7632 189.9089 190.4038 190.8102 191.1695 191.3567 192.0677
   192.0888 192.1438 192.2376 192.7868 192.9703 193.7993 193.9759 193.9983
   194.4589 194.8199 195.0453 195.4012 195.7786 196.0497 196.7030 197.3138
   198.6875 198.7234 198.8740 199.9726 199.9960 200.1863 200.2209 200.3463
   200.5482 200.6938 200.9099 201.0684 201.0959 201.2110 201.2456 202.0807
   203.1692 203.8285 203.8355 204.0488 205.6688 205.6756 205.7452 205.7801
   206.2894 206.3387 206.4187 206.4265 207.7931 208.0717 208.0755 208.3624
   208.9256 208.9771 209.2350 210.1873 210.3528 210.9928 211.2609 211.6164
   211.7056 211.7889 211.9299 212.1890 214.6935 214.9589 215.2647 215.3139
   215.9726 216.3097 216.3373 216.6475 217.2749 217.6654 217.7337 218.3128
   219.1890 220.2355 220.5396 220.5524 221.5137 221.5456 221.7134 222.0175
   223.0768 223.1113 223.4349 223.4961 224.5802 224.7183 224.7671 224.8319
   225.7927 225.9713 226.0080 226.5700 228.1162 228.2201 228.9882 229.0118
   229.9244 230.0545 230.3263 230.5363 231.9144 232.3993 232.5584 232.7571
   232.8244 233.2206 233.3524 233.3625 233.5771 233.8626 234.1726 234.2783
   234.3612 234.4298 234.7320 234.8093 235.7430 235.9204 236.0642 236.0807
   237.6699 237.7747 238.0476 238.0500 238.8196 238.8373 239.4945 239.5370
   239.7267 239.8056 240.7846 240.8998 242.1075 242.4861 242.6334 242.6854
   242.7963 244.4848 244.8927 245.2938 246.5363 246.6150 246.7883 246.9050
   247.0131 247.6528 247.9061 248.0060 248.0821 248.2098 248.5900 248.8001
   249.4486 249.7911 249.8047 250.3452 250.6747 251.1983 251.7309 251.7528
   252.0905 252.4049 252.6979 253.0661 253.8034 253.9779 254.3846 254.5965
   256.5834 256.7468 256.9774 256.9992 257.4507 257.5051 257.5575 257.7728
   257.9951 257.9984 258.0261 258.2858 258.9277 258.9560 259.0687 259.6634
   259.7063 259.7837 260.2366 260.3104 262.4140 264.0409 264.8071 264.9552
   265.1744 265.2252 265.9959 266.3628 267.4535 267.5668 267.6066 267.8384
   268.5238 268.5858 268.9705 269.2577 269.3583 269.7338 269.9713 270.2835
   271.3272 271.3515 271.5120 272.6089 272.6284 272.6643 273.0868 273.0899
   273.3785 273.8654 274.4844 275.0099 275.1972 275.4239 275.5973 275.7628
   276.0106 276.0219 276.5974 276.9573 277.1479 277.4181 277.5759 277.7579
   277.9163 278.1699 278.2361 278.3042 278.4853 278.5507 278.5742 278.9797
   280.4754 280.7211 280.9666 281.2982 281.3217 281.6939 281.7073 282.0925
   282.1759 282.2486 282.2981 282.3890 282.8364 282.9484 283.0133 283.0669
   284.4578 284.5823 284.6088 284.6994 284.9051 284.9524 285.0564 285.0955
   287.1047 287.1260 287.2601 287.2797 287.6538 287.7482 287.8143 288.0564
   288.4528 288.5035 288.5336 288.6102 290.7062 290.9074 290.9216 291.2101
   292.9644 293.1228 293.2689 293.4718 294.2228 294.2452 294.3381 294.3401
   295.1688 295.4529 295.4982 295.6341 296.5589 296.7666 296.9622 297.0574
   298.1763 298.4186 298.4284 298.5961 299.0370 299.2554 299.4877 299.8426
   300.2199 300.2250 300.3622 300.4147 300.5455 300.7448 301.1621 301.1783
   301.1981 301.3782 301.4847 301.8945 302.2680 302.2870 302.2985 302.4449
   306.2010 306.9034 307.3697 307.4357 308.2114 308.2892 308.3654 308.3708
   309.4480 309.6360 309.6637 309.7447 309.8280 310.0208 310.1290 310.4029
   310.5923 310.7072 310.7188 310.9337 311.1724 311.4075 311.4533 311.4898
   311.5808 311.5873 311.6399 311.7703 311.8165 311.8726 312.0301 312.0889
   313.4330 313.4348 313.8196 313.8455 316.8841 317.5281 317.7573 317.9179
   317.9842 318.2220 318.4442 318.5200 319.7544 319.8719 319.8937 320.0625
   320.0988 320.7729 320.8136 320.8260 320.9612 321.1129 321.2278 321.3196
   321.5889 321.7115 321.7422 321.8662 323.3508 323.6288 323.7248 323.7809
   324.7436 324.7878 324.9338 325.6333 327.5777 327.5883 327.7270 327.7564
   328.2705 328.3855 328.3982 328.4069 329.3390 329.3551 329.3874 329.4206
   330.0697 330.0717 330.4869 330.5578 334.0640 334.0748 334.3671 334.5278
   334.6896 334.7320 335.0358 335.0795 338.0610 338.1600 338.3490 338.4265
   339.0646 339.1598 339.1608 339.3087 340.3490 340.4835 340.4848 340.5178
   342.2302 342.2409 342.2969 342.5699 342.7304 342.7828 342.8022 343.0319
   343.2466 343.5503 343.6649 343.6876 346.2534 346.3075 346.3350 346.3656
   346.5217 346.5592 346.5674 346.5859 347.4943 347.7690 348.0474 348.3286
   348.3868 349.1591 349.2328 349.4288 349.9023 350.0163 350.5861 350.7775
   352.1771 352.2395 352.5065 352.6403 352.7667 352.8402 352.8488 352.8938
   353.0294 353.0367 353.1621 353.2466 353.5171 353.8140 354.0687 354.3573
   355.5117 355.5776 355.6031 355.6133 358.0148 358.0376 358.1559 358.3697
   358.7349 358.7885 358.9302 358.9547 360.0920 360.2209 360.5461 360.5809
   360.9935 361.0205 361.1556 361.3589 361.7013 361.7404 361.7864 361.8073
   362.6854 362.8002 362.8389 362.9113 363.1133 363.1334 363.2056 363.3173
   364.0006 364.0108 364.0175 364.0458 364.6627 364.7529 364.8963 364.9002
   364.9321 364.9500 365.0798 365.3556 365.5066 365.7856 365.8808 365.9976
   368.3889 368.4729 368.7152 368.7455 369.2853 369.3010 369.6956 369.7583
   370.4584 370.4675 370.8108 370.9282 371.1665 371.3409 371.4288 371.5912
   371.7269 371.7408 371.7437 371.7669 371.9569 371.9674 371.9779 372.0077
   372.1547 372.2022 372.2413 372.2773 376.7641 376.7858 376.7885 376.9168
   378.8490 378.8708 378.9650 379.0618 379.1614 379.3214 379.3992 379.4918
   380.0584 380.0851 380.7276 380.7368 380.9301 380.9435 380.9966 381.0281
   382.5726 382.6684 382.7557 382.8153 383.4553 383.5933 383.6024 383.6093
   384.1557 384.2685 384.2742 384.5449 384.7313 384.7529 384.8426 384.8725
   385.8517 385.8660 385.8781 385.9016 386.1402 386.6220 386.6652 386.7057
   386.7610 386.7818 387.8537 387.8624 389.0658 389.1322 389.1411 389.1954
   390.3312 390.3909 390.5220 390.5890 391.0336 391.2879 391.3219 391.5435
   392.7634 392.7885 392.8617 392.8761 392.9306 392.9382 393.1541 393.1977
   397.1445 397.1525 397.1716 397.1746 397.7599 397.7650 397.7986 397.7996
   400.4502 400.6295 400.6380 400.7588 401.0699 401.1056 401.9907 402.1909
   402.4679 402.5380 402.6449 402.6580 403.2074 403.2083 403.2098 403.3181
   403.7391 403.7459 403.7721 403.8088 403.9715 403.9988 404.0746 404.1204
   404.1456 404.2700 404.2717 404.3599 404.7469 404.8554 405.3581 405.4401
   407.3371 407.4334 407.7474 407.7724 408.2706 408.2826 408.3435 408.3702
   409.0101 409.0369 409.1222 409.2442 410.6205 410.6230 410.6933 410.6941
   411.6722 411.7731 411.7822 411.7889 413.2964 413.4162 413.4597 413.6220
   413.6423 413.7764 413.8046 413.8701 414.2534 414.4112 414.4634 414.6497
   415.1935 415.2199 415.2475 415.2659 415.2961 415.3473 415.4416 415.4457
   415.8635 415.9792 416.0059 416.0820 416.9831 417.0127 417.0263 417.1442
   417.4772 417.4850 417.4883 417.4950 422.1366 422.1749 422.2528 422.6569
   423.1363 423.2114 423.2268 423.2753 423.3177 423.3283 423.5269 423.5273
   424.4458 424.4495 424.5141 424.5263 425.0779 425.1899 425.2114 425.2328
   426.4011 426.4054 426.4212 426.5001 427.8983 427.9102 427.9214 427.9268
   428.0698 428.0982 428.1030 428.1298 429.5929 429.6836 429.7228 429.9586
   431.7171 431.7201 431.7340 431.7519 432.1893 432.2047 432.4899 432.4976
   433.1294 433.1811 433.4542 433.4985 435.6170 435.7801 435.8333 436.1681
   436.1743 436.3580 436.4519 436.5659 436.5955 436.6061 436.8605 436.9279
   437.9210 437.9284 437.9600 438.0198 439.0408 439.0818 439.1072 439.1488
   439.5684 439.6119 439.8429 439.8448 439.9623 439.9830 440.0313 440.0406
   440.2237 440.2497 440.2509 440.2732 441.0615 441.0617 441.1208 441.1297
   441.6177 441.6246 441.7037 441.7100 441.9579 442.0701 442.0709 442.1099
   445.2476 445.5256 445.6158 445.7547 448.3565 448.3843 448.4806 448.5790
   448.7338 448.8476 448.8803 448.9089 449.7592 449.7604 449.8332 449.8348
   451.3048 451.3078 451.3098 451.3166 454.1075 454.1754 454.1860 454.2369
   454.4971 454.5617 454.5723 454.7671 456.5835 456.6259 456.6399 456.7818
   456.9384 456.9924 457.0049 457.1152 457.3450 457.5195 457.5366 457.5957
   458.2543 458.2581 458.3118 458.3151 458.5055 458.5129 458.6499 458.6657
   459.5965 459.6794 459.6889 459.7065 460.2206 460.3089 460.3602 460.3953
   462.0710 462.1121 462.1408 462.1436 463.4716 463.5008 463.5014 463.5047
   466.2896 466.3165 466.3175 466.3737 466.4657 466.4666 466.4921 466.4997

     the Fermi energy is     7.8002 ev
     (compare with:     7.6136 eV, computed in scf)

     Writing all to output data dir out/mp-20351.save/
 
     init_run     :      0.04s CPU      0.06s WALL (       1 calls)
     electrons    :    575.30s CPU    616.33s WALL (       1 calls)

     Called by init_run:
     wfcinit      :      0.00s CPU      0.00s WALL (       1 calls)
     potinit      :      0.01s CPU      0.02s WALL (       1 calls)
     hinit0       :      0.01s CPU      0.02s WALL (       1 calls)

     Called by electrons:
     c_bands      :    575.30s CPU    616.33s WALL (       1 calls)
     v_of_rho     :      0.01s CPU      0.01s WALL (       1 calls)

     Called by c_bands:
     init_us_2    :      0.00s CPU      0.00s WALL (       8 calls)
     init_us_2:cp :      0.00s CPU      0.00s WALL (       8 calls)
     paro_k       :    556.87s CPU    596.78s WALL (       8 calls)

     Called by paro_*:
     h_psi        :     11.38s CPU     11.95s WALL (     938 calls)
     g_psi        :      0.25s CPU      0.28s WALL (   87292 calls)

     Called by h_psi:
     h_psi:calbec :      0.23s CPU      0.24s WALL (     938 calls)
     vloc_psi     :     10.91s CPU     11.46s WALL (     938 calls)
     add_vuspsi   :      0.16s CPU      0.17s WALL (     938 calls)

     General routines
     calbec       :      0.22s CPU      0.24s WALL (     938 calls)
     fft          :      0.00s CPU      0.01s WALL (      10 calls)
     fftw         :      9.73s CPU     10.22s WALL (  144256 calls)
 
     Parallel routines
 
     PWSCF        :   9m36.12s CPU  10m17.55s WALL

 
   This run was terminated on:  20:27:13  17Nov2023            

=------------------------------------------------------------------------------=
   JOB DONE.
=------------------------------------------------------------------------------=
