
     Program PWSCF v.7.1 starts on  6Apr2024 at 20:55:21 

     This program is part of the open-source Quantum ESPRESSO suite
     for quantum simulation of materials; please cite
         "P. Giannozzi et al., J. Phys.:Condens. Matter 21 395502 (2009);
         "P. Giannozzi et al., J. Phys.:Condens. Matter 29 465901 (2017);
         "P. Giannozzi et al., J. Chem. Phys. 152 154105 (2020);
          URL http://www.quantum-espresso.org", 
     in publications or presentations arising from this work. More details at
     http://www.quantum-espresso.org/quote

     Parallel version (MPI), running on     8 processors

     MPI processes distributed on     1 nodes
     240239 MiB available memory on the printing compute node when the environment starts
 
     Reading input from pw_SbAs_nscf_k1_E47.in
Warning: card &IONS ignored
Warning: card / ignored
Warning: card &CELL ignored
Warning: card / ignored

     Current dimensions of program PWSCF are:
     Max number of different atomic species (ntypx) = 10
     Max number of k-points (npk) =  40000
     Max angular momentum in pseudopotentials (lmaxx) =  4

     Atomic positions and unit cell read from directory:
     out/SbAs.save/
     Atomic positions from file used, from input discarded
 
 
     R & G space division:  proc/nbgrp/npool/nimage =       8
     Subspace diagonalization in iterative solution of the eigenvalue problem:
     one sub-group per band group will be used
     scalapack distributed-memory algorithm (size of sub-group:  2*  2 procs)

 
     Parallelization info
     --------------------
     sticks:   dense  smooth     PW     G-vecs:    dense   smooth      PW
     Min          84      84     24                 9376     9376    1444
     Max          85      85     25                 9403     9403    1461
     Sum         673     673    199                75069    75069   11651
 
     Using Slab Decomposition
 


     bravais-lattice index     =            4
     lattice parameter (alat)  =       7.2635  a.u.
     unit-cell volume          =    1726.8150 (a.u.)^3
     number of atoms/cell      =            2
     number of atomic types    =            2
     number of electrons       =        20.00
     number of Kohn-Sham states=         1200
     kinetic-energy cutoff     =      47.0000  Ry
     charge density cutoff     =     188.0000  Ry
     Exchange-correlation= PBE
                           (   1   4   3   4   0   0   0)

     celldm(1)=   7.263454  celldm(2)=   0.000000  celldm(3)=   5.203381
     celldm(4)=   0.000000  celldm(5)=   0.000000  celldm(6)=   0.000000

     crystal axes: (cart. coord. in units of alat)
               a(1) = (   1.000000   0.000000   0.000000 )  
               a(2) = (  -0.500000   0.866025   0.000000 )  
               a(3) = (   0.000000   0.000000   5.203381 )  

     reciprocal axes: (cart. coord. in units 2 pi/alat)
               b(1) = (  1.000000  0.577350  0.000000 )  
               b(2) = (  0.000000  1.154701  0.000000 )  
               b(3) = (  0.000000  0.000000  0.192183 )  


     PseudoPot. # 1 for As read from file:
     /usr/scratch4/magr4985/FGWC/FGWC/pseudo/SG15/As.upf
     MD5 check sum: a2ff92a4799c87c945fff9e6739df4dd
     Pseudo is Norm-conserving, Zval =  5.0
     Generated using ONCVPSP code by D. R. Hamann
     Using radial grid of  602 points,  6 beta functions with: 
                l(1) =   0
                l(2) =   0
                l(3) =   1
                l(4) =   1
                l(5) =   2
                l(6) =   2

     PseudoPot. # 2 for Sb read from file:
     /usr/scratch4/magr4985/FGWC/FGWC/pseudo/SG15/Sb.upf
     MD5 check sum: 0417cd6c0fe8ce4611e2b23135f1abd9
     Pseudo is Norm-conserving, Zval = 15.0
     Generated using ONCVPSP code by D. R. Hamann
     Using radial grid of  602 points,  6 beta functions with: 
                l(1) =   0
                l(2) =   0
                l(3) =   1
                l(4) =   1
                l(5) =   2
                l(6) =   2

     atomic species   valence    mass     pseudopotential
        As             5.00    74.92160     As( 1.00)
        Sb            15.00   121.76000     Sb( 1.00)

      6 Sym. Ops. (no inversion) found



   Cartesian axes

     site n.     atom                  positions (alat units)
         1           Sb  tau(   1) = (   0.5000000   0.2886752   0.1996508  )
         2           As  tau(   2) = (   0.0000000   0.0000000   5.0037309  )

     number of k points=     2  Gaussian smearing, width (Ry)=  0.0005
                       cart. coord. in units 2pi/alat
        k(    1) = (   0.0000000   0.0000000   0.0000000), wk =   0.5000000
        k(    2) = (   0.0000000  -0.5773503   0.0000000), wk =   1.5000000

     Dense  grid:    75069 G-vectors     FFT dimensions: (  32,  32, 180)

     Estimated max dynamical RAM per process >     223.09 MB

     Estimated total dynamical RAM >       1.74 GB

     The potential is recalculated from file :
     out/SbAs.save/charge-density

     Starting wfcs are random

     Band Structure Calculation
     Davidson diagonalization with overlap

     ethr =  5.00E-06,  avg # of iterations = 15.0

     total cpu time spent up to now is      171.3 secs

     End of band structure calculation

          k = 0.0000 0.0000 0.0000 (  9377 PWs)   bands (ev):

   -30.6811 -30.6811 -30.5911 -30.5911 -30.5652 -14.4767  -8.9205  -2.7914
    -2.0660  -2.0660  -0.3150   1.1978   1.1978   2.4153   2.7075   3.4553
     4.0410   5.3139   6.0953   6.3043   7.0551   7.0551   7.7827   8.2814
     9.0462   9.0462   9.6473   9.8275  12.3390  12.3390  12.4171  13.0405
    13.5945  13.5945  13.8386  14.8648  15.4664  15.4664  15.9143  15.9515
    15.9515  16.1593  16.3985  16.3985  16.4115  16.5062  16.5062  16.6250
    17.0498  17.2619  17.2619  17.3060  17.3060  17.3589  17.5288  17.5288
    17.6024  17.6024  17.7464  17.9215  18.0579  18.2159  19.3690  19.3690
    19.4223  19.4223  19.4318  19.7761  19.7761  19.8350  19.8350  19.8873
    20.1591  20.3418  22.1604  22.3673  22.3673  22.4836  22.4836  22.6167
    22.8941  22.8941  22.9550  22.9550  23.2341  23.5526  23.7490  23.8920
    26.0251  26.1479  26.1479  26.3099  26.3099  26.3597  26.5750  26.7274
    26.7274  26.8345  26.8345  27.4126  27.5963  28.0524  28.0524  28.7342
    28.7342  29.4716  29.5610  30.6617  30.8628  30.8628  31.0788  31.0788
    31.4313  31.5993  31.5993  31.7276  31.7276  32.1172  32.3760  32.8115
    33.1694  34.4263  34.4263  34.8897  34.8897  35.3874  36.2652  36.2652
    36.3340  36.3340  36.6583  36.7711  37.0294  37.0294  37.1005  37.4463
    37.4463  37.7459  38.1765  38.3196  38.6525  38.6851  38.6851  39.4941
    39.9591  39.9601  39.9601  41.5634  41.5634  41.9873  42.4581  42.4581
    42.6050  42.7171  42.7171  42.8133  43.0344  43.0344  43.1024  43.1024
    43.1573  43.4171  43.4171  43.5362  43.5362  43.5728  43.5820  43.6539
    43.6539  43.7481  43.7481  43.8077  43.9126  43.9126  44.0504  44.3789
    44.3789  44.3923  44.4624  44.5240  44.5834  44.5834  44.6172  44.7542
    44.7542  44.8598  44.8598  45.0339  45.1476  45.3352  46.2119  46.2119
    46.5993  46.6837  46.7058  46.7058  46.7223  46.8548  46.8548  46.9852
    46.9852  47.4918  48.3274  48.3274  48.3399  48.7056  48.7056  49.3775
    49.3775  49.5049  49.5049  49.6705  49.7100  49.7785  49.9398  49.9779
    49.9779  50.0662  50.0662  50.2277  50.3755  50.3755  50.5165  50.5165
    50.7043  50.8180  50.8180  50.8941  50.8941  51.2328  51.5738  52.3153
    52.4551  52.4551  52.8461  53.2260  53.2260  53.4012  53.6149  53.6677
    53.6677  53.6846  53.7055  54.0621  54.0621  54.3632  54.4048  54.4048
    54.4480  54.5914  54.5914  55.3130  56.3083  56.4719  56.4719  56.6536
    56.6536  56.8815  56.9438  56.9438  57.0140  57.0140  57.1388  57.1842
    57.1842  57.2610  57.4427  57.4427  57.6345  57.8823  57.8823  57.9617
    57.9617  58.0088  58.0418  58.0418  58.0709  58.1957  58.2280  58.2280
    58.3097  58.3097  58.3382  58.3934  58.3934  58.4052  58.5933  58.6067
    58.6145  58.6145  58.9242  58.9371  58.9371  59.1606  59.1606  59.1958
    59.2029  59.2029  59.5326  60.0358  60.1640  60.1640  60.2269  60.3144
    60.4665  60.4665  60.5267  60.5267  60.6732  60.6732  60.7111  61.5180
    62.2262  62.5856  62.5856  62.6692  63.1869  63.1869  63.2060  63.3723
    63.4878  63.4878  63.5301  63.5301  63.6049  63.6049  63.7007  63.7774
    63.9175  64.1445  64.1445  64.2060  64.2060  64.3042  64.4403  64.4403
    64.8072  65.2144  65.9510  65.9510  66.2985  66.2985  66.3042  66.6044
    66.6044  66.9243  66.9738  66.9738  67.1120  67.1867  67.1867  67.3103
    67.5090  67.5090  67.6382  67.6382  67.7710  67.7710  67.7917  67.8549
    68.0581  69.0098  69.4887  69.7596  69.7596  69.8350  69.8350  70.1755
    70.2284  70.2284  70.6594  70.6595  70.8784  71.2552  71.6640  71.8427
    71.8715  71.9501  71.9501  72.0073  72.0073  72.1194  72.1194  72.1277
    72.2614  72.5892  72.5892  73.1404  73.5440  74.1691  74.1691  74.9352
    74.9352  75.1603  75.7136  75.7136  76.0177  76.0959  76.0959  76.4231
    76.4231  76.4241  76.6705  76.8717  76.9833  76.9833  77.0459  77.0459
    77.2936  77.3886  77.3969  77.3969  77.6045  77.6694  77.6694  77.9196
    78.0730  78.0730  78.1125  78.1875  78.1875  78.3267  78.5205  78.5205
    78.7248  78.8311  79.5640  79.5640  80.1159  80.2310  80.2310  81.2528
    81.2528  81.7382  82.5493  82.5493  82.5889  83.1018  83.1018  83.3080
    83.6930  83.6930  83.7761  83.9991  83.9991  84.2604  84.3094  84.3725
    84.3725  84.6769  84.8977  84.8977  84.9312  85.1556  85.1556  85.3326
    85.3554  85.4563  85.4563  85.5165  85.5165  85.7280  86.1748  86.1748
    86.2298  86.3863  86.3863  86.7377  86.8621  86.8621  86.8900  86.9161
    86.9161  87.2461  87.2995  87.3699  87.3699  87.9960  88.2699  88.2699
    88.5060  88.5060  88.8309  88.8946  88.8946  89.7110  90.0924  90.0924
    90.4632  90.5469  90.7801  90.7801  91.1443  91.2503  91.2503  91.3863
    91.3863  91.4754  92.6054  92.6054  92.7218  92.7557  92.7557  93.1043
    93.2648  93.2648  93.4724  93.5344  93.7753  93.7753  93.9388  93.9388
    94.0697  94.2081  94.2516  94.2516  94.6556  94.8072  94.9613  94.9613
    95.0339  95.0339  95.1850  95.5422  95.7342  96.1607  96.3861  96.3861
    96.4823  96.4823  96.6144  96.7787  96.7787  97.0059  97.0059  97.1258
    97.1896  97.1947  97.1947  97.2318  97.2318  97.3516  97.3516  97.4360
    97.4657  97.4657  97.5268  97.7577  97.7577  97.7775  97.8096  97.8096
    97.8386  97.9087  97.9087  97.9270  97.9640  97.9640  98.0454  98.0454
    98.0624  98.1869  98.3398  98.4324  98.4538  98.4538  98.5303  98.5699
    98.6212  98.6213  98.6710  98.6752  98.6752  98.7381  98.7381  98.8084
    98.8084  98.8904  98.8904  98.9201  98.9416  98.9578  98.9578  98.9615
    98.9755  99.0366  99.0366  99.1191  99.1191  99.1659  99.2274  99.4223
    99.4223  99.4927  99.4927 100.2078 100.2992 100.4123 100.4123 100.4186
   100.4754 100.5158 100.5808 100.5808 100.6772 100.8537 100.8553 100.8553
   100.9568 100.9568 101.0779 101.0779 101.1457 101.1457 101.1606 101.1606
   101.1680 101.1904 101.6391 101.6391 102.0370 102.0370 102.1397 102.4960
   102.6752 102.6752 102.8700 102.8700 102.9068 102.9102 102.9428 103.0413
   103.0413 103.0818 103.2181 103.3635 103.3635 103.7806 103.7806 103.9246
   103.9485 103.9485 103.9643 104.0385 104.0385 104.0997 104.1377 104.1377
   104.2630 104.2630 104.3018 104.3484 104.5358 104.5358 104.8579 104.8710
   104.8710 105.4919 105.7981 105.7981 105.8508 105.9842 106.2085 106.2999
   106.2999 106.5888 106.5888 106.7896 106.8745 106.8745 107.0537 107.2952
   107.3435 107.3435 107.3755 107.3764 107.3822 107.4683 107.4683 107.6076
   107.6076 107.7809 107.8979 107.8979 107.9579 107.9579 107.9663 108.1264
   108.1264 108.2879 108.3140 108.3263 108.3263 108.3294 108.4295 108.4295
   108.5561 108.5561 108.6321 108.6321 108.7981 108.9891 108.9891 109.2472
   109.2472 109.3605 109.3605 109.8073 109.8808 109.9324 109.9324 110.2393
   110.4346 111.1126 111.1126 111.1126 111.4174 111.4395 111.4395 111.7679
   111.7860 112.1036 112.1036 112.4152 112.4152 112.4737 112.7032 112.7032
   112.7309 112.8420 112.8420 112.9610 112.9610 113.0184 113.0184 113.0697
   113.0856 113.1400 113.1400 113.3374 113.3374 113.4565 113.4969 113.4969
   113.6506 113.6536 113.7476 113.7476 113.8342 114.3854 115.1169 115.1169
   115.5498 115.6414 115.6414 115.9399 115.9399 116.0423 116.2158 116.2158
   116.4138 116.7654 116.8642 116.8642 117.1371 117.1371 117.2494 117.3973
   117.3973 117.4730 117.5272 117.5985 117.8386 117.8673 117.8673 118.1398
   118.1518 118.1518 118.3259 118.3259 118.3818 118.6324 118.6452 118.6480
   118.6480 118.8035 118.8035 119.0429 119.0429 119.2846 119.5833 119.5833
   120.0410 120.0972 120.0972 120.5280 120.5280 120.5649 120.6880 120.6880
   120.8521 121.0972 121.0972 121.2688 121.2688 121.4121 121.8507 121.8507
   122.1616 122.1756 122.2012 122.2012 122.5221 122.7498 122.7545 122.7545
   123.0121 123.2121 123.2749 123.4272 123.4272 123.4605 123.4605 124.0148
   124.1277 124.1277 124.1886 124.3301 124.3301 124.3617 124.3617 124.5146
   124.5200 124.5200 124.5970 124.6213 124.6213 124.7274 124.7274 124.7448
   124.7901 124.8456 124.8456 124.9474 124.9474 124.9852 125.0279 125.0505
   125.0505 125.0761 125.0787 125.0787 125.0840 125.3228 125.4271 125.4271
   125.6848 125.7601 125.7601 125.8293 125.8296 125.8296 125.9826 125.9827
   126.0004 126.0508 126.0508 126.1518 126.2996 126.2996 126.3594 126.4546
   126.4546 126.7827 126.7827 126.9357 126.9533 126.9737 126.9737 127.2807
   127.5378 127.5378 127.7916 127.7916 127.8032 127.8356 127.9351 127.9667
   127.9667 128.1587 128.3253 128.3253 128.5196 128.5196 129.4775 129.6483
   129.6483 129.7850 130.1144 130.1216 130.1216 130.4739 130.5073 130.6117
   130.7027 130.9266 130.9266 131.0467 131.0467 131.0853 131.1148 131.1148
   131.2751 131.3816 131.3816 131.4672 131.4672 131.7485 131.7485 131.7578
   131.8920 131.8920 131.9528 132.0037 132.0772 132.0888 132.0888 132.1182
   132.3328 132.3328 132.4315 132.4315 132.7496 132.7496 133.3586 133.6189
   133.6189 133.7453 133.7956 133.7956 134.2560 134.2885 134.2885 134.4084
   134.4084 134.5663 134.6060 134.6658 134.6658 134.9785 135.0467 135.0467
   135.1403 135.1403 135.2121 135.2459 135.2459 135.4064 135.4064 135.5187
   135.5187 135.7618 135.9099 135.9218 135.9847 136.1772 136.2498 136.2498
   136.4013 136.7975 136.7975 137.3594 137.3594 137.4015 137.4143 137.4852
   137.4852 137.5206 137.5206 137.7609 137.8081 138.1398 138.1398 138.4798
   138.5180 138.6115 138.6115 138.6686 138.9682 138.9695 138.9695 139.0065
   139.1673 139.1810 139.1810 139.3266 139.3266 139.4090 139.4090 139.6079
   139.7719 139.7719 139.8146 139.8146 139.8938 139.9466 140.0113 140.0113
   140.1194 140.1194 140.2334 140.5404 140.5568 140.5568 140.5725 140.6146
   140.6146 141.4347 141.4347 142.5078 142.9975 143.5271 143.7546 143.7547
   144.0972 144.0972 144.2813 144.4814 144.5987 144.5987 144.8987 144.9473
   145.1151 145.1209 145.1209 145.3004 145.3004 145.5985 145.7453 145.7453
   146.0109 146.0109 146.1673 146.1673 146.4823 146.4823 146.6126 146.6513
   146.7897 146.7897 146.8355 146.8962 147.3914 147.3914 147.4370 147.4370
   147.4703 147.5309 147.7708 147.7708 148.0004 148.0004 148.2098 148.2098
   148.2157 148.3479 148.3479 148.4363 148.5034 148.6417 148.6417 148.7336
   148.7336 148.9055 148.9066 148.9542 149.0033 149.1540 149.1540 149.1638
   149.1638 149.2574 149.3679 149.5170 149.5170 149.7194 149.7194 149.9906
   150.0037 150.0037 150.0168 150.0368 150.0368 150.2287 150.2288 150.3550
   150.3953 150.6051 150.6051 150.8057 150.8057 150.9493 151.0962 151.1689
   151.2250 151.2250 151.4613 152.1933 152.1933 152.9045 152.9045 154.1363
   154.1363 154.3801 154.5986 154.9988 154.9988 155.4427 155.4427 155.5052
   155.7626 155.8138 155.8887 155.8887 156.3757 156.4689 156.5425 156.5426
   156.9721 157.0408 157.1260 157.1260 157.2943 157.2944 157.6364 157.6364
   157.6904 157.7841 157.7841 157.8931 157.9273 158.0611 158.3593 158.3593
   158.5675 158.5675 158.6583 158.6583 158.6999 158.9029 159.0029 159.0029
   159.1638 159.1673 159.1673 159.2543 159.3013 159.3157 159.3157 159.3697
   159.3697 159.7356 159.7356 159.8191 160.2468 160.2468 160.4262 160.4262
   160.9598 161.1460 161.1460 161.1683 161.1683 161.5472 161.5472 161.6094
   161.6335 161.6392 161.7779 161.7779 161.8300 161.9202 161.9521 161.9521
   162.0397 162.1173 162.2832 162.2832 162.5079 162.7398 162.7398 162.9596
   162.9596 162.9883 163.0172 163.0172 163.1087 163.1674 163.2652 163.2652

          k = 0.0000-0.5774 0.0000 (  9410 PWs)   bands (ev):

   -30.6837 -30.6633 -30.6004 -30.5933 -30.5549 -12.4652 -10.2914  -5.3295
    -3.7320  -3.6448  -0.3541   0.6556   1.8805   3.5001   5.3958   5.4803
     5.8357   6.2196   6.4899   6.9209   7.2167   7.3070   7.4643   8.4615
     9.1408   9.4808   9.5506   9.5945  10.2472  10.9944  11.3111  11.8091
    12.2411  12.3427  12.5901  12.7227  12.8332  12.9961  13.0081  13.0696
    13.1976  13.9429  14.0263  14.1504  14.3220  15.7683  16.0214  16.1540
    16.2033  16.3730  16.6520  16.8435  16.9666  17.6787  17.8212  18.0534
    19.1154  19.1583  19.2626  19.5523  19.7120  19.7885  20.6489  20.8897
    21.1957  21.2243  21.5312  22.1839  22.5941  22.7838  22.9402  23.5274
    23.5393  23.8092  23.8646  25.0044  25.7756  25.9108  25.9438  26.0143
    26.2925  26.3902  26.5422  26.5816  26.6290  26.6854  26.7954  26.9389
    27.0588  27.2337  27.4651  27.4994  27.6515  27.6639  27.6886  27.8773
    27.9650  27.9967  28.2136  28.2687  28.4697  29.0302  29.2100  29.5710
    29.6474  29.8263  29.8545  29.8872  30.1821  30.1876  30.3407  30.6205
    30.8474  32.3173  32.3525  32.4531  32.4918  32.6176  32.6886  32.7370
    32.9165  32.9384  33.0873  33.2018  33.2650  33.3687  33.4575  33.5353
    33.5692  33.6250  33.7359  33.8836  34.0173  34.0710  34.3180  34.4089
    34.4895  34.7345  35.0390  36.2005  36.3928  36.4684  36.5870  36.6161
    36.6614  36.8209  36.8995  36.9100  37.0030  37.2839  37.3608  37.7459
    38.1851  38.3989  39.1092  39.3577  39.4714  39.6315  39.6470  39.7286
    39.8349  39.9026  40.1228  40.3869  40.6440  40.7708  40.8336  40.9928
    41.5156  41.5309  41.6528  41.7613  41.9845  42.1786  42.2288  42.4364
    42.8840  43.6248  43.7010  43.8989  44.0658  44.0710  44.4682  45.2077
    45.8536  46.2351  46.2476  46.2829  46.3383  46.4120  46.6153  46.7824
    46.7984  46.8735  46.9549  46.9665  47.0388  47.0892  47.1087  47.3002
    47.3218  47.4092  47.5959  47.7727  47.7766  47.8238  47.9236  47.9604
    48.0925  48.1364  48.1410  48.1879  48.1982  48.4263  48.5805  48.7511
    48.7545  48.8762  48.9553  48.9807  49.8331  49.8418  50.1596  50.2099
    50.2806  50.3324  50.3935  50.5877  50.9128  51.3672  52.1624  52.4296
    52.5437  52.5952  52.7994  52.9670  53.0298  53.0587  53.1033  53.3331
    53.4120  53.5123  53.5536  53.5930  53.6505  53.8380  53.8415  54.1025
    54.3135  54.4898  54.6305  54.7731  54.9315  55.2758  55.4153  55.5650
    55.8640  56.3069  56.5161  56.6039  56.7836  56.9089  56.9412  57.1400
    57.4197  57.4216  57.6175  57.6266  57.7257  57.8540  58.6720  58.8472
    59.2148  59.4158  59.5894  59.7532  60.0040  60.2444  60.3555  60.4445
    60.5026  60.5763  60.9182  60.9316  61.2296  61.3787  61.4761  61.5742
    61.6529  61.6842  61.8863  62.1956  62.1994  62.5791  62.6683  62.6757
    62.7314  62.7673  63.1709  63.3949  63.6880  63.7825  64.0892  64.3984
    65.1768  65.3511  65.5908  65.7556  65.7600  65.9768  66.0879  66.3013
    66.5265  66.5330  66.6241  66.8296  66.9996  67.1134  67.1543  67.2771
    67.3273  67.3695  67.3733  67.4554  67.5458  67.5595  67.6345  67.7023
    67.7572  67.9150  67.9967  68.0839  68.1365  68.1962  68.2123  68.3104
    68.3629  68.3944  68.4198  68.5318  68.5750  68.6526  68.6983  68.7706
    69.0539  69.2714  69.5914  69.5927  69.9529  69.9921  70.1797  70.2049
    70.5179  70.5287  70.7374  70.7862  70.9999  71.0460  71.0644  71.4418
    71.6354  72.0509  72.4327  72.4855  72.7118  72.8350  73.1306  73.1701
    73.2793  73.3093  73.3524  73.4496  73.5826  73.6301  73.6436  73.7726
    73.7738  73.8045  73.8801  73.8893  74.0135  74.0597  74.1212  74.1908
    74.2139  74.2160  74.2710  74.3910  74.4414  74.6673  74.7973  74.9014
    74.9205  75.0641  75.1022  75.1403  75.1743  75.3052  75.3389  75.4511
    75.6256  75.6891  75.7914  76.1262  76.2854  76.4162  76.4499  76.5430
    76.6784  76.6854  76.9022  76.9639  77.1097  77.2122  77.2146  77.2272
    77.3584  77.3602  77.4348  77.4582  77.5407  77.6377  77.6830  77.7370
    77.8296  77.8630  77.9571  77.9579  78.1477  78.4554  78.5601  79.5068
    79.6022  79.6393  79.8400  79.8974  80.2345  80.3511  80.3807  80.4075
    80.4183  80.5273  80.6634  80.6651  81.0798  81.2142  81.2989  81.4668
    81.5904  81.6086  81.8234  81.9270  82.1130  82.2520  82.3601  82.5779
    82.6252  82.6309  82.8771  82.8775  83.1038  83.3229  83.4388  83.4695
    83.6874  83.8247  83.8381  83.9058  84.1666  84.3011  84.3900  84.4009
    84.5512  84.6838  84.8019  85.0407  85.3440  85.7468  85.8174  85.9271
    85.9978  86.1376  86.1799  86.3602  86.5864  86.7552  86.8882  87.0285
    87.1126  87.2763  87.3741  87.4018  87.5059  87.5983  87.7309  87.7451
    87.7588  87.8117  87.8472  87.9318  88.0697  88.1402  88.1615  88.2252
    88.3108  88.5817  88.6626  88.7092  88.7689  88.8624  88.9493  88.9620
    89.0501  89.1519  89.1757  89.2256  89.3030  89.3333  89.4816  89.5314
    89.5935  89.8956  90.1826  90.3987  90.6344  90.8150  90.8941  91.3065
    91.5253  91.7361  91.8238  92.3992  92.5041  92.7593  92.8223  92.8746
    93.1693  93.1907  93.2472  93.3428  93.4098  93.4700  93.5460  93.5728
    93.6511  93.7738  93.7989  94.0171  94.0201  94.1141  94.3142  94.3358
    94.3751  94.4629  94.5530  94.5593  94.6636  94.7271  94.8872  94.9683
    95.0307  95.1077  95.1596  95.1771  95.3008  95.3030  95.5671  95.6338
    95.7869  95.9714  96.0834  96.2289  96.4018  96.4115  96.4434  96.4878
    96.7008  96.8380  97.0598  97.1534  97.3089  97.3789  97.4894  97.5237
    97.6026  97.6608  97.7386  97.8826  97.9205  98.0865  98.1401  98.1532
    98.2716  98.3447  98.5780  98.7696  99.0221  99.3887  99.6269  99.6717
    99.7426  99.9121  99.9242 100.3014 100.3680 100.4537 100.5777 100.6741
   100.7303 100.7836 100.9107 100.9840 101.0201 101.2614 101.3391 101.3548
   101.5920 101.5993 101.7832 102.0683 102.2118 102.4309 102.5089 102.6310
   102.7781 102.8754 102.9337 103.1062 103.3558 103.4687 103.6441 103.7354
   103.7679 103.8219 103.9256 104.3349 104.3925 104.5940 104.8564 104.8743
   104.9008 105.1068 105.1284 105.5133 105.9175 106.0269 106.1845 106.2707
   106.3313 106.4058 106.4906 106.5508 106.5631 106.8278 106.8546 106.9039
   106.9984 107.2269 107.2302 107.3806 107.5177 107.6551 107.6991 107.7154
   107.7241 107.7387 107.9026 107.9275 107.9859 108.0260 108.0926 108.1126
   108.1189 108.1589 108.2191 108.4072 108.5484 108.5917 108.6598 108.6709
   108.7187 108.7720 108.8759 108.9272 108.9603 108.9810 109.0158 109.0710
   109.1639 109.2331 109.3146 109.4172 109.4647 109.4924 109.4995 109.5246
   109.5903 109.7930 110.1046 110.1463 110.4759 110.7499 110.9105 110.9916
   111.0660 111.0889 111.2018 111.2473 111.2592 111.3525 111.4654 111.7300
   111.8190 112.3548 112.6932 112.9171 112.9397 113.0585 113.2643 113.3507
   113.6387 113.7177 113.7412 113.9873 114.0279 114.0856 114.1934 114.3417
   114.3764 114.3986 114.4024 114.4346 114.8144 114.9726 115.0399 115.1534
   115.2486 115.2497 115.3746 115.6392 115.7223 115.8116 115.8158 115.9158
   116.3972 116.4111 116.6146 116.6305 116.7494 116.7586 116.8923 117.0118
   117.1412 117.2767 117.3088 117.3690 117.3989 117.5375 117.6326 117.6370
   117.7853 117.8855 117.9925 117.9942 118.0301 118.1042 118.1172 118.1846
   118.2396 118.3228 118.6060 118.6485 118.8835 119.0484 119.0755 119.1927
   119.4211 119.4782 119.5061 120.0241 120.1270 120.2454 120.2780 120.4570
   120.5056 120.5703 120.6238 121.0171 121.1442 121.2074 121.2983 121.4804
   121.6134 121.7388 121.9343 121.9536 122.2943 122.3427 122.6666 122.7530
   122.8704 123.0274 123.2934 123.3806 123.3920 123.3979 123.5868 123.6462
   123.9057 124.0412 124.1431 124.2466 124.2546 124.5144 124.5405 124.6115
   124.7995 125.0617 125.2850 125.4552 125.5411 125.6091 125.7384 125.7556
   125.8225 126.0412 126.0930 126.2374 126.3811 126.5112 126.5849 126.6323
   126.7520 126.7558 126.8613 127.0109 127.1431 127.2259 127.4794 127.5841
   127.6622 127.7201 127.8273 127.9212 127.9456 128.0099 128.2031 128.2462
   128.2556 128.3504 128.4090 128.4269 128.4430 128.5138 128.5928 128.6254
   128.6827 128.8254 128.9193 128.9383 129.0095 129.0253 129.1199 129.1236
   129.1328 129.1843 129.2025 129.4039 129.4129 129.5360 129.5824 129.7975
   129.9679 129.9883 130.1138 130.3018 130.4099 130.4728 130.5460 130.6886
   130.7305 130.7885 130.8751 131.0897 131.1313 131.2075 131.2378 131.3531
   131.3636 131.5271 131.6153 131.6417 131.7944 131.8004 131.9287 131.9988
   132.0253 132.1592 132.2409 132.5501 132.7221 132.8321 133.0284 133.1517
   133.4266 133.5747 133.6143 133.7076 133.8060 133.8799 133.9058 133.9335
   134.1094 134.1571 134.1875 134.2579 134.4136 134.4772 134.4972 134.5629
   134.7112 134.7227 134.7612 134.8287 134.8425 135.0339 135.1489 135.1660
   135.2002 135.2156 135.2899 135.4161 135.4211 135.4735 135.6809 135.6998
   135.7819 135.8149 135.8422 136.0211 136.0310 136.0579 136.0920 136.2706
   136.3222 136.3529 136.3967 136.4783 136.5689 136.5943 136.7045 136.8616
   136.9753 137.0000 137.0664 137.3003 137.3538 137.4091 137.6403 137.7009
   137.8277 137.8768 137.8910 137.9207 137.9964 138.0548 138.1599 138.2058
   138.2244 138.2401 138.3228 138.3372 138.3489 138.3579 138.4089 138.5512
   138.5694 138.7137 138.7413 138.7885 138.7939 138.8687 138.9664 138.9762
   139.0487 139.0570 139.3327 139.5160 139.6303 139.8017 140.2081 140.3087
   140.3206 140.5673 140.7274 140.8098 140.9393 141.0161 141.2416 141.3344
   141.4164 141.4284 141.4506 141.6166 141.6608 141.6885 142.0784 142.1316
   142.2198 142.2714 142.3856 142.5112 142.5412 142.7338 143.0102 143.0396
   143.1144 143.1840 143.2308 143.2827 143.4296 143.4749 143.6487 143.6723
   143.7168 143.7394 143.9169 143.9707 144.0395 144.2004 144.2785 144.3756
   144.4463 144.5037 144.5055 144.6649 144.7385 144.7754 144.8556 144.8604
   144.8827 144.9685 144.9961 145.0441 145.3012 145.3226 145.3244 145.3855
   145.3911 145.4414 145.7789 145.9380 146.2743 146.2971 146.3948 146.6180
   146.7953 146.9668 147.0916 147.1402 147.2333 147.4589 147.4608 147.5681
   147.6999 147.8356 147.9067 148.0484 148.0786 148.1890 148.3012 148.3870
   148.4903 148.5489 148.5556 148.5918 148.6121 148.7320 148.7798 148.7919
   148.8524 148.8811 148.9234 148.9547 149.0238 149.0987 149.1605 149.2552
   149.3586 149.3589 149.5393 149.5470 149.5649 149.5906 149.6671 149.7151
   149.7400 149.8289 149.8892 149.9040 149.9892 150.0522 150.1192 150.1543
   150.1898 150.3435 150.4286 150.5721 150.6989 150.7545 150.9187 150.9522
   151.0004 151.3614 151.3906 151.4447 151.5617 151.5815 151.6127 151.6289
   151.6510 151.6875 151.7351 151.7952 151.8824 151.9196 152.1358 152.4757
   152.5685 152.8198 152.9331 153.0778 153.0830 153.1292 153.2853 153.4161
   153.5503 153.6560 153.7224 153.7941 153.9749 154.1434 154.2477 154.3293
   154.3581 154.3634 154.3919 154.4972 154.5484 154.6331 154.6340 154.6572
   154.7633 154.8773 154.9476 155.1239 155.1992 155.2092 155.3891 155.4340
   155.4359 155.4814 155.6449 155.7407 155.8048 155.8335 155.8669 155.9017
   155.9188 155.9696 155.9907 156.6015 156.7560 156.8606 156.9568 157.0420
   157.3066 157.3128 157.3633 157.4205 157.5271 157.5592 157.6535 157.7157
   157.8462 157.9165 158.0137 158.1173 158.1271 158.2020 158.3864 158.4949
   158.6145 158.7044 158.7117 158.7568 158.8188 158.8485 158.9116 158.9203

     the Fermi energy is    -0.4221 ev
     (compare with:    -0.8381 eV, computed in scf)

     Writing all to output data dir out/SbAs.save/
 
     init_run     :      0.21s CPU      0.25s WALL (       1 calls)
     electrons    :    166.05s CPU    170.83s WALL (       1 calls)

     Called by init_run:
     wfcinit      :      0.00s CPU      0.00s WALL (       1 calls)
     potinit      :      0.02s CPU      0.03s WALL (       1 calls)
     hinit0       :      0.05s CPU      0.08s WALL (       1 calls)

     Called by electrons:
     c_bands      :    166.05s CPU    170.83s WALL (       1 calls)
     v_of_rho     :      0.02s CPU      0.02s WALL (       1 calls)

     Called by c_bands:
     init_us_2    :      0.00s CPU      0.00s WALL (       2 calls)
     init_us_2:cp :      0.00s CPU      0.00s WALL (       2 calls)
     cegterg      :    162.21s CPU    166.87s WALL (       2 calls)

     Called by *egterg:
     cdiaghg      :    142.16s CPU    146.54s WALL (      32 calls)
     h_psi        :      3.65s CPU      3.73s WALL (      34 calls)
     g_psi        :      0.03s CPU      0.03s WALL (      30 calls)

     Called by h_psi:
     h_psi:calbec :      0.10s CPU      0.10s WALL (      34 calls)
     vloc_psi     :      3.43s CPU      3.50s WALL (      34 calls)
     add_vuspsi   :      0.09s CPU      0.09s WALL (      34 calls)

     General routines
     calbec       :      0.10s CPU      0.10s WALL (      34 calls)
     fft          :      0.00s CPU      0.03s WALL (      10 calls)
     fftw         :      3.02s CPU      3.08s WALL (   37058 calls)
 
     Parallel routines
 
     PWSCF        :   2m46.73s CPU   2m51.85s WALL

 
   This run was terminated on:  20:58:13   6Apr2024            

=------------------------------------------------------------------------------=
   JOB DONE.
=------------------------------------------------------------------------------=
