
     Program PWSCF v.7.1 starts on  6Apr2024 at 20:43:14 

     This program is part of the open-source Quantum ESPRESSO suite
     for quantum simulation of materials; please cite
         "P. Giannozzi et al., J. Phys.:Condens. Matter 21 395502 (2009);
         "P. Giannozzi et al., J. Phys.:Condens. Matter 29 465901 (2017);
         "P. Giannozzi et al., J. Chem. Phys. 152 154105 (2020);
          URL http://www.quantum-espresso.org", 
     in publications or presentations arising from this work. More details at
     http://www.quantum-espresso.org/quote

     Parallel version (MPI), running on     8 processors

     MPI processes distributed on     1 nodes
     240237 MiB available memory on the printing compute node when the environment starts
 
     Reading input from pw_SbAs_nscf_k0_E47.in
Warning: card &IONS ignored
Warning: card / ignored
Warning: card &CELL ignored
Warning: card / ignored

     Current dimensions of program PWSCF are:
     Max number of different atomic species (ntypx) = 10
     Max number of k-points (npk) =  40000
     Max angular momentum in pseudopotentials (lmaxx) =  4

     Atomic positions and unit cell read from directory:
     out/SbAs.save/
     Atomic positions from file used, from input discarded
 
 
     R & G space division:  proc/nbgrp/npool/nimage =       8
     Subspace diagonalization in iterative solution of the eigenvalue problem:
     one sub-group per band group will be used
     scalapack distributed-memory algorithm (size of sub-group:  2*  2 procs)

 
     Parallelization info
     --------------------
     sticks:   dense  smooth     PW     G-vecs:    dense   smooth      PW
     Min          84      84     20                 9376     9376    1162
     Max          85      85     21                 9403     9403    1187
     Sum         673     673    163                75069    75069    9377
 
     Using Slab Decomposition
 


     bravais-lattice index     =            4
     lattice parameter (alat)  =       7.2635  a.u.
     unit-cell volume          =    1726.8150 (a.u.)^3
     number of atoms/cell      =            2
     number of atomic types    =            2
     number of electrons       =        20.00
     number of Kohn-Sham states=         1200
     kinetic-energy cutoff     =      47.0000  Ry
     charge density cutoff     =     188.0000  Ry
     Exchange-correlation= PBE
                           (   1   4   3   4   0   0   0)

     celldm(1)=   7.263454  celldm(2)=   0.000000  celldm(3)=   5.203381
     celldm(4)=   0.000000  celldm(5)=   0.000000  celldm(6)=   0.000000

     crystal axes: (cart. coord. in units of alat)
               a(1) = (   1.000000   0.000000   0.000000 )  
               a(2) = (  -0.500000   0.866025   0.000000 )  
               a(3) = (   0.000000   0.000000   5.203381 )  

     reciprocal axes: (cart. coord. in units 2 pi/alat)
               b(1) = (  1.000000  0.577350  0.000000 )  
               b(2) = (  0.000000  1.154701  0.000000 )  
               b(3) = (  0.000000  0.000000  0.192183 )  


     PseudoPot. # 1 for As read from file:
     /usr/scratch4/magr4985/FGWC/FGWC/pseudo/SG15/As.upf
     MD5 check sum: a2ff92a4799c87c945fff9e6739df4dd
     Pseudo is Norm-conserving, Zval =  5.0
     Generated using ONCVPSP code by D. R. Hamann
     Using radial grid of  602 points,  6 beta functions with: 
                l(1) =   0
                l(2) =   0
                l(3) =   1
                l(4) =   1
                l(5) =   2
                l(6) =   2

     PseudoPot. # 2 for Sb read from file:
     /usr/scratch4/magr4985/FGWC/FGWC/pseudo/SG15/Sb.upf
     MD5 check sum: 0417cd6c0fe8ce4611e2b23135f1abd9
     Pseudo is Norm-conserving, Zval = 15.0
     Generated using ONCVPSP code by D. R. Hamann
     Using radial grid of  602 points,  6 beta functions with: 
                l(1) =   0
                l(2) =   0
                l(3) =   1
                l(4) =   1
                l(5) =   2
                l(6) =   2

     atomic species   valence    mass     pseudopotential
        As             5.00    74.92160     As( 1.00)
        Sb            15.00   121.76000     Sb( 1.00)

      6 Sym. Ops. (no inversion) found



   Cartesian axes

     site n.     atom                  positions (alat units)
         1           Sb  tau(   1) = (   0.5000000   0.2886752   0.1996508  )
         2           As  tau(   2) = (   0.0000000   0.0000000   5.0037309  )

     number of k points=     1  Gaussian smearing, width (Ry)=  0.0005
                       cart. coord. in units 2pi/alat
        k(    1) = (   0.0000000   0.0000000   0.0000000), wk =   2.0000000

     Dense  grid:    75069 G-vectors     FFT dimensions: (  32,  32, 180)

     Estimated max dynamical RAM per process >     180.10 MB

     Estimated total dynamical RAM >       1.41 GB

     The potential is recalculated from file :
     out/SbAs.save/charge-density

     Starting wfcs are random

     Band Structure Calculation
     Davidson diagonalization with overlap

     ethr =  5.00E-06,  avg # of iterations = 11.0

     total cpu time spent up to now is       81.9 secs

     End of band structure calculation

          k = 0.0000 0.0000 0.0000 (  9377 PWs)   bands (ev):

   -30.6811 -30.6811 -30.5911 -30.5911 -30.5652 -14.4767  -8.9205  -2.7914
    -2.0660  -2.0660  -0.3150   1.1978   1.1978   2.4153   2.7075   3.4553
     4.0410   5.3139   6.0953   6.3043   7.0551   7.0551   7.7827   8.2814
     9.0462   9.0462   9.6473   9.8275  12.3390  12.3390  12.4171  13.0405
    13.5945  13.5945  13.8386  14.8648  15.4664  15.4664  15.9143  15.9515
    15.9515  16.1593  16.3985  16.3985  16.4115  16.5062  16.5062  16.6250
    17.0498  17.2619  17.2619  17.3060  17.3060  17.3589  17.5288  17.5288
    17.6024  17.6024  17.7464  17.9215  18.0579  18.2159  19.3690  19.3690
    19.4223  19.4223  19.4318  19.7761  19.7761  19.8350  19.8350  19.8873
    20.1591  20.3418  22.1604  22.3673  22.3673  22.4836  22.4836  22.6167
    22.8941  22.8941  22.9550  22.9550  23.2341  23.5526  23.7490  23.8920
    26.0251  26.1479  26.1479  26.3099  26.3099  26.3597  26.5750  26.7274
    26.7274  26.8345  26.8345  27.4126  27.5963  28.0524  28.0524  28.7342
    28.7342  29.4716  29.5610  30.6617  30.8628  30.8628  31.0788  31.0788
    31.4313  31.5993  31.5993  31.7276  31.7276  32.1172  32.3760  32.8115
    33.1694  34.4263  34.4263  34.8897  34.8897  35.3874  36.2652  36.2652
    36.3340  36.3340  36.6583  36.7711  37.0294  37.0294  37.1005  37.4463
    37.4463  37.7459  38.1765  38.3196  38.6525  38.6851  38.6851  39.4941
    39.9591  39.9601  39.9601  41.5634  41.5634  41.9873  42.4581  42.4581
    42.6050  42.7171  42.7171  42.8133  43.0344  43.0344  43.1024  43.1024
    43.1573  43.4171  43.4171  43.5362  43.5362  43.5728  43.5820  43.6539
    43.6539  43.7481  43.7481  43.8077  43.9126  43.9126  44.0504  44.3789
    44.3789  44.3923  44.4624  44.5240  44.5834  44.5834  44.6172  44.7542
    44.7542  44.8598  44.8598  45.0339  45.1476  45.3352  46.2119  46.2119
    46.5993  46.6837  46.7058  46.7058  46.7223  46.8548  46.8548  46.9852
    46.9852  47.4918  48.3274  48.3274  48.3399  48.7056  48.7056  49.3775
    49.3775  49.5049  49.5049  49.6705  49.7100  49.7785  49.9398  49.9779
    49.9779  50.0662  50.0662  50.2277  50.3755  50.3755  50.5165  50.5165
    50.7043  50.8180  50.8180  50.8941  50.8941  51.2328  51.5738  52.3153
    52.4551  52.4551  52.8461  53.2260  53.2260  53.4012  53.6149  53.6677
    53.6677  53.6846  53.7055  54.0621  54.0621  54.3632  54.4048  54.4048
    54.4480  54.5914  54.5914  55.3130  56.3083  56.4719  56.4719  56.6536
    56.6536  56.8815  56.9438  56.9438  57.0140  57.0140  57.1388  57.1842
    57.1842  57.2610  57.4427  57.4427  57.6345  57.8823  57.8823  57.9617
    57.9617  58.0088  58.0418  58.0418  58.0709  58.1957  58.2280  58.2280
    58.3097  58.3097  58.3382  58.3934  58.3934  58.4052  58.5933  58.6067
    58.6145  58.6145  58.9242  58.9371  58.9371  59.1606  59.1606  59.1958
    59.2029  59.2029  59.5326  60.0358  60.1640  60.1640  60.2269  60.3144
    60.4665  60.4665  60.5267  60.5267  60.6732  60.6732  60.7111  61.5180
    62.2262  62.5856  62.5856  62.6692  63.1869  63.1869  63.2060  63.3723
    63.4878  63.4878  63.5301  63.5301  63.6049  63.6049  63.7007  63.7774
    63.9175  64.1445  64.1445  64.2060  64.2060  64.3042  64.4403  64.4403
    64.8072  65.2144  65.9510  65.9510  66.2985  66.2985  66.3042  66.6044
    66.6044  66.9243  66.9738  66.9738  67.1120  67.1867  67.1867  67.3103
    67.5090  67.5090  67.6382  67.6382  67.7710  67.7710  67.7917  67.8549
    68.0581  69.0098  69.4887  69.7596  69.7596  69.8350  69.8350  70.1755
    70.2284  70.2284  70.6594  70.6595  70.8784  71.2552  71.6640  71.8427
    71.8715  71.9501  71.9501  72.0073  72.0073  72.1194  72.1194  72.1277
    72.2614  72.5892  72.5892  73.1404  73.5440  74.1691  74.1691  74.9352
    74.9352  75.1603  75.7136  75.7136  76.0177  76.0959  76.0959  76.4231
    76.4231  76.4241  76.6705  76.8717  76.9833  76.9833  77.0459  77.0459
    77.2936  77.3886  77.3969  77.3969  77.6045  77.6694  77.6694  77.9196
    78.0730  78.0730  78.1125  78.1875  78.1875  78.3267  78.5205  78.5205
    78.7248  78.8311  79.5640  79.5640  80.1159  80.2310  80.2310  81.2528
    81.2528  81.7382  82.5493  82.5493  82.5889  83.1018  83.1018  83.3080
    83.6930  83.6930  83.7761  83.9991  83.9991  84.2604  84.3094  84.3725
    84.3725  84.6769  84.8977  84.8977  84.9312  85.1556  85.1556  85.3326
    85.3554  85.4563  85.4563  85.5165  85.5165  85.7280  86.1748  86.1748
    86.2298  86.3863  86.3863  86.7377  86.8621  86.8621  86.8900  86.9161
    86.9161  87.2461  87.2995  87.3699  87.3699  87.9960  88.2699  88.2699
    88.5060  88.5060  88.8309  88.8946  88.8946  89.7110  90.0924  90.0924
    90.4632  90.5469  90.7801  90.7801  91.1443  91.2503  91.2503  91.3863
    91.3863  91.4754  92.6054  92.6054  92.7218  92.7557  92.7557  93.1043
    93.2648  93.2648  93.4724  93.5344  93.7753  93.7753  93.9388  93.9388
    94.0697  94.2081  94.2516  94.2516  94.6556  94.8072  94.9613  94.9613
    95.0339  95.0339  95.1850  95.5422  95.7342  96.1607  96.3861  96.3861
    96.4823  96.4823  96.6144  96.7787  96.7787  97.0059  97.0059  97.1258
    97.1896  97.1947  97.1947  97.2318  97.2318  97.3516  97.3516  97.4360
    97.4657  97.4657  97.5268  97.7577  97.7577  97.7775  97.8096  97.8096
    97.8386  97.9087  97.9087  97.9270  97.9640  97.9640  98.0454  98.0454
    98.0624  98.1869  98.3398  98.4324  98.4538  98.4538  98.5303  98.5699
    98.6212  98.6212  98.6710  98.6752  98.6752  98.7381  98.7381  98.8084
    98.8084  98.8904  98.8904  98.9201  98.9416  98.9578  98.9578  98.9615
    98.9755  99.0366  99.0366  99.1191  99.1191  99.1659  99.2274  99.4223
    99.4223  99.4927  99.4927 100.2078 100.2992 100.4123 100.4123 100.4186
   100.4754 100.5158 100.5808 100.5808 100.6772 100.8537 100.8553 100.8553
   100.9568 100.9568 101.0779 101.0779 101.1457 101.1457 101.1606 101.1606
   101.1680 101.1904 101.6391 101.6391 102.0370 102.0370 102.1397 102.4960
   102.6752 102.6752 102.8700 102.8700 102.9068 102.9102 102.9428 103.0413
   103.0413 103.0818 103.2181 103.3635 103.3635 103.7806 103.7806 103.9246
   103.9485 103.9485 103.9643 104.0385 104.0385 104.0997 104.1377 104.1377
   104.2630 104.2630 104.3018 104.3484 104.5358 104.5358 104.8579 104.8710
   104.8710 105.4919 105.7981 105.7981 105.8508 105.9842 106.2085 106.2999
   106.2999 106.5888 106.5888 106.7896 106.8745 106.8745 107.0537 107.2952
   107.3435 107.3435 107.3755 107.3764 107.3822 107.4683 107.4683 107.6076
   107.6076 107.7809 107.8979 107.8979 107.9579 107.9579 107.9663 108.1264
   108.1264 108.2879 108.3140 108.3263 108.3263 108.3294 108.4295 108.4295
   108.5561 108.5561 108.6321 108.6321 108.7981 108.9891 108.9891 109.2472
   109.2472 109.3605 109.3605 109.8073 109.8808 109.9324 109.9324 110.2393
   110.4346 111.1126 111.1126 111.1126 111.4174 111.4395 111.4395 111.7679
   111.7860 112.1036 112.1036 112.4152 112.4152 112.4737 112.7032 112.7032
   112.7309 112.8420 112.8420 112.9610 112.9610 113.0184 113.0184 113.0697
   113.0856 113.1400 113.1400 113.3374 113.3374 113.4565 113.4969 113.4969
   113.6506 113.6536 113.7476 113.7476 113.8342 114.3854 115.1169 115.1169
   115.5498 115.6414 115.6414 115.9399 115.9399 116.0423 116.2158 116.2158
   116.4138 116.7654 116.8642 116.8642 117.1371 117.1371 117.2494 117.3973
   117.3973 117.4730 117.5272 117.5985 117.8386 117.8673 117.8673 118.1398
   118.1518 118.1518 118.3259 118.3259 118.3818 118.6324 118.6452 118.6480
   118.6480 118.8035 118.8035 119.0429 119.0429 119.2846 119.5833 119.5833
   120.0410 120.0972 120.0972 120.5280 120.5280 120.5649 120.6880 120.6880
   120.8521 121.0972 121.0972 121.2688 121.2688 121.4121 121.8507 121.8507
   122.1616 122.1756 122.2012 122.2012 122.5221 122.7498 122.7545 122.7545
   123.0121 123.2121 123.2749 123.4272 123.4272 123.4605 123.4605 124.0148
   124.1277 124.1277 124.1886 124.3301 124.3301 124.3617 124.3617 124.5146
   124.5200 124.5200 124.5970 124.6213 124.6213 124.7274 124.7274 124.7448
   124.7901 124.8456 124.8456 124.9474 124.9474 124.9852 125.0279 125.0505
   125.0505 125.0761 125.0787 125.0787 125.0840 125.3228 125.4271 125.4271
   125.6848 125.7601 125.7601 125.8293 125.8296 125.8296 125.9826 125.9826
   126.0004 126.0508 126.0508 126.1518 126.2996 126.2996 126.3594 126.4546
   126.4546 126.7827 126.7827 126.9357 126.9533 126.9737 126.9737 127.2807
   127.5378 127.5378 127.7916 127.7916 127.8032 127.8356 127.9351 127.9667
   127.9667 128.1587 128.3253 128.3253 128.5196 128.5196 129.4775 129.6483
   129.6483 129.7850 130.1144 130.1216 130.1216 130.4739 130.5073 130.6117
   130.7027 130.9266 130.9266 131.0467 131.0467 131.0853 131.1148 131.1148
   131.2751 131.3816 131.3816 131.4672 131.4672 131.7485 131.7485 131.7578
   131.8920 131.8920 131.9528 132.0037 132.0772 132.0888 132.0888 132.1182
   132.3328 132.3328 132.4315 132.4315 132.7496 132.7496 133.3586 133.6189
   133.6189 133.7453 133.7956 133.7956 134.2560 134.2885 134.2885 134.4084
   134.4084 134.5663 134.6060 134.6658 134.6658 134.9785 135.0467 135.0467
   135.1403 135.1403 135.2121 135.2459 135.2459 135.4064 135.4064 135.5187
   135.5187 135.7618 135.9099 135.9218 135.9847 136.1772 136.2498 136.2498
   136.4013 136.7975 136.7975 137.3594 137.3594 137.4015 137.4143 137.4852
   137.4852 137.5206 137.5206 137.7609 137.8081 138.1398 138.1398 138.4798
   138.5180 138.6115 138.6115 138.6686 138.9682 138.9695 138.9695 139.0065
   139.1673 139.1810 139.1810 139.3266 139.3266 139.4090 139.4090 139.6079
   139.7719 139.7719 139.8146 139.8146 139.8938 139.9466 140.0113 140.0113
   140.1194 140.1194 140.2334 140.5404 140.5568 140.5568 140.5725 140.6146
   140.6146 141.4347 141.4347 142.5078 142.9975 143.5271 143.7546 143.7547
   144.0972 144.0972 144.2813 144.4814 144.5987 144.5987 144.8987 144.9473
   145.1151 145.1209 145.1209 145.3004 145.3004 145.5985 145.7453 145.7453
   146.0109 146.0109 146.1673 146.1673 146.4823 146.4823 146.6126 146.6513
   146.7897 146.7897 146.8355 146.8962 147.3914 147.3914 147.4370 147.4370
   147.4703 147.5309 147.7708 147.7708 148.0004 148.0004 148.2098 148.2098
   148.2157 148.3479 148.3479 148.4363 148.5034 148.6417 148.6417 148.7336
   148.7336 148.9055 148.9066 148.9542 149.0033 149.1540 149.1540 149.1638
   149.1638 149.2574 149.3679 149.5170 149.5170 149.7194 149.7194 149.9906
   150.0037 150.0037 150.0168 150.0368 150.0368 150.2288 150.2288 150.3550
   150.3953 150.6051 150.6051 150.8057 150.8057 150.9493 151.0962 151.1689
   151.2250 151.2250 151.4613 152.1933 152.1933 152.9045 152.9045 154.1363
   154.1363 154.3801 154.5986 154.9988 154.9988 155.4427 155.4427 155.5052
   155.7626 155.8138 155.8887 155.8887 156.3757 156.4689 156.5426 156.5426
   156.9721 157.0408 157.1260 157.1260 157.2944 157.2944 157.6364 157.6364
   157.6904 157.7841 157.7841 157.8931 157.9273 158.0611 158.3593 158.3593
   158.5675 158.5675 158.6583 158.6583 158.6999 158.9029 159.0029 159.0029
   159.1638 159.1673 159.1673 159.2543 159.3013 159.3157 159.3157 159.3697
   159.3697 159.7356 159.7356 159.8191 160.2468 160.2468 160.4262 160.4262
   160.9598 161.1460 161.1460 161.1683 161.1683 161.5472 161.5472 161.6094
   161.6335 161.6392 161.7779 161.7779 161.8300 161.9202 161.9521 161.9521
   162.0397 162.1173 162.2832 162.2832 162.5079 162.7398 162.7398 162.9596
   162.9596 162.9883 163.0172 163.0172 163.1087 163.1674 163.2652 163.2652

     the Fermi energy is    -0.4200 ev
     (compare with:    -0.8381 eV, computed in scf)

     Writing all to output data dir out/SbAs.save/
 
     init_run     :      0.20s CPU      0.24s WALL (       1 calls)
     electrons    :     79.17s CPU     81.45s WALL (       1 calls)

     Called by init_run:
     wfcinit      :      0.00s CPU      0.00s WALL (       1 calls)
     potinit      :      0.02s CPU      0.03s WALL (       1 calls)
     hinit0       :      0.03s CPU      0.06s WALL (       1 calls)

     Called by electrons:
     c_bands      :     79.17s CPU     81.45s WALL (       1 calls)
     v_of_rho     :      0.02s CPU      0.02s WALL (       1 calls)

     Called by c_bands:
     init_us_2    :      0.00s CPU      0.00s WALL (       1 calls)
     init_us_2:cp :      0.00s CPU      0.00s WALL (       1 calls)
     cegterg      :     76.84s CPU     79.04s WALL (       1 calls)

     Called by *egterg:
     cdiaghg      :     67.47s CPU     69.55s WALL (      12 calls)
     h_psi        :      1.85s CPU      1.91s WALL (      13 calls)
     g_psi        :      0.02s CPU      0.02s WALL (      11 calls)

     Called by h_psi:
     h_psi:calbec :      0.05s CPU      0.05s WALL (      13 calls)
     vloc_psi     :      1.73s CPU      1.78s WALL (      13 calls)
     add_vuspsi   :      0.05s CPU      0.05s WALL (      13 calls)

     General routines
     calbec       :      0.05s CPU      0.05s WALL (      13 calls)
     fft          :      0.01s CPU      0.03s WALL (      10 calls)
     fftw         :      1.51s CPU      1.56s WALL (   18336 calls)
 
     Parallel routines
 
     PWSCF        :   1m19.74s CPU   1m22.24s WALL

 
   This run was terminated on:  20:44:36   6Apr2024            

=------------------------------------------------------------------------------=
   JOB DONE.
=------------------------------------------------------------------------------=
