
     Program PWSCF v.7.1 starts on 21Nov2023 at  3:13:35 

     This program is part of the open-source Quantum ESPRESSO suite
     for quantum simulation of materials; please cite
         "P. Giannozzi et al., J. Phys.:Condens. Matter 21 395502 (2009);
         "P. Giannozzi et al., J. Phys.:Condens. Matter 29 465901 (2017);
         "P. Giannozzi et al., J. Chem. Phys. 152 154105 (2020);
          URL http://www.quantum-espresso.org", 
     in publications or presentations arising from this work. More details at
     http://www.quantum-espresso.org/quote

     Parallel version (MPI), running on    24 processors

     MPI processes distributed on     1 nodes
     123411 MiB available memory on the printing compute node when the environment starts
 
     Reading input from pw_mp-2624_nscf_k690_E69.in
Warning: card &IONS ignored
Warning: card / ignored
Warning: card &CELL ignored
Warning: card / ignored

     Current dimensions of program PWSCF are:
     Max number of different atomic species (ntypx) = 10
     Max number of k-points (npk) =  40000
     Max angular momentum in pseudopotentials (lmaxx) =  4

     Atomic positions and unit cell read from directory:
     out/mp-2624.save/
     Atomic positions from file used, from input discarded
 
 
     K-points division:     npool     =       2
     R & G space division:  proc/nbgrp/npool/nimage =      12
     Subspace diagonalization in iterative solution of the eigenvalue problem:
     one sub-group per band group will be used
     scalapack distributed-memory algorithm (size of sub-group:  3*  3 procs)

 
     Parallelization info
     --------------------
     sticks:   dense  smooth     PW     G-vecs:    dense   smooth      PW
     Min         107     107     31                 2576     2576     408
     Max         108     108     32                 2581     2581     410
     Sum        1285    1285    379                30923    30923    4909
 
     Using Slab Decomposition
 


     bravais-lattice index     =            2
     lattice parameter (alat)  =      11.6880  a.u.
     unit-cell volume          =     399.1761 (a.u.)^3
     number of atoms/cell      =            2
     number of atomic types    =            2
     number of electrons       =        26.00
     number of Kohn-Sham states=         1200
     kinetic-energy cutoff     =      69.0000  Ry
     charge density cutoff     =     276.0000  Ry
     Exchange-correlation= PBE
                           (   1   4   3   4   0   0   0)

     celldm(1)=  11.688035  celldm(2)=   0.000000  celldm(3)=   0.000000
     celldm(4)=   0.000000  celldm(5)=   0.000000  celldm(6)=   0.000000

     crystal axes: (cart. coord. in units of alat)
               a(1) = (  -0.500000   0.000000   0.500000 )  
               a(2) = (   0.000000   0.500000   0.500000 )  
               a(3) = (  -0.500000   0.500000   0.000000 )  

     reciprocal axes: (cart. coord. in units 2 pi/alat)
               b(1) = ( -1.000000 -1.000000  1.000000 )  
               b(2) = (  1.000000  1.000000  1.000000 )  
               b(3) = ( -1.000000  1.000000 -1.000000 )  


     PseudoPot. # 1 for Al read from file:
     /usr/scratch4/magr4985/MG/HTDF/pseudo/SG15/Al.upf
     MD5 check sum: 2d9e7bc02555220d62fad08c3c4858e7
     Pseudo is Norm-conserving, Zval = 11.0
     Generated using ONCVPSP code by D. R. Hamann
     Using radial grid of  602 points,  4 beta functions with: 
                l(1) =   0
                l(2) =   0
                l(3) =   1
                l(4) =   1

     PseudoPot. # 2 for Sb read from file:
     /usr/scratch4/magr4985/MG/HTDF/pseudo/SG15/Sb.upf
     MD5 check sum: 0417cd6c0fe8ce4611e2b23135f1abd9
     Pseudo is Norm-conserving, Zval = 15.0
     Generated using ONCVPSP code by D. R. Hamann
     Using radial grid of  602 points,  6 beta functions with: 
                l(1) =   0
                l(2) =   0
                l(3) =   1
                l(4) =   1
                l(5) =   2
                l(6) =   2

     atomic species   valence    mass     pseudopotential
        Al            11.00    26.98150     Al( 1.00)
        Sb            15.00   121.76000     Sb( 1.00)

     24 Sym. Ops. (no inversion) found



   Cartesian axes

     site n.     atom                  positions (alat units)
         1           Al  tau(   1) = (   0.0000000   0.0000000   0.0000000  )
         2           Sb  tau(   2) = (  -0.7500000   0.7500000   0.7500000  )

     number of k points=    29  Gaussian smearing, width (Ry)=  0.0005
                       cart. coord. in units 2pi/alat
        k(    1) = (   0.0000000   0.0000000   0.0000000), wk =   0.0039062
        k(    2) = (  -0.1250000   0.1250000  -0.1250000), wk =   0.0312500
        k(    3) = (  -0.2500000   0.2500000  -0.2500000), wk =   0.0312500
        k(    4) = (  -0.3750000   0.3750000  -0.3750000), wk =   0.0312500
        k(    5) = (   0.5000000  -0.5000000   0.5000000), wk =   0.0156250
        k(    6) = (   0.0000000   0.2500000   0.0000000), wk =   0.0234375
        k(    7) = (  -0.1250000   0.3750000  -0.1250000), wk =   0.0937500
        k(    8) = (  -0.2500000   0.5000000  -0.2500000), wk =   0.0937500
        k(    9) = (   0.6250000  -0.3750000   0.6250000), wk =   0.0937500
        k(   10) = (   0.5000000  -0.2500000   0.5000000), wk =   0.0937500
        k(   11) = (   0.3750000  -0.1250000   0.3750000), wk =   0.0937500
        k(   12) = (   0.2500000   0.0000000   0.2500000), wk =   0.0468750
        k(   13) = (   0.0000000   0.5000000   0.0000000), wk =   0.0234375
        k(   14) = (  -0.1250000   0.6250000  -0.1250000), wk =   0.0937500
        k(   15) = (   0.7500000  -0.2500000   0.7500000), wk =   0.0937500
        k(   16) = (   0.6250000  -0.1250000   0.6250000), wk =   0.0937500
        k(   17) = (   0.5000000   0.0000000   0.5000000), wk =   0.0468750
        k(   18) = (   0.0000000   0.7500000   0.0000000), wk =   0.0234375
        k(   19) = (   0.8750000  -0.1250000   0.8750000), wk =   0.0937500
        k(   20) = (   0.7500000   0.0000000   0.7500000), wk =   0.0468750
        k(   21) = (   0.0000000  -1.0000000   0.0000000), wk =   0.0117188
        k(   22) = (  -0.2500000   0.5000000   0.0000000), wk =   0.0937500
        k(   23) = (   0.6250000  -0.3750000   0.8750000), wk =   0.1875000
        k(   24) = (   0.5000000  -0.2500000   0.7500000), wk =   0.0937500
        k(   25) = (   0.7500000  -0.2500000   1.0000000), wk =   0.0937500
        k(   26) = (   0.6250000  -0.1250000   0.8750000), wk =   0.1875000
        k(   27) = (   0.5000000   0.0000000   0.7500000), wk =   0.0937500
        k(   28) = (  -0.2500000  -1.0000000   0.0000000), wk =   0.0468750
        k(   29) = (  -0.5000000  -1.0000000   0.0000000), wk =   0.0234375

     Dense  grid:    30923 G-vectors     FFT dimensions: (  45,  45,  45)

     Estimated max dynamical RAM per process >     151.46 MB

     Estimated total dynamical RAM >       3.55 GB

     The potential is recalculated from file :
     out/mp-2624.save/charge-density

     Starting wfcs are random

     Band Structure Calculation
     Davidson diagonalization with overlap

     ethr =  5.00E-06,  avg # of iterations = 10.1

     total cpu time spent up to now is     1355.0 secs

     End of band structure calculation

          k = 0.0000 0.0000 0.0000 (  3839 PWs)   bands (ev):

   -95.3193 -56.8024 -56.8024 -56.8024 -20.2541 -20.2541 -20.2541 -20.2260
   -20.2260  -2.6000   8.0053   8.0053   8.0053   9.4317  11.1130  11.1130
    11.1130  14.5372  15.7929  15.7929  17.5260  17.5260  17.5260  20.5179
    28.4589  28.4589  28.4589  29.6795  29.6795  29.6795  30.1525  30.1525
    30.5380  30.5380  30.5380  37.9977  39.1853  39.1853  39.1853  40.1205
    40.1205  40.1497  41.0864  41.0864  41.0864  42.2231  42.2231  42.2231
    43.1526  43.1526  43.1526  43.3380  43.3380  43.3380  43.7297  43.7297
    43.7297  44.1822  44.1822  47.1259  48.8242  48.8242  48.8242  49.2332
    49.2332  49.2332  52.6918  52.9492  60.8953  60.8953  60.9888  60.9888
    60.9888  63.6337  63.6337  63.6337  63.6497  65.1146  65.1146  65.1146
    69.6154  69.6154  71.7072  71.8301  71.8301  71.8301  71.8628  71.8628
    72.8047  72.8047  72.8047  73.4687  73.4687  73.4687  76.1608  76.1608
    76.1608  76.5731  76.5731  76.5731  76.9255  76.9255  76.9255  77.7858
    77.7858  78.2935  78.2935  78.2935  79.6992  80.2571  80.2571  80.2571
    80.3830  80.8441  80.8441  80.8441  80.9225  80.9225  81.8248  81.8248
    81.8248  85.8395  87.6974  87.6974  87.6974  90.8023  90.8023  90.8023
    91.3313  91.3313  91.3313  91.6040  91.6040  91.6040  92.7675  92.7675
    92.8744  92.8744  92.8744  93.4887  93.4887  95.6036  96.5400  96.5400
    96.5400  98.6387 101.1065 101.1065 101.1065 102.1057 102.1057 103.3404
   103.5365 103.5365 103.5365 104.7062 104.7062 104.7062 105.0639 105.1348
   105.1348 105.1348 105.3664 105.3664 105.3664 106.1579 106.1579 106.1579
   107.6068 107.6068 107.6378 107.6378 107.6378 108.3064 108.3064 108.3064
   110.6168 114.4766 114.4766 114.4766 114.8391 116.2205 116.2205 116.2205
   116.8480 118.3875 118.3875 118.3875 119.6094 119.6094 125.3430 125.6194
   125.6194 125.6194 126.9005 126.9005 127.8663 127.8663 127.8663 129.9631
   129.9631 129.9631 130.5567 130.5567 130.5567 131.2432 131.2432 131.2432
   133.7236 133.7236 133.9506 133.9506 133.9506 134.0423 134.0423 134.0423
   134.0630 134.5404 134.5404 134.5404 135.9219 135.9219 135.9219 135.9319
   135.9319 135.9319 136.0214 136.0214 136.3611 136.3806 137.3941 137.3941
   137.3941 137.8717 137.8717 137.8717 138.2780 138.3453 138.3453 138.4871
   138.4871 138.4871 139.0970 140.5167 140.5167 141.5713 141.5713 141.5713
   141.8456 141.8456 141.8456 142.1738 142.1738 142.1738 142.6543 142.6543
   142.7808 142.7808 142.7808 145.1003 145.1003 145.2039 145.2039 145.2039
   147.3282 147.3282 147.3282 149.1795 151.8667 151.8667 151.8667 154.3723
   154.3723 154.3723 154.4563 154.4563 154.4563 154.4702 154.4702 154.4702
   154.7100 155.9040 155.9040 156.8178 156.8178 156.8178 157.4005 157.4005
   157.4005 157.6352 157.6352 157.6519 157.6519 157.6519 157.7327 158.3585
   162.9554 162.9554 162.9554 163.1108 163.1108 163.1108 163.5962 163.5962
   163.5962 164.2789 164.2789 164.8434 164.8434 164.8434 166.3145 168.6789
   168.6789 168.6789 169.8081 169.8081 170.7432 170.7432 170.7432 171.2689
   171.8519 171.8519 171.8519 171.9689 171.9689 171.9689 172.5186 172.5186
   172.5186 172.5605 172.5605 175.6942 175.6942 175.6942 177.5188 177.5188
   177.5188 178.2640 178.2640 182.8294 183.1502 183.1502 183.1502 183.7920
   184.3449 184.3449 184.3449 184.4658 184.4658 184.4658 187.2972 187.2972
   187.3090 187.6340 187.6340 187.6340 190.7359 190.8687 190.8687 191.0682
   191.0682 191.0682 191.2172 191.2172 191.2172 192.4072 192.4072 192.4072
   192.5631 195.6222 195.6222 195.6222 195.6672 195.6672 196.6717 197.6827
   197.6827 197.6827 198.1908 198.1908 198.1908 198.2742 198.2742 198.2742
   198.3640 198.3640 198.3640 201.5523 201.5523 201.5523 201.6695 201.6695
   201.9156 201.9292 201.9292 201.9292 202.0072 202.0072 202.0072 202.0412
   202.0412 202.0412 202.8609 203.7626 203.7626 203.7626 204.7166 204.7166
   204.7793 204.7793 204.7793 206.2126 206.2126 206.2126 206.5980 206.5980
   206.5980 207.3686 208.2658 208.2658 208.7753 210.3763 210.3763 210.3763
   210.6037 210.6037 210.6037 211.7823 211.7823 211.7823 211.9565 211.9565
   211.9565 212.9256 212.9256 215.8706 215.8706 215.8706 216.1967 216.1967
   217.0118 217.0118 217.0118 217.0959 217.0959 217.0959 217.4103 217.4103
   217.4103 218.1673 218.1673 218.1673 218.3209 218.3209 218.6687 219.2894
   219.2894 219.2894 219.5476 219.5476 219.5476 219.9732 219.9732 219.9732
   220.2087 220.2659 222.3074 222.4437 222.4437 224.9779 224.9779 224.9779
   226.0733 226.0733 226.0733 226.3472 226.3472 226.3472 226.3804 226.3804
   226.6271 226.6271 226.6271 227.6442 228.2415 228.2415 228.2415 228.5523
   228.5523 228.5523 229.1993 229.8882 229.8882 230.0680 230.0680 230.0680
   230.2187 230.2187 230.2187 230.4157 230.4157 230.4157 230.5161 230.7874
   230.7874 230.7874 230.9666 230.9666 231.3211 231.3211 231.3211 231.7716
   231.7716 231.7716 231.8656 231.8656 231.9352 231.9352 231.9353 232.0252
   232.0252 232.0252 232.1935 232.2569 232.2569 232.2569 232.6030 232.6030
   232.6030 232.6170 232.6170 243.5120 243.5120 243.5120 245.0353 245.0353
   246.4570 247.1026 247.1026 247.1026 248.4084 248.4084 248.4084 250.5873
   250.5873 251.0175 251.8655 252.9054 252.9054 252.9054 254.7984 254.7984
   254.7984 255.0689 255.0689 255.0689 255.2347 255.2347 255.4391 255.4391
   255.4391 257.0916 257.8830 257.8830 257.8830 258.2473 258.2473 258.2473
   259.5909 259.5909 260.5778 260.5778 260.5779 260.8640 262.1698 264.2053
   264.2053 264.2053 264.3784 264.3784 264.3784 264.5162 264.5162 264.5162
   264.5530 264.5530 264.5530 266.0055 266.0055 266.3922 266.3922 266.3922
   266.6663 266.6663 266.7246 266.7246 266.7246 266.7925 266.7925 266.7925
   266.9791 266.9791 266.9792 267.3058 267.3058 267.3058 267.3604 267.3604
   267.3743 269.0533 269.0533 269.0533 269.4063 269.4063 269.4804 269.4804
   269.4804 269.8946 269.8946 269.8946 271.5875 274.6143 274.6143 274.6143
   275.2165 275.2165 277.1208 278.0411 278.0411 278.0411 278.3526 278.3526
   278.3526 278.7514 278.7514 278.7514 278.8953 278.8953 278.8953 280.0530
   280.0530 280.1133 280.1133 280.1133 280.2807 280.2807 280.2807 280.5491
   280.5491 280.5491 280.9229 281.0518 281.0518 281.0518 281.1329 281.1329
   281.7326 287.0456 287.0456 287.0456 287.2948 287.7511 287.7511 287.7511
   288.5152 289.5023 289.5023 289.5023 289.5166 289.5166 289.7501 289.7501
   289.7501 289.9638 289.9638 289.9638 290.2157 290.2924 290.2924 290.3246
   290.3246 290.3247 290.4380 290.4380 290.4380 290.4849 290.4849 290.4849
   290.6360 292.9446 292.9446 292.9446 292.9527 292.9527 293.2684 293.2684
   293.2684 293.4988 293.4988 293.4988 293.7242 296.3290 296.3290 296.3290
   296.3592 296.3592 296.4357 296.4357 296.4357 296.5292 296.5292 296.5292
   297.1080 298.6578 298.6578 298.6578 298.6905 298.6905 298.6905 298.6954
   298.6954 298.7068 298.7068 298.7068 298.7213 306.8559 306.8559 306.8559
   308.3011 308.3011 309.1429 309.1429 309.1429 309.5298 309.6898 309.6898
   309.6898 310.3756 310.3756 310.3756 310.4635 310.4635 310.4635 310.4794
   310.4794 310.4794 310.5129 310.5129 310.5949 311.4946 311.4946 311.4946
   311.4967 311.4967 311.5400 312.5370 312.5370 312.5370 313.3831 313.5205
   313.5205 313.5205 314.8083 314.8083 314.8083 315.5289 315.5289 315.5289
   315.9272 315.9272 315.9272 316.2800 316.5100 316.5100 317.2656 317.2656
   317.2656 317.5775 317.5775 319.7579 319.7580 319.7580 320.3939 320.4360
   320.4360 321.0640 321.0640 321.0640 321.5909 321.5909 321.5909 322.0255
   322.0255 322.0255 322.0765 322.0765 322.0765 322.4476 322.4476 322.5848
   322.5848 322.5848 322.6655 322.6655 323.6686 323.6686 323.6686 324.0043
   324.1766 324.1766 324.1766 324.5089 324.5089 324.5089 324.6213 324.6921
   324.6921 324.6921 324.8297 324.9663 324.9663 324.9663 325.1341 325.2410
   325.2410 325.2410 325.5545 325.5545 325.5545 326.8278 326.8278 326.9684
   326.9684 326.9684 327.2492 327.2492 327.2492 327.5285 327.5285 327.5285
   327.5439 327.5439 327.5439 327.8908 327.8908 329.5637 329.5637 329.7637
   329.7637 329.7637 330.1301 330.1301 330.1301 330.2138 330.3067 330.3067
   330.3067 330.3608 330.3608 330.3608 330.6822 330.6822 330.6831 330.6831
   330.6831 330.9589 330.9589 330.9589 331.1055 336.3241 336.3241 336.3241
   336.6830 336.6830 336.6830 336.7784 337.2714 344.5755 344.5755 344.6374
   344.6374 344.6374 344.6699 344.6699 344.6699 344.6859 344.6859 344.6859
   344.8022 344.8022 344.8022 344.8070 344.8070 348.8428 348.8428 348.8428
   349.3338 349.3338 350.0525 350.3394 350.3394 350.3394 350.6150 350.6150
   350.7822 350.7822 350.7822 350.8465 350.8465 350.8465 350.9058 350.9058
   350.9058 350.9453 350.9453 350.9453 351.6347 355.3816 355.3816 355.4003
   355.4003 355.4003 355.4362 356.1145 356.1145 356.1145 356.1597 356.1597
   356.1597 356.2627 356.2627 356.2627 356.3707 356.3707 356.3707 357.3357
   357.3357 357.4007 357.4007 357.4007 357.5086 365.5914 365.5914 365.5914
   366.9313 366.9313 366.9313 367.5209 368.0355 368.9963 368.9963 369.3325
   369.3325 369.3325 369.4180 369.4180 369.4180 369.8531 369.8531 369.8531
   369.8819 369.8819 369.8994 369.8994 369.8994 370.2797 370.2797 370.2797
   371.1527 371.1527 371.1527 371.9978 371.9978 372.0432 372.0432 372.0432
   372.3269 376.4442 376.4442 376.4442 377.3433 377.3812 377.3812 377.3812
   379.1936 379.5728 379.5728 379.7723 379.7723 379.7723 380.9533 380.9533
   380.9533 381.4250 381.4250 381.4250 382.4333 383.2098 383.2098 383.4058
   383.4058 383.4058 384.2059 384.2059 384.2592 384.2592 384.2592 384.4415
   384.4415 384.4415 384.6368 384.6368 384.6368 385.1688 385.9638 385.9638
   385.9638 386.1470 386.2550 386.2550 386.2550 387.8524 387.8524 388.1426
   388.1426 388.1426 388.4512 388.4512 388.4512 388.4560 388.4560 388.4560
   388.5081 388.5081 388.6079 388.6079 388.6079 388.7105 388.8905 388.8905
   388.8905 388.9195 388.9195 389.7168 389.9143 389.9143 389.9143 390.0963
   390.0963 390.0963 390.2366 390.2366 390.2428 390.2428 390.2428 392.8226
   392.8226 392.8226 392.9116 392.9116 392.9116 392.9154 392.9154 392.9163
   392.9163 392.9163 393.0916 396.5809 396.5809 396.5809 396.8826 396.8826
   397.9183 398.8662 398.8662 398.8662 399.0178 399.0178 399.0178 399.3912
   399.3912 399.4224 399.4224 399.4224 400.3679 401.6742 401.6742 401.6742
   401.6819 401.7029 401.7029 401.7029 401.7513 401.7513 401.7513 401.7554
   401.7554 403.0469 403.0469 403.0469 403.4049 403.4049 403.4049 403.6602
   403.6602 403.6602 403.9005 404.2519 404.2519 405.5088 405.5088 405.5088
   405.9483 405.9483 405.9483 405.9986 405.9986 405.9986 406.2920 406.2920
   406.2920 406.6497 406.6497 406.6587 406.6587 406.6587 406.7570 406.7570
   406.7570 406.8335 406.8335 406.8335 406.9100 408.8020 408.8020 408.8564
   408.8564 408.8564 408.9495 410.6610 410.6610 410.6610 412.0357 412.0357
   412.0357 412.5638 412.5638 412.7599 413.2023 413.9274 413.9274 413.9274
   414.3773 414.3773 414.3773 415.0511 415.0511 415.0511 415.4889 415.4889
   415.4889 415.7676 415.7676 415.9882 416.0382 416.0382 416.0382 416.1868
   416.1868 416.4277 416.4277 416.4277 416.6518 416.6518 416.6518 417.0329
   417.2492 417.2492 417.2492 417.9949 417.9949 417.9949 418.1826 418.1826
   418.3071 418.3071 418.3071 418.5990 418.5990 418.5990 418.6022 418.8174
   418.8174 418.8174 419.0981 419.0981 419.1258 419.1258 419.1258 419.1908

          k =-0.1250 0.1250-0.1250 (  3837 PWs)   bands (ev):

   -95.3193 -56.8024 -56.8024 -56.8024 -20.2539 -20.2536 -20.2536 -20.2259
   -20.2259  -2.4605   6.5646   7.8217   7.8217  10.0005  11.3956  11.3956
    11.7306  15.2273  15.2273  15.2344  17.0524  18.6636  18.6636  21.5929
    26.1885  26.1886  26.6649  29.3494  29.3494  29.8005  30.4408  30.4408
    31.6325  33.1677  33.1677  36.7567  37.3791  37.3791  38.6584  38.8010
    38.8010  39.7598  39.7598  39.8192  40.3000  40.8040  41.8095  41.8095
    42.9336  42.9336  43.2288  44.2309  44.2309  44.4969  45.3664  45.6882
    45.6882  46.0659  47.0172  47.0172  48.1416  48.1416  48.2641  51.1771
    51.1771  51.3115  54.0335  55.4238  57.9947  57.9947  58.7454  61.0374
    61.0374  63.5057  63.5148  63.5198  63.5198  65.3198  65.3198  66.8131
    68.2668  68.2668  69.6391  69.6391  69.9565  70.8126  71.8466  71.8671
    71.8671  72.9424  73.1448  73.1448  73.7791  74.0999  74.0999  74.7987
    74.7987  75.6094  76.1198  76.1198  76.9229  76.9229  77.4152  77.8748
    77.8748  77.8870  78.7436  79.2915  79.2915  80.4711  80.4711  81.3610
    81.9816  82.1751  82.1751  82.6022  82.6022  83.5326  84.7202  84.9161
    84.9161  85.9137  86.3045  86.3045  87.5619  87.5870  87.8112  87.8112
    89.7596  89.7596  91.6688  91.6688  91.7928  93.0273  93.0273  93.0597
    94.2928  94.2928  94.6033  95.2138  96.0011  96.4498  96.4498  97.9520
    98.3739  98.3739  99.2762  99.3809  99.3809 100.4609 100.4609 100.6919
   101.4716 101.6602 101.6602 102.0940 102.5764 102.5764 103.9504 103.9504
   104.3135 105.6705 107.1139 107.1139 107.7782 107.7782 107.9832 109.0816
   109.0816 109.5012 110.0662 110.5486 110.5486 110.6052 111.0391 111.0391
   112.1739 113.5090 113.5845 113.5845 114.5812 116.2630 116.5607 116.5607
   118.2816 118.3917 118.3917 119.4797 119.4797 121.9700 122.9184 122.9184
   123.3554 124.3915 125.2817 125.2817 126.2787 126.4847 126.4847 127.0561
   127.9241 128.0029 128.0029 129.6770 129.6770 129.9243 130.3712 130.5950
   130.5950 131.1449 131.4528 131.4528 132.5093 132.5093 132.8937 132.8937
   133.1504 133.2561 133.2561 133.4848 134.3756 134.3756 134.4404 135.5940
   135.5940 135.6747 136.1678 136.1678 136.6458 137.1230 137.1230 137.5352
   138.2161 138.2979 138.2979 139.2071 139.2071 139.8016 140.1564 140.2289
   140.2289 140.8330 141.4072 141.4273 141.4273 142.0590 142.0590 142.4476
   143.5899 143.5899 143.7758 143.9279 143.9279 144.3581 145.1020 145.1216
   145.1216 145.5296 145.5296 146.0403 146.0403 146.5091 147.8402 147.8402
   147.9650 147.9964 148.8164 148.8371 148.8371 150.2778 150.2778 151.0863
   151.8676 151.8676 152.1746 152.8194 152.8194 152.9006 153.1629 153.1629
   154.2380 154.8812 154.8812 155.5549 155.5549 157.5939 157.7451 157.7451
   158.3404 159.4221 159.9471 160.0552 160.0552 160.5693 160.5693 161.1947
   161.1947 161.4561 162.2068 162.2068 162.4813 163.7737 163.7737 164.6211
   164.8461 164.9207 164.9207 166.1469 166.2202 166.2202 166.6545 166.9181
   166.9181 167.6083 168.2181 168.2181 168.7466 170.2012 171.2598 171.2598
   171.4313 171.8498 171.8498 173.1492 173.4797 173.4797 174.4532 174.4532
   174.6986 175.8120 175.8120 176.7393 176.7393 177.0607 177.5357 178.1881
   178.1881 178.9561 180.3951 180.9530 180.9530 182.2525 182.2525 182.6356
   182.6356 183.6338 183.9745 183.9745 184.2993 185.0669 185.3069 185.3069
   186.4662 187.4468 187.6517 187.6517 188.9856 188.9856 190.6769 190.8050
   190.8050 190.9880 191.2282 191.5358 191.5358 192.2031 192.2146 192.2146
   192.7858 192.8709 192.8709 193.6800 193.7578 193.7778 193.7778 194.8461
   195.0889 195.0889 195.8214 195.8214 196.4077 197.2766 197.5942 197.5942
   198.6640 199.2389 199.2389 200.7766 200.7766 201.1776 201.1776 201.1958
   201.2167 201.5734 201.5734 201.7484 202.2836 202.2836 203.3373 203.9951
   203.9951 204.3268 204.8236 204.8236 204.9893 205.2233 205.2233 205.6879
   206.1496 206.1496 206.4792 206.5863 206.5863 206.7309 206.8098 206.8098
   207.3002 208.0726 208.0726 208.3258 208.3998 209.2090 209.2090 210.0690
   211.5912 211.5912 211.6362 212.2245 212.2711 212.2711 212.3976 212.5564
   212.5564 213.0627 213.0627 213.8452 214.2367 214.2367 214.8817 214.8817
   215.2731 215.2923 215.4723 215.4723 215.8282 215.8282 215.9639 217.2137
   217.4913 217.4913 217.7642 218.3831 218.5972 218.5972 219.0765 219.0765
   219.3358 219.5012 219.5012 219.7672 220.3423 220.3423 220.9165 220.9165
   221.1500 221.1987 221.8314 221.8314 222.0821 222.0821 222.2130 223.3164
   223.3307 223.3307 224.4211 224.4211 224.6951 224.8160 224.8160 225.0640
   225.7653 225.8362 225.8362 226.0656 226.0656 226.0987 226.8613 226.8613
   226.8709 228.3698 228.4201 228.4201 228.8361 228.8361 228.9763 229.2678
   229.2678 229.5333 229.5333 229.7081 230.3195 231.3450 231.3450 231.4446
   232.0764 233.0248 233.0248 233.3971 234.2390 234.4524 234.4524 235.1824
   235.1824 235.4700 235.5503 236.1899 236.1899 236.6843 236.9917 236.9917
   237.9278 237.9278 238.8531 238.9444 238.9935 238.9935 239.0317 239.4531
   239.4531 240.3650 240.3650 240.5814 241.9370 241.9370 242.4745 243.4168
   243.4365 243.4365 244.6144 244.6144 245.6893 245.6893 246.9778 248.4485
   249.0336 249.5280 249.5280 250.5383 250.5383 252.2128 252.3512 252.3512
   253.1380 253.6068 253.6068 253.6944 253.6944 254.5731 255.2562 255.2562
   255.7689 255.7689 256.0403 256.0508 257.0320 257.0460 257.0460 258.2330
   258.2330 258.2973 258.6209 258.6209 259.0343 259.9897 259.9897 260.5664
   260.7025 260.7025 260.8147 260.8147 260.9791 261.5332 261.7215 262.8567
   262.8567 264.2050 264.2050 264.2117 264.7108 265.2648 265.4798 265.4798
   265.8613 265.8613 266.6406 267.7789 267.7789 268.2892 268.2892 268.4180
   268.7759 268.7759 269.1241 269.6034 269.6034 269.6901 270.5153 270.5153
   270.7219 271.3239 271.3239 271.3827 271.9043 271.9354 272.0034 272.0034
   272.2494 272.2494 272.4797 273.1475 273.1476 273.3238 273.5659 273.5757
   273.5757 274.0850 275.7312 275.7312 276.0315 276.2180 276.2180 276.3832
   277.0290 277.0290 278.0294 278.0295 278.1281 278.5906 278.5906 278.6405
   279.3962 279.3962 279.7835 279.9343 280.0257 280.0257 281.3294 281.4304
   281.4304 281.8930 281.8930 282.1088 282.1088 282.1888 282.3781 283.1038
   283.1038 283.3755 284.4174 284.5239 284.5239 286.4789 286.4789 286.8505
   286.9134 286.9256 286.9256 288.2745 288.3196 288.3196 288.7476 288.7476
   288.8975 288.9662 288.9724 288.9724 290.0038 290.0038 290.0212 290.7540
   290.7822 290.7822 290.8946 291.1080 291.1080 291.6355 291.6355 291.9858
   292.9718 292.9718 293.1620 293.8682 293.8682 293.9861 294.1770 294.1770
   294.1962 295.6962 295.8492 295.8492 296.1031 296.1791 296.1791 296.3992
   297.6024 297.6024 299.2549 299.3515 299.3515 299.5595 299.8624 299.8624
   299.9441 299.9814 299.9814 300.1487 300.3207 300.3207 300.7684 301.5672
   301.5672 301.8973 302.0335 302.0335 302.8879 304.0994 304.2496 304.2496
   304.9458 304.9458 305.2912 305.2912 305.6756 305.7355 305.7592 305.7592
   306.8114 307.1694 307.3063 307.3063 307.7340 307.7340 307.7671 308.3169
   308.3169 308.6441 309.5322 309.5322 309.7289 310.3273 310.7131 310.7131
   311.4036 311.4278 311.4278 311.7024 311.8117 311.8117 312.0548 312.6766
   312.6766 313.9951 314.1659 314.1659 314.4951 314.4951 314.6989 314.6989
   314.8741 314.9575 314.9575 315.0422 315.9274 316.1575 316.2134 316.2134
   316.3293 316.6698 316.6698 316.8824 316.8824 317.0322 317.1316 317.1316
   317.4374 317.4461 317.4461 317.8446 319.2416 319.2882 319.2882 319.5401
   319.5401 319.7550 320.0203 320.0203 320.3821 321.2880 321.3081 321.3081
   321.6178 322.2770 322.2770 322.2919 322.7155 322.7419 322.7419 323.0123
   323.0123 323.0604 323.4482 323.4482 324.0769 324.1184 324.1184 324.1201
   324.4767 325.0207 325.0207 325.5920 325.6506 325.6506 326.1755 327.0818
   327.0818 327.5897 328.0154 328.0154 329.0544 329.0544 329.1278 329.2506
   329.2506 329.3271 329.4021 329.4021 329.6507 330.7220 330.7220 330.9504
   330.9504 331.3062 331.6195 331.6195 331.7452 331.7526 332.0125 332.0125
   332.4879 332.4879 333.0091 333.5061 333.9431 333.9431 334.1136 334.5451
   334.5451 334.7386 334.7386 334.7695 336.8076 336.8076 337.1041 337.7460
   337.7460 337.8778 338.0929 338.0929 338.6432 338.8193 338.9471 338.9471
   339.0103 339.3826 339.3826 339.6658 340.3583 340.3583 340.8263 341.0775
   341.0964 341.0964 341.4704 341.4704 341.5363 341.5363 341.6583 341.8543
   341.8543 342.0624 343.9410 343.9410 344.1373 344.3526 344.3526 344.9556
   345.7036 345.7036 345.8374 348.1888 348.1888 348.2366 348.3152 348.3152
   348.3498 348.8374 348.8374 348.8597 351.2017 351.7556 351.7556 351.8042
   351.8079 351.8079 351.8656 352.2626 354.2234 354.2234 354.9683 354.9683
   355.4423 356.8767 357.8701 357.8701 358.1116 358.1116 358.7452 358.9000
   358.9000 358.9728 359.7107 359.7107 360.1055 360.5289 360.5289 361.5131
   361.5131 361.5950 362.0425 362.0425 362.1739 362.5749 363.2516 363.2516
   363.2982 365.6904 365.7898 365.7898 365.8153 365.8153 365.8695 366.0027
   366.0027 366.8255 368.0657 368.0657 368.7747 368.7747 368.8732 369.1642
   369.3357 369.3357 369.4133 369.4133 369.5258 370.1365 370.1365 371.0301
   371.2121 371.2121 371.4784 371.6521 372.4668 372.4668 373.6332 373.6332
   373.7296 374.7350 374.7350 375.1459 375.3443 375.3443 375.9317 376.5589
   376.8190 376.8321 376.8321 377.1946 377.1946 377.5500 377.5500 377.5623
   378.1224 378.1224 378.6248 379.3099 379.3519 379.3519 379.4368 379.4368
   380.2460 380.6420 380.7662 380.7662 381.7347 381.7347 381.8405 382.3244
   382.7655 382.8333 382.8333 383.8841 383.8905 383.8905 384.0499 384.0499
   384.0679 384.6481 384.6481 384.8713 385.0581 385.0581 385.9811 386.4694
   386.4694 387.0688 387.0688 387.7959 388.0630 388.0630 388.3078 389.1651
   389.1651 389.3902 389.4717 389.4857 389.4857 389.5341 389.8593 389.8593
   389.9399 390.0347 390.0347 391.6280 391.8268 391.8268 392.2025 392.2025
   392.4503 392.5357 393.4080 393.4080 393.6124 393.7125 393.8342 393.8342
   393.8929 393.8929 394.0237 394.0237 394.0308 394.7833 394.9848 394.9848
   395.3393 395.4261 395.4261 395.7994 395.8252 395.8252 395.9097 395.9097
   396.0422 396.1288 396.7295 397.4315 397.4315 397.7099 397.7099 397.7327
   397.9144 398.1667 398.1667 398.4507 399.4107 399.4107 399.8260 399.8260
   400.0828 400.0828 400.0955 401.2934 401.5530 401.5530 401.5682 402.1469
   402.1469 402.3269 402.3728 402.3728 402.4096 402.6059 402.6059 402.8761
   403.3373 403.3589 403.3589 403.6717 403.6815 403.8712 403.8712 403.9693
   404.0409 404.0410 404.2886 404.2886 404.5189 405.0151 405.0151 405.0465
   405.0465 405.5686 406.5644 406.7860 406.7860 406.8133 407.0443 407.0443
   407.1602 407.1602 407.2924 407.6562 407.6562 407.9309 408.1112 408.1112
   408.2887 408.4503 408.5414 408.5414 408.9761 408.9761 409.1977 409.6759
   409.6759 409.9868 411.1076 411.2302 411.2302 411.8447 411.8447 412.1014
   413.0243 413.0243 413.0961 413.2334 413.3213 413.3213 413.8173 413.8173
   414.1529 414.2460 414.4519 414.4519 415.0825 415.1227 415.1227 415.3088
   415.3088 415.5643 415.7080 415.7080 415.9770 416.3715 416.4091 416.4091
   416.5721 416.5721 416.6298 416.6298 416.6750 416.7458 416.9579 417.5288
   417.5288 418.3708 418.3708 418.5682 419.1736 419.1736 419.7377 419.7377
   419.7879 419.8773 419.9463 420.4987 420.4987 420.9385 420.9385 421.1182

          k =-0.2500 0.2500-0.2500 (  3846 PWs)   bands (ev):

   -95.3193 -56.8025 -56.8024 -56.8024 -20.2537 -20.2527 -20.2527 -20.2258
   -20.2258  -2.0692   4.7262   7.4769   7.4769   9.7178  11.7946  11.7946
    13.5281  15.0850  15.0850  15.5444  17.9295  20.7016  20.7017  23.2847
    23.2847  23.5226  24.3679  29.6062  29.6062  30.1299  30.7978  30.7978
    31.3641  33.2735  33.2735  34.6121  36.5864  36.5864  37.2468  37.2468
    37.5985  38.2509  38.5695  38.5695  38.7950  40.6990  41.6551  41.6551
    42.5971  42.9437  42.9437  43.9039  46.5441  46.5441  46.9670  46.9670
    47.8302  48.9449  48.9449  49.3097  49.3812  52.0113  52.0113  53.5740
    53.8025  53.8025  55.3526  55.3526  55.4795  56.7009  57.4855  57.4855
    59.9277  61.3724  61.3724  62.1257  62.9757  64.2998  64.2998  66.0091
    66.5817  66.5817  67.9452  68.0109  68.9273  68.9273  70.6428  70.8120
    70.8120  72.0778  72.0778  72.6753  72.9358  72.9358  72.9692  74.5755
    75.2499  75.2499  76.0694  76.0694  76.5580  76.5580  77.1878  77.3843
    78.5390  78.5390  79.6396  79.8429  79.8429  81.3353  81.6177  81.6177
    83.3897  83.3904  83.3904  84.5279  85.1483  85.1483  85.2965  85.8968
    85.8968  87.0715  87.0715  87.2184  88.2251  88.2251  88.5824  90.3366
    90.9044  90.9044  90.9093  91.2880  92.4104  92.4104  93.0169  93.2204
    93.2204  94.2196  94.2196  95.4124  95.4124  95.7580  96.4752  96.9481
    97.0234  97.0234  97.9945  98.0162  98.0162  99.5622  99.5938 100.4691
   100.4691 102.2452 102.2452 102.4244 102.5999 102.5999 104.4599 104.4599
   105.8646 106.8888 107.0424 107.0424 108.5672 109.9938 109.9938 110.6437
   111.3594 111.3594 111.9039 112.8838 112.8838 113.4606 113.7266 114.6447
   114.6447 115.2830 115.6277 115.6277 116.2683 116.6016 116.6016 117.6540
   117.6540 117.8294 118.0558 118.0558 119.2819 119.3840 119.3840 119.5919
   121.2048 121.7295 122.1062 122.1062 123.0115 123.0115 123.5158 124.1085
   124.1085 124.8162 126.5840 127.1848 127.1848 127.7316 128.0935 128.0935
   128.3308 129.0793 129.0793 130.0604 130.2316 130.2316 131.2489 131.2489
   131.3371 133.1627 133.2283 133.4070 133.4070 134.3625 134.3625 135.0486
   135.2969 135.2969 135.9960 135.9960 136.3853 137.2364 137.2942 137.2942
   137.9186 138.4377 138.7152 138.7152 140.5531 140.5531 140.6943 141.0282
   141.0282 141.4902 141.6521 141.6521 141.8608 142.4336 142.4336 142.8297
   144.5735 144.5735 145.0861 145.0861 146.0816 146.0816 146.1764 146.7125
   146.8680 146.9352 146.9352 148.0162 148.0162 148.4281 149.3854 149.4674
   149.4674 149.6992 150.1480 150.1480 150.1684 150.8566 151.1056 151.1056
   152.1335 152.1335 153.0534 153.0534 153.7134 153.8626 153.8626 154.2856
   154.2856 154.8494 155.5651 155.7254 156.8247 156.8247 156.9324 157.9148
   157.9148 159.3829 160.0456 160.0456 160.2541 161.4767 161.4767 161.8292
   162.0168 162.0168 162.8269 163.3143 163.3143 163.7137 163.7137 164.1099
   164.1135 165.0410 165.0410 166.0876 167.5360 167.5360 167.8740 168.5617
   168.5617 168.8858 170.7374 170.7374 171.9652 172.0507 172.0507 172.3234
   173.0509 173.0509 173.5545 173.9455 173.9455 174.6580 174.9408 175.1277
   175.1277 176.0585 176.0585 176.4533 177.7358 177.9522 177.9522 179.3493
   179.3493 179.7050 181.0094 181.0730 181.0730 182.1044 182.5746 182.7490
   182.7490 183.1221 183.3665 183.3665 183.7815 183.7815 184.5339 184.6403
   185.2001 185.2001 185.2990 185.2990 186.3948 186.3948 186.4035 186.7941
   186.9359 186.9359 187.3243 188.5891 188.5891 188.7466 189.0489 189.0489
   190.4660 190.4660 190.5472 192.6172 192.6680 192.6680 192.9822 193.4197
   193.4197 194.3237 194.3237 194.4230 195.2787 195.2787 196.5382 197.0214
   198.3781 198.3781 200.0522 200.0522 200.0992 200.1336 200.7335 200.9530
   200.9530 201.3798 201.3942 201.3942 202.1333 202.1333 202.9361 202.9361
   203.0887 203.8866 204.4754 204.4754 205.3010 205.8960 205.8960 206.6245
   206.8216 206.8216 206.8397 207.2307 207.2307 207.4901 207.4901 207.6207
   208.1535 208.1535 208.5310 208.7242 208.9784 208.9784 209.3631 209.9995
   210.0957 210.0957 210.3504 210.3504 210.7254 211.2674 211.2674 211.4690
   211.4690 212.3882 212.4070 213.0161 213.0360 213.0360 213.3532 213.9862
   213.9862 214.8664 214.8664 215.1958 215.3085 215.3085 216.0124 216.8018
   216.8018 217.1650 217.3006 217.3006 218.0879 218.1840 218.1840 218.2561
   219.9671 219.9671 220.1197 220.4059 220.4059 220.7483 221.6002 221.6010
   221.6011 222.0948 222.0958 222.0958 222.6860 222.8362 222.8362 222.9642
   223.3834 223.3834 223.5149 224.9338 225.0174 225.0174 226.3524 226.3723
   226.3723 226.6201 226.6201 226.7829 228.2434 228.2434 228.4638 228.9125
   228.9125 230.1464 230.4366 230.4366 231.1872 231.1872 231.2520 231.8301
   232.4294 232.4294 232.9149 232.9149 232.9188 233.4985 233.7360 235.3368
   235.3368 236.1027 236.1027 236.6009 236.7685 236.7685 237.1982 237.1982
   237.4413 237.6686 238.7849 238.7849 238.9505 239.1218 239.1218 239.7929
   239.7929 240.1006 240.6192 240.6192 241.3914 241.3914 242.1324 242.1329
   242.8022 243.2780 243.2780 243.5993 243.9108 243.9108 244.0523 244.3436
   244.3436 246.3200 246.8885 246.8885 246.9808 246.9808 247.2743 247.8594
   248.0060 248.2153 248.2153 248.6717 248.6717 248.9700 249.1886 249.1886
   249.3900 249.3900 250.0205 252.3133 253.2586 253.2586 253.2884 253.7819
   253.7819 253.7851 254.7707 254.7707 255.0595 255.0595 255.0656 255.2684
   255.5584 255.5967 255.5967 255.9935 255.9935 256.1960 257.1114 257.1114
   257.2421 257.6587 257.6587 259.4955 259.4955 260.3714 261.8684 261.8684
   261.8831 263.1152 263.3711 263.3711 263.6039 263.9857 263.9857 264.0558
   264.3967 264.3967 264.6467 266.3443 266.3443 266.7616 266.7616 266.9882
   267.2160 267.2160 267.2625 267.7964 267.9075 267.9075 268.0267 270.0416
   270.0416 270.6066 270.6097 270.9554 270.9554 271.2835 271.2835 271.4277
   271.6232 271.6604 271.6604 272.3334 272.6971 272.6971 272.9651 272.9651
   273.0568 275.0713 275.0713 275.1307 276.3442 276.3442 276.7989 277.2597
   277.8456 277.8456 277.9524 278.5580 278.5580 279.1890 279.3220 279.3220
   279.6585 279.6813 279.6813 280.2623 280.2623 280.5628 281.3443 281.4159
   281.4159 282.0964 282.9135 284.2128 284.2128 285.3478 285.3478 285.7738
   286.1970 286.1970 286.3206 286.3206 286.4856 286.6064 287.9087 287.9087
   288.1865 288.2342 288.2503 288.2503 288.4239 288.4239 288.4782 288.5864
   288.6786 288.6786 290.3866 290.3866 290.4497 290.7050 290.7050 290.8239
   291.6988 291.6988 292.4121 293.3815 293.3815 293.8833 293.8833 293.9482
   294.2267 294.2267 294.5617 294.7781 294.7781 294.8010 295.1267 295.1267
   295.4183 295.4183 295.4224 295.6898 295.9486 295.9486 296.2275 296.6035
   296.6449 296.6449 297.0859 297.1466 297.1466 298.0654 298.1253 298.1253
   298.3979 298.3979 298.5859 299.0193 299.4485 299.4485 300.3687 300.6374
   300.6374 301.5642 302.2100 302.2100 302.3170 302.4474 302.4474 302.5564
   302.8489 302.8489 303.0811 303.0811 303.4807 303.4845 303.5603 303.5603
   304.0916 304.0916 304.6115 304.6115 304.6437 304.7842 304.8607 304.8607
   304.9092 306.5466 306.5466 306.8434 308.0541 308.0577 308.4076 308.4076
   308.9641 309.0434 309.0434 309.8667 309.8667 310.3578 310.6921 310.7260
   310.7260 311.1806 311.3753 311.3753 313.5081 313.5494 313.5960 313.5960
   313.8638 313.8638 314.0479 314.1471 314.1471 314.1791 314.1791 315.1440
   315.1440 315.5267 317.1534 317.6147 317.6147 317.6365 317.8195 317.8195
   318.1252 318.1252 318.1664 318.2472 318.2472 318.6315 318.7788 319.1783
   319.1783 319.4073 319.4515 319.4515 319.6438 322.4884 322.5039 322.5039
   322.7219 322.7219 323.1603 323.2009 323.2009 323.4065 323.7383 323.7383
   324.2619 325.1409 325.1409 325.3162 325.6830 325.6830 325.8403 326.5881
   326.5881 327.2949 327.4027 328.0278 328.0278 328.9011 328.9011 329.3655
   330.3587 330.5099 330.5099 330.7352 330.7352 330.8152 331.0777 331.0848
   331.0848 332.5545 332.5545 332.7986 332.7986 332.9443 332.9719 333.6972
   333.6972 333.8673 334.2855 334.4934 334.4934 335.1317 335.1317 335.2797
   335.3754 335.4479 335.4479 336.3675 337.0180 337.0180 337.2492 337.4461
   337.4770 337.4770 337.7390 337.7390 337.7523 338.3343 338.3343 338.9492
   339.3172 339.3172 339.9309 340.4197 340.4197 340.5694 340.6211 340.6211
   341.2850 341.4439 341.4439 341.4980 341.5587 341.5587 341.7296 342.0849
   342.0849 342.5049 343.2720 343.2720 343.2835 343.5027 343.5027 343.5745
   344.8365 344.8365 345.1613 345.9299 345.9299 346.2146 346.6325 346.6325
   347.2915 347.2915 347.3657 347.5176 348.7589 348.7589 348.8199 349.0677
   349.2045 349.2045 350.4358 350.4358 351.4721 351.7777 351.7777 352.5578
   353.3774 353.3774 353.3893 353.8868 354.2460 354.2460 354.7757 354.7757
   354.8667 355.2197 355.2629 355.2629 356.0297 356.0297 357.3014 357.3014
   357.3375 358.9339 358.9339 359.6626 359.6797 359.6797 359.7727 360.0569
   360.0569 360.6838 362.8010 362.8425 362.8425 363.4269 363.4269 364.1242
   365.8316 365.8316 365.8553 365.8553 365.8695 366.1249 366.4541 366.4541
   366.5749 366.5749 366.6348 367.7168 367.7865 367.7865 367.9065 368.0672
   368.1987 368.4517 368.4517 368.9848 369.0147 369.0147 369.6712 369.7385
   369.7385 369.9353 369.9353 370.0404 371.1214 371.1214 371.2965 371.8999
   371.8999 372.0629 372.5319 372.5319 372.7458 374.1376 374.1376 374.7591
   375.1871 375.1871 375.2447 375.6576 375.6576 375.7077 376.4257 376.4257
   376.5319 376.7237 376.7237 376.7297 376.9012 376.9012 377.5538 377.5538
   377.6173 377.8575 377.8575 378.1644 378.7973 378.7973 379.4131 379.5770
   379.5770 379.7688 380.2945 381.2181 381.2181 381.2433 382.0619 382.0619
   382.0995 382.3439 382.5191 382.5191 382.5702 382.5702 382.7221 383.8592
   383.8592 384.3555 384.4087 384.4087 384.4935 384.5716 384.5716 386.4835
   386.4835 386.5476 386.5883 387.2840 387.2840 387.9550 388.4066 388.4066
   388.6799 389.0402 389.1682 389.1682 389.3045 389.3255 389.3255 389.3688
   389.3688 389.4566 389.8893 389.8893 390.0200 391.4225 391.4225 391.4612
   391.6396 391.6396 391.7223 392.2491 392.2491 392.2492 392.6413 392.6413
   393.3551 394.0992 394.2666 394.2904 394.2904 394.3360 394.3360 394.5505
   394.5505 394.5539 396.5627 396.5627 396.5756 396.6145 396.6145 396.6356
   397.1335 397.1335 397.1396 397.5384 397.5384 397.6387 398.6455 400.0139
   400.0139 400.1032 400.1409 400.1409 400.6305 400.8719 400.8719 401.1350
   401.1350 401.1442 401.3699 401.5441 401.5441 402.6507 402.6507 402.7144
   402.7912 402.7912 402.9292 403.1691 403.2409 403.2409 403.6155 403.6155
   403.7323 403.8999 404.1998 404.1998 404.5912 404.5912 404.5913 404.7664
   406.0486 406.0486 406.2504 406.9719 406.9719 407.1342 407.5912 407.5912
   407.7348 407.7348 407.9172 408.4146 408.4146 408.4202 408.7904 409.0783
   409.0783 409.7314 409.7314 409.8822 411.3426 411.3426 411.3637 411.5117
   411.5117 411.5626 412.4035 413.2493 413.2938 413.2938 413.5797 413.5797
   413.7037 413.9553 414.0939 414.0939 414.1403 414.2094 414.2094 414.3334
   414.3334 414.3541 414.5153 414.5153 415.9442 416.1701 416.6066 416.6066
   417.5709 417.9494 418.4134 418.4134 418.4208 418.4208 420.4815 420.4815
   420.6053 420.8155 420.8155 421.2808 421.7217 421.7217 421.9228 421.9264
   421.9264 421.9652 421.9652 422.3561 422.3561 422.3709 422.4812 422.4812
   422.4880 422.8455 422.8455 423.0653 423.2834 423.7678 424.0671 424.0671

          k =-0.3750 0.3750-0.3750 (  3858 PWs)   bands (ev):

   -95.3194 -56.8025 -56.8024 -56.8024 -20.2534 -20.2518 -20.2518 -20.2256
   -20.2256  -1.5494   3.2797   7.2109   7.2109   9.4092  11.8130  11.8130
    14.7102  15.9308  16.1075  16.1075  19.6834  20.3568  20.3568  22.3120
    23.4802  23.4802  26.5928  28.4522  29.5833  29.5833  30.0362  30.0362
    30.5367  31.6109  31.6109  33.4332  35.7378  35.8002  35.8002  36.0222
    36.0222  36.7930  37.5803  40.0852  40.6275  40.6275  41.8670  41.8670
    43.2491  43.2491  43.3518  45.6475  47.7557  47.7557  49.2814  49.2814
    49.8585  50.2321  50.8076  50.8076  52.9104  52.9104  53.0562  53.5257
    53.6691  53.6691  56.5241  56.7311  56.7311  57.2022  57.2022  57.4715
    58.8225  58.8225  60.5255  60.9321  61.1598  61.1598  62.2536  64.4401
    64.4401  64.9482  65.1283  66.7025  66.7025  66.9614  69.6162  69.6162
    70.8016  72.1416  72.1416  72.4367  73.1282  73.2255  73.2255  74.2310
    74.2310  75.1207  76.0793  76.0793  77.0049  77.0049  77.1003  77.6525
    78.1081  78.1081  79.2858  81.3201  81.3201  81.4989  81.7097  82.2427
    82.2427  83.4712  84.6934  84.6934  85.4670  85.4752  85.4752  86.1801
    86.6710  86.6710  87.5607  87.5607  88.3800  89.7166  89.8270  89.8270
    91.0223  91.0223  91.2892  92.5141  92.5141  92.6594  93.4822  93.4822
    93.4974  94.6412  94.6412  94.8812  96.4661  96.4661  96.8182  97.5595
    98.0912  98.0912  98.7347  99.4345  99.4345  99.9755  99.9755 100.4435
   101.1127 101.1127 102.6895 102.6895 103.5457 104.1841 104.6316 104.8399
   104.8399 108.2448 108.2448 109.4642 109.6957 109.6957 110.3654 110.8926
   111.4747 111.5630 112.1785 112.1785 112.6168 113.2160 113.2160 113.4770
   114.2780 114.2780 115.3867 115.3867 115.8364 115.8364 116.4883 117.1455
   117.2455 117.2455 117.3066 118.2860 118.2860 119.5409 119.5409 120.1206
   120.5571 120.5571 120.9909 121.6860 122.0997 122.0997 122.9498 124.2434
   124.2434 124.3279 125.3686 125.6786 125.6786 126.6115 126.6115 127.0087
   128.0110 128.0110 128.9363 129.8578 129.8646 129.8646 130.4504 130.4504
   131.0064 132.3872 132.3872 132.7538 133.0009 133.2715 133.2715 134.4797
   134.4797 134.6649 134.7785 134.7785 134.8815 135.8118 135.8118 136.1969
   136.4269 136.4269 137.8180 138.2554 139.3722 139.3722 140.6517 140.7672
   141.1661 141.1661 141.8829 141.8829 142.4460 142.4460 142.6969 143.0349
   143.1651 143.1651 145.0642 145.0642 145.4527 146.2634 146.2945 146.2945
   146.3983 147.4258 147.4258 147.6068 147.6068 148.5621 149.1429 149.1429
   149.3560 150.0477 150.0477 150.1060 150.9466 152.2458 152.2458 153.6913
   154.9090 154.9090 155.1878 156.3462 156.3462 156.3830 156.5625 156.5625
   157.2698 157.3411 157.4437 158.2375 158.2375 158.9008 158.9008 159.7097
   159.7097 159.9193 160.7572 160.7572 161.1356 161.6002 161.6002 162.0612
   163.2908 163.2908 163.6681 164.0027 164.0027 165.3323 165.5050 165.5050
   165.6675 167.3240 167.3240 168.3522 168.7063 168.7063 169.0372 169.7216
   169.9322 169.9322 170.8658 172.1052 172.1052 172.3203 172.3203 173.0077
   173.6502 174.0370 174.4740 174.4740 175.0446 175.0446 176.0136 176.0136
   176.0761 176.6962 176.6962 177.3125 177.6388 177.6388 178.0375 178.1785
   178.1785 178.3629 178.8629 179.2073 179.2073 179.8614 180.0492 180.0492
   180.4684 180.4684 181.0493 181.7454 181.7454 182.0652 182.6753 182.6753
   183.6898 183.8945 183.8945 184.4688 184.5683 184.5683 184.8429 185.8912
   186.0624 186.0625 186.8072 187.8581 187.8581 188.2626 189.3049 189.3396
   189.3396 189.8248 189.8248 190.2971 191.2609 191.2609 192.0126 192.0592
   193.6304 193.6304 194.2900 194.2900 195.2285 195.2327 195.2327 195.8863
   196.4052 196.4052 196.7250 196.7250 196.8349 198.0949 199.1083 199.1083
   200.2670 200.2670 200.3650 200.5421 201.1170 201.1170 201.3307 201.3307
   201.4334 201.5573 203.2942 203.2942 203.7534 203.8935 203.8935 204.0371
   204.0371 204.5277 205.1437 205.1437 205.6791 206.3675 206.3675 206.4456
   207.6383 207.6383 208.1024 208.6459 208.6459 209.1962 209.4239 209.4239
   209.9102 210.0989 211.3319 211.3319 212.0256 212.0274 212.0274 212.7375
   213.4856 213.4856 213.6691 214.1997 214.1997 215.1426 215.3072 215.3072
   216.0328 216.4628 216.4909 216.4909 217.0003 217.0003 217.8111 217.8111
   217.8788 218.3728 218.3728 218.5429 219.0045 219.0045 219.1841 219.2112
   220.1162 220.1162 220.7713 220.8157 220.8178 220.8178 221.4487 222.6928
   222.6928 223.1180 223.8329 223.8329 224.3857 224.4756 224.4756 224.7904
   224.7904 225.0636 225.0636 225.1422 225.2587 225.6229 227.0758 227.0758
   227.2135 227.3916 227.3916 227.4931 228.0741 228.0741 229.5321 229.5321
   229.8061 231.4520 231.4520 232.4432 232.4432 232.6291 232.9668 232.9668
   233.9403 234.5919 234.5947 234.5947 235.6604 235.7972 236.1313 236.1313
   236.3974 236.3974 236.4297 236.6167 237.4910 237.4910 238.3222 238.3222
   238.3722 238.7903 238.7903 239.2290 240.4329 240.4329 240.7861 240.8780
   241.1817 241.1817 241.5233 241.9192 241.9192 242.3433 242.4382 242.4382
   243.0405 243.9406 244.0716 244.0716 244.4142 244.4142 244.6787 245.2975
   245.2975 245.3274 245.3824 245.3824 245.7313 246.2068 246.3188 246.3188
   247.4722 247.4722 247.9286 249.9269 249.9269 249.9769 250.2483 250.2483
   250.4545 251.1651 251.1651 251.5525 253.3694 253.3694 253.8015 253.8015
   254.2083 254.6197 254.7441 254.7441 254.9609 255.2173 255.2173 255.7182
   255.8482 256.2482 256.2482 256.7283 256.7283 256.7829 256.9572 256.9572
   257.3127 257.5266 257.5266 257.6449 257.6972 257.7761 257.7761 257.8710
   259.1209 259.6740 259.6740 260.1166 260.1166 261.4821 261.4821 261.7166
   262.5543 262.5543 264.3644 264.6440 264.6440 264.9714 265.2020 265.2020
   265.5187 266.0881 267.5523 268.0014 268.0014 268.5992 268.5992 269.1134
   269.5529 269.5529 269.6171 269.7491 270.7997 270.7997 271.2653 271.2653
   271.5206 271.5562 271.5562 271.8308 272.6351 272.6351 273.1625 273.1625
   274.8874 275.1772 275.1772 275.3861 275.6941 275.6941 275.7922 277.0133
   277.0133 277.3146 277.5750 277.6241 277.6241 278.1866 278.1866 278.9454
   279.7409 279.7409 279.8386 279.8721 280.1812 280.1812 280.5001 280.5001
   280.9040 282.6971 283.4677 283.4677 283.9519 284.6769 284.6769 284.9760
   285.0996 285.0996 286.6042 286.6042 286.8463 287.5022 287.5665 287.5665
   288.0793 288.0793 288.3035 288.4721 288.8052 288.8052 289.2691 289.5470
   289.5470 289.7835 289.7835 289.9332 289.9524 290.2488 290.2488 290.3898
   290.3898 290.5047 290.5373 290.8721 290.8721 291.6320 291.7632 291.7632
   291.8907 291.8907 292.6660 292.7218 294.1994 294.4976 295.1425 295.1425
   296.3099 296.3099 296.7158 296.7158 296.9424 296.9498 296.9498 296.9938
   297.0792 297.0792 297.1610 297.8073 297.8073 298.2459 298.2459 298.2888
   298.4524 298.6288 298.8757 298.8757 299.4775 299.4775 299.7731 299.9385
   299.9385 300.0816 300.2767 300.2767 300.7997 301.4241 301.4241 301.8584
   302.2312 302.2312 302.5746 302.7271 302.7271 302.8666 303.3338 303.3338
   303.8988 303.9113 303.9113 303.9922 304.5717 304.5717 304.8010 305.7500
   305.7500 306.1551 306.2239 306.2719 306.2719 306.6076 306.6076 306.6864
   306.7330 306.7330 307.1408 307.7715 307.7715 308.0338 309.4162 309.4162
   310.4589 310.4589 310.8828 312.8607 312.8812 312.8812 313.1620 313.8261
   313.8261 314.5534 314.6533 314.6533 315.3860 315.3860 315.4871 315.9008
   315.9008 316.1119 316.4593 316.4593 317.2268 318.1772 318.1772 318.7823
   319.3263 319.3263 319.3984 320.4382 321.3695 321.3695 321.9862 321.9936
   321.9936 322.5110 322.5110 322.6022 322.6710 322.9795 322.9795 323.1290
   323.4648 323.4648 323.9446 324.2503 324.2503 324.7989 325.0204 325.0204
   325.2373 325.2889 325.2889 325.3419 325.4465 325.4465 326.6816 327.1967
   327.1967 327.8098 327.8098 328.1699 329.1082 329.6134 329.6134 329.8226
   329.8269 329.8710 329.8710 331.5891 331.5891 331.7508 331.7508 332.0478
   332.7524 332.9882 332.9882 333.0168 333.6505 333.9330 333.9330 334.1183
   334.5503 334.5503 334.8435 334.9018 334.9018 335.1147 335.1311 335.3490
   335.3490 335.4697 335.4697 335.5319 337.0911 337.0911 337.1918 337.6796
   337.6796 338.2951 338.6651 338.6651 339.3587 339.3587 339.3777 339.8729
   339.8729 340.4197 341.5705 341.5705 341.8218 342.9902 342.9902 343.3506
   343.3929 343.3929 343.4622 343.5782 343.5782 344.1743 344.8754 344.8754
   345.7035 345.7426 345.8457 345.8457 347.0024 347.0024 347.1161 347.1161
   347.3096 347.6559 347.6559 347.7672 347.7958 347.8395 348.7075 348.7075
   348.9013 349.0312 349.0312 350.1706 350.3041 350.3041 351.1850 351.1850
   351.3759 351.6678 351.6678 351.9242 353.1699 353.1699 353.2446 353.3921
   353.5241 353.5241 354.7360 355.3857 355.3857 355.5077 355.5077 355.5204
   356.9816 356.9816 357.5231 357.9050 358.1403 358.1584 358.1584 358.5317
   358.5317 358.6149 358.6149 358.9511 359.6341 359.6744 359.6744 359.7476
   359.7476 359.7743 359.8904 360.6910 360.6910 360.6915 361.0205 361.0205
   362.4615 362.4615 362.5708 363.6640 365.4398 365.4398 365.6329 366.0420
   366.0420 366.5621 366.8593 366.8594 367.2515 367.2515 367.2528 367.7057
   368.2181 368.2181 368.3575 368.8844 368.9413 368.9413 368.9468 369.2065
   369.2065 369.3502 369.3502 369.5435 370.2244 370.2244 370.8130 370.8495
   371.0403 371.0403 371.1229 371.1229 371.2192 371.3421 371.5632 371.5632
   372.1742 372.1742 372.4966 372.6048 372.6048 372.7371 373.1884 373.1884
   373.5000 373.9991 373.9991 374.1474 374.1474 374.5205 374.8304 374.8612
   374.8612 375.1315 375.5834 375.6326 375.6326 375.6448 375.6548 375.6548
   377.9586 377.9586 378.5500 379.2684 379.2684 379.3478 379.7201 379.7201
   380.0029 380.1990 380.4293 380.4293 380.8043 380.8043 381.0933 381.0933
   381.2021 381.7051 381.7633 382.1287 382.1287 382.4280 382.4280 382.5284
   384.4781 385.3252 385.3252 385.3259 387.0088 387.0217 387.0217 387.3258
   387.3258 387.4261 387.8565 387.8565 388.1119 388.3709 389.1433 389.1433
   389.2456 389.3793 389.3793 389.4511 390.2443 390.2443 390.3225 390.8895
   390.8895 390.9553 390.9553 391.2601 391.8350 391.8350 392.1156 392.3625
   392.3625 392.4020 392.8293 392.8293 392.8479 393.1515 393.1515 393.2011
   393.4685 393.4685 394.8875 394.8875 395.1137 395.2050 395.3740 395.3740
   395.7605 395.7605 396.1825 396.6195 396.7393 396.7393 397.8693 398.0222
   398.0466 398.0466 398.1592 398.1592 398.1986 398.1986 398.3546 399.9883
   400.4721 400.4721 400.8657 402.2541 402.2541 402.5259 402.5259 402.6676
   402.9666 403.0032 403.0032 403.2394 403.2394 403.3848 403.9464 403.9936
   403.9936 404.1458 404.1458 404.4152 405.4270 405.4270 405.5116 405.5116
   405.5675 405.9651 405.9651 405.9955 406.3443 406.3443 406.3676 406.5593
   409.5528 409.5528 409.6632 410.2972 410.2972 410.3870 410.5617 410.5617
   410.6081 411.4536 411.4634 411.4634 411.7106 411.7106 411.8442 412.1017
   412.1159 412.1159 412.1954 412.1954 412.3092 412.4455 412.4455 412.5583
   413.1835 413.1835 413.5227 413.7380 413.9654 413.9654 414.0837 414.4829
   414.4829 414.6134 414.6134 414.7399 415.2164 416.9101 416.9101 417.1498
   417.2018 417.2018 417.2205 417.4866 417.4866 417.9951 418.5896 418.7290
   418.7290 418.9799 418.9799 419.7440 421.6575 421.6575 421.9122 422.6299
   422.6299 422.6963 424.5191 424.5191 424.7626 424.8112 424.8112 424.9137
   426.0180 426.0180 426.4144 426.4144 426.4186 426.5309 426.8200 426.8200

          k = 0.5000-0.5000 0.5000 (  3852 PWs)   bands (ev):

   -95.3193 -56.8025 -56.8024 -56.8024 -20.2533 -20.2514 -20.2514 -20.2255
   -20.2255  -1.2611   2.6757   7.1154   7.1154   9.2976  11.7502  11.7502
    14.6274  17.5538  17.5629  17.5629  18.4609  18.4609  18.6018  24.0801
    25.3345  25.7917  25.7917  27.0571  27.0571  29.7201  30.1262  30.1262
    30.4981  30.7411  31.8696  31.8696  35.2679  35.2679  35.4900  35.4900
    36.2365  36.2659  36.6224  39.8758  41.2754  41.2754  41.7400  41.7400
    43.4613  45.0237  45.0237  48.0142  48.5613  48.5613  48.6558  49.2521
    49.2521  50.6275  50.6275  51.4084  51.8917  51.8917  53.5369  55.0337
    55.0337  55.8044  56.2404  56.2404  56.4589  57.3840  57.3840  57.6736
    58.5917  60.3665  60.3665  60.4129  60.8212  60.8212  62.6130  62.9365
    62.9365  63.4022  64.5771  64.9802  64.9802  67.2894  67.2894  67.9871
    70.5483  71.8564  71.8564  72.9524  72.9524  73.2857  73.9585  74.4358
    75.1084  75.1084  76.2868  76.2868  77.5214  78.3094  78.3359  78.3359
    78.8906  78.8906  79.0531  80.1844  80.2739  80.4496  80.4496  81.5430
    82.3344  82.3344  83.6046  83.6046  86.5149  86.5149  86.5849  86.9186
    86.9186  88.0508  88.1294  88.1294  88.2114  88.9424  89.4840  89.5343
    89.5343  90.3367  90.3367  91.1037  92.8418  92.8418  93.4617  93.8431
    93.8431  96.3697  96.3860  96.3860  97.2341  97.2341  97.6266  98.0696
    98.1223  98.1223  99.0250  99.0250 100.8239 100.8239 101.4652 102.4676
   102.4676 103.5482 103.5482 104.4909 104.5909 104.6454 105.5275 105.8492
   106.1829 106.1829 107.4530 107.4530 108.0246 108.0246 108.3427 109.0400
   109.0400 109.8493 110.4757 110.7214 110.7498 110.7498 113.0847 113.6036
   113.6036 114.9089 115.5753 115.5753 116.0873 116.2341 116.2475 116.2475
   116.8820 116.8820 117.3439 118.3975 119.6818 119.6818 120.8261 120.8788
   120.8788 122.6005 122.7593 122.7593 123.8124 123.8124 124.3703 124.6954
   124.6954 124.9800 125.2433 125.2433 126.1915 126.3348 126.3348 127.2671
   127.2671 127.3525 127.8830 128.0806 128.8280 128.8280 129.5707 129.7551
   129.7551 130.6234 130.9382 130.9382 131.5922 131.5922 133.5086 134.2012
   134.2012 134.4899 134.4899 135.3382 135.3382 135.4639 135.9786 136.2714
   136.2714 136.4125 136.7570 136.7570 138.4872 139.9305 140.7184 140.7184
   140.8985 141.6565 141.6565 142.3220 142.5299 142.9161 142.9161 143.9811
   144.1570 144.1570 144.2665 144.6377 144.6377 145.1423 145.2380 145.2380
   145.8545 146.0268 146.0268 146.2731 147.2351 149.1697 149.1697 150.0288
   150.2102 150.2102 151.2933 152.1766 152.1766 152.9644 152.9644 153.0389
   153.1011 153.1011 153.3943 153.5806 156.2049 156.2049 156.4808 156.4808
   158.9083 158.9083 159.6823 160.4827 160.4827 160.6291 161.3976 161.3976
   161.5993 161.5993 161.8782 162.4680 163.7409 164.0243 164.6620 164.6620
   165.1788 165.2815 165.2902 165.4607 165.4607 166.4026 166.4026 167.5473
   168.1642 168.1643 168.1961 168.1961 168.9872 168.9872 169.9119 170.1761
   170.1761 170.5187 170.5187 170.6751 170.7159 171.2777 171.2777 171.5770
   172.8622 173.4089 173.4089 173.4796 173.4796 173.7939 174.1568 174.2243
   174.2243 174.6391 174.6391 175.5383 175.6142 175.6332 176.1060 176.1060
   177.2282 177.2282 179.0856 179.8690 180.0115 180.0115 180.7970 180.7970
   181.9420 182.4386 182.4386 182.6316 182.8656 182.8656 183.1099 183.3212
   183.3212 184.1950 184.2578 184.2578 184.9999 184.9999 185.5291 186.2150
   186.2150 186.5885 187.1172 187.1172 187.1300 187.2954 187.2954 187.8831
   188.8050 188.8050 189.7944 190.6546 190.6546 190.9160 190.9160 190.9392
   191.1323 191.9757 192.4802 192.4802 193.5270 193.5270 194.4272 195.2245
   195.2245 195.3289 196.3584 196.3584 196.5001 196.5001 197.0466 197.4297
   198.0640 199.1395 199.1395 199.4155 200.3545 200.6157 200.6157 201.2052
   202.1254 202.1254 202.2174 202.8700 202.8700 203.6959 204.2354 204.7443
   204.7443 205.2697 205.2697 205.4296 205.4296 205.4931 206.3661 206.3661
   206.8256 207.7354 207.7354 208.4856 209.1558 209.1558 210.5040 210.5040
   210.7519 211.8886 212.1736 212.3381 212.3381 212.4463 213.1108 213.1108
   213.4387 213.4871 213.4871 213.8329 214.8517 214.8517 215.5489 215.5489
   216.3817 216.3817 216.6457 217.3167 217.3167 217.8502 218.1549 218.1549
   218.3022 218.8221 218.8221 219.2774 219.3719 219.5850 219.5850 219.7102
   219.7102 220.2998 220.6815 220.8982 220.8982 222.7000 222.7000 223.3968
   223.3968 223.6130 223.6914 223.8737 223.8737 224.4356 224.4512 224.4512
   224.5853 224.6274 224.6274 225.3256 226.5244 226.5244 227.5833 227.5833
   228.3897 228.3963 228.5706 230.2683 230.2683 230.3161 230.7378 230.9298
   230.9298 231.6459 231.7028 231.7028 232.0157 232.0157 232.5486 232.8133
   233.8633 233.8633 234.3531 234.3531 235.0840 235.0840 235.2239 235.2549
   235.3321 235.3321 235.7712 236.2763 237.0409 237.0409 238.4652 238.4652
   238.8265 239.3761 240.6399 240.6399 240.8166 240.8448 240.8448 241.0755
   243.2292 243.2292 243.3664 243.4181 243.4335 243.4335 245.0714 245.0714
   245.2012 245.3672 245.3672 245.4316 245.6262 245.6262 245.7587 245.7587
   245.7757 246.0330 246.2225 246.7053 246.8881 246.8881 247.0172 247.0172
   247.2474 247.4029 247.4029 247.6192 247.6192 247.7844 248.9331 248.9331
   249.3648 249.3648 250.0892 250.3492 250.4524 250.6426 250.8124 250.8124
   251.1456 251.1456 252.2922 252.2922 252.3775 252.3775 252.6829 252.7922
   254.7740 254.8205 254.8751 254.8751 255.3562 255.3562 255.4530 255.8793
   258.3271 258.3271 259.2091 259.2091 259.7501 259.9279 259.9394 259.9394
   260.3840 260.3840 263.1413 263.1413 265.0872 265.0872 265.1831 265.7308
   266.0102 266.0102 266.0511 266.0511 266.3902 266.8276 266.8276 267.0150
   267.0181 267.0535 267.0535 267.1137 267.7806 268.0644 268.0644 268.1448
   268.1448 268.8384 269.1187 269.1187 269.5994 269.6090 269.7263 270.4228
   270.4228 270.8887 270.8887 271.2452 271.9887 271.9887 272.1872 272.6360
   272.6360 272.7712 272.7712 272.8384 276.5463 276.5463 276.7889 276.7889
   277.0427 277.2111 277.2111 277.6049 277.6049 277.6440 277.7206 278.0532
   278.3140 279.2389 280.0292 280.0292 280.4609 280.4633 280.4633 280.8032
   281.6490 281.8362 281.8362 282.7379 282.7379 283.3362 283.8219 283.8219
   284.0020 284.5462 284.5462 285.1512 285.1512 285.1698 285.1698 285.6776
   285.9864 286.4441 286.7800 286.7800 287.0834 287.0834 287.8641 287.9183
   287.9183 288.0962 288.2316 288.2316 290.0042 290.0042 290.1101 290.1101
   290.1358 290.3406 290.8162 290.8162 291.0622 291.0622 291.3152 292.0023
   292.2932 292.3946 292.3946 292.4546 292.5879 292.5879 294.1864 294.1864
   294.3634 294.3634 294.5119 294.7188 295.4939 295.5028 295.5028 295.8061
   295.8061 295.9697 298.1734 298.2281 298.2281 298.5525 298.5525 298.7335
   299.7751 300.0316 300.0316 300.2646 300.4586 300.4586 300.7738 301.5574
   301.6708 301.6708 301.9794 301.9794 302.1530 302.1733 302.1733 302.4896
   302.4896 302.5142 303.1703 303.1713 303.1713 303.1834 303.1834 303.2158
   305.7570 305.7570 306.1799 306.4825 306.4825 306.6503 307.3973 307.6003
   307.9115 307.9115 307.9367 307.9367 308.0540 308.0636 308.6252 308.6252
   308.7545 308.9219 308.9219 309.1844 310.1027 310.1027 310.1701 310.1701
   311.1002 312.3094 312.3094 312.4068 312.4445 312.4445 312.6504 312.8945
   312.8971 312.8971 313.1776 313.1776 313.5277 313.5277 313.5734 313.5734
   313.7910 313.7995 315.1174 315.3387 315.5141 315.5141 315.6514 315.6514
   315.7717 316.1449 318.8903 318.8903 319.1235 319.1235 320.2897 320.3576
   322.2086 322.2871 322.2871 322.4124 322.4124 322.5208 323.8216 323.8216
   323.9859 323.9859 325.0742 325.0742 325.5247 326.4144 326.4144 326.7822
   327.0926 327.3241 327.3241 327.3893 327.3893 327.9410 328.9736 328.9736
   329.1012 329.1012 329.2772 329.4474 329.4779 329.4779 329.5398 329.5398
   329.6715 329.7174 329.8243 329.8243 329.8678 329.8678 330.1370 330.2110
   331.8897 331.9407 331.9407 332.1095 332.1095 332.2251 334.7022 334.7022
   334.8840 334.9283 334.9283 335.3500 337.4170 337.4261 337.5554 337.5554
   337.5738 337.5738 338.8749 338.8749 338.9507 339.0116 339.0116 339.4682
   339.5233 339.7857 339.8505 339.8505 340.0266 340.0266 340.8898 341.1025
   341.1025 341.1768 341.1768 341.2794 341.3464 341.3464 341.4449 341.4449
   341.5737 341.6722 342.7223 342.7849 342.8074 342.8074 342.8160 342.8160
   345.6647 345.6647 345.6849 345.6849 346.0594 346.0663 347.6055 348.3854
   349.1208 349.1208 349.4348 349.8022 349.8022 350.1946 350.7561 350.7561
   351.1914 351.1914 351.7748 352.0944 352.6982 352.6982 352.8201 352.8201
   352.8451 353.0280 353.8403 353.8403 353.8505 353.8505 354.4240 354.8384
   355.1602 355.1602 355.2046 355.2046 355.6975 355.7573 356.7693 356.7693
   356.7743 356.7743 357.2521 357.5366 358.1052 358.1052 358.1392 358.2419
   358.2419 358.5219 359.5952 359.6166 360.2501 360.2501 360.2832 360.2832
   361.0843 361.1898 361.1898 361.2520 361.2520 361.4610 361.8959 361.8959
   361.9080 361.9080 362.3202 362.3336 363.3509 363.3971 363.4023 363.4023
   363.4275 363.4275 363.5448 363.5448 363.5996 363.5996 363.6514 363.7157
   366.8415 367.0017 367.0017 367.4177 367.4177 367.5672 368.3344 368.3344
   368.5113 368.6736 368.6736 369.0405 369.3570 369.3570 369.4244 369.4244
   369.9277 370.0316 370.3872 370.4020 370.7388 370.7388 370.7484 370.7484
   371.1821 371.1821 371.4721 371.4721 371.5834 371.8185 372.5658 373.0469
   374.7288 374.7358 374.7358 374.7536 374.7536 374.8025 375.5702 375.5702
   375.5784 375.5784 377.0748 377.0748 377.2758 377.2758 377.3450 377.5332
   378.0471 378.0471 378.0835 378.1253 378.1253 378.6111 378.8733 378.8733
   379.0233 379.2161 379.2161 379.4168 380.4349 380.8482 380.8482 381.2891
   381.2891 381.5837 381.9435 382.3171 382.3171 382.3377 382.3377 382.7913
   383.1694 383.1694 383.2568 383.3997 383.3997 383.7560 383.8082 384.0138
   384.0138 384.1087 384.1880 384.1880 384.3854 384.4544 386.4723 386.4723
   386.4946 386.4946 389.5355 389.5355 389.5379 389.5379 389.8428 389.8428
   389.9680 389.9680 390.0126 390.0249 390.4795 390.4801 391.8671 391.8671
   391.9072 391.9072 391.9084 391.9841 395.2971 395.2971 395.5865 395.6261
   395.6261 396.4148 398.5771 398.5771 398.6258 398.8321 398.8321 399.0319
   399.2286 399.3120 399.3120 399.3403 399.4074 399.4074 399.5097 399.7141
   399.7141 399.8434 399.8434 399.8553 399.9121 399.9121 400.0004 400.2227
   400.2227 400.3176 401.1492 401.5091 401.5289 401.7065 401.7065 402.0861
   402.0861 402.2780 403.2282 403.2282 403.2604 403.2604 403.3330 403.4243
   403.7016 403.7016 404.0112 404.0112 404.0623 404.2861 404.2936 404.3300
   404.3300 404.5958 404.5958 404.9426 405.1125 405.1126 405.1126 405.1494
   405.1494 405.3195 405.3836 405.3836 405.3889 405.4808 405.4808 405.4859
   410.1106 410.1106 410.1292 410.1292 410.4546 410.4788 410.5441 410.5441
   410.5496 410.5496 410.9286 410.9286 411.0445 411.0445 411.0771 411.1058
   411.5126 411.5432 411.5432 411.6072 411.6072 411.6435 413.3523 413.4500
   413.4500 413.5473 413.5473 414.0046 418.1552 418.1552 418.1997 418.1997
   418.2471 418.2621 420.6712 420.6712 420.8076 420.8575 420.8575 421.0224
   421.0679 421.0679 421.1630 421.2035 421.2035 421.2985 423.1041 423.3216
   423.3216 423.4682 423.4682 423.6893 423.8435 423.8435 423.9257 423.9257
   424.0949 424.1337 428.0610 428.2934 428.2934 428.3871 428.4280 428.4280

          k = 0.0000 0.2500 0.0000 (  3835 PWs)   bands (ev):

   -95.3193 -56.8024 -56.8024 -56.8024 -20.2544 -20.2532 -20.2532 -20.2262
   -20.2256  -2.4134   6.5919   7.4750   7.4750  10.4440  10.9304  11.9163
    11.9163  14.3571  15.5065  16.0056  17.9438  17.9438  18.5354  22.1475
    25.9220  25.9220  26.7081  27.4605  29.1977  30.0984  30.0984  31.8345
    32.8638  32.8638  33.3573  36.4314  36.8821  36.8821  37.7510  38.0961
    39.5619  39.6009  39.6009  39.8140  40.6411  40.6411  40.7772  41.8326
    42.8189  44.1057  44.1057  44.2764  44.5892  44.5892  44.9829  45.6519
    46.2792  46.2792  46.3817  47.7392  47.7392  47.8329  48.1941  50.7783
    53.0064  53.0064  54.5914  54.8167  55.4731  59.8010  60.3639  60.3639
    62.2344  62.2524  62.2524  62.9133  64.0758  64.9516  64.9516  66.2274
    66.8694  68.3924  69.6807  69.6807  70.1381  70.5221  70.5221  70.8794
    71.6508  72.4499  73.4816  73.4816  73.5845  74.4593  74.4593  74.5157
    74.5203  76.1988  76.3522  76.3522  76.5709  76.8150  77.5045  77.8414
    77.8414  78.0632  79.7036  79.7130  79.7771  79.7771  81.1384  81.9935
    81.9935  82.2977  82.5761  82.5761  83.6588  83.7555  83.7555  84.0144
    84.8352  86.7807  86.7807  87.3116  87.3116  87.9322  87.9801  88.1411
    88.7811  89.3817  89.7644  90.3453  90.3453  92.7931  94.1310  94.3854
    94.3854  94.8732  95.4482  96.1022  96.1022  96.5567  96.8772  97.1737
    97.1737  98.1008  98.1008  99.4200  99.8325 100.2075 100.7068 100.7068
   101.4289 101.6320 102.1202 102.1202 103.5827 104.4037 104.4037 105.0246
   105.4968 106.0227 106.7287 106.7287 106.7561 106.7980 107.8151 107.8151
   108.9313 109.0821 109.0821 109.2370 110.5574 111.1358 111.7279 112.3895
   113.0731 113.4668 113.4668 115.3345 115.3345 116.9113 116.9113 116.9717
   117.3309 118.7934 119.0479 119.0479 119.2535 121.7549 123.1825 123.1825
   123.3974 124.2509 124.2509 124.3789 125.0960 125.8163 126.4068 126.8978
   126.8978 127.8887 127.8893 128.2431 128.8985 128.8985 129.2160 129.7710
   129.7710 130.5720 130.7483 131.3640 131.7165 132.1178 132.1178 133.2841
   133.4410 133.4410 134.3250 134.5588 134.5588 134.6432 135.1300 135.1300
   135.2923 135.7548 136.5041 136.5041 136.6206 137.0100 137.5544 137.9512
   137.9659 138.3933 138.3933 138.5053 139.1897 139.2876 139.2876 140.4555
   140.5615 140.5615 141.4006 141.5217 141.5939 141.5939 142.0438 142.0438
   142.2723 143.4735 143.5478 144.6853 144.6853 144.8845 145.7166 145.7166
   145.8488 146.2043 146.4472 146.4472 146.5873 147.4516 148.1959 148.1959
   148.2046 148.3096 149.3241 149.8471 150.2548 150.5290 150.5290 150.9803
   151.5477 151.5477 153.4052 153.4823 153.8139 153.8139 153.9635 154.2810
   154.8557 154.8557 155.1329 155.5076 155.5076 155.7891 156.3915 157.7620
   158.6609 158.6609 158.9717 159.5167 159.6166 159.7316 159.7445 159.7445
   160.2051 160.2051 160.8602 162.1699 162.2822 162.2822 163.5313 163.7037
   165.3123 166.1769 166.1769 166.7524 166.7524 167.6490 167.7813 167.8338
   167.8610 167.8610 168.1315 169.4407 169.7541 170.1762 170.1762 171.5551
   171.5551 172.4313 173.0493 173.2227 173.4288 173.5387 173.5387 174.8222
   175.1145 175.1145 176.0718 176.2781 176.8350 176.9225 176.9225 177.1635
   179.4674 179.8767 180.0743 180.0743 180.4961 181.4103 181.7673 181.7673
   183.0490 183.9657 183.9678 183.9678 184.5084 184.9882 184.9882 185.1714
   185.5344 185.5344 188.1013 188.5834 188.8940 189.3094 189.3094 189.8072
   189.8072 190.8218 191.6000 191.9828 191.9828 192.0395 192.6135 193.0293
   193.0450 193.0450 193.5425 193.6081 194.6036 194.6036 195.3333 195.7521
   195.7521 196.2221 196.3247 196.5157 197.5057 197.5057 198.0786 198.2387
   198.2387 198.3071 199.1393 199.3309 199.4426 199.5686 199.5686 199.9462
   201.1638 201.1638 201.5017 201.7920 202.0178 202.5052 202.5052 202.7406
   202.9058 202.9058 203.3604 203.6370 203.8312 203.8312 204.0739 204.8962
   205.2631 205.3320 205.4026 205.4026 206.6323 207.6329 207.8471 207.8471
   208.6746 208.9476 209.1287 209.1287 210.2067 210.3047 210.3047 210.6273
   210.7670 210.7670 211.1319 211.2089 211.6869 211.6869 211.7043 212.1237
   213.2071 213.2071 213.5291 213.5782 213.9295 213.9295 213.9510 214.6357
   215.0803 215.1581 215.1581 215.7025 215.8536 215.8536 216.2830 216.5696
   217.0136 217.6611 217.6611 217.8953 217.8953 218.2674 218.6624 218.8834
   219.2507 219.9821 219.9821 220.2200 220.2200 220.9921 221.3627 221.5554
   221.5554 221.8473 222.5013 222.6106 222.8439 222.8439 223.5475 223.6103
   223.7034 223.8396 223.8396 224.2763 224.6838 224.6838 224.9935 225.0149
   225.2329 225.2329 225.6155 225.8330 225.8330 226.6214 227.2831 227.7319
   227.9423 227.9423 228.0731 228.1073 228.3232 228.3232 228.6260 228.9243
   229.7086 229.8442 229.8442 230.3175 230.7732 230.8774 230.8774 231.2264
   232.1458 232.8837 232.8837 233.0731 235.2102 235.2327 235.2641 235.2641
   235.6482 236.5030 236.5030 236.6213 236.7423 237.1258 237.9765 237.9765
   238.3838 238.3838 238.4978 240.2950 240.5257 241.2158 241.2158 241.2176
   241.4368 241.5777 241.6621 241.6621 243.0958 243.2202 243.2202 243.9438
   244.3790 244.7842 245.1662 245.1662 245.9845 245.9845 246.0477 246.1913
   246.8764 247.3223 248.4743 248.4743 249.2934 249.2934 249.7052 249.8271
   249.8271 250.8357 251.3206 251.8320 254.0073 254.0073 255.3177 255.5727
   256.8774 256.9308 256.9308 256.9319 257.2094 257.4858 257.6024 257.9391
   257.9391 258.5019 258.5019 258.8949 259.6306 259.8655 259.8655 260.1716
   260.9335 260.9651 260.9651 261.0143 261.5145 261.7332 263.1011 263.5851
   263.5851 264.1629 264.1629 264.2968 264.7224 264.7616 264.7616 264.9851
   265.2017 265.2123 265.2123 265.7214 266.2002 267.0007 267.0847 267.0847
   267.4981 268.5280 268.8915 268.8915 268.9949 269.3771 269.3771 269.5258
   270.0931 270.5379 270.7540 270.7540 270.7803 272.3361 273.0184 273.0184
   273.7611 274.2726 274.5588 274.6411 274.6411 274.7056 275.8894 275.8894
   276.0842 276.2193 276.3638 276.8767 276.8767 277.2865 277.4144 277.4144
   277.4799 278.0057 278.0172 278.0172 278.3129 278.8235 279.3475 279.3475
   279.3886 279.7592 279.7592 279.8850 280.0048 280.0087 280.1962 280.1962
   280.4438 281.0455 281.0455 281.5285 281.9621 281.9621 281.9748 281.9911
   282.6527 283.3707 283.3707 283.5697 283.7500 284.3117 284.4781 284.4781
   284.5492 285.2976 285.4293 285.4293 285.4779 287.4373 287.4373 287.4451
   287.4467 289.0930 289.5808 289.6318 289.6318 289.7656 289.7852 289.7852
   290.0987 290.1700 290.5944 290.5944 291.5115 292.6743 293.4493 294.1198
   294.1198 294.2501 294.4146 294.4253 294.4253 294.4398 294.5540 294.9310
   294.9310 295.0538 295.1913 295.1913 296.2781 296.6442 297.3186 297.3186
   297.5432 297.8856 299.1851 299.1851 300.6078 300.6138 300.6225 300.6225
   300.7577 300.9829 301.7798 301.8009 301.8009 301.9937 302.2281 302.2601
   302.2601 302.7409 302.7556 303.0782 303.0818 303.0818 303.2005 304.2060
   304.2060 304.6755 305.0197 305.3198 305.3198 305.5691 305.8166 306.3967
   306.3967 306.5497 307.2928 307.6919 307.6919 308.3703 308.3703 308.4168
   308.7049 308.7909 309.4735 309.4735 309.9286 310.1468 310.3935 310.3935
   310.6757 310.6757 310.7297 310.7874 310.8278 310.8325 310.8325 310.9818
   311.1904 311.2379 311.2379 311.3399 311.9387 313.7584 313.8460 313.8460
   314.0594 314.7672 314.9334 314.9334 315.3174 315.3455 315.4258 315.4258
   315.6180 317.0475 317.0475 317.1390 317.2763 317.2763 317.2879 317.5567
   317.8093 318.3703 318.3838 318.5846 318.5846 319.2635 319.3426 319.3426
   319.6687 319.9126 319.9241 319.9241 320.4631 320.6025 321.2061 321.2061
   321.5843 322.5073 322.8174 322.8174 323.1602 323.4608 324.0080 324.0080
   324.0524 324.4104 324.9956 324.9956 325.0268 325.3578 325.4654 325.4654
   325.5456 325.5872 325.8612 325.8697 325.8697 326.1901 326.3275 326.3275
   326.7214 326.7537 326.8085 326.8085 327.0235 327.2429 328.1088 328.1088
   328.7197 329.9268 329.9268 329.9453 330.4852 330.5401 330.6454 330.9862
   330.9862 331.1519 331.9977 331.9977 332.1687 332.7833 333.1243 333.1898
   333.2221 333.2221 333.3444 333.3809 333.4255 333.4255 333.6326 333.6326
   333.6475 334.1490 336.2410 336.2410 336.2462 336.2536 336.3839 336.5642
   336.5642 336.6403 336.9696 336.9696 337.0439 337.8554 338.0335 338.2499
   338.3309 338.7425 338.7425 338.8736 338.8736 338.9861 339.9864 340.3898
   340.3898 341.8346 342.4019 343.2936 343.2936 345.1193 345.1978 345.1978
   345.4476 345.6747 345.8677 345.8677 346.1491 346.1491 346.4168 346.6140
   346.6619 347.0149 347.0149 347.0666 347.2176 352.4160 352.4182 352.4182
   352.5225 352.5250 352.8210 352.8210 352.9254 352.9447 353.1804 353.1804
   353.8241 354.0150 354.0150 354.2906 354.4910 354.5237 354.5955 354.5955
   354.7762 354.7892 354.7892 354.8186 354.8226 356.7541 356.7936 356.7936
   356.8467 357.5469 357.5559 357.5559 358.0739 359.7349 359.7349 359.9193
   360.1324 360.3113 360.3839 360.3839 360.6336 361.4276 361.7969 361.7969
   361.9128 361.9128 361.9419 361.9437 362.6302 363.8210 364.9926 364.9926
   365.7731 367.1115 367.1441 367.6250 368.3337 368.3337 368.4327 368.5318
   368.5318 368.8081 368.9226 368.9226 369.0926 370.2658 371.7286 371.8406
   371.8406 372.0122 373.2553 373.8334 373.8334 374.4403 374.4403 375.0131
   375.1249 375.2713 375.4799 375.6257 375.6257 376.0609 376.4032 376.4043
   376.4043 376.6054 376.8999 377.1308 377.1308 377.2612 377.4705 377.6994
   377.6994 377.9294 378.1587 379.1841 379.1985 379.1985 379.6670 380.0629
   380.0629 380.1076 380.1950 380.2835 380.3106 380.3106 380.3386 381.0516
   381.0516 381.1356 381.2842 384.0321 384.0321 384.0538 384.2348 384.3736
   384.3736 384.6809 384.6809 385.0445 385.1419 385.2855 385.7018 386.6395
   386.6395 387.2152 387.3609 387.3609 387.4548 387.6205 387.7359 387.7359
   387.7892 387.7970 388.4879 388.4879 389.1273 389.3847 389.7129 389.7129
   389.8068 390.0427 390.9764 390.9764 390.9768 390.9990 391.1941 391.6175
   391.6175 392.0421 392.6962 392.9620 392.9620 393.1094 393.1982 393.1982
   393.2007 393.2555 393.4413 393.6665 393.6665 393.7544 394.2176 394.4690
   394.4690 394.5179 395.1337 396.2084 396.2084 396.6900 396.7474 396.8201
   397.1480 397.1480 397.4134 397.4134 397.7764 398.2362 398.3085 398.3085
   398.3530 399.3722 399.4784 399.8007 400.2227 400.2227 400.2858 400.3745
   400.3745 401.0352 401.0482 401.3653 401.5337 401.5337 401.7290 401.7795
   401.7795 402.2858 402.4910 402.7588 402.9370 402.9370 402.9680 402.9680
   403.3425 403.3426 403.5663 403.7395 403.9689 403.9689 404.1382 404.2223
   404.2223 404.3086 404.3947 404.4150 404.4150 404.4195 404.9274 404.9953
   404.9953 405.2268 405.7021 405.9134 405.9134 406.0486 406.9779 407.1316
   407.1316 407.2549 407.3221 407.3221 407.3289 407.4329 407.8157 407.8157
   407.8754 407.9112 408.0357 409.0305 409.0305 409.0950 409.1174 409.4992
   409.5896 409.5896 409.6887 410.3589 410.3589 410.3920 410.4275 411.6790
   411.6790 411.7492 411.8062 412.7684 412.7684 412.8208 412.9718 413.5480
   413.8356 413.8356 414.5834 414.7226 414.9934 414.9934 415.0629 415.1105
   415.2519 415.2519 415.4417 416.2350 417.1044 417.1233 417.1233 417.1883
   418.0176 418.0408 418.0408 418.2492 418.3124 418.3124 418.5851 418.5973
   418.5973 418.6153 418.8702 419.5922 419.8711 420.1438 420.1438 420.3904
   420.9673 421.1205 421.1205 421.2572 421.8538 422.3403 422.3403 422.5802

          k =-0.1250 0.3750-0.1250 (  3856 PWs)   bands (ev):

   -95.3194 -56.8025 -56.8024 -56.8024 -20.2544 -20.2524 -20.2523 -20.2263
   -20.2253  -2.1031   5.1746   7.0859   7.0972  10.4156  11.2001  12.5221
    12.6787  14.5080  15.9725  16.4289  17.8273  19.3080  20.3851  23.1872
    23.5284  24.0883  26.4164  26.6627  27.9507  30.4302  30.7795  32.0910
    32.8605  33.3647  34.4064  34.8724  35.7496  36.0299  36.2742  36.9232
    37.4434  38.7497  38.7598  39.5582  40.2595  40.5020  41.3041  42.0941
    42.3143  43.4101  43.7650  44.6726  45.1896  45.3090  45.8369  46.6697
    47.4993  47.9603  48.6968  49.5399  50.1246  50.5548  51.3240  51.9980
    52.7274  54.8123  55.1032  56.9321  57.0708  57.5326  58.8514  59.4553
    59.6191  61.0011  61.6876  62.1306  62.6013  64.3795  64.4316  65.6483
    66.0665  66.9373  67.3008  68.1085  68.6725  69.0314  69.1370  70.1871
    70.6302  71.1391  72.1763  72.3293  73.4339  73.5883  74.2267  74.6214
    74.8859  75.6964  75.7294  76.3959  76.8467  77.1736  77.9781  78.1138
    78.5279  79.5165  79.9501  80.1669  80.7490  80.7525  81.9655  81.9868
    82.2337  82.7403  82.8112  83.5412  83.6693  84.1248  85.3782  85.6868
    86.4050  86.4459  87.1207  87.9354  88.3624  88.5223  89.0574  89.4973
    90.0241  90.1967  90.4987  91.3016  91.7000  92.2024  92.3954  92.6219
    92.9135  93.7700  93.8465  95.0326  95.2956  96.4600  96.7641  97.2779
    97.5129  97.8750  98.0195  99.1036  99.1304 100.9133 101.2335 101.7150
   101.8128 102.7198 102.9913 103.1195 103.3463 104.2294 104.2302 105.0475
   105.1721 106.0173 106.3798 106.9955 107.1293 108.2971 108.4743 109.0933
   110.6447 110.9165 110.9473 111.6699 112.3470 112.4487 113.5176 113.6818
   114.1410 114.5640 115.1954 115.3096 115.7041 116.3875 116.8118 117.8042
   117.8597 118.2785 118.7554 119.3956 120.1765 120.2092 120.6818 120.9196
   121.6883 122.0288 122.2851 122.7023 123.1991 123.7943 124.2437 124.8332
   124.8622 125.3199 125.8848 126.4226 126.6672 127.1739 127.2674 127.9216
   127.9245 128.9749 129.2817 129.7080 130.0286 130.8521 130.8688 131.3513
   131.7792 131.7848 132.9002 133.1947 133.5270 134.2897 134.4716 134.9299
   135.1584 135.9197 136.1795 136.3127 136.5007 136.6986 137.3294 137.6154
   138.1120 138.3804 138.9273 139.1515 139.6864 139.9459 140.1414 140.4302
   141.0776 141.3578 141.6509 142.4465 142.7142 142.9084 143.3688 143.4250
   143.8609 144.4779 144.8377 145.4272 145.7916 146.2814 146.2964 146.5539
   147.2471 147.3339 147.5924 147.8675 148.6703 148.8474 149.2447 149.4015
   149.6602 149.9274 149.9783 150.6285 150.9055 151.1441 151.5073 151.8174
   151.9107 152.2749 152.5217 153.1110 153.6744 154.6074 154.9488 155.0811
   155.2170 155.6413 155.6840 156.4202 156.4762 156.9781 157.0138 157.4218
   158.1335 158.3262 158.4369 158.8269 159.4645 159.8148 160.1544 160.5924
   160.8448 161.2552 161.4282 162.1531 162.6329 163.2080 163.4570 164.1979
   164.6275 165.3531 166.0403 166.3195 167.5050 167.5172 168.1291 168.6259
   169.0000 169.4952 169.5030 170.1844 171.0525 171.2526 171.9638 172.2066
   172.3859 173.0383 173.2864 173.3024 173.7704 174.1473 174.3150 174.9385
   175.1887 175.8395 176.5201 176.9851 177.2090 177.6077 178.2711 178.3531
   178.6757 179.6053 179.8891 180.1679 180.3419 180.8567 181.9078 182.1692
   182.4066 182.5409 182.5796 183.0760 183.5743 183.8694 184.4816 184.7633
   185.2026 186.3912 186.4342 187.0244 187.0490 187.5852 187.9584 188.3519
   189.2325 189.8638 189.9642 190.4805 190.5800 190.9951 191.2190 191.7349
   191.9345 192.1266 192.4600 193.0198 193.0319 193.2521 193.9178 193.9443
   194.4101 195.0583 195.1678 195.5660 195.7105 195.9591 196.4882 196.5093
   196.7871 197.1272 198.1697 198.6264 198.7234 199.1964 199.4683 199.7102
   200.4831 200.6157 200.7790 201.4845 201.6678 201.9035 202.0304 202.4173
   202.9574 203.0119 203.1895 203.7074 203.9393 204.5201 204.9211 205.4151
   205.6240 205.8462 205.9426 206.1606 206.8282 207.0140 207.3078 207.4331
   207.7558 208.0132 208.3718 208.6424 208.7810 209.0036 209.2560 209.6288
   210.2495 210.2994 210.7727 210.8771 211.0685 211.2649 211.5467 211.6742
   211.8383 212.1706 212.3395 212.5997 212.8805 213.3598 213.4529 213.5110
   214.1111 214.6923 214.7968 215.0559 215.3241 215.6332 216.6098 216.6315
   217.1958 217.4053 217.4401 217.6788 217.7113 218.4111 218.5385 219.3510
   219.4829 219.6745 219.7778 220.5210 220.8610 221.2048 221.3076 221.6218
   221.7039 221.8413 222.2778 222.7334 223.1653 223.3084 223.5760 223.6711
   223.8461 224.0470 224.3092 225.0076 225.0871 225.4482 225.5517 225.8956
   226.2905 226.7603 227.1528 227.6998 227.8609 228.1621 228.7736 229.1292
   229.9618 230.0649 230.9896 231.0143 231.0606 231.2455 231.4318 231.5970
   231.8361 232.0679 232.3418 232.4759 232.6813 233.4907 233.6703 233.8827
[...]
   227.8988 228.1023 229.2128 229.4071 230.3331 230.8690 230.9321 231.3400
   231.5043 231.7980 232.7903 232.8025 233.4439 233.5894 234.1358 234.6448
   235.0656 235.9497 235.9991 236.2851 236.7113 236.9367 237.2416 237.2639
   237.8576 238.2080 238.5899 238.6682 239.0575 239.4020 239.6465 240.1129
   241.1164 241.2539 241.7400 241.9473 242.1006 242.1548 242.1943 242.3740
   243.4072 244.0126 244.1596 244.5831 244.7999 245.0217 245.0302 245.7729
   245.7856 246.0323 246.3149 246.6851 246.7475 247.0930 247.1881 247.4467
   248.0470 248.1668 248.4270 248.7953 249.0138 249.1587 249.3809 249.9131
   250.4757 250.4965 250.9952 251.0302 251.1466 251.2391 251.7668 252.1592
   252.3916 252.8744 253.0551 253.1922 253.2032 253.5136 253.6975 253.8332
   254.3239 254.4974 254.7074 254.8932 255.1497 255.2035 255.2911 255.5102
   255.6894 255.8193 255.9579 256.2160 257.0877 257.1073 257.7414 257.9778
   258.3120 258.5231 258.8911 259.1776 259.4930 259.5582 260.2299 260.2980
   260.9511 261.0296 261.0921 261.3305 261.8423 262.0061 262.2399 262.3776
   262.4466 262.4603 262.7820 263.1023 263.2653 263.3171 263.5558 263.8073
   263.8609 264.2832 264.6596 264.7889 265.0338 265.4572 265.8062 266.9081
   266.9436 267.1758 267.4292 267.5490 267.7084 267.7353 268.4933 268.5070
   268.6491 268.7052 269.7085 269.9320 270.0169 270.2143 270.5660 270.6161
   271.3588 271.4342 271.8715 272.0727 272.1717 272.4743 274.4296 274.4805
   274.9575 275.0109 275.8384 275.8514 276.1559 276.4165 276.7406 277.0221
   277.0681 277.2522 277.2739 277.5536 278.6701 279.0225 279.5463 279.9059
   279.9376 280.1527 280.5243 280.9208 280.9743 281.2801 281.3519 281.9475
   282.5698 282.6839 282.9386 283.2177 283.2405 283.2515 283.5458 283.6840
   283.7690 283.9112 283.9485 284.1841 284.4627 284.5689 285.2472 285.3713
   286.0856 286.1639 286.4136 286.5112 286.7804 286.9943 287.1396 287.3287
   288.0065 288.4593 288.5256 288.6181 288.8691 288.8831 289.4923 289.6036
   290.8113 290.9484 291.4585 291.4727 291.8945 291.9644 291.9702 292.1066
   293.4570 293.4899 293.8170 293.8239 294.9437 295.1942 295.3573 295.5816
   295.6203 295.6471 296.0241 296.0558 296.5231 296.6430 296.8637 298.1628
   298.9538 299.0544 299.2517 299.6057 300.0000 300.4011 300.7272 301.0784
   301.2220 301.2565 301.7032 301.9299 302.3790 302.3878 302.6480 302.7403
   303.3403 303.3865 303.8958 303.9027 304.1972 304.3485 304.5390 304.6811
   305.1898 305.1949 305.9408 305.9870 307.1638 307.1840 308.6051 308.8189
   309.1233 309.2014 310.0720 310.2764 311.0461 311.5188 311.5239 311.6043
   311.7771 311.8438 312.1433 312.3358 312.6531 313.2853 313.3461 313.5923
   314.3438 314.6029 314.6878 314.7268 314.9048 315.0031 315.2599 315.4986
   315.8903 316.2499 316.2733 316.6276 316.9267 317.2201 317.2484 317.7158
   317.7646 317.8925 318.5022 318.6274 319.0237 319.1973 319.2324 319.3073
   320.7917 320.8913 320.9975 321.1919 322.1242 322.2667 322.5863 322.8018
   323.1796 323.1834 324.1900 324.2989 325.1578 325.5846 325.6978 325.9622
   326.4416 326.5721 326.5907 326.8212 327.0533 327.1448 327.2810 327.4671
   327.4890 327.6113 327.7939 327.8145 329.8258 329.8730 329.9592 330.1175
   330.1272 330.6067 330.6936 330.8029 331.0770 331.1354 331.4977 331.6980
   331.8088 331.8611 332.0082 332.0700 332.1428 332.3737 333.2147 333.3375
   333.6324 333.6353 333.7956 333.8593 334.2154 334.4651 334.5043 334.6166
   334.7440 335.6108 335.6124 336.0889 336.1083 336.2776 336.3295 336.4142
   336.7917 336.9092 337.0399 337.1695 337.1910 337.3633 337.9370 338.2146
   338.9489 339.7498 340.1463 340.2453 340.4360 340.4652 341.2221 341.2592
   341.3938 341.4083 342.0374 342.0563 342.3302 342.3694 342.8211 342.8813
   342.9453 343.0962 343.1973 343.3141 343.9272 343.9879 345.0396 345.0772
   345.2498 345.5056 345.9263 345.9532 345.9552 346.0065 346.6077 346.8612
   347.5111 347.6042 348.5700 348.7168 348.7481 348.8229 348.8397 348.9729
   348.9790 349.0976 349.1808 349.1821 349.3497 349.3870 349.5059 349.7753
   349.7796 350.0255 350.1762 350.2412 351.0047 351.2129 351.2281 352.4581
   353.0010 353.0189 353.0354 353.1706 354.3319 354.3826 354.6101 354.7652
   354.8168 354.9060 355.1485 355.1517 355.2212 355.3284 355.7590 355.9233
   356.1520 356.2547 356.5290 356.6457 356.7536 356.8317 356.9292 357.0710
   359.1351 359.2221 359.3850 359.4374 359.8972 359.9296 360.4571 360.5609
   360.9698 361.1448 361.3726 361.4943 361.8565 361.8869 363.1345 363.2505
   363.2845 363.3644 363.8435 363.8840 363.9181 363.9617 364.0339 364.0642
   364.4656 364.5013 364.8162 364.9142 365.1906 365.5051 366.0863 366.1562
   366.2527 366.3562 366.4754 366.6306 366.6534 366.7554 367.6082 367.8165
   368.4501 368.4853 369.3315 369.7468 370.7071 370.7361 370.7380 371.4344
   371.5188 372.4663 372.7523 373.2298 373.4628 373.5254 373.6173 373.7052
   374.8735 374.8923 374.9049 374.9490 375.1402 375.1526 376.8607 376.9947
   377.1112 377.5320 377.5379 377.5714 378.1967 378.4060 378.7970 378.9959
   379.1421 379.1772 379.3912 379.4671 379.4721 379.6573 379.7053 379.8062
   379.9220 380.1473 381.4372 381.5988 381.6356 381.6838 382.7964 382.9202
   383.2204 383.5548 383.5627 383.7829 383.8628 384.0074 384.2137 384.2430
   384.3369 384.4903 384.8811 384.9006 385.2381 385.2652 385.4659 385.4746
   385.5345 385.6052 386.1454 386.2799 386.4923 386.4924 386.9044 386.9111
   387.0410 387.2421 387.3406 387.5264 387.7372 387.7725 387.9306 388.1031
   389.6537 389.7501 389.9982 390.0257 390.0401 390.0777 390.4454 390.8292
   390.8337 391.1079 391.1188 391.6027 391.6250 391.7043 391.8674 391.9185
   392.2879 392.9444 393.8274 394.2250 394.5495 394.6738 395.6191 395.9706
   396.0603 396.0777 396.1523 396.2361 396.2542 396.3716 396.6625 396.6866
   397.2235 397.2737 397.5813 397.6595 398.3761 398.5341 399.9743 400.1421
   400.1929 400.3538 400.5143 400.5295 401.4343 401.4486 401.5844 401.5906
   402.2226 402.2672 402.5857 402.5875 403.4148 403.5864 403.6143 403.7964
   404.1043 404.1964 404.3813 404.4052 405.1711 405.1889 405.4584 405.5615
   406.0658 406.0760 406.2309 406.2847 406.6198 406.6305 406.6784 406.6809
   407.3429 407.5955 407.6283 407.7417 408.7462 408.7762 409.5977 409.6248
   409.6562 409.8224 409.8322 409.9160 409.9174 410.4603 410.6894 411.7502
   412.0007 412.2342 412.5300 412.5538 412.7982 412.8158 412.9320 413.3171
   413.7265 413.9770 414.0959 414.1140 414.2956 414.3294 414.9386 414.9419
   415.1618 415.1633 418.0213 418.1939 419.0399 419.0544 419.2468 419.3228
   419.4801 419.5890 419.6688 419.7866 419.8418 420.0137 420.2499 420.4151
   420.4399 420.5756 420.5759 420.7563 420.8354 420.9745 421.6013 421.6169
   421.6880 421.7383 423.3720 423.4169 423.7802 423.7990 424.9978 425.1229
   425.1503 425.2213 426.0280 426.2100 426.3993 426.4310 426.7162 426.7665

          k =-0.5000-1.0000 0.0000 (  3852 PWs)   bands (ev):

   -95.3193 -56.8025 -56.8025 -56.8025 -20.2535 -20.2516 -20.2485 -20.2266
   -20.2245  -0.6553   2.7915   5.0387   5.3411  11.9841  12.3883  12.5486
    12.8334  17.2028  18.2288  18.7439  19.6916  21.4767  22.5675  22.9120
    22.9590  24.1491  24.7101  25.4455  26.6902  27.6350  28.3972  29.8227
    30.0511  30.1428  30.1627  31.0017  31.4475  35.6971  37.0510  37.1926
    37.2931  39.2821  39.5232  39.8110  40.2594  42.8750  43.9042  43.9964
    44.1539  44.2051  45.6373  45.8475  45.8996  46.3599  47.7558  49.1783
    49.8937  51.5196  51.7054  51.8048  52.0290  52.9579  53.8225  53.8480
    54.4497  54.9551  55.7945  56.6884  56.7496  57.9591  58.4912  59.2166
    59.4316  59.9736  60.1883  60.3870  60.8563  64.1476  64.3694  65.5262
    65.7115  65.9863  66.0285  66.4772  67.0103  67.2894  67.6557  68.4587
    68.5556  68.9031  69.0053  70.4536  70.6743  70.7955  70.9062  71.4912
    71.5861  72.2433  73.8970  74.5039  74.8004  75.2957  76.3368  76.5078
    77.6617  77.7328  78.1141  78.2916  78.7411  80.0596  81.0762  81.3727
    81.5457  82.6109  83.2290  83.5184  84.0062  86.2444  88.4537  88.6663
    88.7642  88.8387  89.3103  90.1352  90.1628  90.4929  91.6061  92.3388
    92.6372  93.8568  93.9604  94.1205  94.4248  95.0689  95.4304  95.6556
    96.3979  96.5191  97.2256  97.5119  97.6594  98.7634  99.4345  99.8494
   100.1438 100.5338 100.6773 100.7925 101.1192 101.2877 101.3759 101.4599
   101.7100 102.6351 103.5505 104.4124 104.4914 104.8799 104.9018 105.0219
   105.4282 105.5968 106.4975 107.3038 107.6424 107.8042 108.8077 110.4623
   110.5906 110.6339 110.8172 110.9903 111.5116 112.0527 112.5938 112.7188
   113.0795 113.8355 114.1173 114.3478 114.6067 115.1373 115.4721 115.6411
   115.7927 116.5206 116.5882 117.7088 117.9297 117.9708 118.0386 118.9393
   119.6803 119.8936 119.9322 120.3564 121.1399 121.5605 121.8871 122.1494
   122.2077 123.0711 123.5270 124.0038 124.3063 124.5664 124.8588 125.2275
   125.3648 125.9348 126.0295 126.4686 127.8564 128.0157 128.3501 128.9520
   130.2993 130.3384 132.2117 132.7973 132.8375 133.3073 133.5344 134.4483
   134.7238 134.7349 135.3680 136.0798 136.3273 136.7670 136.9857 137.0230
   137.3631 137.8416 138.3607 138.5777 139.1068 139.4755 139.9362 140.3117
   141.2915 141.8011 141.8489 143.0336 143.4390 143.4935 143.6530 143.6923
   144.3108 144.9767 146.4107 146.6052 146.7364 146.7940 146.8001 147.0456
   148.1255 148.2437 148.7693 149.1188 149.2519 149.4505 150.9788 151.2380
   151.5862 151.6892 151.7299 152.1178 152.2152 152.8834 152.9890 153.0525
   153.1781 153.7990 154.1296 154.6793 154.9203 156.9662 157.1385 157.6113
   157.6274 157.7226 157.7266 158.3404 159.0982 159.2249 159.9489 162.0522
   162.0563 162.1199 162.6481 163.7576 164.2290 164.4784 164.6081 164.8183
   165.2758 165.5572 165.9333 165.9582 166.0302 166.3471 166.5158 166.6409
   166.8057 166.9018 166.9070 167.5876 167.6813 167.7445 167.9321 168.0289
   168.9780 169.2443 169.4150 170.4189 171.1413 171.3445 171.7355 172.0001
   173.2076 173.7901 174.5479 174.7279 175.0171 175.0376 175.1672 175.7454
   175.8161 176.0550 176.1588 176.1962 177.1598 177.6914 177.7360 178.2076
   178.6890 178.7547 178.8319 178.8450 179.5108 179.5289 180.0234 180.2915
   181.2699 181.6545 181.8057 182.2179 183.2145 183.3878 183.4261 183.5670
   183.5982 183.6485 184.1516 184.3804 184.4284 184.5999 184.6346 184.7088
   185.2428 186.5188 186.6443 186.6693 187.9858 188.3661 188.4705 188.5219
   188.7982 188.8434 189.0512 189.1817 189.2576 189.6854 189.9027 191.1038
   191.3174 191.6340 192.0176 192.3040 192.7868 192.9204 193.5898 193.7162
   194.0367 194.3310 194.3315 194.4067 196.3823 196.8028 197.1550 197.3480
   197.6108 197.6557 197.9545 198.3154 198.8070 198.8716 199.5002 199.7195
   199.9033 201.2259 202.3045 202.3783 202.6199 203.0079 203.1530 203.7976
   204.4222 204.8749 204.9344 205.3913 205.8894 205.9114 206.0529 206.0912
   206.6386 207.0775 207.2137 207.6089 208.7499 208.8874 209.7507 209.9037
   210.5256 210.6970 211.5729 211.9097 212.4806 212.6696 213.2370 213.3053
   213.6257 213.6756 213.7507 214.0587 214.1616 214.4467 214.4811 214.6901
   215.0969 215.3296 215.3381 215.6500 215.8378 215.9603 216.0041 216.0981
   217.7122 218.0174 218.2074 218.2939 218.3438 218.7774 219.2358 219.4511
   219.4631 219.5011 221.0367 221.3870 221.6261 221.9049 221.9920 222.0281
   222.0350 223.3362 225.0286 225.0821 225.2982 225.3943 225.5913 225.7168
   225.7816 225.9312 226.7337 227.3563 227.4861 227.7090 227.7151 228.1780
   228.4284 228.6468 228.8419 229.4164 229.9351 230.5255 230.6403 230.7504
   231.7837 232.1307 232.1510 232.4036 232.5161 233.5102 233.5815 233.7879
   234.9813 235.0525 235.1690 235.3836 235.8265 235.9585 236.1685 236.2472
   236.5313 236.5733 236.6342 236.7199 236.8354 236.9406 237.1620 237.7818
   237.7860 237.8423 238.8321 238.8457 241.2334 241.8651 242.1199 242.4666
   242.6961 243.1064 243.6038 244.6175 244.7155 244.8221 244.9905 245.2032
   245.4071 246.1650 246.2832 246.4336 246.8555 247.1901 247.4179 248.0691
   248.1645 248.2671 248.4208 249.1807 249.2905 249.3005 250.0608 251.2396
   251.2619 251.9008 252.2126 252.2729 252.3624 252.4283 252.4350 252.8284
   253.0429 253.5885 253.6161 253.8036 253.9086 254.0395 254.2506 254.3210
   254.7282 254.8308 254.9659 255.0349 255.0718 255.4444 255.5968 255.6312
   256.8879 257.0495 257.3288 257.3364 257.7230 257.9812 258.1247 258.2017
   258.3308 258.4027 258.4467 258.5887 258.8181 258.9096 258.9658 259.1263
   260.2282 260.3051 260.3486 260.4582 260.7379 260.9565 261.0453 261.2354
   262.6193 263.0006 263.0741 263.2995 263.3065 263.5372 263.7096 263.7690
   263.9255 264.0440 264.0675 264.1522 265.7488 266.6738 266.7251 266.7675
   268.2277 268.4717 268.5238 269.0980 269.4155 269.4221 269.5367 269.6295
   270.3877 270.5412 270.7534 271.0333 271.5961 271.7079 271.8842 271.9937
   272.8183 273.4521 273.6188 273.6390 273.8003 274.0313 274.0535 274.6364
   274.7361 274.9060 274.9965 275.0518 275.1530 275.2646 275.5603 275.7414
   276.0140 276.1926 276.1968 276.5573 276.6322 276.6927 276.7245 276.9009
   280.0145 280.3623 281.6288 281.6670 281.8362 281.9356 282.0495 283.0434
   283.0607 283.0946 283.5117 283.6407 283.6939 283.7996 283.9847 284.2191
   284.2596 284.3480 284.4329 284.5303 284.6420 284.8434 284.8460 284.8517
   284.9443 284.9567 285.0107 285.0309 285.1945 285.2339 285.4756 285.4773
   286.6268 286.6390 287.2218 287.2444 289.7265 290.4703 290.9858 291.2903
   291.4011 291.5460 291.5646 291.6200 292.4177 292.8598 292.9113 293.0111
   293.4053 293.5425 293.5787 293.5838 293.6401 293.7176 293.7590 293.9855
   294.6065 294.6576 294.8622 295.8092 296.0656 296.2265 296.4384 296.5520
   297.1712 297.6624 297.6663 297.9583 299.3837 299.3840 299.9166 299.9499
   299.9990 300.0187 300.2423 300.3829 301.4590 301.4741 301.5734 301.7391
   302.2560 302.7297 302.7754 303.0453 305.7039 306.1518 306.4263 306.6959
   306.8701 306.9305 306.9507 306.9584 309.5387 309.6730 309.7069 309.9947
   310.5076 310.5425 310.6543 310.7475 311.1708 311.1896 311.2396 311.3502
   313.1531 313.3428 313.3634 313.5792 313.7039 313.7322 313.7925 313.8250
   314.0113 314.2749 314.3523 314.5102 316.7038 316.7115 316.7243 316.7544
   316.7934 316.8273 316.9101 316.9138 317.9596 318.2540 318.4040 318.5000
   318.8865 319.4453 319.5504 319.7489 320.4036 320.8411 320.8918 320.9967
   322.4321 322.4749 322.5139 322.6237 322.6583 322.7043 322.7117 322.8950
   322.9052 323.0574 323.1915 323.2749 323.7870 324.0315 324.2406 324.9591
   325.2784 325.3994 325.5304 325.5572 327.3383 327.7533 327.7670 327.7875
   328.4767 328.7039 328.7252 328.7443 329.3454 329.6266 329.9140 329.9219
   330.2093 330.3587 330.3880 330.6654 330.7490 330.8166 330.8661 330.9890
   331.6005 331.7083 331.7313 331.8115 331.8149 331.8683 331.9081 332.0427
   332.7542 332.7698 332.7832 332.7838 333.4441 333.5281 333.5693 333.5795
   333.6363 333.7828 333.7974 334.3138 334.4044 334.4769 334.6607 334.7232
   336.7806 336.8773 336.9749 337.0282 337.6452 337.8564 337.8805 338.0364
   338.7398 338.9316 338.9319 339.2381 339.4582 339.5859 339.6433 339.6902
   339.8707 339.9555 339.9586 340.1401 340.1515 340.1552 340.1737 340.1774
   340.2104 340.2190 340.3027 340.3304 344.2640 344.2796 344.4705 344.6606
   346.2269 346.3054 346.3238 346.3820 346.4273 346.6100 346.6369 346.7310
   347.2735 348.0603 348.2077 348.4251 348.4415 348.4974 348.5328 348.5361
   349.8427 349.8523 350.0628 350.2023 350.3005 350.5930 350.6210 351.4839
   351.5415 351.7376 351.7492 351.9425 351.9596 351.9729 352.0922 352.2077
   352.2381 352.3346 353.5126 353.6002 353.6027 353.6385 353.7695 354.1269
   354.4359 354.4762 355.5499 355.5674 355.7042 355.7359 355.7360 355.7501
   356.9732 357.0915 357.2879 357.3222 357.4994 357.8561 358.0814 358.1741
   359.0167 359.0466 359.1039 359.1064 359.2139 359.2451 359.3313 359.4212
   362.7739 362.7848 362.7954 362.8032 363.5052 363.5244 363.5396 363.5583
   365.6566 365.8716 366.0207 366.2523 366.4512 366.8368 367.4051 367.6242
   368.2382 368.2471 368.2503 368.3800 368.5610 368.7599 368.7698 368.8011
   368.9999 369.0123 369.0344 369.1745 369.2314 369.2686 369.2761 369.3357
   369.3668 369.3898 369.7107 369.7474 369.7915 369.8600 370.8514 370.8910
   372.4222 372.5597 372.9105 372.9378 373.0244 373.1491 373.1718 373.3217
   373.9060 374.1259 374.1650 374.1667 375.2790 375.2842 375.3419 375.3434
   376.2030 376.4820 376.4888 376.6880 377.5000 377.8895 377.9161 377.9222
   378.1207 378.1778 378.1931 378.1945 378.5758 378.7062 378.7502 379.0957
   379.3876 379.4399 379.4869 379.4907 379.5291 379.6140 379.6204 379.7055
   380.0734 380.1330 380.1853 380.2505 380.9805 381.1681 381.1765 381.2896
   381.5526 381.5638 381.6066 381.6142 385.6994 385.9486 386.1196 386.3197
   386.6108 386.7302 386.7581 386.7616 386.8791 386.8842 387.0926 387.1428
   387.8444 387.8973 388.0340 388.2295 388.6378 388.6429 388.6949 388.7361
   389.7138 389.7534 389.7583 389.7987 390.3622 390.4742 390.5094 390.5181
   391.0472 391.0628 391.0690 391.0772 393.0001 393.2319 393.2831 393.6960
   394.4845 394.4992 394.6099 394.6567 394.6665 395.2563 395.2986 395.5717
   395.7995 396.0707 396.1161 396.3576 398.1137 398.2232 398.3230 398.5094
   398.6642 398.7082 398.7476 398.7551 399.1773 399.3288 399.4682 399.6558
   400.2817 400.2839 400.3453 400.3829 401.0681 401.0878 401.1041 401.1476
   401.3400 401.5371 401.5948 401.6131 401.9612 401.9615 402.0423 402.0907
   402.2149 402.2159 402.2593 402.2655 402.9744 402.9757 403.0166 403.0227
   403.3296 403.3715 403.4178 403.4346 403.9392 403.9716 403.9910 404.0043
   407.6706 407.7114 407.8365 408.9437 409.5748 409.6655 409.6764 409.8583
   410.0370 410.0714 410.1004 410.1662 410.9775 410.9908 411.0030 411.0158
   412.2422 412.2542 412.2564 412.2758 414.8035 414.8085 414.8473 414.8503
   415.3666 415.6601 415.6604 415.8156 416.6846 416.7081 416.7724 416.8535
   417.4510 417.5137 417.5293 417.5765 417.7830 418.1496 418.1544 418.2988
   418.6618 418.6632 418.6654 418.6705 419.0169 419.0351 419.2596 419.2626
   419.7519 419.7644 419.8297 419.9021 420.5692 420.5924 420.6109 420.6167
   421.7168 421.7346 421.7414 421.7676 423.7635 423.7673 423.7912 423.8063
   425.7241 425.8011 425.8231 425.8582 425.9453 425.9804 425.9934 426.0001

     the Fermi energy is     8.9832 ev
     (compare with:     9.1615 eV, computed in scf)

     Writing all to output data dir out/mp-2624.save/
 
     init_run     :      0.03s CPU      0.07s WALL (       1 calls)
     electrons    :   1274.47s CPU   1354.61s WALL (       1 calls)

     Called by init_run:
     wfcinit      :      0.00s CPU      0.00s WALL (       1 calls)
     potinit      :      0.00s CPU      0.01s WALL (       1 calls)
     hinit0       :      0.01s CPU      0.04s WALL (       1 calls)

     Called by electrons:
     c_bands      :   1274.46s CPU   1354.56s WALL (       1 calls)
     v_of_rho     :      0.00s CPU      0.00s WALL (       1 calls)

     Called by c_bands:
     init_us_2    :      0.00s CPU      0.00s WALL (      15 calls)
     init_us_2:cp :      0.00s CPU      0.00s WALL (      15 calls)
     cegterg      :   1237.62s CPU   1315.03s WALL (      15 calls)

     Called by *egterg:
     cdiaghg      :   1148.59s CPU   1222.81s WALL (     168 calls)
     h_psi        :     23.75s CPU     24.70s WALL (     183 calls)
     g_psi        :      0.18s CPU      0.18s WALL (     153 calls)

     Called by h_psi:
     h_psi:calbec :      0.43s CPU      0.44s WALL (     183 calls)
     vloc_psi     :     22.65s CPU     23.58s WALL (     183 calls)
     add_vuspsi   :      0.31s CPU      0.31s WALL (     183 calls)

     General routines
     calbec       :      0.43s CPU      0.44s WALL (     183 calls)
     fft          :      0.00s CPU      0.04s WALL (      10 calls)
     fftw         :     20.68s CPU     21.53s WALL (  229940 calls)
 
     Parallel routines
 
     PWSCF        :  21m15.85s CPU  22m37.03s WALL

 
   This run was terminated on:   3:36:12  21Nov2023            

=------------------------------------------------------------------------------=
   JOB DONE.
=------------------------------------------------------------------------------=
