
     Program PWSCF v.7.1 starts on 17Nov2023 at  7:40:56 

     This program is part of the open-source Quantum ESPRESSO suite
     for quantum simulation of materials; please cite
         "P. Giannozzi et al., J. Phys.:Condens. Matter 21 395502 (2009);
         "P. Giannozzi et al., J. Phys.:Condens. Matter 29 465901 (2017);
         "P. Giannozzi et al., J. Chem. Phys. 152 154105 (2020);
          URL http://www.quantum-espresso.org", 
     in publications or presentations arising from this work. More details at
     http://www.quantum-espresso.org/quote

     Parallel version (MPI), running on    24 processors

     MPI processes distributed on     1 nodes
     123393 MiB available memory on the printing compute node when the environment starts
 
     Reading input from pw_mp-463_scf_k3000_E67.in
Warning: card &CELL ignored
Warning: card / ignored

     Current dimensions of program PWSCF are:
     Max number of different atomic species (ntypx) = 10
     Max number of k-points (npk) =  40000
     Max angular momentum in pseudopotentials (lmaxx) =  4
 
     K-points division:     npool     =       2
     R & G space division:  proc/nbgrp/npool/nimage =      12
     Subspace diagonalization in iterative solution of the eigenvalue problem:
     a serial algorithm will be used

 
     Parallelization info
     --------------------
     sticks:   dense  smooth     PW     G-vecs:    dense   smooth      PW
     Min          77      77     23                 1563     1563     259
     Max          78      78     24                 1565     1565     261
     Sum         931     931    283                18763    18763    3119
 
     Using Slab Decomposition
 


     bravais-lattice index     =            2
     lattice parameter (alat)  =      10.0322  a.u.
     unit-cell volume          =     252.4249 (a.u.)^3
     number of atoms/cell      =            2
     number of atomic types    =            2
     number of electrons       =        16.00
     number of Kohn-Sham states=           16
     kinetic-energy cutoff     =      67.0000  Ry
     charge density cutoff     =     268.0000  Ry
     scf convergence threshold =      1.0E-10
     mixing beta               =       0.7000
     number of iterations used =            8  plain     mixing
     Exchange-correlation= PBE
                           (   1   4   3   4   0   0   0)

     celldm(1)=  10.032228  celldm(2)=   0.000000  celldm(3)=   0.000000
     celldm(4)=   0.000000  celldm(5)=   0.000000  celldm(6)=   0.000000

     crystal axes: (cart. coord. in units of alat)
               a(1) = (  -0.500000   0.000000   0.500000 )  
               a(2) = (   0.000000   0.500000   0.500000 )  
               a(3) = (  -0.500000   0.500000   0.000000 )  

     reciprocal axes: (cart. coord. in units 2 pi/alat)
               b(1) = ( -1.000000 -1.000000  1.000000 )  
               b(2) = (  1.000000  1.000000  1.000000 )  
               b(3) = ( -1.000000  1.000000 -1.000000 )  


     PseudoPot. # 1 for F  read from file:
     /usr/scratch4/magr4985/MG/HTDF/pseudo/SG15/F.upf
     MD5 check sum: 1d8275f47d602dd53cad6bcdc0eda7dc
     Pseudo is Norm-conserving, Zval =  7.0
     Generated using ONCVPSP code by D. R. Hamann
     Using radial grid of  602 points,  4 beta functions with: 
                l(1) =   0
                l(2) =   0
                l(3) =   1
                l(4) =   1

     PseudoPot. # 2 for K  read from file:
     /usr/scratch4/magr4985/MG/HTDF/pseudo/SG15/K.upf
     MD5 check sum: 254690d02b26e0029262a4c77e854448
     Pseudo is Norm-conserving, Zval =  9.0
     Generated using ONCVPSP code by D. R. Hamann
     Using radial grid of  602 points,  6 beta functions with: 
                l(1) =   0
                l(2) =   0
                l(3) =   1
                l(4) =   1
                l(5) =   2
                l(6) =   2

     atomic species   valence    mass     pseudopotential
        F              7.00    18.99840     F ( 1.00)
        K              9.00    39.09830     K ( 1.00)

     48 Sym. Ops., with inversion, found



   Cartesian axes

     site n.     atom                  positions (alat units)
         1           K   tau(   1) = (   0.0000000   0.0000000   0.0000000  )
         2           F   tau(   2) = (  -0.5000000   0.5000000   0.5000000  )

     number of k points=    72  Gaussian smearing, width (Ry)=  0.0005
                       cart. coord. in units 2pi/alat
        k(    1) = (   0.0000000   0.0000000   0.0000000), wk =   0.0011574
        k(    2) = (  -0.0833333   0.0833333  -0.0833333), wk =   0.0092593
        k(    3) = (  -0.1666667   0.1666667  -0.1666667), wk =   0.0092593
        k(    4) = (  -0.2500000   0.2500000  -0.2500000), wk =   0.0092593
        k(    5) = (  -0.3333333   0.3333333  -0.3333333), wk =   0.0092593
        k(    6) = (  -0.4166667   0.4166667  -0.4166667), wk =   0.0092593
        k(    7) = (   0.5000000  -0.5000000   0.5000000), wk =   0.0046296
        k(    8) = (   0.0000000   0.1666667   0.0000000), wk =   0.0069444
        k(    9) = (  -0.0833333   0.2500000  -0.0833333), wk =   0.0277778
        k(   10) = (  -0.1666667   0.3333333  -0.1666667), wk =   0.0277778
        k(   11) = (  -0.2500000   0.4166667  -0.2500000), wk =   0.0277778
        k(   12) = (  -0.3333333   0.5000000  -0.3333333), wk =   0.0277778
        k(   13) = (   0.5833333  -0.4166667   0.5833333), wk =   0.0277778
        k(   14) = (   0.5000000  -0.3333333   0.5000000), wk =   0.0277778
        k(   15) = (   0.4166667  -0.2500000   0.4166667), wk =   0.0277778
        k(   16) = (   0.3333333  -0.1666667   0.3333333), wk =   0.0277778
        k(   17) = (   0.2500000  -0.0833333   0.2500000), wk =   0.0277778
        k(   18) = (   0.1666667  -0.0000000   0.1666667), wk =   0.0138889
        k(   19) = (   0.0000000   0.3333333   0.0000000), wk =   0.0069444
        k(   20) = (  -0.0833333   0.4166667  -0.0833333), wk =   0.0277778
        k(   21) = (  -0.1666667   0.5000000  -0.1666667), wk =   0.0277778
        k(   22) = (  -0.2500000   0.5833333  -0.2500000), wk =   0.0277778
        k(   23) = (   0.6666667  -0.3333333   0.6666667), wk =   0.0277778
        k(   24) = (   0.5833333  -0.2500000   0.5833333), wk =   0.0277778
        k(   25) = (   0.5000000  -0.1666667   0.5000000), wk =   0.0277778
        k(   26) = (   0.4166667  -0.0833333   0.4166667), wk =   0.0277778
        k(   27) = (   0.3333333   0.0000000   0.3333333), wk =   0.0138889
        k(   28) = (   0.0000000   0.5000000   0.0000000), wk =   0.0069444
        k(   29) = (  -0.0833333   0.5833333  -0.0833333), wk =   0.0277778
        k(   30) = (  -0.1666667   0.6666667  -0.1666667), wk =   0.0277778
        k(   31) = (   0.7500000  -0.2500000   0.7500000), wk =   0.0277778
        k(   32) = (   0.6666667  -0.1666667   0.6666667), wk =   0.0277778
        k(   33) = (   0.5833333  -0.0833333   0.5833333), wk =   0.0277778
        k(   34) = (   0.5000000   0.0000000   0.5000000), wk =   0.0138889
        k(   35) = (   0.0000000   0.6666667   0.0000000), wk =   0.0069444
        k(   36) = (  -0.0833333   0.7500000  -0.0833333), wk =   0.0277778
        k(   37) = (   0.8333333  -0.1666667   0.8333333), wk =   0.0277778
        k(   38) = (   0.7500000  -0.0833333   0.7500000), wk =   0.0277778
        k(   39) = (   0.6666667  -0.0000000   0.6666667), wk =   0.0138889
        k(   40) = (   0.0000000   0.8333333   0.0000000), wk =   0.0069444
        k(   41) = (   0.9166667  -0.0833333   0.9166667), wk =   0.0277778
        k(   42) = (   0.8333333   0.0000000   0.8333333), wk =   0.0138889
        k(   43) = (   0.0000000  -1.0000000   0.0000000), wk =   0.0034722
        k(   44) = (  -0.1666667   0.3333333   0.0000000), wk =   0.0277778
        k(   45) = (  -0.2500000   0.4166667  -0.0833333), wk =   0.0555556
        k(   46) = (  -0.3333333   0.5000000  -0.1666667), wk =   0.0555556
        k(   47) = (   0.5833333  -0.4166667   0.7500000), wk =   0.0555556
        k(   48) = (   0.5000000  -0.3333333   0.6666667), wk =   0.0277778
        k(   49) = (  -0.1666667   0.5000000   0.0000000), wk =   0.0277778
        k(   50) = (  -0.2500000   0.5833333  -0.0833333), wk =   0.0555556
        k(   51) = (   0.6666667  -0.3333333   0.8333333), wk =   0.0555556
        k(   52) = (   0.5833333  -0.2500000   0.7500000), wk =   0.0555556
        k(   53) = (   0.5000000  -0.1666667   0.6666667), wk =   0.0555556
        k(   54) = (   0.4166667  -0.0833333   0.5833333), wk =   0.0555556
        k(   55) = (   0.3333333   0.0000000   0.5000000), wk =   0.0277778
        k(   56) = (  -0.1666667   0.6666667  -0.0000000), wk =   0.0277778
        k(   57) = (   0.7500000  -0.2500000   0.9166667), wk =   0.0555556
        k(   58) = (   0.6666667  -0.1666667   0.8333333), wk =   0.0555556
        k(   59) = (   0.5833333  -0.0833333   0.7500000), wk =   0.0555556
        k(   60) = (   0.5000000   0.0000000   0.6666667), wk =   0.0277778
        k(   61) = (   0.8333333  -0.1666667   1.0000000), wk =   0.0277778
        k(   62) = (   0.7500000  -0.0833333   0.9166667), wk =   0.0555556
        k(   63) = (   0.6666667   0.0000000   0.8333333), wk =   0.0277778
        k(   64) = (  -0.1666667  -1.0000000  -0.0000000), wk =   0.0138889
        k(   65) = (   0.6666667  -0.3333333   1.0000000), wk =   0.0277778
        k(   66) = (   0.5833333  -0.2500000   0.9166667), wk =   0.0555556
        k(   67) = (   0.5000000  -0.1666667   0.8333333), wk =   0.0277778
        k(   68) = (   0.6666667  -0.1666667   1.0000000), wk =   0.0277778
        k(   69) = (   0.5833333  -0.0833333   0.9166667), wk =   0.0555556
        k(   70) = (   0.5000000   0.0000000   0.8333333), wk =   0.0277778
        k(   71) = (  -0.3333333  -1.0000000   0.0000000), wk =   0.0138889
        k(   72) = (  -0.5000000  -1.0000000   0.0000000), wk =   0.0069444

     Dense  grid:    18763 G-vectors     FFT dimensions: (  40,  40,  40)

     Estimated max dynamical RAM per process >       5.84 MB

     Estimated total dynamical RAM >     135.55 MB

     Initial potential from superposition of free atoms

     starting charge      15.7348, renormalised to      16.0000
     Starting wfcs are random

     total cpu time spent up to now is        0.3 secs

     Self-consistent Calculation

     iteration #  1     ecut=    67.00 Ry     beta= 0.70
     Davidson diagonalization with overlap
     ethr =  1.00E-02,  avg # of iterations =  8.8

     Threshold (ethr) on eigenvalues was too large:
     Diagonalizing with lowered threshold

     Davidson diagonalization with overlap
     ethr =  8.91E-04,  avg # of iterations =  1.0

     total cpu time spent up to now is        1.4 secs

     total energy              =    -104.77038333 Ry
     estimated scf accuracy    <       0.14568523 Ry

     iteration #  2     ecut=    67.00 Ry     beta= 0.70
     Davidson diagonalization with overlap
     ethr =  9.11E-04,  avg # of iterations =  2.3

     total cpu time spent up to now is        1.7 secs

     total energy              =    -104.79909076 Ry
     estimated scf accuracy    <       0.14122218 Ry

     iteration #  3     ecut=    67.00 Ry     beta= 0.70
     Davidson diagonalization with overlap
     ethr =  8.83E-04,  avg # of iterations =  2.0

     total cpu time spent up to now is        2.0 secs

     total energy              =    -104.83061799 Ry
     estimated scf accuracy    <       0.00232836 Ry

     iteration #  4     ecut=    67.00 Ry     beta= 0.70
     Davidson diagonalization with overlap
     ethr =  1.46E-05,  avg # of iterations =  4.1

     total cpu time spent up to now is        2.4 secs

     total energy              =    -104.83098091 Ry
     estimated scf accuracy    <       0.00003252 Ry

     iteration #  5     ecut=    67.00 Ry     beta= 0.70
     Davidson diagonalization with overlap
     ethr =  2.03E-07,  avg # of iterations =  3.4

     total cpu time spent up to now is        2.7 secs

     total energy              =    -104.83098853 Ry
     estimated scf accuracy    <       0.00000200 Ry

     iteration #  6     ecut=    67.00 Ry     beta= 0.70
     Davidson diagonalization with overlap
     ethr =  1.25E-08,  avg # of iterations =  2.0

     total cpu time spent up to now is        3.0 secs

     total energy              =    -104.83098915 Ry
     estimated scf accuracy    <       0.00000026 Ry

     iteration #  7     ecut=    67.00 Ry     beta= 0.70
     Davidson diagonalization with overlap
     ethr =  1.62E-09,  avg # of iterations =  2.0

     total cpu time spent up to now is        3.3 secs

     total energy              =    -104.83098920 Ry
     estimated scf accuracy    <          3.9E-10 Ry

     iteration #  8     ecut=    67.00 Ry     beta= 0.70
     Davidson diagonalization with overlap
     ethr =  2.46E-12,  avg # of iterations =  2.5

     total cpu time spent up to now is        3.6 secs

     total energy              =    -104.83098920 Ry
     estimated scf accuracy    <          1.1E-10 Ry

     iteration #  9     ecut=    67.00 Ry     beta= 0.70
     Davidson diagonalization with overlap
     ethr =  6.74E-13,  avg # of iterations =  1.1

     total cpu time spent up to now is        3.9 secs

     End of self-consistent calculation

          k = 0.0000 0.0000 0.0000 (  2277 PWs)   bands (ev):

   -24.4126 -16.9504  -7.6507  -7.6507  -7.6507   1.6473   1.6473   1.6473
     7.9541  12.3977  12.3977  12.3977  14.0520  14.0520  18.7154  26.2005

          k =-0.0833 0.0833-0.0833 (  2337 PWs)   bands (ev):

   -24.4058 -16.9569  -7.6701  -7.6533  -7.6533   1.5797   1.6210   1.6210
     8.1540  12.2762  12.4930  12.4930  14.1157  14.1157  19.0561  25.2342

          k =-0.1667 0.1667-0.1667 (  2334 PWs)   bands (ev):

   -24.3871 -16.9746  -7.7228  -7.6603  -7.6603   1.4103   1.5526   1.5526
     8.7054  12.0211  12.7582  12.7582  14.3075  14.3075  19.8474  23.7611

          k =-0.2500 0.2500-0.2500 (  2337 PWs)   bands (ev):

   -24.3613 -16.9990  -7.7942  -7.6697  -7.6697   1.2017   1.4611   1.4611
     9.4798  11.8224  13.1247  13.1247  14.6369  14.6369  20.2496  22.7547

          k =-0.3333 0.3333-0.3333 (  2334 PWs)   bands (ev):

   -24.3353 -17.0237  -7.8649  -7.6790  -7.6790   1.0130   1.3717   1.3717
    10.2540  11.8408  13.4761  13.4761  15.1154  15.1154  19.3933  21.8826

          k =-0.4167 0.4167-0.4167 (  2343 PWs)   bands (ev):

   -24.3162 -17.0420  -7.9162  -7.6858  -7.6858   0.8846   1.3071   1.3071
    10.7071  12.1747  13.7087  13.7087  15.6550  15.6550  18.3207  20.7553

          k = 0.5000-0.5000 0.5000 (  2362 PWs)   bands (ev):

   -24.3091 -17.0487  -7.9348  -7.6883  -7.6883   0.8393   1.2834   1.2834
    10.8177  12.4266  13.7870  13.7870  15.9281  15.9281  17.8500  20.2839

          k = 0.0000 0.1667 0.0000 (  2341 PWs)   bands (ev):

   -24.4036 -16.9586  -7.6657  -7.6657  -7.6562   1.5187   1.6373   1.6373
     8.2141  12.1297  12.5810  12.5810  14.1214  14.1423  19.1681  25.1729

          k =-0.0833 0.2500-0.0833 (  2330 PWs)   bands (ev):

   -24.3890 -16.9712  -7.7066  -7.6812  -7.6596   1.3815   1.5914   1.6054
     8.6333  11.8726  12.8007  12.8396  14.2590  14.2750  19.8189  23.9226

          k =-0.1667 0.3333-0.1667 (  2332 PWs)   bands (ev):

   -24.3658 -16.9916  -7.7750  -7.6956  -7.6691   1.2202   1.4947   1.5346
     9.3218  11.6656  13.1013  13.1985  14.5178  14.5533  20.4180  22.5800

          k =-0.2500 0.4167-0.2500 (  2345 PWs)   bands (ev):

   -24.3400 -17.0144  -7.8493  -7.7050  -7.6850   1.0674   1.3917   1.4451
    10.1066  11.6249  13.4148  13.5415  14.9077  15.0244  19.7290  21.8322

          k =-0.3333 0.5000-0.3333 (  2347 PWs)   bands (ev):

   -24.3187 -17.0335  -7.9096  -7.7070  -7.7031   0.9502   1.3191   1.3616
    10.6742  11.8888  13.6396  13.7769  15.4510  15.5798  18.5113  20.7706

          k = 0.5833-0.4167 0.5833 (  2338 PWs)   bands (ev):

   -24.3076 -17.0435  -7.9402  -7.7186  -7.7011   0.8888   1.2975   1.3050
    10.8649  12.2629  13.7440  13.8761  15.8954  15.9523  17.7441  20.3032

          k = 0.5000-0.3333 0.5000 (  2344 PWs)   bands (ev):

   -24.3099 -17.0418  -7.9331  -7.7274  -7.6888   0.8958   1.2895   1.3293
    10.8340  12.1932  13.7274  13.8253  15.6818  15.9907  17.9030  20.2176

          k = 0.4167-0.2500 0.4167 (  2344 PWs)   bands (ev):

   -24.3249 -17.0287  -7.8902  -7.7271  -7.6735   0.9738   1.3190   1.4034
    10.5310  11.8227  13.6081  13.6115  15.1920  15.5066  18.8735  20.8385

          k = 0.3333-0.1667 0.3333 (  2333 PWs)   bands (ev):

   -24.3485 -17.0079  -7.8225  -7.7180  -7.6591   1.1131   1.3863   1.4976
     9.8538  11.6906  13.2518  13.3976  14.7516  14.9078  20.0875  21.5942

          k = 0.2500-0.0833 0.2500 (  2331 PWs)   bands (ev):

   -24.3741 -16.9852  -7.7479  -7.7022  -7.6495   1.2896   1.4747   1.5821
     9.0781  11.8174  12.8727  13.0845  14.4358  14.4605  20.2784  22.6219

          k = 0.1667-0.0000 0.1667 (  2333 PWs)   bands (ev):

   -24.3951 -16.9666  -7.6892  -7.6813  -7.6474   1.4639   1.5609   1.6279
     8.4646  12.0660  12.5967  12.7442  14.2108  14.2248  19.5499  24.1832

          k = 0.0000 0.3333 0.0000 (  2337 PWs)   bands (ev):

   -24.3793 -16.9760  -7.7065  -7.7065  -7.6974   1.2767   1.6175   1.6175
     8.8827  11.5253  13.0979  13.0979  14.3103  14.3184  20.2755  23.6171

          k =-0.0833 0.4167-0.0833 (  2331 PWs)   bands (ev):

   -24.3606 -16.9877  -7.7721  -7.7295  -7.7138   1.1786   1.5706   1.5859
     9.4181  11.2537  13.4188  13.4614  14.4282  14.5289  20.8693  22.3252

          k =-0.1667 0.5000-0.1667 (  2337 PWs)   bands (ev):

   -24.3377 -17.0034  -7.8531  -7.7441  -7.7367   1.1085   1.4727   1.5197
    10.1308  11.1572  13.6195  13.7982  14.7582  14.9426  20.0570  21.6751

          k =-0.2500 0.5833-0.2500 (  2346 PWs)   bands (ev):

   -24.3168 -17.0187  -7.9231  -7.7648  -7.7464   1.0634   1.3748   1.4379
    10.7359  11.3770  13.6423  14.0226  15.3625  15.4766  18.6119  20.7470

          k = 0.6667-0.3333 0.6667 (  2342 PWs)   bands (ev):

   -24.3036 -17.0296  -7.9637  -7.7904  -7.7359   1.0216   1.3355   1.3627
    10.9618  11.8817  13.6105  14.1337  15.8079  16.0583  17.5543  20.3187

          k = 0.5833-0.2500 0.5833 (  2345 PWs)   bands (ev):

   -24.3016 -17.0330  -7.9645  -7.8065  -7.7153   0.9846   1.3130   1.3709
    11.0161  12.0490  13.5826  14.1167  15.6537  16.4010  17.3860  19.8005

          k = 0.5000-0.1667 0.5000 (  2347 PWs)   bands (ev):

   -24.3116 -17.0280  -7.9251  -7.8089  -7.6900   0.9848   1.3011   1.4473
    10.8750  11.7798  13.5393  13.9265  15.2353  16.1269  18.0795  19.9771

          k = 0.4167-0.0833 0.4167 (  2341 PWs)   bands (ev):

   -24.3306 -17.0160  -7.8556  -7.7973  -7.6668   1.0401   1.3302   1.5270
    10.3758  11.5656  13.5024  13.5637  14.8760  15.4688  19.3433  20.5144

          k = 0.3333 0.0000 0.3333 (  2325 PWs)   bands (ev):

   -24.3535 -17.0004  -7.7769  -7.7722  -7.6519   1.1484   1.3935   1.5787
     9.6812  11.6129  13.1644  13.3793  14.6238  14.8406  20.6639  20.9481

          k = 0.0000 0.5000 0.0000 (  2333 PWs)   bands (ev):

   -24.3472 -16.9885  -7.8150  -7.7624  -7.7624   1.1487   1.6001   1.6001
     9.7755  10.8785  13.8575  13.8575  14.3314  14.6066  21.5721  22.0816

          k =-0.0833 0.5833-0.0833 (  2338 PWs)   bands (ev):

   -24.3291 -16.9936  -7.9043  -7.7894  -7.7855   1.1521   1.5584   1.5739
    10.3498  10.6780  13.9583  14.2203  14.6180  14.8936  20.2997  21.3268

          k =-0.1667 0.6667-0.1667 (  2339 PWs)   bands (ev):

   -24.3111 -17.0016  -7.9845  -7.8196  -7.7929   1.1825   1.4668   1.5152
    10.6534  11.0779  13.6912  14.4186  15.3469  15.3765  18.7094  20.5818

          k = 0.7500-0.2500 0.7500 (  2335 PWs)   bands (ev):

   -24.2980 -17.0105  -8.0311  -7.8486  -7.7828   1.1954   1.3926   1.4408
    10.8197  11.7228  13.4205  14.5271  15.6971  16.2109  17.4572  20.2213

          k = 0.6667-0.1667 0.6667 (  2334 PWs)   bands (ev):

   -24.2935 -17.0178  -8.0320  -7.8685  -7.7576   1.1289   1.3706   1.4157
    11.0412  11.9888  13.3295  14.5498  15.5802  16.6065  17.2235  19.3849

          k = 0.5833-0.0833 0.5833 (  2332 PWs)   bands (ev):

   -24.2988 -17.0217  -7.9874  -7.8733  -7.7238   1.0528   1.3219   1.4756
    11.1407  11.8112  13.3574  14.3948  15.2383  16.5612  17.6434  19.1761

          k = 0.5000 0.0000 0.5000 (  2337 PWs)   bands (ev):

   -24.3124 -17.0210  -7.9124  -7.8578  -7.6905   1.0185   1.3070   1.5193
    10.9030  11.5843  13.4287  14.0001  15.0132  16.1916  18.2207  19.7955

          k = 0.0000 0.6667 0.0000 (  2357 PWs)   bands (ev):

   -24.3163 -16.9875  -7.9990  -7.8183  -7.8183   1.2124   1.5925   1.5925
    10.3515  10.7593  14.1008  14.7235  14.7235  14.9215  19.9384  20.7899

          k =-0.0833 0.7500-0.0833 (  2344 PWs)   bands (ev):

   -24.3029 -16.9867  -8.0849  -7.8439  -7.8341   1.2854   1.5558   1.5718
    10.2507  11.3146  13.7802  14.8919  15.3260  15.3493  18.7076  20.2248

          k = 0.8333-0.1667 0.8333 (  2339 PWs)   bands (ev):

   -24.2924 -16.9915  -8.1312  -7.8689  -7.8289   1.3482   1.4677   1.5181
    10.3824  11.9241  13.3245  14.9690  15.6234  16.2132  17.5233  19.8100

          k = 0.7500-0.0833 0.7500 (  2334 PWs)   bands (ev):

   -24.2877 -17.0005  -8.1251  -7.8877  -7.8039   1.2951   1.4463   1.4472
    10.6905  12.3278  12.9885  15.0410  15.4961  16.6904  17.2215  19.0844

          k = 0.6667-0.0000 0.6667 (  2315 PWs)   bands (ev):

   -24.2901 -17.0116  -8.0696  -7.8929  -7.7656   1.1652   1.3750   1.4748
    11.0353  12.0819  13.1599  14.9041  15.2358  16.4182  18.2455  18.2594

          k = 0.0000 0.8333 0.0000 (  2349 PWs)   bands (ev):

   -24.2946 -16.9779  -8.1714  -7.8592  -7.8592   1.3682   1.5930   1.5930
    10.0158  11.6641  13.7783  15.1729  15.4993  15.4993  18.3149  19.7944

          k = 0.9167-0.0833 0.9167 (  2333 PWs)   bands (ev):

   -24.2883 -16.9775  -8.2117  -7.8736  -7.8621   1.4263   1.5554   1.5742
    10.0297  12.0641  13.4732  15.2340  15.7199  16.0052  17.6249  19.4821

          k = 0.8333 0.0000 0.8333 (  2332 PWs)   bands (ev):

   -24.2858 -16.9858  -8.1943  -7.8852  -7.8420   1.4480   1.4530   1.5205
    10.2818  12.4728  12.9679  15.2828  15.5953  16.7188  17.0318  19.1937

          k = 0.0000-1.0000 0.0000 (  2346 PWs)   bands (ev):

   -24.2868 -16.9725  -8.2417  -7.8742  -7.8742   1.4473   1.5944   1.5944
     9.9011  12.0868  13.6269  15.2701  15.8487  15.8487  17.6518  19.3819

          k =-0.1667 0.3333 0.0000 (  2338 PWs)   bands (ev):

   -24.3723 -16.9838  -7.7377  -7.7241  -7.6657   1.2508   1.5224   1.6057
     9.1086  11.6006  13.0455  13.1832  14.4098  14.4471  20.4386  22.5293

          k =-0.2500 0.4167-0.0833 (  2336 PWs)   bands (ev):

   -24.3493 -17.0012  -7.8080  -7.7531  -7.6756   1.1294   1.4282   1.5580
     9.7978  11.4402  13.3726  13.4762  14.6404  14.8546  20.4611  21.2551

          k =-0.3333 0.5000-0.1667 (  2342 PWs)   bands (ev):

   -24.3261 -17.0187  -7.8829  -7.7717  -7.6908   1.0365   1.3478   1.4762
    10.5046  11.4964  13.5644  13.7638  15.0109  15.4644  19.0871  20.7276

          k = 0.5833-0.4167 0.7500 (  2344 PWs)   bands (ev):

   -24.3090 -17.0316  -7.9375  -7.7822  -7.7049   0.9793   1.3094   1.3898
    10.8938  11.8600  13.6187  13.9902  15.5031  16.0413  17.9077  20.1421

          k = 0.5000-0.3333 0.6667 (  2352 PWs)   bands (ev):

   -24.3028 -17.0364  -7.9574  -7.7853  -7.7107   0.9598   1.3174   1.3353
    10.9819  12.1073  13.6434  14.0643  15.7889  16.2674  17.4157  20.0315

          k =-0.1667 0.5000 0.0000 (  2337 PWs)   bands (ev):

   -24.3422 -16.9960  -7.8295  -7.7826  -7.7273   1.1306   1.5071   1.5857
     9.9650  11.0178  13.6974  13.8062  14.5453  14.8317  20.8143  21.0668

          k =-0.2500 0.5833-0.0833 (  2341 PWs)   bands (ev):

   -24.3219 -17.0063  -7.9061  -7.8240  -7.7360   1.1156   1.4193   1.5417
    10.6243  10.9945  13.6553  14.1559  14.8712  15.4201  19.2337  20.5997

          k = 0.6667-0.3333 0.8333 (  2342 PWs)   bands (ev):

   -24.3052 -17.0159  -7.9682  -7.8537  -7.7401   1.1129   1.3570   1.4671
    10.9473  11.4489  13.5014  14.3556  15.3850  16.0727  17.9099  20.0174

          k = 0.5833-0.2500 0.7500 (  2341 PWs)   bands (ev):

   -24.2966 -17.0222  -7.9948  -7.8718  -7.7351   1.0881   1.3620   1.3934
    11.0945  11.8505  13.4248  14.4299  15.6573  16.6141  17.1153  19.7075

          k = 0.5000-0.1667 0.6667 (  2340 PWs)   bands (ev):

   -24.2986 -17.0236  -7.9779  -7.8757  -7.7212   1.0555   1.3314   1.4329
    11.1375  11.7982  13.4189  14.3822  15.4553  16.5662  17.3812  19.4726

          k = 0.4167-0.0833 0.5833 (  2338 PWs)   bands (ev):

   -24.3105 -17.0197  -7.9212  -7.8643  -7.7025   1.0445   1.3210   1.5042
    10.9580  11.4685  13.4588  14.1545  15.0751  16.1574  18.1578  19.8534

          k = 0.3333 0.0000 0.5000 (  2341 PWs)   bands (ev):

   -24.3290 -17.0115  -7.8412  -7.8376  -7.6854   1.0676   1.3576   1.5523
    10.4167  11.3407  13.5310  13.7619  14.8086  15.4559  19.4227  20.4582

          k =-0.1667 0.6667-0.0000 (  2346 PWs)   bands (ev):

   -24.3134 -16.9946  -7.9896  -7.8410  -7.7882   1.1998   1.5041   1.5759
    10.5272  10.9090  13.7906  14.6884  14.8077  15.3676  19.1941  20.4394

          k = 0.7500-0.2500 0.9167 (  2345 PWs)   bands (ev):

   -24.2994 -16.9987  -8.0542  -7.8845  -7.7833   1.2538   1.4270   1.5365
    10.5977  11.5268  13.4332  14.8297  15.3245  16.0435  17.9567  19.7882

          k = 0.6667-0.1667 0.8333 (  2333 PWs)   bands (ev):

   -24.2908 -17.0049  -8.0775  -7.9148  -7.7698   1.2412   1.4112   1.4674
    10.8414  11.9659  13.1554  14.8911  15.5780  16.8161  17.0114  19.3282

          k = 0.5833-0.0833 0.7500 (  2334 PWs)   bands (ev):

   -24.2901 -17.0116  -8.0523  -7.9273  -7.7485   1.1622   1.3899   1.4621
    11.1353  11.8978  13.1827  14.8950  15.3696  16.5352  17.6536  18.7589

          k = 0.5000 0.0000 0.6667 (  2339 PWs)   bands (ev):

   -24.2972 -17.0170  -7.9867  -7.9176  -7.7239   1.0897   1.3361   1.4991
    11.2543  11.5945  13.2922  14.6393  15.1442  16.5668  17.7172  19.0301

          k = 0.8333-0.1667 1.0000 (  2345 PWs)   bands (ev):

   -24.2932 -16.9847  -8.1508  -7.8838  -7.8274   1.3621   1.5059   1.5750
    10.2106  11.8057  13.4663  15.1454  15.4866  15.9409  17.8947  19.5644

          k = 0.7500-0.0833 0.9167 (  2337 PWs)   bands (ev):

   -24.2870 -16.9891  -8.1672  -7.9170  -7.8074   1.3851   1.4468   1.5368
    10.4063  12.3054  12.9777  15.2164  15.6766  16.6265  17.1411  19.0975

          k = 0.6667 0.0000 0.8333 (  2335 PWs)   bands (ev):

   -24.2858 -16.9989  -8.1298  -7.9340  -7.7795   1.2814   1.4646   1.4669
    10.7718  12.3223  12.8727  15.2442  15.4431  16.6319  17.4695  18.6595

          k =-0.1667-1.0000-0.0000 (  2342 PWs)   bands (ev):

   -24.2860 -16.9791  -8.2177  -7.8994  -7.8412   1.4504   1.5013   1.5758
    10.1019  12.2837  13.2191  15.2739  15.8507  16.2314  17.3415  19.1685

          k = 0.6667-0.3333 1.0000 (  2336 PWs)   bands (ev):

   -24.3060 -17.0090  -7.9598  -7.9029  -7.7349   1.1433   1.3669   1.5376
    10.9970  11.1887  13.4352  14.6216  14.9903  16.1208  18.1647  19.7723

          k = 0.5833-0.2500 0.9167 (  2333 PWs)   bands (ev):

   -24.2943 -17.0109  -8.0038  -7.9543  -7.7352   1.1598   1.3696   1.4944
    11.1713  11.5724  13.2363  14.8541  15.3229  16.6126  17.4553  19.1489

          k = 0.5000-0.1667 0.8333 (  2328 PWs)   bands (ev):

   -24.2901 -17.0116  -8.0215  -7.9712  -7.7354   1.1599   1.4159   1.4388
    11.3084  11.6502  13.1998  14.8898  15.4905  16.8066  17.1919  18.9978

          k = 0.6667-0.1667 1.0000 (  2347 PWs)   bands (ev):

   -24.2901 -16.9983  -8.0935  -7.9505  -7.7647   1.2775   1.4131   1.5330
    10.7495  11.9082  13.0736  15.1783  15.4542  16.5897  17.3867  18.9926

          k = 0.5833-0.0833 0.9167 (  2329 PWs)   bands (ev):

   -24.2856 -17.0007  -8.0893  -7.9969  -7.7486   1.2368   1.4569   1.4923
    11.0722  11.8758  12.9765  15.1674  15.6386  16.7382  17.4366  18.4637

          k = 0.5000 0.0000 0.8333 (  2321 PWs)   bands (ev):

   -24.2872 -17.0053  -8.0407  -8.0139  -7.7381   1.1951   1.4272   1.4917
    11.4259  11.5112  13.0800  15.1777  15.4238  16.5808  17.8801  18.2570

          k =-0.3333-1.0000 0.0000 (  2340 PWs)   bands (ev):

   -24.2845 -16.9924  -8.1517  -7.9679  -7.7743   1.3192   1.4621   1.5330
    10.6616  12.3823  12.7165  15.2199  15.8549  16.9047  17.0026  18.6058

          k =-0.5000-1.0000 0.0000 (  2328 PWs)   bands (ev):

   -24.2837 -16.9991  -8.0604  -8.0604  -7.7403   1.2298   1.4901   1.4901
    11.4701  11.4701  12.9660  15.1377  15.8569  16.7500  17.8406  17.8406

     the Fermi energy is     7.2362 ev

!    total energy              =    -104.83098920 Ry
     estimated scf accuracy    <          1.0E-11 Ry
     smearing contrib. (-TS)   =      -0.00000000 Ry
     internal energy E=F+TS    =    -104.83098920 Ry

     The total energy is F=E-TS. E is the sum of the following terms:
     one-electron contribution =     -41.84235509 Ry
     hartree contribution      =      28.17112948 Ry
     xc contribution           =     -18.06150330 Ry
     ewald contribution        =     -73.09826030 Ry

     convergence has been achieved in   9 iterations

     Writing all to output data dir out/mp-463.save/
 
     init_run     :      0.09s CPU      0.21s WALL (       1 calls)
     electrons    :      3.37s CPU      3.58s WALL (       1 calls)

     Called by init_run:
     wfcinit      :      0.08s CPU      0.14s WALL (       1 calls)
     potinit      :      0.00s CPU      0.01s WALL (       1 calls)
     hinit0       :      0.00s CPU      0.04s WALL (       1 calls)

     Called by electrons:
     c_bands      :      2.92s CPU      3.08s WALL (      10 calls)
     sum_band     :      0.42s CPU      0.44s WALL (      10 calls)
     v_of_rho     :      0.03s CPU      0.03s WALL (      10 calls)
     mix_rho      :      0.00s CPU      0.00s WALL (      10 calls)

     Called by c_bands:
     init_us_2    :      0.04s CPU      0.05s WALL (     756 calls)
     init_us_2:cp :      0.04s CPU      0.04s WALL (     756 calls)
     cegterg      :      2.68s CPU      2.81s WALL (     360 calls)

     Called by *egterg:
     cdiaghg      :      0.38s CPU      0.43s WALL (    1394 calls)
     h_psi        :      2.16s CPU      2.27s WALL (    1466 calls)
     g_psi        :      0.01s CPU      0.01s WALL (    1070 calls)

     Called by h_psi:
     h_psi:calbec :      0.06s CPU      0.07s WALL (    1466 calls)
     vloc_psi     :      2.05s CPU      2.15s WALL (    1466 calls)
     add_vuspsi   :      0.04s CPU      0.04s WALL (    1466 calls)

     General routines
     calbec       :      0.06s CPU      0.07s WALL (    1466 calls)
     fft          :      0.01s CPU      0.05s WALL (     100 calls)
     ffts         :      0.00s CPU      0.00s WALL (      10 calls)
     fftw         :      2.16s CPU      2.27s WALL (   38830 calls)
 
     Parallel routines
 
     PWSCF        :      3.53s CPU      3.96s WALL

 
   This run was terminated on:   7:41: 0  17Nov2023            

=------------------------------------------------------------------------------=
   JOB DONE.
=------------------------------------------------------------------------------=
