
     Program PWSCF v.7.1 starts on 20Dec2023 at 16:12:24 

     This program is part of the open-source Quantum ESPRESSO suite
     for quantum simulation of materials; please cite
         "P. Giannozzi et al., J. Phys.:Condens. Matter 21 395502 (2009);
         "P. Giannozzi et al., J. Phys.:Condens. Matter 29 465901 (2017);
         "P. Giannozzi et al., J. Chem. Phys. 152 154105 (2020);
          URL http://www.quantum-espresso.org", 
     in publications or presentations arising from this work. More details at
     http://www.quantum-espresso.org/quote

     Parallel version (MPI), running on    24 processors

     MPI processes distributed on     1 nodes
     123018 MiB available memory on the printing compute node when the environment starts
 
     Reading input from pw_mp-1958_nscf_k690_E50.in
Warning: card &IONS ignored
Warning: card / ignored
Warning: card &CELL ignored
Warning: card / ignored

     Current dimensions of program PWSCF are:
     Max number of different atomic species (ntypx) = 10
     Max number of k-points (npk) =  40000
     Max angular momentum in pseudopotentials (lmaxx) =  4

     Atomic positions and unit cell read from directory:
     out/mp-1958.save/
     Atomic positions from file used, from input discarded
 
 
     K-points division:     npool     =       2
     R & G space division:  proc/nbgrp/npool/nimage =      12
     Subspace diagonalization in iterative solution of the eigenvalue problem:
     one sub-group per band group will be used
     scalapack distributed-memory algorithm (size of sub-group:  3*  3 procs)

 
     Parallelization info
     --------------------
     sticks:   dense  smooth     PW     G-vecs:    dense   smooth      PW
     Min          92      92     26                 2025     2025     319
     Max          93      93     27                 2027     2027     324
     Sum        1111    1111    313                24309    24309    3839
 
     Using Slab Decomposition
 


     bravais-lattice index     =            2
     lattice parameter (alat)  =      12.6832  a.u.
     unit-cell volume          =     510.0684 (a.u.)^3
     number of atoms/cell      =            2
     number of atomic types    =            2
     number of electrons       =        26.00
     number of Kohn-Sham states=         1200
     kinetic-energy cutoff     =      50.0000  Ry
     charge density cutoff     =     200.0000  Ry
     Exchange-correlation= PBE
                           (   1   4   3   4   0   0   0)

     celldm(1)=  12.683218  celldm(2)=   0.000000  celldm(3)=   0.000000
     celldm(4)=   0.000000  celldm(5)=   0.000000  celldm(6)=   0.000000

     crystal axes: (cart. coord. in units of alat)
               a(1) = (  -0.500000   0.000000   0.500000 )  
               a(2) = (   0.000000   0.500000   0.500000 )  
               a(3) = (  -0.500000   0.500000   0.000000 )  

     reciprocal axes: (cart. coord. in units 2 pi/alat)
               b(1) = ( -1.000000 -1.000000  1.000000 )  
               b(2) = (  1.000000  1.000000  1.000000 )  
               b(3) = ( -1.000000  1.000000 -1.000000 )  


     PseudoPot. # 1 for Sr read from file:
     /usr/scratch4/magr4985/MG/HTDF/pseudo/SG15/Sr.upf
     MD5 check sum: 3f9bc8d6f3e8472da0cbe0e6a3044a9f
     Pseudo is Norm-conserving, Zval = 10.0
     Generated using ONCVPSP code by D. R. Hamann
     Using radial grid of  602 points,  6 beta functions with: 
                l(1) =   0
                l(2) =   0
                l(3) =   1
                l(4) =   1
                l(5) =   2
                l(6) =   2

     PseudoPot. # 2 for Te read from file:
     /usr/scratch4/magr4985/MG/HTDF/pseudo/SG15/Te.upf
     MD5 check sum: dd4de4dac1e38587f63aaf3700bb29d3
     Pseudo is Norm-conserving, Zval = 16.0
     Generated using ONCVPSP code by D. R. Hamann
     Using radial grid of  602 points,  6 beta functions with: 
                l(1) =   0
                l(2) =   0
                l(3) =   1
                l(4) =   1
                l(5) =   2
                l(6) =   2

     atomic species   valence    mass     pseudopotential
        Sr            10.00    87.62000     Sr( 1.00)
        Te            16.00   127.60000     Te( 1.00)

     48 Sym. Ops., with inversion, found



   Cartesian axes

     site n.     atom                  positions (alat units)
         1           Sr  tau(   1) = (   0.0000000   0.0000000   0.0000000  )
         2           Te  tau(   2) = (  -0.5000000   0.5000000   0.5000000  )

     number of k points=    29  Gaussian smearing, width (Ry)=  0.0005
                       cart. coord. in units 2pi/alat
        k(    1) = (   0.0000000   0.0000000   0.0000000), wk =   0.0039062
        k(    2) = (  -0.1250000   0.1250000  -0.1250000), wk =   0.0312500
        k(    3) = (  -0.2500000   0.2500000  -0.2500000), wk =   0.0312500
        k(    4) = (  -0.3750000   0.3750000  -0.3750000), wk =   0.0312500
        k(    5) = (   0.5000000  -0.5000000   0.5000000), wk =   0.0156250
        k(    6) = (   0.0000000   0.2500000   0.0000000), wk =   0.0234375
        k(    7) = (  -0.1250000   0.3750000  -0.1250000), wk =   0.0937500
        k(    8) = (  -0.2500000   0.5000000  -0.2500000), wk =   0.0937500
        k(    9) = (   0.6250000  -0.3750000   0.6250000), wk =   0.0937500
        k(   10) = (   0.5000000  -0.2500000   0.5000000), wk =   0.0937500
        k(   11) = (   0.3750000  -0.1250000   0.3750000), wk =   0.0937500
        k(   12) = (   0.2500000   0.0000000   0.2500000), wk =   0.0468750
        k(   13) = (   0.0000000   0.5000000   0.0000000), wk =   0.0234375
        k(   14) = (  -0.1250000   0.6250000  -0.1250000), wk =   0.0937500
        k(   15) = (   0.7500000  -0.2500000   0.7500000), wk =   0.0937500
        k(   16) = (   0.6250000  -0.1250000   0.6250000), wk =   0.0937500
        k(   17) = (   0.5000000   0.0000000   0.5000000), wk =   0.0468750
        k(   18) = (   0.0000000   0.7500000   0.0000000), wk =   0.0234375
        k(   19) = (   0.8750000  -0.1250000   0.8750000), wk =   0.0937500
        k(   20) = (   0.7500000   0.0000000   0.7500000), wk =   0.0468750
        k(   21) = (   0.0000000  -1.0000000   0.0000000), wk =   0.0117188
        k(   22) = (  -0.2500000   0.5000000   0.0000000), wk =   0.0937500
        k(   23) = (   0.6250000  -0.3750000   0.8750000), wk =   0.1875000
        k(   24) = (   0.5000000  -0.2500000   0.7500000), wk =   0.0937500
        k(   25) = (   0.7500000  -0.2500000   1.0000000), wk =   0.0937500
        k(   26) = (   0.6250000  -0.1250000   0.8750000), wk =   0.1875000
        k(   27) = (   0.5000000   0.0000000   0.7500000), wk =   0.0937500
        k(   28) = (  -0.2500000  -1.0000000   0.0000000), wk =   0.0468750
        k(   29) = (  -0.5000000  -1.0000000   0.0000000), wk =   0.0234375

     Dense  grid:    24309 G-vectors     FFT dimensions: (  45,  45,  45)

     Estimated max dynamical RAM per process >     125.89 MB

     Estimated total dynamical RAM >       2.95 GB

     The potential is recalculated from file :
     out/mp-1958.save/charge-density

     Starting wfcs are random

     Band Structure Calculation
     Davidson diagonalization with overlap

     ethr =  5.00E-06,  avg # of iterations =  7.6

     total cpu time spent up to now is     1581.1 secs

     End of band structure calculation

          k = 0.0000 0.0000 0.0000 (  3071 PWs)   bands (ev):

   -28.2864 -28.2864 -28.2736 -28.2736 -28.2736 -27.8411  -9.8126  -9.8126
    -9.8126  -3.0388   6.8711   6.8711   6.8711   9.6251  10.1894  10.1894
    10.1894  10.8152  10.8152  14.3987  18.6677  18.6677  18.6677  18.9246
    18.9246  18.9246  21.9143  21.9143  23.3750  25.9508  25.9508  25.9508
    27.3253  27.3253  27.3253  28.4669  28.4669  31.0770  31.0770  31.0770
    33.4743  33.4743  33.4743  34.4963  34.4963  34.4963  34.8419  35.5769
    36.7197  37.1349  37.1349  37.1349  39.0792  39.0792  39.0792  39.3736
    39.3736  39.3736  39.9526  39.9526  39.9526  40.6247  40.6247  42.4603
    44.6624  44.6624  45.1623  45.1623  45.1623  51.2585  51.2585  51.2585
    52.6580  55.0760  55.0760  55.0760  55.5799  55.5799  55.5799  57.2812
    57.2812  57.2812  57.7454  57.8433  57.8433  61.8561  62.1217  62.1217
    62.1217  62.1249  62.1249  62.6323  62.6323  62.6323  63.6197  63.6197
    63.6197  63.8824  63.8824  63.8824  64.8999  64.8999  64.8999  65.1548
    65.1548  65.1548  65.7132  65.7132  65.7132  65.7470  65.7470  66.1505
    66.1505  67.3094  67.3094  67.3094  68.2287  68.9364  71.9882  73.6116
    73.6116  73.6116  74.1613  74.1613  74.1613  76.2497  76.2497  78.2453
    78.2453  78.2453  79.1192  79.1192  79.1903  79.1903  79.1903  79.2584
    79.2584  79.2584  79.4976  79.4976  79.4976  80.1683  80.4616  80.4616
    80.4616  83.1340  83.1340  84.0426  84.4203  85.1524  85.1524  85.1524
    86.1783  86.1783  86.1783  87.1193  87.5608  87.5608  87.5608  88.0525
    88.0525  88.0525  88.3561  88.3561  88.3561  88.9890  88.9890  88.9890
    93.0464  93.0464  93.1718  93.1718  93.1718  93.3770  97.7651  98.2002
    98.2002  98.2002  99.6378  99.6378  99.6378  99.9383  99.9383 102.0129
   102.0129 102.0129 102.7323 102.7323 102.7323 102.8520 102.8520 104.7574
   104.7574 104.7574 105.7578 107.9476 107.9476 107.9476 107.9652 109.3687
   109.3687 109.3687 110.3030 110.3030 110.3030 110.3180 110.3180 110.3180
   110.6106 110.6106 111.3404 112.1358 112.8660 112.8660 112.8660 113.1901
   113.1901 113.1901 114.2083 115.1232 115.1232 115.1232 115.5314 115.5314
   116.6756 116.6756 116.6756 117.3628 117.4362 117.4362 117.4362 117.5325
   117.5325 117.5325 118.3541 118.3541 118.3541 118.4705 118.4705 118.5065
   118.5065 118.5065 118.5171 118.5171 118.5171 118.7451 118.7451 118.9969
   118.9969 118.9969 119.2439 119.2439 119.2885 119.2885 119.2885 119.6838
   119.6838 119.6838 119.9873 122.0383 122.0383 122.1108 122.1108 122.1108
   125.4334 125.4334 125.4334 125.8751 125.8751 125.8751 126.0265 126.0265
   126.0265 127.8160 127.8160 127.8160 128.5301 128.8023 128.8023 128.8023
   129.8901 129.8901 133.0398 133.0398 133.0398 133.0605 133.0605 133.1893
   133.2798 133.8843 133.8843 133.8843 135.9863 138.5759 138.5759 138.5759
   140.7363 140.7363 140.7363 141.4337 141.4337 141.4337 141.7208 141.7208
   141.7208 141.8074 141.8074 141.8074 141.9552 141.9552 142.0182 143.0016
   143.0016 143.2051 143.2051 143.2127 143.2127 143.2127 143.2152 143.2152
   143.2152 144.1865 144.1865 144.1865 144.2792 144.2792 144.2792 144.5921
   144.5921 144.5921 144.8915 144.8915 144.9869 146.2115 146.2115 146.2115
   147.7861 147.7861 147.7861 149.3005 153.8258 153.8258 153.8258 154.4121
   154.4121 154.4121 154.7053 155.1101 155.3156 155.3156 156.6850 156.6850
   156.6850 157.6197 157.6197 157.6197 158.9987 158.9987 159.7856 159.7856
   159.7856 160.5785 160.9287 160.9287 160.9287 161.4304 161.4304 161.4304
   164.1126 165.1067 165.1067 165.1067 165.9710 165.9710 165.9710 166.1174
   166.1174 166.1174 166.3869 166.3869 166.3869 167.6610 167.6610 168.8204
   168.8836 168.8836 168.8836 169.4735 169.4735 169.4735 169.9543 169.9543
   169.9543 170.1939 170.1939 170.1939 170.3928 170.3928 170.3928 170.4030
   170.4030 170.5662 170.5662 170.5662 170.7253 173.1320 173.1320 173.1586
   173.1586 173.1586 173.2168 174.4235 174.4235 174.4235 176.2991 176.2991
   176.4430 178.3968 178.3968 178.3968 178.9356 178.9356 178.9356 180.3773
   180.3773 180.7534 180.7534 180.7534 181.3551 181.5260 181.5260 181.5260
   181.6568 181.6568 181.6568 181.7012 181.7012 181.7658 181.7658 181.7658
   182.3813 182.3813 182.3813 184.7158 184.7549 184.8098 184.8098 184.8098
   185.8809 185.8809 185.8809 185.9645 185.9645 185.9645 185.9722 185.9722
   186.0234 186.0234 186.0646 186.0646 186.0646 186.2734 186.2734 186.2734
   186.2760 186.2760 186.2760 186.2775 186.2775 186.2775 187.7281 187.7765
   187.7765 187.7765 187.8401 187.8401 187.8401 187.9186 188.1563 188.1563
   188.1563 188.9786 188.9786 189.3628 189.4707 189.4707 189.4707 189.8793
   189.8793 190.1718 190.1718 190.1718 190.4109 193.1954 193.1954 194.0597
   194.0597 194.0597 194.3679 194.3679 194.3679 194.8797 194.8797 194.8797
   195.0303 195.0303 195.0303 195.9592 195.9592 196.0186 196.0186 196.0186
   196.1050 196.5068 196.5068 196.5068 196.5158 196.5422 196.5422 197.9802
   197.9802 197.9802 198.1576 198.1576 198.1576 198.3764 198.3764 198.3764
   198.5223 198.5223 198.5223 199.4268 199.4759 199.4759 199.4759 199.4942
   199.4942 203.5765 203.5765 203.5765 213.0311 213.0311 213.0311 213.5240
   213.5240 213.5240 213.7710 213.7710 215.0412 216.2609 216.4341 216.4341
   217.2136 217.2136 217.2136 217.6049 217.6049 217.6049 217.7204 217.7204
   217.7204 218.1362 218.1362 218.1362 218.4390 218.4390 218.4390 219.2799
   219.4524 219.4524 219.4524 219.5295 219.5295 219.5295 219.5909 219.5909
   219.5909 219.6228 219.6228 219.6586 219.6586 219.6586 219.6711 219.8401
   219.8401 219.8401 220.7535 224.1177 224.1177 224.5518 224.5518 224.5518
   224.7112 224.7112 224.7935 224.7935 224.7935 225.0490 225.0490 225.0490
   225.2346 225.2346 225.2346 226.0625 226.0625 226.1710 226.1710 226.1710
   226.4323 227.7967 227.7967 227.7967 228.0493 228.0493 229.1129 229.1129
   229.1129 230.0711 230.0711 230.6837 230.6837 230.6837 230.8058 230.8058
   230.8058 232.2874 232.6813 232.6813 232.6813 233.9100 233.9100 233.9100
   236.0005 236.5114 236.5114 236.5114 236.5163 236.5898 236.5898 237.1860
   237.1860 237.6310 237.6310 237.6310 237.6335 237.6335 237.6335 237.6725
   237.6725 237.6725 237.8435 237.8435 237.8435 238.4045 238.4045 238.4045
   238.9273 239.2843 239.2843 242.0506 242.0506 242.0506 242.5578 243.6110
   243.6110 243.6110 243.9336 243.9336 243.9336 244.1990 244.1990 244.1990
   244.3362 244.3362 244.3362 244.4824 244.8934 246.8356 246.8356 246.8356
   247.6167 247.6167 248.6915 248.6915 248.7198 248.7198 248.7198 248.9948
   248.9952 248.9952 248.9952 249.3732 249.3732 249.4153 249.4153 249.4153
   249.4284 249.4284 249.4284 249.5492 249.5492 249.5497 249.5497 249.5497
   249.8949 249.8949 249.8949 249.8958 250.0290 250.0290 250.0290 250.5614
   250.5614 250.5614 250.6150 251.3172 251.3172 251.3172 251.8540 251.8540
   251.8540 251.9033 251.9033 251.9610 251.9610 251.9610 252.0765 252.0765
   252.0765 252.1855 253.1695 255.4101 255.4101 258.4968 258.4968 258.4968
   258.8690 258.8690 258.8690 259.2671 259.2671 259.2671 259.5844 259.5844
   259.5844 260.0499 260.2425 260.2425 260.2425 260.7515 260.7515 260.9350
   260.9350 260.9350 261.1268 261.8259 261.8259 261.8259 266.8375 266.8375
   266.8375 267.1093 268.5766 269.1848 269.1848 269.1848 269.2131 269.2131
   269.6464 269.6464 269.6464 269.6622 269.6622 269.6622 270.1734 270.1734
   270.1734 270.1853 270.1853 270.1853 270.2555 270.2555 272.3209 272.3209
   272.3209 272.3814 272.5213 272.5213 272.5213 272.5490 272.5490 272.5490
   272.7291 272.7291 272.7291 273.2587 273.2587 273.5502 273.5502 273.5502
   273.5570 273.5570 273.5570 273.9168 273.9168 274.5699 274.5699 274.5699
   274.6755 274.6755 274.6755 275.4763 275.4763 275.4763 275.7189 275.7189
   275.7524 275.7524 275.7524 275.7804 275.7804 275.7932 275.8619 275.8619
   275.8619 275.8707 275.8707 275.8707 275.9663 275.9663 275.9663 277.6107
   277.6352 277.6352 277.6352 277.6523 277.6523 277.6523 277.6609 279.3231
   279.3231 279.3231 279.3315 279.3315 279.3690 279.3690 279.3690 279.4698
   279.6260 279.6260 279.6260 279.7064 279.7064 279.7064 279.7744 279.7744
   279.7744 279.7851 279.7851 279.9200 279.9448 279.9448 279.9448 279.9586
   279.9586 279.9680 279.9680 279.9680 280.0764 282.1032 282.1032 282.1032
   283.3938 283.3938 283.3938 283.5641 283.7688 286.0713 286.0713 289.5683
   289.5683 289.5683 290.9655 290.9655 290.9655 291.5846 291.5846 291.8812
   291.8812 291.8812 291.9637 291.9637 291.9637 292.0456 292.0456 292.0456
   292.0594 292.0594 292.0630 292.0630 292.0630 292.3474 292.8674 292.8674
   292.8674 292.9596 292.9596 292.9596 293.0159 293.0159 293.0159 296.6635
   296.6635 296.8370 296.8370 296.8370 296.8863 299.4093 299.4093 301.3255
   301.3255 301.3255 301.4967 301.4967 301.5092 304.1546 304.1546 304.1546
   304.7242 304.7242 304.7242 304.7509 304.7509 304.7509 304.7538 304.7538
   304.7538 305.0730 305.0730 305.0730 306.1757 306.1757 306.1982 306.1982
   306.1982 306.2343 309.9684 309.9684 309.9684 312.0911 312.0911 312.0911
   313.9357 313.9357 314.0701 314.0701 314.0701 314.6856 314.7887 314.7887
   314.7887 315.1925 315.5016 315.5016 315.5016 315.6525 315.6525 315.6525
   315.6646 315.6646 315.6646 315.7029 315.8043 315.8043 316.4055 316.4055
   316.4055 316.4820 316.4820 316.8667 316.8667 316.8667 317.2290 317.7921
   318.4928 318.4928 318.4928 319.4553 319.4553 319.6486 319.6486 319.6486
   319.8436 319.8436 319.8436 320.4472 320.4472 320.4472 320.5603 321.0600
   321.0600 321.0600 322.0368 323.8955 323.8955 324.7910 324.7910 324.7910
   324.8756 324.8756 324.9458 324.9458 324.9458 325.2231 325.2231 325.2231
   325.3645 325.3645 325.3645 326.7188 326.7188 326.7188 326.8747 326.9383
   326.9383 326.9383 327.2016 329.1627 329.1627 329.1627 329.2298 329.2298
   329.3079 329.3079 329.3079 329.4636 329.4636 329.4636 329.4918 329.4918
   329.5314 329.5314 329.5314 329.7514 329.7514 329.7514 329.8205 329.8205
   329.8205 329.8787 329.8787 329.8931 329.9939 329.9939 329.9939 330.7688
   330.7688 330.7688 330.7688 330.7688 330.7698 330.7698 330.7698 330.7748
   330.7748 330.7748 330.8213 336.1754 336.1754 336.1754 338.3440 338.3440
   338.3449 338.3449 338.3449 338.4359 338.4359 338.4359 338.4708 338.4708
   338.4708 339.4936 339.4936 339.4936 339.7916 340.0817 340.0817 340.0817
   340.1563 340.1563 340.1563 340.1776 340.1776 340.2440 340.2440 340.2440
   340.4157 342.2020 342.2020 342.2020 342.7371 342.7371 342.8278 342.8278
   342.8278 343.0720 343.1220 343.1220 343.1220 343.2618 343.2618 343.7086
   343.7086 343.7086 345.6564 345.6564 345.6987 345.6987 345.6987 345.8218
   345.8218 345.8218 345.8759 345.8759 345.8759 345.9286 345.9286 346.0548
   346.0548 346.0975 346.0975 346.0975 346.2455 346.2455 346.2455 346.3337
   346.3337 346.3337 346.4157 346.4541 346.4541 346.4541 346.4754 346.4754
   346.4754 346.4931 346.4931 346.6038 346.6038 346.6038 346.7234 346.7234
   346.7234 346.7525 346.7525 346.7525 346.8069 346.8069 346.9811 346.9811
   346.9811 347.1372 347.4733 351.3429 351.3429 351.3429 351.7279 351.9167
   351.9167 351.9167 352.0524 352.0524 352.0524 352.0539 352.0539 353.1925
   353.1925 353.1925 353.8951 353.8951 353.8951 353.9016 353.9016 353.9016
   353.9264 354.0450 354.0450 354.0812 354.0812 354.0812 354.4179 354.4179
   354.4179 354.4674 354.5676 356.6295 356.6295 356.6295 356.6346 356.6481

          k =-0.1250 0.1250-0.1250 (  3044 PWs)   bands (ev):

   -28.2864 -28.2864 -28.2735 -28.2735 -28.2735 -27.8406  -9.8299  -9.8133
    -9.8133  -2.9588   6.2180   6.6597   6.6597   9.9899  10.3933  10.3933
    10.5975  11.2113  11.2113  14.8987  17.0604  17.6668  17.6668  19.2490
    19.2490  20.0427  22.2240  22.2240  24.1151  25.0264  25.0264  26.1025
    26.2085  27.3043  27.3043  29.6907  29.6907  30.7216  31.2202  31.2202
    32.4158  32.4158  33.1995  33.6538  34.4089  34.8077  34.8077  35.6571
    36.3093  37.1556  37.8290  37.8290  38.2029  38.2029  38.6127  38.6127
    38.7221  40.9317  40.9317  41.1547  41.3856  42.3204  42.3204  43.3234
    43.3234  44.2454  44.8092  47.5009  47.5009  49.2546  49.8335  49.8335
    53.6369  54.0722  54.0722  55.0639  55.0639  55.5669  55.5828  56.1272
    56.1272  56.6085  56.9501  59.0486  59.0486  60.1931  60.1931  60.2688
    60.6309  60.6309  61.2054  61.2054  61.4291  62.3693  62.5421  63.4238
    63.4238  64.0512  64.3533  64.3533  65.1309  65.1309  65.3465  65.3465
    65.9333  65.9333  65.9430  66.0321  66.2090  67.2205  67.5561  67.5561
    67.8843  70.2076  70.2076  70.4330  70.4330  71.0526  72.0837  72.1671
    72.1671  72.4462  72.4462  73.7015  74.2213  74.2213  74.8276  75.5613
    75.5613  76.3213  78.3183  78.3183  78.3907  78.9988  78.9988  79.7008
    79.8675  79.8675  80.2858  81.2522  81.7144  81.7144  81.7794  82.2849
    82.8081  82.9291  82.9291  82.9753  82.9753  83.8813  84.7147  84.7147
    84.9679  85.6444  85.9537  85.9537  86.7393  86.7393  88.3180  89.1640
    89.1640  89.6820  89.7617  90.1508  90.1508  90.5703  90.5703  91.5838
    91.9041  91.9041  93.8571  94.3812  94.3812  95.9316  97.4614  97.4614
    97.6080  97.6080  98.0023  98.3078  98.3671  99.6046  99.6046 101.2090
   101.2090 101.3992 102.1839 102.6289 102.6289 102.9611 104.1225 104.1225
   104.7057 106.1691 106.1691 106.6566 107.0119 107.0119 107.0643 107.5128
   107.5128 107.7921 108.5637 109.5039 109.5039 109.8726 110.7073 110.7073
   110.7280 110.7280 111.3524 111.3524 111.8139 111.8739 111.8739 111.8918
   112.9802 112.9802 113.4088 113.6409 114.0260 114.2236 114.2236 114.6350
   114.7486 114.7486 115.7607 115.7607 115.9895 115.9895 116.0188 116.6527
   116.6527 116.7221 117.1113 117.3280 117.3280 117.7521 118.6569 118.9443
   118.9443 119.3438 119.5554 119.5554 119.8216 119.8216 120.2324 120.3592
   120.5972 120.5972 121.1251 121.1251 121.1532 121.2061 121.3400 121.3400
   121.5722 122.9451 123.2079 123.2079 123.5411 123.5411 124.0254 124.5048
   124.8159 124.8159 125.7417 125.7417 125.8803 125.8803 126.6434 127.2890
   127.2890 128.4158 128.5542 128.5542 128.5676 130.3025 130.4390 130.4390
   130.6557 130.6557 131.4742 132.6021 132.6021 132.6760 133.2818 133.2818
   134.1935 134.5517 134.5517 135.6061 136.1791 136.1791 137.4202 137.4202
   137.6723 138.3046 138.3046 138.3622 138.4484 138.4484 138.5092 139.1972
   139.1972 139.3036 139.5047 139.6818 140.4010 140.4010 141.3407 141.3407
   142.1313 142.3410 143.2024 143.2024 143.7984 143.8664 143.8664 144.7154
   144.7154 144.8793 145.5992 145.7597 145.7597 145.8424 147.0411 147.6242
   147.6242 148.3314 148.3314 148.6692 149.1100 149.1100 149.3303 150.3773
   150.3773 150.4190 151.1964 151.1964 151.8178 152.2114 152.2114 152.6615
   153.1225 153.1225 153.4906 153.5757 153.5757 155.5802 156.2948 156.4554
   156.4554 157.0356 157.0356 158.1960 158.8832 158.8832 160.2488 160.2488
   160.3997 160.4260 160.8367 160.8367 160.9436 160.9894 161.1086 161.1086
   161.6345 161.8430 161.8430 162.1946 162.1946 162.3405 162.9339 162.9339
   163.9507 165.4920 166.9297 166.9297 167.4104 167.4104 167.4438 167.8058
   169.1908 169.1908 169.6315 169.6315 169.6792 169.8570 170.0955 170.2552
   170.2552 170.3205 170.6831 170.6831 170.8453 171.3010 171.3010 171.5009
   171.5009 171.5925 171.7460 172.4187 172.4187 172.6171 172.6171 172.7235
   174.0677 174.0677 174.1258 175.4857 175.4857 176.4671 176.4671 177.1195
   177.1238 177.1238 177.3090 177.5567 177.5567 178.0533 178.3863 178.3863
   178.5213 178.5813 178.5813 178.6889 178.7902 179.4374 179.4374 179.5961
   179.6485 179.9058 179.9058 180.3055 180.5708 180.5708 181.4185 181.6781
   181.6781 181.8035 182.0436 182.0436 182.6054 182.6054 183.0889 183.6720
   183.7071 183.7071 184.2653 184.2653 184.4820 184.5482 184.9206 184.9206
   185.2200 185.5943 185.5943 185.8174 185.8174 186.2686 186.2686 186.6779
   186.9475 186.9475 186.9937 187.4562 187.4562 187.4696 188.1147 188.1147
   188.1467 188.5660 188.5660 189.1110 189.4665 189.6585 190.3706 190.3706
   190.4406 190.4406 190.5043 190.7871 190.8137 191.0730 191.0730 191.2151
   191.3696 191.3696 191.9785 191.9785 192.4077 193.0470 193.0470 193.1649
   193.4118 193.4118 193.5262 193.6915 193.6915 193.7930 194.2406 194.2406
   195.7129 195.7129 195.8280 196.0034 196.0034 196.5563 196.5563 196.9082
   197.3718 197.7749 197.7749 197.8956 197.8956 197.9181 198.4361 198.9250
   200.3698 200.3698 200.6557 200.9511 200.9751 200.9751 201.8919 201.8919
   201.9684 202.2468 202.2468 202.3583 204.7108 204.7108 205.8275 206.3536
   206.5163 206.5163 207.4886 207.8056 207.8056 207.9875 207.9875 209.5229
   210.0018 210.0018 210.7271 210.8083 210.8083 210.9410 211.4376 211.4376
   212.4607 212.4607 212.5329 212.5329 213.3184 213.9231 213.9740 213.9740
   214.1145 215.8893 215.8893 216.1771 216.8012 216.8012 217.5199 218.4956
   218.4956 219.2505 219.2505 219.3062 219.5286 219.9593 219.9593 220.2692
   220.2692 220.3685 220.6488 220.8093 220.8093 221.4824 221.4824 221.8028
   222.1303 223.1997 223.2320 223.2320 223.4727 224.0830 224.0830 224.3056
   224.3056 224.5242 224.5242 225.2663 225.3120 225.3120 225.5250 225.8051
   227.1174 227.7123 227.8278 227.8278 227.9414 228.0933 228.0933 228.3276
   228.3276 228.7394 228.9138 228.9138 229.5792 229.9129 229.9129 230.1167
   230.1167 230.6793 230.6793 230.8622 230.8899 231.2305 231.2810 231.2810
   231.4337 231.6469 231.8466 231.8466 232.3043 232.3043 233.1014 233.1014
   233.1969 233.5049 233.6411 233.6411 233.9449 234.4877 234.5259 234.5259
   234.6668 236.1878 236.1878 236.9014 236.9014 237.4763 238.3538 238.3538
   238.5143 238.5944 238.5944 239.3113 239.3113 240.4470 240.5140 240.5140
   240.8902 240.9623 240.9623 241.2502 241.2876 241.2876 241.6651 242.0998
   242.0998 242.2928 242.3149 242.3149 242.3189 243.2018 243.8270 243.8270
   244.2349 244.2673 244.2673 244.4261 244.5411 244.5411 244.7825 245.1673
   245.1673 246.0063 246.3855 246.3855 246.5754 247.0568 247.0568 247.3912
   247.3912 247.5355 248.1598 248.1598 248.2168 248.3434 248.4575 248.4575
   248.6882 248.8458 248.8458 249.4825 249.7990 249.8840 249.8840 249.9887
   250.1795 250.1795 250.7697 250.7697 251.4513 251.4529 251.4529 251.6828
   252.1775 252.1775 252.7225 252.9334 252.9334 253.0081 253.0862 253.0862
   253.1272 254.3365 255.2346 255.7306 255.7306 256.3784 256.6214 256.6214
   256.7404 256.7404 257.1366 257.6263 257.6263 257.9729 257.9729 258.3277
   258.8475 258.8475 258.9185 259.2729 259.2729 259.6557 260.2367 261.1124
   261.1124 261.4370 261.4909 261.4909 262.0067 262.1739 262.1739 262.3436
   263.0380 263.0380 263.2383 263.2383 263.3068 263.3366 263.3366 263.5661
   263.7822 263.9102 264.1546 264.1546 264.7264 264.7264 265.3119 265.3584
   265.3584 265.9078 265.9078 266.6577 266.8446 266.8446 266.9137 267.1638
   267.2820 267.2820 267.4713 268.2054 268.2054 268.5236 268.5236 268.6162
   268.9146 268.9146 269.5244 269.5654 269.6960 270.1303 270.1303 270.5003
   270.5003 270.5242 270.5652 271.6668 271.6668 272.2134 272.2758 272.2758
   272.4729 272.7721 272.7721 272.8128 273.3224 273.3224 273.6795 273.6795
   273.7134 273.7289 273.8476 273.8476 273.9414 274.2946 274.2946 274.8741
   274.8741 275.4217 275.6776 275.7668 275.7675 275.7675 276.9593 277.9324
   277.9324 277.9944 278.1377 278.1936 278.1936 278.4333 278.4333 278.9031
   278.9031 279.0942 279.1643 279.1643 279.4564 279.4564 279.8804 280.0267
   280.0267 280.1145 280.1145 280.2805 280.4412 280.6006 280.6006 280.6494
   280.9334 280.9334 281.0184 281.5393 281.5393 281.6805 281.8157 283.0055
   283.0055 283.8242 283.8242 284.0572 284.0572 284.1133 284.2712 284.7517
   285.5120 285.5120 286.0566 286.0566 286.3132 286.3132 286.6778 286.7879
   287.0008 287.0008 287.0489 287.1513 287.2811 287.2811 287.6887 287.6887
   287.7177 287.7177 287.7629 287.8652 288.4990 288.4990 288.7909 288.7909
   288.8599 289.8831 289.8831 290.1932 290.2841 291.2805 291.2805 291.5297
   293.1948 293.1948 293.2784 293.8651 293.8651 294.8854 295.4446 295.4446
   295.5295 295.6112 295.6112 295.6525 296.1470 296.1470 296.2979 297.6632
   297.6632 297.9718 298.0984 298.0984 298.5112 298.5983 298.5983 299.2749
   299.6404 300.2378 300.8553 300.8553 300.9161 300.9803 300.9803 301.9593
   302.3145 302.3145 303.0006 303.0006 304.0360 304.0360 305.1076 305.1076
   305.1421 305.5329 305.5329 305.9276 306.5625 307.8881 308.2120 308.2120
   308.2498 309.0744 309.1531 309.1531 309.2573 309.3741 309.3741 310.0102
   310.0102 310.6407 310.6407 310.6520 311.3628 312.1804 312.1804 312.6779
   312.6779 313.5147 313.5460 313.5460 313.7762 313.7762 313.9148 314.6140
   314.7943 314.7943 315.5621 315.8312 315.8312 315.8898 315.9176 315.9176
   315.9610 316.1606 316.4120 316.4120 317.3056 317.3056 317.8872 317.8872
   318.1805 318.2268 318.2268 318.6547 318.7014 318.7014 318.9922 318.9922
   319.0196 319.2523 319.5937 319.5937 319.7111 319.8290 320.4351 320.4351
   321.1349 321.1349 321.7781 321.9846 322.4649 322.4649 322.7810 323.1691
   323.1691 323.4194 323.5465 323.5841 323.5841 323.8421 323.8421 324.5994
   324.7404 324.7404 324.8310 325.7824 326.5767 327.4237 327.4237 327.8013
   328.0662 328.0662 328.0923 328.0923 329.1654 329.1654 329.4143 329.4143
   329.4477 329.4509 329.5550 329.5550 329.6531 330.0042 330.0042 330.1170
   330.1600 330.1600 330.4301 330.4981 330.4981 330.7840 330.8468 330.8468
   330.9210 331.1411 331.1411 331.1666 332.1442 332.1442 332.1714 332.1999
   332.1999 332.3577 332.3577 332.4929 332.6184 332.6528 332.6528 333.0258
   333.0258 333.0298 333.1159 333.4380 333.9026 333.9026 334.2409 334.8175
   334.8175 334.9533 334.9533 334.9933 335.0450 336.0186 336.0186 336.0474
   336.2183 336.2183 336.2999 337.7057 337.7057 338.1048 338.1048 338.6170
   338.7535 338.7535 338.7986 339.0326 339.2197 339.2197 339.3034 339.3139
   339.3675 339.3675 339.6547 341.2572 341.2572 341.4780 341.7319 341.7319
   342.1154 342.1154 342.5082 342.5082 342.5790 342.6590 342.8873 342.8873
   343.0609 343.1669 343.2740 343.2740 343.5593 343.6109 343.6109 343.6248
   343.7755 343.7755 344.5764 344.6074 344.6074 345.2527 345.2527 345.3161
   345.8755 345.8755 345.9887 345.9887 346.0989 346.1083 346.2715 346.2715
   346.4655 346.4655 346.4675 346.5653 346.9777 347.0589 347.0589 347.6591
   347.6591 348.1286 348.1286 348.3621 348.5209 348.5471 348.5471 348.6084
   348.6084 348.6980 349.1121 349.1121 349.1301 349.2206 349.2364 349.2364
   349.3708 349.4099 349.4099 349.6465 349.7079 349.7115 349.7115 350.8273
   350.8273 351.0467 351.1023 351.1023 351.2403 351.2403 351.2511 351.3786
   352.5803 352.5803 352.7174 353.9364 353.9664 353.9664 354.2738 354.2738
   354.3022 354.7297 354.9668 354.9668 355.1992 355.5601 355.5601 355.9273
   355.9273 356.2212 356.2667 356.2667 356.3452 356.3723 356.3723 356.5059

          k =-0.2500 0.2500-0.2500 (  3040 PWs)   bands (ev):

   -28.2864 -28.2864 -28.2735 -28.2734 -28.2734 -27.8393  -9.8707  -9.8149
    -9.8149  -2.7572   5.1819   6.2547   6.2547  10.1070  10.9109  10.9109
    11.9299  12.2090  12.2090  15.1275  16.2361  16.2361  16.6335  18.9989
    18.9989  20.7203  22.9247  22.9247  23.1041  23.5303  23.5303  26.5565
    26.9177  28.6300  28.6300  29.3275  29.3275  30.0519  30.4359  30.4359
    30.5045  31.3763  33.2208  33.2208  34.8003  35.0681  35.4793  35.4793
    36.5231  36.6798  36.6798  38.2891  38.2891  38.9949  39.3709  39.3709
    41.1640  41.3861  41.3861  41.4120  43.0425  43.0425  43.5465  44.1922
    46.2138  46.7339  46.7339  47.1167  47.1167  49.3779  49.5500  49.5500
    51.4550  51.4550  53.3951  53.8537  53.8537  54.1432  54.8735  54.8735
    55.0778  55.9497  55.9497  56.1041  56.1494  57.7499  57.9261  57.9261
    59.9892  60.4259  60.4259  61.2746  62.5565  62.5565  62.9108  62.9108
    62.9999  63.8167  65.6414  65.7621  65.7621  66.0431  66.0431  66.2883
    66.2883  66.6309  67.0810  67.0810  67.2881  67.9043  67.9043  68.1093
    69.5448  70.3600  70.3600  71.3760  71.3760  71.5303  71.5973  71.5973
    73.1684  73.4320  73.4320  73.6156  75.1516  75.1516  76.2326  76.2326
    76.4610  76.7669  77.0706  77.5376  77.5376  78.2463  78.5377  78.7917
    78.7917  79.3678  79.3678  79.7302  80.3958  80.3958  80.9917  82.7465
    82.7465  82.8205  83.6337  84.2845  84.2845  85.0360  85.3262  85.3262
    85.9706  86.4482  86.4482  86.5518  87.7322  87.7322  88.6149  88.6149
    89.0688  89.9551  91.5109  91.8512  91.8512  92.5495  92.5495  93.8763
    93.8870  94.1712  94.1712  95.0378  95.0378  96.2592  96.2592  96.5097
    97.1281  97.1281  97.7876  98.5072  98.9953  99.5410  99.8430  99.8430
   101.0771 101.0771 101.5084 101.5084 101.6784 101.9229 102.6870 102.6870
   102.7147 103.3311 103.3311 104.0222 104.4264 104.4264 105.0529 105.6336
   105.6336 106.1049 106.1049 106.5626 107.0358 107.9031 108.4258 108.4258
   110.2633 110.2633 110.8001 111.8583 111.8583 112.3326 112.3326 112.6468
   113.1877 113.5094 113.5094 113.6532 113.7521 113.7521 114.0763 114.2832
   114.2832 114.5132 114.5132 115.0986 115.0986 115.1227 115.8561 116.2542
   116.2542 116.5934 116.5934 116.6256 116.7103 117.5184 118.0949 118.0949
   118.3909 119.3046 120.4813 120.4813 120.5843 120.6246 120.6246 120.7851
   121.6607 121.6607 121.7452 122.3684 122.4011 122.4011 123.0098 123.0098
   123.6609 123.6609 124.6000 124.8232 124.8232 124.9330 125.1406 125.1406
   126.3633 126.5405 126.5405 127.6174 127.6455 128.3158 128.3158 128.3523
   128.9200 128.9200 129.0191 130.2432 130.2432 130.9852 130.9852 132.5084
   133.1046 133.1046 133.6135 133.6135 134.0098 134.2272 134.2780 134.5937
   134.5937 134.7637 134.7848 134.7848 134.9708 135.0257 135.0257 135.1806
   135.7088 135.7088 136.3968 136.5124 136.5124 136.9567 138.9664 138.9664
   139.2389 139.2389 139.4525 140.0520 140.3530 140.3530 141.0066 141.0066
   141.4432 141.8813 143.3901 143.3901 144.2019 144.2019 144.5972 144.6155
   144.6155 144.9378 146.5968 146.8193 146.8193 147.6620 147.6620 147.8484
   148.5281 150.1894 150.1894 150.2065 150.3894 151.0155 151.0155 151.7929
   151.7929 152.9552 152.9552 153.0124 153.3992 153.4272 153.4272 153.6316
   153.7948 153.7948 154.3546 154.3546 154.3875 154.5099 154.7408 155.1239
   155.1239 156.2118 156.7763 156.7763 157.8968 157.9560 157.9560 158.4664
   158.9496 158.9496 159.5869 159.6717 159.8752 159.8752 160.5068 160.6835
   160.6835 160.9794 161.1535 161.1535 162.1000 162.1000 162.6241 162.6241
   162.6744 162.7338 162.7338 163.0917 163.4123 165.2732 165.2732 166.9551
   166.9551 167.7988 167.7988 168.1117 168.5142 168.5142 168.5513 169.8580
   169.9225 169.9225 170.2530 170.7759 170.7759 171.1812 171.2329 171.2929
   171.2929 171.5052 171.5052 171.7832 171.8440 172.2128 172.2128 172.2629
   172.2629 172.3502 172.6386 173.3690 174.4016 174.4016 175.1325 175.1325
   175.8936 175.8936 176.6254 177.0317 177.0317 177.3040 177.3040 177.3105
   177.5826 177.5937 177.5937 178.2483 178.2483 178.3650 178.3650 178.5177
   178.5946 178.8843 179.0232 179.0232 180.0573 180.3458 181.1128 181.3125
   181.3125 181.7190 181.7190 181.7250 182.1237 182.1237 182.4878 183.1014
   183.1014 183.5869 183.5869 183.6669 183.8936 184.7312 185.0775 185.0775
   185.5302 185.8449 185.8449 186.5751 186.5751 186.7220 186.7220 186.8139
   187.2941 187.3247 187.3247 187.3356 187.4427 187.4427 187.4583 188.6182
   188.6182 188.7961 189.5682 189.5952 189.5952 190.5313 190.5313 190.8490
   190.9192 190.9192 190.9528 191.3220 191.5068 191.5068 192.3154 192.3298
   192.3298 193.2661 193.3124 193.3124 194.4241 195.4316 195.9768 196.0947
   196.0947 196.5315 196.5315 196.7001 197.1674 197.1674 198.3672 198.3672
   198.4338 199.2077 199.2077 199.8046 200.0190 200.0190 200.4958 200.6439
   200.6439 201.0426 201.2101 201.2101 201.8325 201.8325 202.4698 203.1112
   203.1112 203.6155 203.6155 203.9165 203.9419 204.1907 204.5928 204.5928
   205.1251 205.1251 205.6802 205.6802 206.0622 206.1885 206.3895 206.3895
   206.7246 206.7246 206.8184 206.8184 207.2167 207.6765 207.6765 207.8110
   207.8110 207.8441 208.1436 208.1436 208.3498 208.4770 208.5792 208.8395
   209.2193 211.1766 211.2945 211.2945 211.9915 213.2070 213.2070 213.5061
   213.5061 213.9949 214.0965 214.0965 214.7574 215.5852 215.5852 215.8509
   215.8509 216.0437 216.2198 216.2198 216.6189 217.8159 217.8159 218.1227
   218.3315 218.3315 218.6788 218.7127 218.7127 219.3817 219.7805 219.7805
   220.1468 220.4556 220.4556 221.0586 221.7569 223.0560 223.0560 224.2951
   224.2951 224.6485 224.6717 224.6717 224.6984 225.1898 225.7537 225.7537
   226.0805 227.1549 227.1549 227.6511 227.6511 227.9325 227.9325 227.9944
   228.0424 228.7796 228.9641 228.9641 229.4040 229.4040 229.6618 229.6618
   230.3297 230.4465 230.7496 230.7496 231.3128 231.6205 231.9144 231.9144
   232.2624 232.3973 232.3973 232.5491 232.6323 232.6323 232.8594 232.9284
   232.9284 233.0154 233.0154 233.0249 233.2991 233.2991 233.6165 233.8080
   234.4769 234.4769 234.6908 235.0883 235.0883 236.0323 236.1711 236.1711
   236.3459 236.9567 236.9567 237.5360 238.3097 238.8940 238.8940 239.7687
   240.4809 240.5562 240.5562 240.5669 241.1138 241.1138 241.2625 241.2872
   241.2872 242.2511 244.5835 244.5835 244.7552 244.7552 244.9729 244.9729
   245.0973 245.4703 245.5886 245.7723 245.7723 246.4810 246.4810 246.6433
   246.6433 246.8957 247.3213 247.3948 247.3948 247.4771 247.6878 247.6878
   247.7713 247.7713 247.8211 248.9326 249.2154 249.2154 249.6705 249.6705
   249.9280 249.9280 250.6028 251.4241 251.4241 251.4748 251.4748 251.5196
   251.6004 252.2226 252.2226 252.3389 252.3493 252.3493 252.4849 252.4849
   252.7071 252.7795 253.1641 253.2618 253.6528 253.6528 253.9267 253.9267
   254.7822 254.7822 254.8925 254.8925 255.0016 255.1504 255.2490 255.2594
   255.2594 255.3282 255.4927 255.4927 255.6045 256.9345 257.0087 257.0087
   257.0556 257.0556 257.0925 257.2400 257.6189 257.6189 257.7479 257.7479
   257.8347 258.1188 258.9035 258.9035 259.1286 259.1286 260.0536 260.0894
   260.0894 260.3372 260.6000 260.6000 260.6095 263.8238 264.1549 264.1549
   264.4295 264.4823 264.4823 265.5709 265.5709 265.7072 265.9000 265.9000
   265.9331 266.0093 266.0158 266.0158 266.0486 266.0486 266.3195 266.4401
   266.4401 266.7605 267.5599 267.5924 267.5924 267.7661 268.3206 268.3206
   268.4205 268.7076 268.7076 268.9160 269.4181 269.4181 270.2270 270.2270
   270.2856 270.6337 270.8999 270.8999 270.9247 270.9247 271.0607 271.2008
   271.2008 271.8405 272.1600 272.1600 272.5470 272.6784 272.8696 272.8696
   273.0981 273.2893 273.2893 273.6721 275.0149 275.0149 275.1500 275.1607
   275.1607 275.8636 276.3805 276.3805 276.4952 276.7955 276.7955 276.8902
   277.8522 277.8522 278.3802 278.4730 278.4730 279.6084 279.6609 279.6609
   279.8039 279.8039 280.5733 280.8887 280.8898 280.8898 281.1059 282.0405
   282.1838 282.1838 283.1564 283.3611 283.3611 283.4264 283.4264 283.5031
   283.5031 283.5046 283.7757 284.4738 284.8055 284.8055 285.1902 285.1902
   285.2432 285.6795 285.6795 285.9504 286.1794 286.3781 286.3781 286.7423
   286.7423 286.8825 287.1524 287.1524 287.2322 287.4350 287.4350 287.6541
   287.7695 287.7695 287.7748 287.9216 288.0036 288.0036 288.0168 290.8330
   290.8330 291.1928 291.1928 291.7637 291.7637 291.7773 291.8420 291.9617
   292.2078 292.2078 293.6314 293.6314 293.6845 295.0775 295.1210 295.1415
   295.1415 295.2352 295.2352 295.4094 295.4094 295.6341 295.6341 295.6620
   295.9462 296.2821 296.5389 296.5389 296.6815 296.6815 296.6890 296.7575
   298.3218 298.3218 298.6700 299.0910 299.0910 299.3485 299.3485 299.3715
   300.2205 300.2205 301.3789 301.3789 301.8824 302.5492 302.5492 302.5680
   302.8296 302.9895 302.9895 303.1710 303.2091 303.2091 303.2132 303.3478
   303.3478 303.5004 303.5004 303.6104 304.6439 304.6439 304.6808 305.6030
   305.6889 305.6889 306.0489 307.2710 307.3644 307.3644 308.2622 308.4910
   308.4910 309.2220 309.2220 309.2482 310.9219 310.9893 310.9893 311.4583
   311.7233 311.7233 312.5658 312.7844 312.7844 312.9032 313.3874 313.3874
   313.6479 314.3295 314.6959 314.6959 315.1796 315.1796 315.3120 315.3120
   315.5395 315.8221 315.8221 316.0571 316.3350 316.4210 317.0074 317.0074
   317.1518 317.1518 317.2685 317.7120 317.7120 318.1787 318.1787 318.2251
   318.7251 318.7251 319.3264 319.3982 319.3982 319.5399 319.7497 319.7497
   320.2104 320.2104 320.3137 320.8216 321.2181 321.2181 321.3109 321.3222
   321.3222 321.5061 321.5077 321.5077 322.1257 322.3381 322.3381 322.3528
   322.5838 322.5838 322.7443 323.4768 323.4768 323.6121 323.6781 323.6781
   323.7429 324.3512 324.3512 324.9438 325.9155 325.9155 325.9590 326.6421
   326.6507 326.6507 326.6791 326.6791 326.7260 326.7484 326.7886 326.7886
   326.9114 326.9114 327.4371 328.2418 328.2418 329.0549 329.2080 330.3863
   330.3863 330.9810 331.0339 331.0339 331.1446 331.1786 331.1786 331.3036
   331.6834 331.6834 331.7035 331.8404 331.8404 331.9391 332.1293 332.1293
   332.1514 332.2727 332.2727 332.4812 333.3430 333.3430 333.5651 334.8785
   334.8785 335.1105 335.2879 335.2991 335.2991 335.5469 335.5469 336.2982
   336.4031 336.4031 336.8254 336.9841 336.9841 337.0132 337.2675 337.2675
   337.3518 337.7880 338.3991 338.3991 339.3410 339.3429 339.5688 339.5688
   339.9435 339.9435 340.0925 340.0925 340.4300 340.8105 340.8105 340.9975
   341.4319 341.4319 341.4999 341.9642 341.9642 341.9735 342.4546 342.6122
   342.6122 342.7396 342.7396 343.1379 343.1379 343.1975 343.3094 343.6630
   343.6630 343.6775 343.6775 343.7354 344.1256 344.1891 344.1891 344.9768
   345.5953 345.5953 345.6818 346.0030 346.0326 346.0326 346.1130 346.8775
   347.3907 347.3907 347.8570 347.8570 347.8647 348.1327 348.2242 348.2242
   348.2293 348.7143 348.9135 348.9135 349.8925 349.8925 350.7696 350.7696
   351.1281 351.1281 351.3450 351.3450 351.3759 351.4781 351.5114 351.5114
   351.5925 351.6382 351.6382 351.7569 352.7686 353.0473 353.0473 353.1671
   353.4901 353.4901 353.8807 353.9078 353.9078 354.0337 354.0337 354.1138
   354.1821 354.5194 354.5194 354.6990 354.6990 354.8881 354.8881 355.0313
   355.0511 355.3926 355.5849 355.5849 356.1116 356.1116 356.4477 356.9897
   357.4378 357.4378 358.1238 358.1238 358.3891 358.3891 358.5755 358.6886

          k =-0.3750 0.3750-0.3750 (  3031 PWs)   bands (ev):

   -28.2864 -28.2864 -28.2734 -28.2733 -28.2733 -27.8379  -9.9105  -9.8166
    -9.8166  -2.5399   4.4070   5.9354   5.9354  10.4165  11.6568  11.6568
    12.4221  13.3087  13.3087  14.9490  14.9490  15.0240  18.0912  18.1873
    18.1873  20.6440  21.6968  22.5949  22.5949  23.9457  23.9457  26.7115
    27.3067  28.0950  28.0950  28.6116  29.0007  29.0007  29.7582  30.6527
    30.6527  30.9891  34.2280  34.2280  34.2671  35.1027  35.5257  35.5257
    37.0727  37.2142  37.2142  37.5610  37.5610  37.9853  40.1345  40.1345
    42.8841  43.3335  43.3335  43.6778  44.1044  44.1044  44.4578  45.2584
    45.4443  45.4443  47.5076  47.8515  47.8515  50.2482  50.2501  50.2501
    51.0587  51.0587  51.0936  51.3718  51.3718  52.3007  53.1757  53.1757
    54.5609  54.9160  54.9160  55.5158  56.4662  57.3913  57.3913  58.1679
    58.4018  59.4986  60.5935  60.5935  61.3725  61.3725  62.3899  62.3899
    62.3899  64.0980  64.0980  64.3933  65.2048  65.9180  65.9180  67.0181
    67.5241  67.5241  67.7566  68.3290  68.3290  68.9937  68.9937  69.3837
    69.6039  69.6039  69.6228  71.3225  71.4692  71.4692  72.1706  72.1706
    72.9588  74.0446  74.6445  74.6445  74.9845  75.3105  75.5730  75.5730
    76.7672  76.7672  77.3378  78.5722  79.7511  79.7511  79.9464  79.9464
    80.6714  80.6758  80.6758  81.0101  81.0101  81.5083  82.3414  82.3414
    82.4311  82.5217  83.3377  83.3377  83.9997  84.1479  84.1479  85.0450
    86.1506  86.1506  86.5303  87.2929  88.4528  88.4528  89.3715  89.6022
    89.6022  90.6262  91.1193  91.1193  91.8500  91.8500  92.6234  93.6003
    93.7207  94.9832  95.6655  95.6655  96.6200  96.6200  96.8042  96.9241
    96.9241  97.2682  98.0321  98.0321  98.5475  98.5475  98.8213  99.6062
    99.8980  99.8980 100.1440 100.2762 100.2762 100.2818 101.0617 101.0617
   102.2874 102.2874 102.5817 102.5817 103.4980 103.6269 104.0741 104.8877
   104.8877 105.5428 107.3988 107.3988 108.1243 108.1243 108.4537 108.4537
   108.4830 109.2245 109.2245 109.6725 110.2646 111.0324 111.0324 111.1260
   111.3088 112.0424 112.3523 112.3523 112.8176 113.3440 113.3440 114.4314
   114.4314 114.7218 114.9667 115.1712 115.1712 115.6989 115.6989 116.0363
   116.0901 116.0901 116.7164 116.7164 117.1143 117.7718 118.6547 118.6547
   119.5426 119.5426 119.7603 120.8511 120.8511 120.9694 121.4190 121.4778
   121.4778 122.0002 122.0002 122.0189 122.5567 123.0068 123.0068 123.5847
   123.5847 124.1341 124.4780 124.9047 124.9047 125.1281 125.6633 125.6633
   126.0033 126.0033 126.2310 126.9265 128.2747 128.2747 129.2497 130.1452
   130.6533 130.6923 130.6923 131.1956 131.1956 131.2733 131.5400 131.5400
   132.5639 132.5639 132.7583 132.8645 133.5964 134.1303 134.1303 135.0600
   135.6086 135.6275 135.6275 136.8323 136.8323 137.4899 137.4899 138.0014
   138.6781 138.6781 138.9787 139.2564 139.2564 139.2604 139.5929 139.8511
   139.8511 140.2310 140.2457 140.2457 141.1594 141.1594 141.6573 142.2498
   142.5813 142.5813 143.7201 143.7201 143.8314 145.5770 145.5770 146.3964
   146.3964 146.3976 146.6876 146.6876 146.9627 147.6146 147.7056 147.7056
   148.1341 148.6251 148.7223 148.7223 149.6215 149.6215 150.3201 150.3464
   150.3464 151.1582 151.5050 151.5050 151.7769 152.1537 152.1537 152.1806
   153.2386 153.9654 153.9654 154.6240 154.6240 154.6930 155.7325 155.8516
   155.8516 157.2442 157.2442 157.9381 157.9381 157.9669 157.9915 157.9915
   158.3627 158.3786 158.3786 158.9687 158.9687 159.0132 159.4338 159.8533
   160.2810 160.2810 160.4805 160.9353 161.1301 161.1301 161.5278 161.9626
   161.9626 162.5521 162.6252 162.6252 163.0223 163.9859 163.9859 164.5278
   165.2263 165.3415 165.3415 165.7863 165.7863 166.7102 166.8014 166.9853
   166.9853 167.8533 168.8196 168.8196 169.3081 169.3081 170.3214 170.3214
   170.3581 170.6937 170.6937 171.5674 171.7332 171.7332 171.9938 172.3037
   172.3037 172.3767 172.6937 172.6937 173.0446 173.0446 173.8267 173.8267
   173.9212 174.0568 175.3190 175.5580 175.5580 175.8747 176.1267 176.1267
   176.1486 176.2335 176.2335 176.2937 176.9931 177.3745 177.3745 177.9056
   177.9056 178.9451 179.5918 179.5918 179.6528 180.3855 181.3094 181.3094
   182.2978 182.6836 183.1530 183.1530 183.7833 183.7833 183.8442 183.8442
   183.9610 184.4841 184.7676 184.7676 184.7779 186.1264 186.1264 186.1364
   186.3469 186.5703 186.5703 186.6823 187.0111 187.0111 187.8289 188.1127
   188.1127 188.1814 188.1814 188.2814 188.3227 189.3074 189.3358 189.3358
   190.3521 190.3521 191.1034 191.1034 191.2387 191.9860 192.1454 192.1454
   192.7058 192.7058 193.1622 193.1622 194.0595 194.1894 194.5669 194.5669
   194.7176 194.7176 195.0733 195.0733 195.2423 195.4364 196.6198 196.6198
   196.7829 196.8928 196.8928 197.0810 197.3553 197.4438 197.4438 197.9763
   198.9625 198.9625 199.6785 200.4036 200.4036 200.7277 200.9938 200.9938
   201.6028 201.6028 201.7337 202.2810 203.0233 203.0233 203.5508 203.5588
   203.6716 203.6716 203.7637 203.7637 203.9680 204.0866 204.0866 204.3356
   205.3541 205.7063 205.7063 207.1976 207.1976 207.5057 207.6783 207.6783
   207.9760 208.5906 208.6256 208.6256 208.8866 208.9152 208.9152 209.2440
   209.2440 209.2550 209.4087 210.1141 210.1865 210.1865 210.4124 211.2143
   211.2143 211.4156 211.4156 211.8216 212.3892 212.3892 212.8173 213.0379
   213.0379 213.9400 213.9400 214.3799 214.9632 215.1915 215.2837 215.2837
   216.2346 216.2554 216.2554 217.2007 217.2007 217.4034 217.4034 217.5003
   218.1669 218.1669 218.4018 218.7357 218.7357 218.7874 219.1025 219.2816
   219.2816 219.4227 219.5242 219.9183 219.9183 220.4036 220.8597 220.8597
   221.0439 221.0439 222.3394 222.3394 222.5053 223.0086 223.4364 223.4364
   224.2365 224.4833 224.4833 224.5278 225.2999 225.2999 225.9232 225.9232
   226.0306 226.1994 227.3032 227.3032 228.2138 228.5860 228.5860 228.6864
   228.6864 228.9444 229.3451 229.4396 229.5211 229.6640 229.6640 229.7474
   229.7474 231.0585 231.0585 231.4530 231.8059 231.8059 231.9822 232.1610
   232.1610 232.3665 232.6137 233.8184 233.8184 234.3480 234.8050 234.8050
   235.5077 235.5077 236.9778 237.0714 237.0714 237.1732 237.1732 237.2316
   237.3548 238.1599 238.1599 238.2455 238.5436 238.5610 238.5610 238.6952
   239.7826 239.7826 240.8868 240.8868 241.5618 241.6642 241.8736 241.8736
   242.7310 243.2593 243.2593 244.9724 244.9724 245.1366 245.1366 245.5884
   245.7668 245.7668 246.1741 246.2931 246.2931 246.4403 246.4992 246.4992
   246.5712 246.5921 246.9091 246.9091 246.9482 247.1205 247.3538 247.3538
   247.6443 247.6443 247.7455 248.6288 248.6378 248.6378 248.7501 248.7501
   248.8706 249.4845 249.7190 249.7971 249.7971 250.0259 250.3122 250.3122
   250.3330 250.5612 250.5612 250.8490 250.9645 250.9645 251.1772 251.6148
   252.0351 252.0351 252.4687 252.4687 252.7726 253.2374 253.2374 253.4375
   253.5684 253.5684 253.5996 253.5996 254.0543 255.1468 255.1468 255.8803
   255.8803 256.1357 256.1357 256.2930 256.5479 256.6310 257.5170 257.5170
   257.8032 258.1577 258.1577 258.4274 258.4274 258.4948 258.9554 258.9554
   258.9591 259.4920 259.4920 259.5979 259.6707 259.8240 259.8240 260.1503
   260.1503 260.8161 261.1540 261.1540 261.4423 262.1986 262.1986 262.3149
   262.3149 262.4078 262.7861 263.3784 263.3784 263.6763 263.6882 263.6882
   264.3082 264.4929 264.4929 264.7669 266.1850 266.1850 266.6385 266.6385
   266.8979 267.3589 267.3589 267.5714 268.0034 268.0034 268.6789 269.0969
   269.0969 269.5006 269.7484 270.4163 270.4163 270.4732 270.8442 270.8442
   271.2511 271.2511 271.6377 271.8191 272.2531 272.2531 274.1568 274.4236
   274.4236 274.5576 274.6981 275.0289 275.0414 275.0414 275.0942 275.2205
   275.2205 275.5274 275.5274 275.7053 275.7053 275.7815 275.8457 275.8457
   275.8986 275.9214 276.7364 276.7364 276.8864 278.0632 278.0632 278.3223
   278.4208 278.4208 278.4337 278.5643 279.3965 279.3965 279.7306 280.2490
   280.2490 280.6433 280.6433 281.1224 281.1224 281.1401 281.1401 281.2416
   282.8180 282.8180 283.0427 283.2012 283.2012 283.2122 283.7285 283.9075
   284.0485 284.0485 284.2992 284.3139 284.8166 284.8166 285.5136 285.5567
   285.5567 285.8672 285.8672 286.5236 286.6850 286.7013 286.7013 286.7357
   286.7373 286.7373 286.9028 286.9028 288.9204 288.9204 289.3834 289.3834
   289.4604 289.4604 289.4935 289.6175 289.9098 290.7682 291.0829 291.0829
   291.2260 292.2131 292.8601 292.8601 292.9259 292.9275 292.9275 293.0945
   293.0945 293.3328 293.9145 293.9145 294.2272 295.2525 295.2525 295.4336
   295.5767 295.5767 295.6764 295.7511 295.9312 295.9312 296.1361 296.1361
   296.2310 296.2310 296.3829 296.6376 296.9067 296.9067 297.1660 297.7886
   297.7886 297.8812 299.8387 299.8387 300.0279 300.2923 300.2923 300.8021
   302.2253 302.5874 302.5874 303.3164 303.3164 303.4013 303.8128 303.8128
   303.9199 304.2472 304.2472 304.2532 304.3080 304.7709 304.7709 304.8440
   304.8440 304.9224 305.7839 305.8301 305.8301 306.5644 307.1424 307.1424
   307.4151 307.6318 307.6318 307.9770 308.0202 308.7269 308.7269 309.3904
   309.3904 309.7290 309.9188 309.9188 310.3134 310.3134 310.7747 310.7747
   310.8882 311.2340 311.3598 311.6957 311.6957 311.8549 311.8549 311.9460
   312.1470 312.1470 312.3175 312.6958 312.6958 312.6979 312.8625 312.9597
   312.9597 313.0201 313.4106 313.4106 314.3874 314.3874 314.4694 314.5672
   314.5672 314.8659 315.2429 315.2429 315.5775 315.5775 315.7758 315.7758
   315.9201 316.0850 316.5550 316.8491 317.0661 317.3118 317.3118 317.3582
   317.3582 317.5068 318.2741 318.2741 318.6423 318.6423 319.2149 319.2207
   319.2207 319.3092 319.4676 319.8141 319.9800 319.9800 320.4310 320.4310
   320.6900 320.7071 320.7071 320.7816 321.1068 321.1068 321.2167 323.1743
   323.1743 323.4910 323.6836 323.9145 323.9145 324.3762 324.3763 324.3763
   324.5652 324.7157 324.7157 324.7883 324.9943 324.9943 325.1383 325.7945
   325.7945 326.0808 327.8530 327.8530 328.0317 329.0804 329.0804 329.6886
   329.6886 330.0764 331.3768 331.3768 331.4669 331.9698 331.9698 331.9771
   332.7427 332.9376 332.9376 333.2427 333.3705 333.3705 333.4685 333.5016
   333.5016 333.6273 333.8970 333.8970 334.1320 334.2448 334.4149 334.4149
   334.6506 334.6506 334.7371 334.9606 334.9606 335.1443 335.4466 335.4466
   335.5651 335.6616 335.6616 335.7602 335.8408 335.8408 336.7384 336.7384
   336.9586 336.9586 337.3678 337.3678 337.3830 337.4591 337.4591 337.5779
   337.7200 337.7536 337.9403 337.9403 337.9973 338.3526 338.3526 339.8498
   339.8498 339.9964 340.6419 341.4028 341.4028 341.6798 341.7454 341.7454
   342.0093 342.0093 342.4276 342.5218 342.5218 342.8010 343.9570 344.4177
   344.4177 344.4845 344.7512 344.7512 344.8345 345.0123 345.0123 345.2576
   345.4675 345.4675 346.1629 346.1629 346.2704 346.3263 346.3263 346.3272
   346.4484 346.4569 346.4803 346.4803 346.5176 346.5176 346.6109 346.7033
   346.7033 346.7567 348.7860 348.9070 348.9070 349.2685 349.2685 349.6076
   349.6076 349.6343 350.4426 350.5165 350.5165 350.7330 350.9415 351.4221
   351.4221 352.0327 352.2224 352.2224 352.4772 352.4772 352.9169 353.0780
   353.3455 353.3455 353.3838 354.6902 354.6902 355.4975 355.4975 355.5335
   355.5791 355.5791 355.5809 355.8273 355.8273 355.9794 357.2993 357.2993
   357.4087 357.4173 357.4173 357.5850 357.6249 357.6249 357.7953 357.7953
   357.8983 358.0467 358.2346 359.9419 359.9625 359.9625 360.2842 361.4804

          k = 0.5000-0.5000 0.5000 (  3040 PWs)   bands (ev):

   -28.2864 -28.2864 -28.2734 -28.2733 -28.2733 -27.8374  -9.9267  -9.8172
    -9.8172  -2.4443   4.1213   5.8192   5.8192  10.7225  12.0309  12.2182
    12.2182  13.5039  13.5039  14.6473  14.6473  15.7706  17.5868  17.5868
    18.9583  19.1662  22.3698  22.3698  23.2464  24.1183  24.5820  24.5820
    27.1845  27.1845  28.1681  28.6037  28.7430  28.7430  28.8235  31.8097
    31.8097  32.6856  33.8058  34.2248  34.2248  34.6547  34.6547  35.2302
    36.0341  36.9028  36.9028  37.5336  40.1107  40.1107  40.1722  40.1722
    41.6670  41.6670  42.6491  45.7856  45.7856  45.8818  46.2502  47.0697
    47.0697  47.0846  47.0846  47.1462  47.6804  47.7023  47.7023  47.7899
    49.2996  49.2996  50.4700  50.9574  52.8695  52.8695  53.0903  54.5016
    54.5016  56.1083  56.1083  56.5833  56.5833  56.8511  57.4014  57.4014
    57.6644  57.7771  58.7020  59.2333  60.9279  60.9279  61.7724  62.4966
    62.4966  63.8253  63.8316  64.0574  64.0574  66.5047  66.5047  66.6715
    66.7960  66.7960  68.7205  68.7205  69.2203  69.3552  69.4029  69.4029
    70.3364  70.3924  70.3924  71.6099  71.9410  71.9410  72.0036  72.1114
    72.1963  72.1963  73.8063  73.8063  74.8435  76.3595  76.3595  77.2604
    77.3742  77.4701  77.4701  79.0271  79.0271  79.0817  80.4354  80.4354
    80.6901  80.6901  81.0920  81.9622  81.9622  82.1013  82.3210  82.3541
    82.3541  83.0138  84.4460  84.4583  84.4583  85.7588  85.7588  86.2712
    86.2712  86.5290  87.7249  88.0157  88.0659  88.1667  88.1667  88.3232
    89.0316  89.0316  89.8828  89.8828  92.3685  92.5297  93.1319  93.1319
    93.5116  93.5116  94.6379  94.7895  94.7895  94.9784  95.1794  95.2220
    95.2220  97.3862  98.0268  98.0268  98.2597  98.2597  99.2298  99.8872
    99.8872 100.3352 100.4183 100.7330 101.3147 101.3147 101.3528 103.3796
   103.3796 103.4221 103.4221 104.3112 104.4644 104.4644 105.1293 105.1293
   105.2078 105.3033 106.2011 106.4480 106.4480 106.8695 106.8695 108.0366
   108.3373 108.3373 108.7316 108.7316 109.0370 109.1298 109.1298 111.0638
   112.0848 112.1878 112.1878 112.2377 113.3646 113.3646 113.7079 113.7079
   114.7528 114.7528 114.9034 115.2927 115.3722 115.3984 115.3984 115.5755
   115.5755 116.0724 116.0724 117.0088 117.0635 118.1682 118.1682 118.4546
   118.4546 118.8998 118.9114 119.2876 119.5614 119.5614 120.8329 121.1265
   121.1265 121.3266 122.2335 123.1148 123.1148 124.7925 124.7925 125.7801
   125.9031 125.9031 126.2561 126.4151 126.6423 126.6423 127.1789 127.1789
   127.3008 127.3414 127.3414 127.4236 127.4236 127.5579 127.6772 127.9658
   128.2000 128.6100 128.6100 128.7202 128.7202 129.4188 130.4784 130.4784
   130.5874 130.9939 130.9939 133.1860 134.3401 134.3401 135.5997 138.3201
   138.3201 138.5384 138.5384 139.2311 139.2311 139.3887 139.3887 139.4576
   139.5569 139.7564 139.7688 139.8410 140.2937 140.2937 140.5909 140.8655
   140.8655 141.1162 141.1162 141.1951 142.7184 143.1413 143.6060 143.6060
   143.7583 144.0048 144.1475 144.1475 144.4380 144.4380 144.5124 144.5124
   144.5894 145.2325 145.3451 145.3451 145.7701 145.9604 145.9604 146.2962
   147.1243 147.1243 149.3268 149.3268 149.3516 149.3516 149.8285 149.8285
   150.6588 150.6618 151.7806 151.7806 152.6186 153.9911 153.9911 154.0122
   154.5966 154.5966 154.7220 154.7220 155.3455 155.5650 155.5650 155.7617
   155.7803 155.7803 156.0323 156.0323 156.1904 156.2825 156.2825 156.4764
   157.2693 157.3280 157.7950 157.7950 158.0307 158.0536 158.0536 158.2644
   158.7192 159.3411 159.3411 159.6098 159.6098 159.9075 161.0636 161.0636
   161.5486 161.5486 161.8366 161.9940 162.3762 162.3762 165.0696 165.1509
   165.5153 165.5153 165.8646 165.8646 166.8721 166.8721 167.0642 167.0642
   167.4279 167.4634 167.5402 167.8158 167.8158 169.0980 169.5389 169.5389
   169.9964 170.4472 170.8267 170.8267 171.0953 171.2934 172.1523 172.1523
   172.7035 172.7035 173.1500 173.3644 173.6871 173.6871 173.8459 173.8501
   173.8501 173.8672 175.4680 175.4680 175.6086 175.6086 175.6523 175.9343
   176.4659 176.4659 176.6588 176.7323 176.7687 176.7687 177.4093 177.8546
   177.8571 177.8571 178.8897 178.8897 179.9573 179.9573 180.3860 180.3860
   181.5573 181.5573 182.2992 182.6559 182.9312 182.9312 184.1029 184.1029
   184.9513 185.0887 185.0887 185.3047 185.3047 185.4829 186.9579 186.9579
   187.6611 187.6768 187.6768 187.7255 187.9086 188.0636 188.0636 188.3748
   189.4025 189.4025 189.4819 189.5257 189.5257 189.6718 189.9324 189.9324
   190.1707 190.1707 190.5732 190.6163 190.6440 191.5691 191.5691 192.1782
   192.2174 192.2174 193.6381 193.6381 193.6490 193.8378 194.1808 194.1808
   195.3938 195.3938 197.1901 197.2772 197.9348 197.9348 198.0420 198.0616
   198.0616 198.6479 198.8147 198.8147 198.8152 198.8653 199.1969 199.1969
   199.2916 199.2916 199.6753 199.6753 199.7893 199.7893 200.1067 200.2001
   200.8994 201.3116 201.5783 201.5783 201.8035 201.8035 202.1706 202.3876
   204.0459 204.2218 204.4508 204.4508 204.6895 204.6895 204.9506 204.9506
   205.1238 205.1238 205.8763 205.8943 206.1222 206.4538 207.1497 207.1497
   207.1519 207.1519 207.3653 207.3653 207.3932 207.3932 207.9155 207.9289
   210.9733 210.9733 211.7193 211.7374 211.8146 211.8146 211.8845 211.8845
   212.6331 212.6331 212.9694 213.2949 213.4894 213.4894 213.8830 213.8830
   214.2470 214.2490 214.2591 214.2591 214.6848 214.6848 215.0772 215.8943
   215.8970 215.9809 215.9809 216.1359 216.1359 216.5413 217.4710 217.4710
   218.0638 218.0638 218.3366 218.8746 219.0396 219.0828 219.0828 219.3006
   219.3006 219.7595 220.7250 220.7250 220.8635 220.9417 220.9417 221.0839
   221.7354 221.7354 222.0783 222.0783 222.6155 222.6862 222.6969 223.0665
   223.4653 223.4653 223.5629 223.5629 223.8568 223.8568 223.9278 223.9278
   223.9840 225.1537 227.2892 227.2892 227.8675 227.8941 227.9879 227.9879
   228.4194 228.4194 228.4447 228.4447 229.6235 229.7139 230.0844 230.0844
   230.1735 230.1750 230.3086 230.3086 230.3288 231.9133 231.9133 231.9173
   231.9173 232.2750 232.3517 232.3517 232.4939 232.5829 232.6874 232.6874
   235.0623 235.0754 235.9293 235.9293 235.9303 235.9303 236.1805 236.1807
   239.5002 239.5002 239.7621 239.7621 241.4625 241.4625 241.4695 241.4695
   242.3791 242.6479 242.7449 242.7449 242.7869 242.8740 242.8740 242.9777
   243.0199 243.0199 243.1573 243.3578 243.3578 243.7346 243.8610 243.8610
   244.1243 244.1243 244.3381 244.5522 244.5550 244.5550 244.5679 244.5679
   244.7315 244.9786 246.5075 246.5075 246.5862 246.5862 246.8181 246.8992
   246.9507 247.0030 247.0885 247.0885 247.2060 247.2060 247.4272 247.4272
   247.5993 247.5993 248.0015 248.0193 248.1196 248.5664 248.5664 248.6011
   248.6011 248.8442 249.4998 249.4998 249.5207 249.5207 249.6127 249.6475
   251.6698 251.6698 251.6970 251.8627 251.8627 252.2644 254.9698 254.9698
   255.0566 255.0566 255.4182 255.4828 256.3498 256.3498 256.8202 256.8202
   257.4138 257.9857 258.0006 258.0312 258.2786 258.2786 258.3821 258.3821
   258.7890 258.7890 258.9420 258.9420 259.0857 259.1618 259.2355 259.7222
   259.7222 259.8904 260.0514 260.0514 260.8792 260.8792 260.9871 260.9871
   261.1268 261.3387 261.5175 261.7752 262.2821 262.2821 262.6030 262.6030
   263.3684 263.3684 263.4184 263.4473 263.5951 264.0520 264.1459 264.1459
   265.9816 265.9816 266.0704 266.0704 266.6403 266.8033 267.0061 267.0061
   267.2314 267.2314 267.5558 267.5654 268.3905 268.3905 268.9834 268.9834
   269.1569 269.1569 269.4295 269.4295 269.7245 269.9539 271.3642 271.3642
   271.4329 271.9486 272.3795 272.3795 272.5053 272.5053 272.8914 273.4813
   273.8091 273.8091 274.3769 274.3769 274.6376 274.6376 275.1594 275.2186
   275.2186 275.2305 275.2305 275.2515 275.2926 275.6973 275.6973 275.7132
   275.7132 276.0009 276.0287 276.1251 276.7120 276.7120 276.9473 276.9473
   277.0142 277.1224 277.4659 277.4659 278.4700 278.4700 279.4765 279.5692
   279.6299 279.6299 279.9542 279.9542 280.8396 280.8826 280.8826 280.9134
   280.9352 280.9352 282.2174 282.6785 285.1455 285.1565 285.4870 285.4870
   285.6556 285.6556 285.7335 285.7335 285.8276 285.8554 285.9124 285.9124
   286.1303 286.1303 286.2840 286.2840 286.7146 286.7426 288.1669 289.3728
   289.3728 289.3935 289.5727 289.5765 289.5765 289.5836 289.6032 289.6032
   290.2907 290.2907 291.7166 291.7166 291.8259 291.8259 291.9246 291.9309
   292.2350 292.2855 292.2855 292.4217 292.4584 292.4584 293.8568 293.8568
   294.6784 295.1850 295.1850 295.6853 295.6853 295.7262 295.7262 295.8717
   295.8717 295.9753 295.9763 296.5838 297.0013 297.0823 297.0823 297.3779
   297.4805 297.6032 297.6238 297.7966 298.0647 298.0647 298.0755 298.0755
   300.6828 300.6828 301.0350 301.0884 301.0884 301.2317 301.6086 301.6086
   301.7693 301.7693 302.0612 302.0886 302.3630 302.3630 302.6121 302.7958
   302.7958 302.7994 303.2080 303.2647 303.2647 303.4227 303.4234 303.4234
   303.5136 303.5136 303.6153 303.6153 304.0455 304.0654 304.1404 304.1514
   304.4388 304.4388 304.4738 304.4738 307.5035 307.5035 307.8001 307.8001
   307.9014 307.9173 308.3007 308.3007 308.4535 308.4535 308.5838 308.5838
   309.2337 309.2337 309.6942 310.9958 310.9958 311.7614 312.7986 312.7986
   313.6745 313.6843 313.7166 313.7166 313.8255 313.8255 314.2673 314.2673
   314.3298 314.3298 314.3460 314.3460 314.4938 314.4975 314.5882 314.9491
   314.9491 315.2239 315.2239 315.3251 315.3447 315.6058 316.0278 316.9913
   316.9913 317.2682 317.6584 317.6584 317.9098 317.9098 318.0771 318.0771
   318.1283 318.7788 319.0837 319.1725 319.3026 319.3175 319.3175 319.3829
   319.3829 319.7318 319.7318 319.7463 319.7463 319.8615 319.9503 320.0065
   320.0065 320.0333 320.1783 320.4116 320.4860 320.4860 321.6675 321.6675
   321.9665 322.0555 322.0555 322.5367 322.5367 322.6110 323.3745 323.3745
   325.8369 325.8369 326.3891 326.3891 326.6102 326.7001 327.0330 327.0330
   327.3297 327.3297 327.4606 327.4786 328.1114 328.1114 328.1353 328.1353
   328.4748 328.4748 328.5360 328.5360 328.6481 328.6489 330.1329 330.1332
   330.6717 330.6717 331.4332 331.4332 331.7476 332.0013 332.0013 332.8748
   333.1699 333.2428 333.2428 333.2611 333.2611 333.3410 333.7766 334.0796
   334.0796 334.3147 334.3147 334.6558 334.9874 334.9874 335.1275 335.1656
   335.1656 335.2674 335.3462 335.3462 335.5808 335.7274 335.7592 335.7592
   335.9410 335.9410 336.0962 336.1104 336.4922 336.5522 336.5522 336.6543
   336.6543 336.6708 337.6021 338.2698 338.6090 338.6090 339.0894 339.0894
   339.1652 339.3605 341.3492 341.3492 342.7446 342.7446 343.6817 343.6817
   344.1774 344.2019 344.2019 344.3272 344.4184 344.4639 344.7041 344.7041
   345.1617 345.4877 345.4877 345.6414 345.6857 345.6857 345.7014 345.7014
   345.7963 345.8636 346.0019 346.0019 346.0123 346.0123 346.0473 346.0831
   346.4256 346.4256 347.3233 347.3233 347.3944 347.3944 347.5576 347.5966
   347.7502 347.7502 347.7934 347.7934 347.8609 347.8609 347.8659 347.8738
   347.8738 348.0113 348.2610 348.2610 348.3196 348.3196 348.8292 348.8292
   348.9404 348.9616 349.2640 349.6094 349.6094 349.6192 349.6193 349.6495
   349.6495 349.6843 352.9164 352.9164 353.2442 353.2442 353.3191 353.3338
   357.0789 357.0789 357.2591 357.8133 357.8133 358.2087 358.2087 358.7105
   358.7105 358.7110 358.7848 358.8183 358.8724 359.3347 359.3347 359.7985
   359.7985 359.8475 359.8547 359.8547 359.9171 359.9171 359.9211 359.9489

          k = 0.0000 0.2500 0.0000 (  3035 PWs)   bands (ev):

   -28.2865 -28.2863 -28.2736 -28.2735 -28.2735 -27.8403  -9.8278  -9.8172
    -9.8172  -2.9383   6.0057   6.6866   6.6866   9.8523  10.1643  10.7203
    10.7203  10.9226  11.8873  15.0538  16.9712  17.2636  17.2636  19.0434
    20.2418  20.2418  21.4879  21.9813  24.7688  24.8241  25.5109  26.0501
    26.0501  26.8342  26.8342  30.1604  30.2873  30.2873  30.4957  30.8189
    33.5809  33.5809  33.7672  33.8164  33.8164  34.0807  34.8806  35.1198
    35.8600  36.5390  36.5390  36.6626  37.9109  38.4209  39.6932  39.6932
    40.3318  40.7628  40.8147  40.8147  41.5106  42.4292  42.4292  44.4918
    44.6689  45.0728  45.1227  45.1227  48.0045  49.0027  49.0027  50.8815
    52.3130  53.1014  54.2750  54.4988  54.4988  55.3970  55.8867  55.8867
    56.6192  57.6869  57.8198  57.8198  59.0309  59.7749  59.7749  60.3416
    60.3416  60.8620  60.9507  60.9908  61.4546  62.0492  62.0492  62.2104
    63.7429  63.8009  63.8074  64.7692  64.8779  64.9035  64.9035  65.4587
    65.4587  66.4349  67.0463  67.3416  67.3416  67.6672  68.4374  68.5192
    69.3826  69.3826  69.7396  69.7396  70.4968  70.8794  70.8794  70.9256
    73.3130  73.7855  73.8955  74.6421  74.6421  74.9439  75.0248  75.0248
    75.0821  76.1959  76.3993  76.4644  76.4644  76.7536  79.4120  79.5163
    79.5163  79.9039  80.6275  80.6275  81.7717  82.7144  82.7146  83.0765
    83.0765  83.6291  83.6291  84.3695  84.4107  84.6895  84.9102  85.1840
    85.4654  85.4654  85.4660  85.9793  86.5151  86.5151  86.9859  87.9890
    87.9890  88.0407  89.2851  90.2234  91.6871  92.0856  92.0856  93.4128
    93.4128  93.6442  93.7660  94.2550  94.6814  94.6814  95.5166  95.5166
    96.3083  97.0873  97.3925  98.3056  98.3056  99.1580  99.5083 101.5475
   101.5475 101.6270 102.6464 104.1604 104.1777 104.1777 104.8421 104.8421
   104.8459 105.2952 105.5760 105.5760 105.8890 106.0527 106.1707 107.0294
   107.0294 107.0521 108.2545 109.1602 109.2058 109.2058 110.4903 110.5206
   111.0539 111.0539 111.1739 111.8616 111.9765 111.9765 112.2668 112.3340
   112.3818 112.7935 112.8777 112.8777 113.0038 113.0038 113.7648 114.2501
   114.4856 114.4856 114.8076 115.0395 115.0395 115.1154 115.6900 116.0285
   116.1061 116.1061 117.2287 117.2287 117.7510 117.7510 117.9030 118.4815
   118.8575 119.1298 119.6750 119.6750 119.8012 120.1914 120.7101 121.2514
   121.3309 121.3309 121.7163 122.6540 122.6540 122.9512 123.3414 123.4366
   123.6236 123.6236 123.8535 123.9069 124.3554 124.7139 125.0963 125.1789
   125.1789 125.4464 125.4464 125.5928 126.5486 126.7133 126.7133 126.8804
   126.8804 126.9622 127.3935 127.9291 128.6308 128.8802 128.8802 130.1573
   130.1801 131.7116 131.7116 132.3986 133.5069 133.7992 133.8582 133.8582
   133.9610 134.7238 134.7238 135.0279 135.1946 135.1946 136.0506 136.1676
   136.4183 136.4183 137.1448 137.1841 137.2928 137.2928 138.1538 139.3682
   139.7596 139.7596 140.2438 140.6167 140.9745 141.0324 141.0324 141.4464
   142.0865 143.2131 143.3502 143.4431 143.4431 144.5374 144.5374 146.4136
   146.4136 146.9197 147.1753 147.2417 147.2594 147.4342 147.4342 147.4881
   147.6433 147.6752 147.6752 148.4417 148.6210 148.6210 149.2207 149.2602
   149.2602 149.8514 150.0121 150.5506 150.5995 152.0878 152.1086 152.2234
   152.2234 152.8493 153.5739 153.5739 153.8059 155.0990 155.0990 155.7951
   156.9300 156.9300 157.7142 158.1761 158.1761 158.6318 160.0685 160.0685
   160.2013 160.6602 160.8120 161.1771 161.8260 161.8260 162.1324 162.2695
   162.3610 162.3784 162.3784 162.5346 162.7445 162.7445 162.9097 164.6568
   165.1179 165.8454 165.9401 165.9401 166.4014 166.9041 166.9041 167.8611
   167.8611 168.0031 168.3378 168.4676 169.3814 169.3814 169.4957 169.8032
   169.9264 169.9700 169.9700 170.0105 170.2305 170.3726 170.3726 170.6791
   172.1475 172.7068 172.7068 173.4919 173.5858 173.6645 173.6645 173.7505
   174.2361 174.6613 174.7705 174.7705 175.0628 175.5676 175.5676 175.8187
   176.6822 176.7873 177.0921 177.0921 177.7860 177.7860 177.9004 178.1208
   178.2603 178.2603 178.2678 178.4947 178.6669 178.6669 178.7899 178.7899
   179.0110 179.0364 179.2599 180.1199 180.5994 180.7060 180.7060 180.9023
   180.9785 181.7890 181.7890 182.8315 182.8315 183.0525 183.1582 183.3827
   183.6349 183.6349 183.6434 184.1820 184.5464 184.9475 184.9618 184.9907
   184.9907 185.1649 185.9260 186.0569 186.0569 186.4500 186.4500 186.5147
   186.7573 186.9670 186.9670 187.2736 187.9550 187.9550 188.0604 188.0736
   188.3299 188.4792 188.4792 189.2969 189.2969 189.4599 189.8072 189.8963
   190.1266 191.1326 191.1326 191.3753 191.3794 191.5123 191.6873 191.8632
   191.8632 191.9904 192.3511 192.5309 192.5309 192.9722 193.1664 193.1664
   193.3260 193.3945 193.6054 193.8325 193.8325 194.3248 194.3248 195.1643
   196.0611 196.7267 196.7267 196.7758 197.0360 197.0360 197.1121 197.1444
   198.0738 198.1654 198.1654 198.7455 198.9664 199.0781 199.0781 199.6320
   199.6320 201.3677 201.4774 201.6453 202.1113 202.1113 202.3460 202.7741
   203.2873 203.2873 203.3793 204.4848 204.4848 204.5010 204.7170 204.7275
   205.2456 206.4114 206.4114 206.5143 206.7821 206.7821 207.3665 207.8889
   208.3970 209.9893 209.9893 210.9837 211.2567 211.3053 211.9580 211.9580
   212.7059 212.8345 213.5784 213.5784 213.7948 214.3310 214.7824 214.7824
   214.8110 215.5121 215.8062 215.8062 216.9094 216.9962 217.1578 217.8722
   217.8722 218.1512 218.1512 218.4699 219.1791 219.3462 219.3462 219.4836
   219.5091 219.8176 219.8176 219.9715 220.5682 220.5868 221.2669 221.2669
   221.6202 221.9581 222.0751 222.3022 222.3022 223.4388 223.4532 223.4532
   223.5799 224.2782 224.6222 224.6222 224.7475 224.8372 224.8372 224.9725
   225.2884 226.4602 226.6126 226.6126 226.9019 227.0130 228.1614 229.0228
   229.0773 229.0773 229.1784 230.4119 230.4119 230.9137 230.9137 231.1746
   231.3340 231.5843 231.6765 231.7540 231.7540 232.5845 232.5845 232.6687
   232.7540 233.8383 233.9405 234.2337 234.2337 234.2863 234.3117 234.5356
   234.5356 234.6674 234.9085 234.9085 234.9528 235.0943 235.1154 235.1154
   235.1809 235.1809 235.3831 236.5436 237.0570 237.1847 238.0776 238.0776
   238.1049 238.4189 239.0145 239.0145 239.0257 239.4186 239.6733 239.6733
   239.8050 239.8919 240.0483 240.0646 240.0646 240.3905 240.4486 240.4486
   240.4945 240.6130 240.6130 240.8493 241.1177 241.8036 242.0208 242.1447
   242.1447 242.8609 242.9193 242.9193 242.9813 243.4380 243.7846 243.8417
   243.8417 244.0786 245.1889 246.3443 246.6864 246.6864 247.0222 247.0222
   247.1324 247.4662 247.6434 248.0260 248.1480 248.3246 248.3246 248.7656
   249.9507 250.5361 250.5361 251.0438 251.0438 251.0882 251.2447 251.5039
   251.5824 252.3800 252.3800 252.5333 252.5333 252.5506 252.5718 252.6461
   252.6461 252.9883 252.9883 253.0120 253.5725 253.7575 254.7113 254.7800
   254.7800 254.8975 254.8975 254.9137 256.4254 257.6311 257.7581 257.8396
   258.1065 258.2313 258.2313 258.2900 258.2900 258.5199 258.5199 258.7542
   259.2210 259.3361 259.3361 259.4498 259.6699 259.6897 259.8102 259.8102
   260.1596 260.4322 260.4322 260.5055 260.5852 261.0157 261.0157 261.5235
   261.5394 261.5394 261.6377 261.6842 262.2512 262.3663 262.7435 262.8432
   262.8432 262.9696 262.9696 263.1003 264.8021 265.1534 265.9319 266.0274
   266.0274 266.1110 266.1110 266.1117 266.2381 266.2611 266.6213 266.6549
   266.6549 266.8022 266.8259 267.4811 267.4811 268.1947 268.5162 268.5405
   268.5405 268.6648 269.0041 269.3036 269.3036 269.5526 270.0415 270.5235
   270.5235 271.1079 271.3162 271.3162 271.5606 271.6855 272.1028 272.1392
   272.1392 272.2358 272.3994 272.6880 272.6880 273.4024 273.6693 273.8492
   273.8492 273.9230 274.1415 274.1415 274.2178 274.5449 275.5662 275.5687
   275.5766 275.5949 275.5949 275.6258 275.6444 275.6444 275.9170 276.8405
   277.1299 277.1299 277.2277 277.7729 277.8625 277.8625 278.2049 278.2049
   278.6583 278.8979 278.9010 279.1200 279.1200 279.4022 279.4022 279.7801
   279.7818 280.4785 280.5681 280.5681 280.6484 281.9643 282.2030 282.2391
   282.2391 282.3363 282.9477 282.9829 282.9829 283.0541 284.4222 284.4222
   284.4804 284.5479 284.7173 284.7173 284.7426 284.7771 284.7771 284.8416
   284.8517 284.8739 285.0027 285.2180 285.2180 285.6267 285.7345 285.8584
   286.6073 286.6073 286.6825 287.2548 287.2548 287.4821 287.7302 287.7302
   288.0901 288.2824 288.3288 288.4012 288.4012 289.2099 289.9257 289.9257
   290.9520 291.3833 291.4689 291.4800 291.4800 292.5740 292.5740 292.6953
   292.7497 292.8081 292.8948 293.1987 293.1987 293.4124 293.6498 293.6498
   293.7184 295.1560 297.2350 297.2350 297.2956 298.7563 298.8053 299.2237
   299.2237 299.4374 299.5277 299.5343 299.5343 300.3018 300.3829 300.5380
   300.5380 300.7828 300.7828 302.0919 302.2099 302.2099 302.2371 302.3690
   302.3698 302.9245 303.8389 304.1090 304.1090 304.1192 304.1490 304.2095
   304.6708 305.2158 305.2158 305.4926 305.5000 305.5000 305.5186 306.2850
   307.7192 307.7192 307.7350 308.2823 308.3981 308.3981 309.2817 309.3696
   309.3696 309.5265 309.8203 309.9262 309.9262 309.9494 309.9815 309.9815
   309.9912 310.5856 310.7846 311.0588 311.8087 311.8087 311.9602 312.6002
   313.5823 313.5823 313.6742 314.6229 315.8990 315.9662 315.9662 316.6876
   317.5559 318.0641 318.0641 318.0876 318.2765 318.3111 318.3111 318.4063
   318.4063 318.7161 318.9269 318.9553 319.0826 319.1286 319.1286 319.1726
   319.7555 319.7555 319.9523 319.9523 320.0909 320.7471 320.7471 321.4274
   321.8357 321.8357 322.1405 322.1452 322.3142 322.3475 322.3475 322.4189
   322.5247 322.7670 322.7670 322.7848 322.7848 322.8793 322.8889 322.9014
   322.9014 323.0511 323.5096 325.2798 325.7409 326.1924 326.2448 326.5575
   326.5575 327.7000 328.2052 328.2052 328.3635 328.7394 328.7748 328.7748
   329.1125 329.7357 329.8191 329.9922 329.9922 330.0469 330.1153 330.4198
   330.4198 330.6639 330.6644 330.8344 330.8894 330.8894 331.0634 331.0831
   331.2055 331.2055 331.3881 331.4700 331.4700 331.5062 331.6999 331.9718
   332.0348 332.0348 332.2109 332.2577 332.2733 332.2733 332.7059 334.4904
   334.7612 334.7612 334.8070 335.1244 335.1244 335.1310 335.2366 336.9639
   336.9736 337.1901 337.1901 337.3917 337.3917 337.4130 337.4317 337.4763
   337.5261 337.5261 337.6816 338.0514 338.2272 338.2272 338.2654 338.4868
   338.5204 338.5204 338.5637 338.6059 338.6397 338.6397 338.6485 339.5682
   340.0500 340.0500 340.1973 340.2184 340.3771 340.3838 340.9680 340.9680
   341.2753 341.2753 341.8051 342.1675 342.2088 342.2088 342.2476 342.2738
   342.3349 342.3567 342.3567 342.5749 342.5749 342.5910 342.6489 342.7030
   342.7563 342.7563 342.7687 342.8563 343.2030 343.2030 343.2105 343.2191
   343.4324 343.5017 343.5017 343.6145 344.2427 344.2427 344.2510 344.7691
   344.9022 344.9022 344.9414 345.1036 345.1061 345.3126 345.6446 345.6446
   346.4625 346.4625 346.4993 347.2883 347.2883 347.3418 347.3431 349.3858
   349.3858 349.4076 349.4585 349.4785 349.4983 349.5197 349.5227 349.5227
   349.5518 349.5518 349.5625 350.9955 350.9966 350.9966 351.5053 353.2771
   353.2771 353.4046 353.9626 354.0943 354.2548 354.2548 354.2896 354.4739
   354.4739 354.4808 354.6938 355.1136 355.1136 355.1198 355.1645 355.1645
   355.3434 356.0126 356.1727 356.3840 356.3840 356.4819 357.8674 357.8674
   357.8685 357.8741 357.9135 358.1252 358.1252 358.2128 358.7193 358.9278

          k =-0.1250 0.3750-0.1250 (  3030 PWs)   bands (ev):

   -28.2869 -28.2863 -28.2736 -28.2734 -28.2734 -27.8388  -9.8572  -9.8211
    -9.8181  -2.7933   5.3215   6.3196   6.4142   9.8010  10.6596  11.1203
    11.4314  11.5748  13.0210  15.3269  15.9302  16.3301  16.9485  18.6629
    20.2272  20.7441  21.4775  21.8631  23.9015  24.3486  25.0905  25.8417
    26.5683  27.0405  27.4254  29.3866  29.6731  30.2175  31.3729  31.8843
    32.1962  32.2080  32.8438  32.9132  33.6280  34.3295  34.9283  35.1752
    35.4413  36.8417  37.7480  37.8095  38.0385  38.6486  38.8431  39.6279
    40.9261  41.6722  41.8333  42.5846  42.8084  43.2239  44.5023  44.6981
    44.8370  46.3684  46.5449  47.5003  48.0124  48.1557  49.2054  49.5857
    51.0867  51.2342  52.1583  53.6064  53.8455  53.9229  54.7596  54.8362
    55.9185  56.4884  56.7115  57.1849  57.5236  58.4539  58.7770  58.8438
    59.4324  59.7039  60.9291  61.0003  61.6141  61.9026  62.1510  62.7419
    63.4610  63.6539  63.7269  64.4386  65.0222  65.6310  66.0613  66.4101
    66.6199  67.2421  67.8267  67.9015  68.3796  68.7347  68.8739  69.4542
    69.5251  69.8986  70.3267  70.5155  70.7430  70.8791  72.1425  72.4707
    72.8143  72.9584  73.7419  74.1996  74.2367  74.7384  75.1618  75.7125
    76.0443  76.0852  76.1917  76.5130  77.5468  77.7937  77.9217  78.8005
    78.8170  79.8653  80.3218  80.3599  81.0146  81.1546  81.6585  82.4022
    82.4261  83.3010  83.5986  83.9615  84.2682  84.6258  85.1941  85.6625
    86.1299  87.0560  87.9131  88.1350  88.7298  88.8545  89.4970  89.6498
    89.8716  89.9910  90.2357  90.2467  90.8794  91.3415  92.0949  92.3806
    93.2033  93.4035  94.0982  94.1815  94.6553  95.9886  96.2430  96.3314
    96.8896  97.0953  98.3749  98.6474  98.8789  99.4895  99.6005  99.6076
    99.7730 100.7526 101.2113 101.4664 102.1723 102.3527 102.9883 103.0834
   104.0969 104.2762 104.5630 105.2357 105.4272 106.2251 106.3070 106.3249
   106.3607 106.8235 107.0454 107.2513 107.6155 107.8171 108.1868 108.3917
   109.0971 109.1622 109.6176 110.3023 110.4516 110.5130 110.7044 111.1456
   111.5030 112.1446 112.3514 112.4962 112.7787 112.9519 113.4922 113.5796
   114.3833 114.5417 114.7298 114.8979 114.9053 115.1261 115.8602 115.8667
   116.3556 117.0846 117.3860 118.0913 118.8497 118.9320 119.1676 119.4098
   119.4790 119.6723 120.0272 120.1630 120.2732 120.9422 120.9480 121.1653
   121.8205 121.8772 122.1623 122.4569 122.9527 123.1562 123.4471 124.3179
   124.4674 124.8165 125.1515 125.3671 125.8416 126.1146 126.2935 126.3904
   126.6794 126.8647 127.1442 127.3784 127.3982 128.9003 128.9735 129.1562
   129.2999 129.3244 129.6275 129.8228 129.8315 129.9035 130.0449 130.2348
   130.8039 130.9317 131.3697 131.9575 132.0353 132.3837 132.6404 132.7342
   132.9300 133.6151 133.9689 134.1410 134.3635 134.6691 135.0510 135.4744
   136.0213 136.2260 136.5554 137.0541 137.9692 138.4381 139.4491 139.7281
   139.9128 139.9250 140.5093 140.7387 140.8512 141.7749 142.1716 142.2996
   142.3897 142.8521 143.0705 143.5794 143.6396 143.7642 144.3752 144.6681
   144.7338 145.8201 145.8928 146.4558 146.8255 147.0018 147.1164 147.4491
   147.7307 148.5762 148.7685 148.7804 149.7004 149.9099 149.9706 151.0793
   151.1882 151.8112 152.0621 152.2187 152.7448 152.8701 153.1966 153.3613
   153.8669 154.1623 154.1866 154.1919 154.3069 154.8482 155.6315 155.7000
   156.2527 156.3644 156.6500 156.8426 157.0456 157.8357 158.6693 159.0787
   159.2420 159.4626 159.9980 160.4608 160.5884 160.6858 160.8733 161.0566
   161.6106 161.9607 161.9979 162.5739 162.8129 162.9186 162.9554 163.7723
   164.1228 164.6168 164.9546 164.9922 165.1955 165.7201 165.7356 166.5568
   166.7532 167.2424 167.6904 167.8295 168.4621 168.5094 168.7213 168.7299
   169.1492 169.3197 169.6569 169.7630 170.0247 170.5651 170.9195 171.1073
   171.1363 171.2644 171.4328 171.4539 171.6243 171.7535 171.9828 172.0422
   172.4302 172.9055 173.1134 173.8387 173.9108 174.1557 174.9589 175.3385
   175.3936 175.4099 175.8485 176.2950 176.4405 176.7352 176.9635 177.3411
   177.7959 178.0888 178.0959 178.4602 178.6232 178.7153 178.7550 178.7856
   178.8698 179.0473 179.4592 179.9048 180.1349 180.2245 180.3619 180.5263
   180.5463 180.7987 181.5816 181.6484 181.7734 182.1924 182.8299 182.8702
   183.1434 183.2122 183.4783 183.4966 183.6820 183.9353 184.2687 184.9404
   185.2589 185.3621 185.6369 185.7770 186.0236 186.3951 186.7796 186.8068
   186.9713 187.2246 187.2879 187.3750 187.4388 187.6841 187.7430 188.2590
   189.3427 189.4809 190.0437 190.2489 190.4321 190.4804 190.5502 190.8496
   191.2503 191.3138 191.3691 191.5195 192.0159 192.3963 192.7906 193.1263
   193.1580 193.9129 194.2888 194.6971 195.5758 195.6172 196.0711 196.1406
[...]
   192.3722 192.4436 192.4780 192.6792 192.8376 192.9196 192.9853 193.8891
   194.7526 194.8169 194.9070 194.9880 195.0470 195.5678 196.2258 197.3437
   197.5076 197.8787 198.1545 198.4636 198.6413 198.7366 199.3751 199.4860
   200.0812 200.2563 200.4351 200.6119 201.2066 201.6955 201.8090 202.1579
   202.3342 202.7611 203.3892 204.1037 204.3566 204.4762 204.6595 205.2790
   205.2893 205.2947 205.5064 205.5246 205.6762 206.1102 206.4766 206.6676
   206.8056 207.2927 207.7850 208.1162 208.1709 208.3010 208.3147 209.1368
   209.1603 209.1859 209.5172 209.5393 210.0389 210.3066 210.3239 210.7250
   210.9272 211.0369 211.1437 211.1929 211.4051 211.6041 211.7131 211.7597
   211.9335 212.7757 213.1149 213.2037 214.1220 214.2896 214.3082 214.4999
   214.5675 214.8495 215.1064 215.5857 215.6877 215.8335 216.0952 216.1292
   216.4904 217.1084 217.1842 217.2032 217.2919 217.4188 217.5616 218.3655
   218.6580 218.8130 218.8638 218.9193 219.5931 219.6594 220.0253 220.2913
   220.4483 220.5822 220.6895 220.8155 221.3016 221.4188 221.4843 221.9667
   222.1132 222.3142 222.3185 222.5714 222.6860 223.0460 223.2007 223.4285
   223.6993 223.7181 223.7221 224.3691 224.4764 224.5772 224.9363 225.3082
   225.4368 225.5193 225.5298 225.6441 225.6828 225.9228 225.9451 226.6257
   227.1719 227.9095 228.2943 228.4815 229.0541 229.0846 229.2896 229.3255
   230.1859 230.3506 230.7676 231.3344 231.3977 231.5503 231.9024 232.1927
   232.2388 232.3537 232.5926 232.7805 232.8931 232.9976 233.1169 233.3027
   233.3536 234.6431 234.8424 235.1805 235.2224 235.2330 235.2751 235.4091
   236.1698 236.3095 236.3132 236.5305 236.5804 236.8699 237.0498 237.1110
   237.2896 237.6140 237.7594 237.8890 238.1783 238.2119 238.4591 238.6472
   238.7780 238.8085 239.2934 239.3078 239.4176 239.8469 240.7115 240.8218
   240.9411 241.3922 241.7453 242.3057 242.6333 242.8261 242.9128 242.9204
   243.8572 243.9404 243.9934 244.0254 244.3648 245.5477 246.0440 246.2208
   246.3572 246.4875 246.7902 246.8973 247.4517 247.4774 247.4798 247.6224
   248.0647 248.0710 248.8043 248.8190 248.8248 249.1334 249.5446 249.6042
   249.6345 249.8105 250.0261 250.0428 250.1474 250.6569 250.9066 251.2194
   251.2204 251.4572 251.7666 252.0607 252.3616 252.6696 252.8776 253.2609
   253.2827 253.9794 254.1686 254.5819 254.5901 254.7743 254.8425 255.5732
   255.6271 255.6808 255.7362 255.7842 256.2752 256.5773 257.0557 257.4741
   257.7209 258.0214 258.0711 258.1483 258.5622 258.6274 258.7766 259.0534
   259.1016 259.3650 260.4731 260.8250 261.6061 262.2241 262.2413 262.7029
   263.0814 263.2656 263.3648 263.5171 263.6025 263.7466 264.6038 264.6542
   264.9374 265.0518 265.2249 265.8250 266.1805 266.4032 266.4294 266.7107
   266.7513 266.9376 267.0584 267.2646 268.1286 268.6274 269.7674 269.9195
   270.3495 270.3832 270.4294 270.4571 270.6260 270.7593 270.8287 271.3811
   271.5138 271.6528 271.6781 271.7480 272.1037 272.4800 272.6571 272.6972
   272.7360 273.2584 273.5546 273.6565 273.8984 273.9040 273.9716 274.2499
   274.4886 274.5214 274.8204 275.1712 275.5445 275.7661 275.8127 275.8420
   275.9389 276.1048 276.1479 276.7285 276.7700 276.9908 277.5246 277.8731
   278.0072 278.1343 278.2340 278.4908 278.5519 278.5532 278.7736 278.9996
   279.8258 280.1668 280.2602 280.3350 281.6185 281.9626 282.1921 282.2289
   282.5263 282.6510 282.7343 283.2664 283.4888 283.4948 283.7322 284.1280
   284.1866 284.4247 284.4292 284.5891 284.6052 284.6902 284.7892 284.9540
   285.3109 285.4301 285.8971 285.9405 286.2985 286.3064 286.9406 287.0683
   287.5512 287.8735 288.1234 288.2593 288.5345 288.6648 288.8505 288.9130
   289.0405 289.2702 289.4537 289.6200 289.6535 289.7828 289.8718 290.0016
   290.0664 290.1435 290.3334 290.6377 290.6813 290.7245 290.7383 290.8327
   291.0873 291.5807 291.6463 291.6962 292.1044 292.2186 292.2273 293.2153
   293.6997 293.9529 294.0780 294.4282 294.7218 294.9415 295.1441 295.3462
   295.3824 295.6924 295.9150 296.2254 296.4287 297.1546 297.2232 297.5332
   297.6043 297.6087 297.8018 298.2941 298.3366 298.3873 298.4768 298.5433
   298.5703 298.5870 299.0811 299.1830 299.4137 299.5701 299.6064 300.2220
   300.5333 300.6957 300.8711 300.9317 300.9336 300.9454 301.2599 301.3793
   302.0919 302.5120 302.5307 302.5672 302.7706 302.9819 303.0560 303.4411
   303.6225 303.8195 303.8348 303.9211 303.9761 304.2997 304.4119 304.4418
   304.5440 305.0028 305.1437 305.5632 305.6804 305.6902 305.9300 306.0706
   306.1127 306.2076 306.5538 306.7200 306.8433 306.8707 306.9585 307.0048
   307.2360 308.1095 308.3433 308.5411 308.9759 309.0752 309.1411 309.3404
   309.4917 309.8206 310.1513 310.2013 310.3295 310.8012 311.0090 311.1494
   311.8575 311.9760 312.0904 312.7767 312.8156 313.3814 313.4227 313.5319
   313.6177 313.9071 314.1108 314.5124 314.6655 314.7617 315.3161 315.4255
   315.4341 315.8596 315.9695 316.2118 316.2358 317.3188 318.1531 318.1826
   318.2502 318.3138 318.9812 319.1724 319.6034 319.6056 319.8203 320.0291
   320.0615 320.0671 320.2467 320.2873 320.4925 320.4934 320.8777 320.9958
   321.0904 321.1973 321.4668 321.5396 322.2735 322.5150 322.5785 322.9412
   323.0173 323.2209 323.9664 324.0704 324.5172 324.5226 324.8390 325.0130
   325.3297 325.3349 325.8762 325.9253 326.0674 326.3988 326.5012 326.5035
   326.6127 326.7688 326.9116 326.9484 327.1662 327.1844 327.2231 327.4090
   327.7555 327.8218 327.9245 327.9770 328.0807 328.1586 328.1853 328.2004
   328.2311 328.5381 328.6921 330.1469 330.4923 331.1211 331.1274 331.5737
   332.2875 332.3225 332.4285 332.4360 332.4862 332.4945 332.7666 332.9656
   333.0150 333.0992 333.1496 333.3659 333.4204 333.4331 333.7859 334.0354
   334.1636 334.4948 334.5282 334.5495 334.6304 335.0535 335.0579 335.0811
   335.1432 335.2454 335.4163 335.7377 335.9380 337.0470 337.1465 337.3184
   337.4172 338.6478 339.0558 339.3632 339.5125 339.7058 339.7347 339.8031
   339.9070 340.4802 340.9054 341.2353 341.3286 341.4339 341.7582 341.8499
   342.4334 342.4958 342.7062 342.7146 342.8284 343.4977 343.8757 343.8799
   344.0019 344.4906 344.5796 344.5877 344.5971 345.0783 345.1755 345.3714
   345.6566 345.6622 345.7132 345.7991 346.0556 346.1500 346.3385 346.4948
   346.9815 347.4295 347.4673 347.5156 347.5464 347.8102 348.0760 348.9941
   349.1479 349.3194 350.1627 350.2431 350.2547 350.6397 350.7212 351.0905
   351.1734 351.3101 351.5685 351.6681 351.6915 351.7882 351.8490 351.9983
   352.3217 352.5025 352.5802 352.9261 352.9519 353.7481 353.8997 353.9135
   354.3436 354.5160 354.9756 355.1511 355.4031 355.4060 355.5121 355.6449
   355.7455 355.9343 356.2194 356.2525 356.2917 356.4191 356.4894 356.5406
   356.5786 356.8681 357.0430 357.2919 357.2942 357.3626 357.4533 358.0861
   358.1839 358.4889 358.7671 359.1730 359.3554 359.8144 359.8768 360.9609

          k =-0.5000-1.0000 0.0000 (  3052 PWs)   bands (ev):

   -28.2910 -28.2863 -28.2734 -28.2734 -28.2731 -27.8312  -9.8670  -9.8670
    -9.8507  -2.5183   5.3432   5.3432   5.4075  10.8173  10.8173  11.3048
    12.5402  13.0053  14.4006  15.0099  15.6282  15.6282  18.4464  18.4464
    18.4988  21.5746  21.9129  22.7433  22.7433  24.0893  24.0893  24.2949
    25.6800  25.6862  25.8240  26.4481  26.4481  29.8499  29.8499  30.6191
    31.9228  31.9891  34.8452  35.2210  35.6816  35.6816  36.1208  36.1208
    37.3287  38.0653  38.9698  39.1445  39.1445  39.1822  41.0918  41.0918
    41.3265  41.5962  42.9727  42.9727  43.1914  44.5392  44.5392  46.1583
    47.1598  47.1598  47.3363  48.2563  48.2596  48.8360  49.7509  50.0362
    50.0362  50.6553  50.9438  50.9438  52.1796  52.1796  52.2814  54.7253
    55.4002  56.0539  56.0539  56.3865  57.0893  57.0893  57.8558  57.8807
    57.9830  58.1562  58.2714  59.4031  59.4031  59.8712  60.0233  61.3042
    61.3042  61.7140  63.1879  63.2627  63.8318  63.8318  64.6784  64.9903
    65.1074  65.1074  65.9950  66.1141  66.1141  67.2939  68.5639  68.5639
    68.7418  71.6844  71.6844  71.6954  73.0057  73.2327  73.2327  73.9960
    75.3956  75.3956  76.2813  76.2813  76.2904  76.3861  76.9352  77.4925
    78.7285  78.7285  79.9520  79.9520  80.2002  80.3830  80.4454  80.7718
    81.3390  81.3390  81.5504  81.6923  83.6540  83.7436  84.5260  84.5849
    84.6021  84.6021  85.2724  85.2724  85.4172  85.5400  85.8436  87.3102
    87.3102  87.6374  88.4603  88.4695  88.8082  88.8082  89.1599  89.1599
    89.3636  89.5274  89.7983  89.8658  89.8658  91.0175  91.1465  91.1465
    91.3922  92.0712  92.7018  93.4919  93.4919  94.2003  96.2501  96.8797
    96.8797  96.8995  97.7840  97.8563  98.1364  98.1677  98.1677  98.3609
    99.7247  99.7517  99.7517 100.0091 100.3511 100.3634 100.3634 101.1030
   101.4934 101.4934 102.3619 102.5250 102.5250 102.5762 102.7312 103.3804
   103.3804 104.0964 104.0964 105.0360 105.0396 106.0506 106.0506 106.1672
   107.2973 107.5535 108.0824 108.0824 109.3788 109.3788 109.8792 110.2387
   111.0461 111.0461 111.6790 112.6860 113.5135 113.5135 114.1464 114.4676
   114.5503 114.7732 114.7732 115.0667 115.4118 115.9366 116.2428 116.2428
   116.5393 116.9657 117.4962 117.4997 118.0615 118.0615 118.2470 118.2470
   118.9121 119.2494 119.6994 119.6994 120.7058 121.2535 121.5545 121.9851
   121.9851 123.3069 123.3069 123.3253 124.0749 124.2662 124.3919 124.3919
   124.5753 124.8006 125.1470 125.2393 125.7820 125.7820 126.3323 126.6677
   127.1937 127.3821 127.3821 128.0403 128.3386 128.3386 129.1285 129.1285
   131.3165 131.8181 131.8842 131.9537 131.9537 132.9879 133.2248 133.3847
   133.3847 134.6406 135.1035 135.1479 135.1479 135.2159 135.5585 135.5585
   137.1649 137.2772 137.7073 139.2874 139.2874 140.1414 140.4082 140.4177
   140.4177 140.9058 140.9394 141.1655 141.2198 141.2198 141.6478 141.7091
   141.7091 141.7655 142.1602 142.2010 142.2143 142.2143 142.7697 142.7697
   143.1803 143.1803 143.2999 143.3404 144.2049 144.6414 144.6414 144.9254
   145.0355 145.3385 145.3385 145.4496 145.7886 146.1519 146.1519 146.2199
   146.3146 146.3974 146.3974 146.6786 147.0027 147.2574 147.2574 147.8405
   148.1297 148.1297 150.6931 151.5144 151.5848 152.6217 152.6217 153.2861
   153.3812 153.4259 153.8082 153.8082 154.1985 154.1985 154.2952 154.4585
   154.8386 154.8444 155.0750 155.0750 156.1831 156.1831 157.6055 157.6055
   157.7241 157.7824 157.9807 157.9950 158.0595 158.1306 158.3339 158.3339
   159.3191 159.3191 159.4169 160.4012 160.9551 161.0721 161.0721 161.2303
   161.4795 161.7290 162.5344 162.5344 162.7279 164.9185 165.1033 165.1189
   165.1189 165.2730 165.4620 165.4620 165.5230 165.8866 166.1232 166.1232
   166.2298 166.8974 166.9999 166.9999 167.1804 167.3010 167.4314 167.7907
   167.7944 167.7944 168.4767 168.4767 170.1149 170.1922 170.1922 170.4939
   170.9272 170.9357 171.1395 171.8488 171.8488 172.3108 173.7800 173.7800
   174.6957 175.4825 175.6270 175.6270 176.3851 177.2437 178.3823 178.3823
   178.6311 178.6767 178.7995 179.2749 179.2749 179.4894 179.8704 180.2632
   180.2632 180.3044 180.3639 180.4333 180.6158 180.9256 180.9256 181.0965
   181.0965 181.1855 181.3487 182.4197 182.4197 182.4512 182.7105 182.8529
   183.1304 183.1304 183.1876 184.3992 184.9985 185.8527 185.8527 186.2529
   187.0985 187.0985 188.3816 188.3816 188.4725 188.6891 189.0192 189.0455
   189.2789 189.2789 189.8663 189.8663 190.0879 190.5705 190.5705 190.9588
   190.9644 191.1972 191.6290 191.6290 191.7729 191.7729 192.0908 192.1490
   193.1957 193.1957 193.6273 193.6273 193.6894 193.7736 194.2210 194.2210
   194.3094 194.3855 194.4425 194.5590 194.9920 194.9920 195.7755 196.2304
   196.4372 196.4372 196.9770 197.2401 197.3662 197.3662 197.7319 197.7583
   198.1295 198.1295 198.4966 198.5412 198.5412 198.6947 199.0097 199.2625
   199.2625 199.2891 199.5571 199.6235 203.3040 203.3040 204.7066 204.7078
   204.9502 204.9502 206.4870 206.6142 206.9435 207.1779 207.6275 207.6275
   208.2233 208.2233 208.7426 208.9864 209.6672 209.6672 209.7397 209.8009
   209.9799 210.1437 210.1437 210.1788 210.7228 210.7228 211.0447 211.1086
   211.4283 211.4314 211.8010 211.8903 211.8903 212.0164 212.0164 212.1192
   212.4753 212.5512 212.5512 212.9827 213.9133 213.9143 213.9143 213.9694
   214.6192 214.6192 214.8734 214.9898 215.0298 215.0448 215.2715 215.2715
   216.7952 217.2032 217.2686 217.2686 217.5131 217.5768 219.7329 219.7329
   220.1388 220.1866 220.3746 220.4190 220.4190 220.9075 220.9075 220.9540
   221.0420 221.1470 221.4324 221.4324 222.0586 222.4129 222.4385 222.4483
   222.5316 222.5316 222.9558 222.9558 222.9805 223.0802 223.3010 223.3053
   223.3053 223.3881 224.2285 224.3737 224.3737 224.4423 224.7045 224.7045
   225.2040 225.2159 225.2827 225.2827 225.7398 226.2260 226.4028 226.4052
   226.7242 226.7242 227.0349 227.6485 227.6485 227.7881 229.3413 229.7578
   230.1964 230.1964 230.7272 230.7272 231.1938 231.4402 231.6018 231.7531
   231.7531 232.1580 232.9020 233.2148 233.2148 233.2519 234.0617 234.1724
   234.5328 234.5328 234.5350 234.7299 234.7478 234.8045 234.8771 234.8771
   234.9492 234.9492 235.3518 235.3814 235.3814 235.4917 235.7965 235.8873
   236.7599 236.7599 238.7149 238.8197 239.0898 239.0898 239.8498 239.8498
   240.3312 240.3579 240.7884 240.7884 240.7910 240.8545 240.9054 240.9519
   241.9297 241.9297 242.0557 242.0557 242.0669 242.0829 242.4413 242.4413
   242.7481 242.7481 243.0842 243.3927 244.3508 244.3508 244.4189 244.4291
   245.3077 245.3077 245.5149 245.7603 246.4924 246.4924 247.7963 247.7986
   247.7986 247.7992 248.5392 248.5807 248.6017 248.6017 249.1114 249.1165
   249.1347 249.1347 249.8020 249.8020 249.8207 250.3038 250.4685 250.8851
   250.8851 251.1630 251.4257 251.4257 251.4290 251.4410 251.5896 251.6673
   252.3299 253.1393 253.3816 253.3816 254.6135 254.7896 254.9135 254.9135
   255.4476 256.1937 256.1937 256.9512 258.0663 258.1099 258.5080 258.5080
   258.6613 258.6764 258.6764 258.6847 258.6977 258.9530 258.9530 259.0256
   262.1205 262.1733 262.1733 262.4872 262.8000 263.0878 263.3395 263.3395
   263.5659 263.7289 263.8638 263.8638 264.4159 264.7337 264.7509 264.8501
   264.8501 264.8790 265.4070 265.4070 265.7671 265.7671 266.0582 266.4896
   267.5275 267.5933 267.7234 267.7234 268.0956 268.1126 270.4004 270.6932
   270.6932 270.8028 271.3089 271.3089 271.9420 272.1710 272.3512 272.5910
   272.5910 272.8444 272.8444 272.9336 273.1008 273.1008 273.1105 273.2336
   273.2441 273.2441 273.2588 273.2743 274.1782 274.1782 274.3516 274.3716
   275.1213 275.1213 275.2319 275.4560 275.9032 276.1764 276.1764 276.3318
   276.8990 277.1673 277.9866 278.1478 278.1478 278.3983 278.3983 278.5706
   279.3969 279.5699 279.5699 279.8334 280.0101 280.0101 280.2561 280.3023
   280.3123 280.5872 280.6170 280.8296 280.8296 280.9429 281.0971 281.0971
   281.2673 281.2847 281.4835 281.5157 281.5923 281.5923 281.6565 281.6565
   281.6894 281.7100 282.4408 282.4408 282.9553 283.0233 283.9949 284.1060
   284.1074 284.1074 285.0758 285.0758 285.5134 285.5547 285.6493 285.6493
   286.3207 286.3972 287.0116 287.5835 287.6977 287.6977 287.8078 287.8662
   287.8662 287.9969 288.0098 288.0754 288.0754 288.1147 288.4181 288.8406
   289.0493 289.2208 289.2208 289.2359 289.5447 289.7060 289.7060 289.7451
   289.8448 289.8448 289.8940 290.3210 290.3412 290.3412 290.4607 290.4877
   290.5993 290.5993 291.6869 291.6869 292.4271 292.4271 293.4335 293.8511
   294.7401 295.9061 295.9281 296.8155 296.8155 296.9436 298.2284 298.4556
   298.4556 298.4658 298.4970 298.5283 298.6123 298.6123 298.6913 299.5581
   299.5861 299.5861 299.6957 299.9312 299.9467 299.9467 301.2234 301.2333
   301.2333 301.2617 301.3023 301.7866 301.7866 301.8835 302.1478 302.1478
   302.2165 302.5205 302.7585 302.7951 302.7951 302.8032 303.0120 303.0120
   303.1216 303.3398 303.3795 303.3795 304.8677 304.8701 305.5983 305.5983
   305.9762 306.1442 306.1442 306.2910 306.4338 306.4338 307.5477 307.7292
   309.0415 309.0415 309.5555 310.1499 310.1499 310.3308 310.6082 310.6400
   310.7070 310.8602 310.8602 311.1845 311.3311 311.4524 311.4524 311.7375
   312.0223 312.3596 312.8025 312.8025 312.8659 313.0874 313.0874 313.1512
   313.7480 314.0907 314.1255 314.1255 314.8017 314.8913 315.0753 315.2112
   315.2112 315.3023 315.3719 315.3991 315.4388 315.4388 315.5150 315.9130
   316.2040 316.2040 316.2429 316.2429 316.5878 316.5878 317.3938 317.5562
   317.5659 317.5659 317.8721 317.9017 318.1023 318.1645 318.1645 318.1788
   318.8523 318.8523 319.5176 319.5936 319.7096 319.7779 319.9019 319.9019
   320.0856 320.0856 320.2156 320.2797 320.7315 320.7315 320.7330 320.8374
   320.9229 321.0502 321.0502 321.1181 321.2085 321.2085 321.3344 321.3563
   321.3563 321.3927 321.4036 321.5308 322.0911 322.0911 322.1075 322.2231
   324.5372 324.8085 325.1963 325.1963 328.4022 328.4022 329.1386 329.3789
   329.5892 329.7310 329.7638 329.7638 329.8158 329.8331 329.8331 329.8363
   329.8607 330.2089 330.2089 331.3589 331.8298 331.8298 331.9255 332.1355
   332.9575 333.3718 333.3718 333.4295 334.0423 334.0539 334.0747 334.0747
   334.1739 334.1739 334.2641 334.2888 334.5233 334.5233 334.9226 335.0771
   335.2394 335.2625 335.2625 335.4230 335.4558 335.4558 335.4781 336.3411
   336.4918 336.7026 336.7026 336.7126 336.7740 336.8101 336.8101 337.0507
   338.6380 338.7002 339.1311 339.1311 339.5110 339.6067 339.6067 339.6665
   339.7811 339.9110 339.9486 339.9486 340.4306 340.4306 340.5487 340.5613
   341.2936 341.4613 341.6832 341.6832 341.9407 341.9407 342.0215 342.0363
   342.0780 342.1408 342.1986 342.1986 342.3779 342.5428 342.5428 342.9139
   344.1385 345.2254 345.3509 345.3785 345.3785 346.6263 346.6713 347.1487
   347.1487 347.1855 347.2306 347.2306 347.4075 347.5422 348.0288 348.2632
   348.2632 348.2746 348.2848 348.4070 348.5015 348.5015 348.5781 348.6120
   348.6120 348.9326 349.1648 349.1648 349.2547 349.2734 351.3420 353.7580
   354.1326 354.1326 354.3431 354.4547 354.4547 354.4659 354.5967 354.6264
   354.6264 354.7094 355.3635 355.6104 355.6104 356.1051 356.2413 356.5601
   356.6923 356.8637 356.8637 357.1920 357.1959 357.1959 357.2633 357.5291
   357.5291 358.0819 358.2280 358.4062 358.4646 358.4646 358.4681 358.5368
   358.6440 358.6440 359.6323 359.7626 359.8459 359.8459 359.9784 359.9784

     the Fermi energy is     8.2953 ev
     (compare with:     7.5768 eV, computed in scf)

     Writing all to output data dir out/mp-1958.save/
 
     init_run     :      0.02s CPU      0.05s WALL (       1 calls)
     electrons    :   1487.28s CPU   1580.85s WALL (       1 calls)

     Called by init_run:
     wfcinit      :      0.00s CPU      0.00s WALL (       1 calls)
     potinit      :      0.01s CPU      0.01s WALL (       1 calls)
     hinit0       :      0.01s CPU      0.02s WALL (       1 calls)

     Called by electrons:
     c_bands      :   1487.27s CPU   1580.82s WALL (       1 calls)
     v_of_rho     :      0.00s CPU      0.00s WALL (       1 calls)

     Called by c_bands:
     init_us_2    :      0.00s CPU      0.00s WALL (      15 calls)
     init_us_2:cp :      0.00s CPU      0.00s WALL (      15 calls)
     cegterg      :   1380.80s CPU   1466.19s WALL (      15 calls)

     Called by *egterg:
     cdiaghg      :   1316.79s CPU   1399.79s WALL (     132 calls)
     h_psi        :     21.47s CPU     22.37s WALL (     147 calls)
     g_psi        :      0.13s CPU      0.13s WALL (     117 calls)

     Called by h_psi:
     h_psi:calbec :      0.38s CPU      0.40s WALL (     147 calls)
     vloc_psi     :     20.53s CPU     21.39s WALL (     147 calls)
     add_vuspsi   :      0.29s CPU      0.29s WALL (     147 calls)

     General routines
     calbec       :      0.38s CPU      0.40s WALL (     147 calls)
     fft          :      0.00s CPU      0.02s WALL (      10 calls)
     fftw         :     18.74s CPU     19.54s WALL (  215096 calls)
 
     Parallel routines
 
     PWSCF        :  24m48.43s CPU  26m22.65s WALL

 
   This run was terminated on:  16:38:47  20Dec2023            

=------------------------------------------------------------------------------=
   JOB DONE.
=------------------------------------------------------------------------------=
