
     Program PWSCF v.6.7+ starts on 21Jun2022 at 20: 1: 4 

     This program is part of the open-source Quantum ESPRESSO suite
     for quantum simulation of materials; please cite
         "P. Giannozzi et al., J. Phys.:Condens. Matter 21 395502 (2009);
         "P. Giannozzi et al., J. Phys.:Condens. Matter 29 465901 (2017);
          URL http://www.quantum-espresso.org", 
     in publications or presentations arising from this work. More details at
     http://www.quantum-espresso.org/quote

     Parallel version (MPI), running on    32 processors

     MPI processes distributed on     4 nodes
     R & G space division:  proc/nbgrp/npool/nimage =      32
     Reading input from aiida.in

     Current dimensions of program PWSCF are:
     Max number of different atomic species (ntypx) = 10
     Max number of k-points (npk) =  40000
     Max angular momentum in pseudopotentials (lmaxx) =  3
     Message from routine setup:
     using ibrav=0 with symmetry is DISCOURAGED, use correct ibrav instead

     Subspace diagonalization in iterative solution of the eigenvalue problem:
     a serial algorithm will be used

 
     Parallelization info
     --------------------
     sticks:   dense  smooth     PW     G-vecs:    dense   smooth      PW
     Min          26      26      7                  488      488      81
     Max          27      27      8                  491      491      85
     Sum         835     835    253                15665    15665    2685
 


     bravais-lattice index     =            0
     lattice parameter (alat)  =       4.7753  a.u.
     unit-cell volume          =      77.0007 (a.u.)^3
     number of atoms/cell      =            2
     number of atomic types    =            1
     number of electrons       =         8.00
     number of Kohn-Sham states=           18
     kinetic-energy cutoff     =     132.0000  Ry
     charge density cutoff     =     528.0000  Ry
     scf convergence threshold =      1.0E-08
     mixing beta               =       0.6000
     number of iterations used =            8  plain     mixing
     Exchange-correlation= PBE
                           (   1   4   3   4   0   0   0)

     celldm(1)=   4.775328  celldm(2)=   0.000000  celldm(3)=   0.000000
     celldm(4)=   0.000000  celldm(5)=   0.000000  celldm(6)=   0.000000

     crystal axes: (cart. coord. in units of alat)
               a(1) = (   1.000000   0.000000   0.000000 )  
               a(2) = (   0.500000   0.866025   0.000000 )  
               a(3) = (   0.500000   0.288675   0.816497 )  

     reciprocal axes: (cart. coord. in units 2 pi/alat)
               b(1) = (  1.000000 -0.577350 -0.408248 )  
               b(2) = (  0.000000  1.154701 -0.408248 )  
               b(3) = (  0.000000  0.000000  1.224745 )  


     PseudoPot. # 1 for C  read from file:
     ./pseudo/C_ONCV_PBE-1.0.upf
     MD5 check sum: a8598053cbddde904de707f58cee2550
     Pseudo is Norm-conserving, Zval =  4.0
     Generated using ONCVPSP code by D. R. Hamann
     Using radial grid of  602 points,  4 beta functions with: 
                l(1) =   0
                l(2) =   0
                l(3) =   1
                l(4) =   1

     atomic species   valence    mass     pseudopotential
        C              4.00    12.01100     C ( 1.00)

      6 Sym. Ops. (no inversion) found


                                    s                        frac. trans.

      isym =  1     identity                                     

 cryst.   s( 1) = (     1          0          0      )
                  (     0          1          0      )
                  (     0          0          1      )

 cart.    s( 1) = (  1.0000000  0.0000000  0.0000000 )
                  (  0.0000000  1.0000000  0.0000000 )
                  (  0.0000000  0.0000000  1.0000000 )


      isym =  2     120 deg rotation - cryst. axis [0,0,1]       

 cryst.   s( 2) = (    -1          1          0      )
                  (    -1          0          0      )
                  (    -1          0          1      )

 cart.    s( 2) = ( -0.5000000 -0.8660254  0.0000000 )
                  (  0.8660254 -0.5000000  0.0000000 )
                  (  0.0000000  0.0000000  1.0000000 )


      isym =  3     120 deg rotation - cryst. axis [0,0,-1]      

 cryst.   s( 3) = (     0         -1          0      )
                  (     1         -1          0      )
                  (     0         -1          1      )

 cart.    s( 3) = ( -0.5000000  0.8660254  0.0000000 )
                  ( -0.8660254 -0.5000000  0.0000000 )
                  (  0.0000000  0.0000000  1.0000000 )


      isym =  4     inv. 180 deg rotation - cart. axis [1,0,0]   

 cryst.   s( 4) = (    -1          0          0      )
                  (    -1          1          0      )
                  (    -1          0          1      )

 cart.    s( 4) = ( -1.0000000  0.0000000  0.0000000 )
                  (  0.0000000  1.0000000  0.0000000 )
                  (  0.0000000  0.0000000  1.0000000 )


      isym =  5     inv. 180 deg rotation - cryst. axis [0,1,0]  

 cryst.   s( 5) = (     0          1          0      )
                  (     1          0          0      )
                  (     0          0          1      )

 cart.    s( 5) = (  0.5000000  0.8660254  0.0000000 )
                  (  0.8660254 -0.5000000  0.0000000 )
                  (  0.0000000  0.0000000  1.0000000 )


      isym =  6     inv. 180 deg rotation - cryst. axis [1,1,0]  

 cryst.   s( 6) = (     1         -1          0      )
                  (     0         -1          0      )
                  (     0         -1          1      )

 cart.    s( 6) = (  0.5000000 -0.8660254  0.0000000 )
                  ( -0.8660254 -0.5000000  0.0000000 )
                  (  0.0000000  0.0000000  1.0000000 )


   Cartesian axes

     site n.     atom                  positions (alat units)
         1           C   tau(   1) = (   1.5000000   0.8660254   0.6123724  )
         2           C   tau(   2) = (   1.0000000   0.5773503   0.4082483  )

   Crystallographic axes

     site n.     atom                  positions (cryst. coord.)
         1           C   tau(   1) = (  0.7500000  0.7500000  0.7500000  )
         2           C   tau(   2) = (  0.5000000  0.5000000  0.5000000  )

     number of k points=    13  Marzari-Vanderbilt smearing, width (Ry)=  0.0200
                       cart. coord. in units 2pi/alat
        k(    1) = (   0.0000000   0.0000000   0.0000000), wk =   0.0312500
        k(    2) = (   0.0000000   0.0000000   0.3061862), wk =   0.0625000
        k(    3) = (   0.0000000   0.0000000  -0.6123724), wk =   0.0312500
        k(    4) = (   0.0000000   0.2886751  -0.1020621), wk =   0.1875000
        k(    5) = (   0.0000000   0.2886751   0.2041241), wk =   0.1875000
        k(    6) = (   0.0000000   0.2886751  -0.7144345), wk =   0.1875000
        k(    7) = (   0.0000000   0.2886751  -0.4082483), wk =   0.1875000
        k(    8) = (   0.0000000  -0.5773503   0.2041241), wk =   0.0937500
        k(    9) = (   0.0000000  -0.5773503   0.5103104), wk =   0.1875000
        k(   10) = (   0.0000000  -0.5773503  -0.4082483), wk =   0.0937500
        k(   11) = (   0.2500000  -0.7216878   0.1020621), wk =   0.3750000
        k(   12) = (   0.2500000  -0.7216878   0.4082483), wk =   0.1875000
        k(   13) = (   0.2500000  -0.7216878  -0.2041241), wk =   0.1875000

                       cryst. coord.
        k(    1) = (   0.0000000   0.0000000   0.0000000), wk =   0.0312500
        k(    2) = (   0.0000000   0.0000000   0.2500000), wk =   0.0625000
        k(    3) = (   0.0000000   0.0000000  -0.5000000), wk =   0.0312500
        k(    4) = (   0.0000000   0.2500000   0.0000000), wk =   0.1875000
        k(    5) = (   0.0000000   0.2500000   0.2500000), wk =   0.1875000
        k(    6) = (   0.0000000   0.2500000  -0.5000000), wk =   0.1875000
        k(    7) = (   0.0000000   0.2500000  -0.2500000), wk =   0.1875000
        k(    8) = (   0.0000000  -0.5000000   0.0000000), wk =   0.0937500
        k(    9) = (   0.0000000  -0.5000000   0.2500000), wk =   0.1875000
        k(   10) = (   0.0000000  -0.5000000  -0.5000000), wk =   0.0937500
        k(   11) = (   0.2500000  -0.5000000   0.0000000), wk =   0.3750000
        k(   12) = (   0.2500000  -0.5000000   0.2500000), wk =   0.1875000
        k(   13) = (   0.2500000  -0.5000000  -0.2500000), wk =   0.1875000

     Dense  grid:    15665 G-vectors     FFT dimensions: (  36,  36,  36)

     Dynamical RAM for                 wfc:       0.02 MB

     Dynamical RAM for     wfc (w. buffer):       0.23 MB

     Dynamical RAM for           str. fact:       0.01 MB

     Dynamical RAM for           local pot:       0.00 MB

     Dynamical RAM for          nlocal pot:       0.01 MB

     Dynamical RAM for                qrad:       0.53 MB

     Dynamical RAM for          rho,v,vnew:       0.08 MB

     Dynamical RAM for               rhoin:       0.03 MB

     Dynamical RAM for            rho*nmix:       0.12 MB

     Dynamical RAM for           G-vectors:       0.03 MB

     Dynamical RAM for          h,s,v(r/c):       0.06 MB

     Dynamical RAM for          <psi|beta>:       0.00 MB

     Dynamical RAM for                 psi:       0.03 MB

     Dynamical RAM for                hpsi:       0.03 MB

     Dynamical RAM for      wfcinit/wfcrot:       0.04 MB

     Estimated static dynamical RAM per process >       1.16 MB

     Estimated max dynamical RAM per process >       1.29 MB

     Estimated total dynamical RAM >      41.22 MB

     Initial potential from superposition of free atoms

     starting charge    7.98607, renormalised to    8.00000
     Starting wfcs are random

     total cpu time spent up to now is        2.9 secs

     Self-consistent Calculation

     iteration #  1     ecut=   132.00 Ry     beta= 0.60
     Davidson diagonalization with overlap
     ethr =  5.00E-06,  avg # of iterations = 16.1

     total cpu time spent up to now is        3.5 secs

     total energy              =     -22.77398989 Ry
     estimated scf accuracy    <       0.11859217 Ry

     iteration #  2     ecut=   132.00 Ry     beta= 0.60
     Davidson diagonalization with overlap
     ethr =  1.48E-03,  avg # of iterations =  1.0

     total cpu time spent up to now is        3.6 secs

     total energy              =     -22.77782934 Ry
     estimated scf accuracy    <       0.00787756 Ry

     iteration #  3     ecut=   132.00 Ry     beta= 0.60
     Davidson diagonalization with overlap
     ethr =  9.85E-05,  avg # of iterations =  1.8

     total cpu time spent up to now is        3.8 secs

     total energy              =     -22.77840768 Ry
     estimated scf accuracy    <       0.00012131 Ry

     iteration #  4     ecut=   132.00 Ry     beta= 0.60
     Davidson diagonalization with overlap
     ethr =  1.52E-06,  avg # of iterations =  3.3

     total cpu time spent up to now is        3.9 secs

     total energy              =     -22.77841451 Ry
     estimated scf accuracy    <       0.00000028 Ry

     iteration #  5     ecut=   132.00 Ry     beta= 0.60
     Davidson diagonalization with overlap
     ethr =  3.45E-09,  avg # of iterations =  5.5

     total cpu time spent up to now is        4.1 secs

     total energy              =     -22.77841468 Ry
     estimated scf accuracy    <       0.00000004 Ry

     iteration #  6     ecut=   132.00 Ry     beta= 0.60
     Davidson diagonalization with overlap
     ethr =  4.92E-10,  avg # of iterations =  3.2

     total cpu time spent up to now is        4.2 secs

     End of self-consistent calculation

          k = 0.0000 0.0000 0.0000 (  1989 PWs)   bands (ev):

    -8.1295  13.2381  13.2381  13.2381  18.8131  18.8131  18.8131  26.4512
    32.4809  39.8260  39.8260  40.7454  40.7454  40.7454  47.9539  60.1571
    60.1571  60.1571

     occupation numbers 
     1.0000   1.0000   1.0000   1.0000   0.0000   0.0000   0.0000   0.0000
     0.0000   0.0000   0.0000   0.0000   0.0000   0.0000   0.0000   0.0000
     0.0000   0.0000

          k = 0.0000 0.0000 0.3062 (  1973 PWs)   bands (ev):

    -6.4231   6.6865  11.5022  11.5022  20.9988  20.9988  21.3478  27.7662
    33.8779  35.6633  35.6633  38.6245  52.1550  52.1550  55.6828  55.6828
    56.6060  57.6731

     occupation numbers 
     1.0000   1.0000   1.0000   1.0000   0.0000   0.0000   0.0000   0.0000
     0.0000   0.0000   0.0000   0.0000   0.0000   0.0000   0.0000   0.0000
     0.0000   0.0000

          k = 0.0000 0.0000-0.6124 (  1946 PWs)   bands (ev):

    -2.3878  -0.0566  10.4520  10.4520  21.6799  21.6799  22.0425  28.8639
    35.0217  37.2850  39.1142  39.1142  47.2531  47.2531  59.1067  66.2983
    66.2983  69.0712

     occupation numbers 
     1.0000   1.0000   1.0000   1.0000   0.0000   0.0000   0.0000   0.0000
     0.0000   0.0000   0.0000   0.0000   0.0000   0.0000   0.0000   0.0000
     0.0000   0.0000

          k = 0.0000 0.2887-0.1021 (  1973 PWs)   bands (ev):

    -6.4231   6.6865  11.5022  11.5022  20.9988  20.9988  21.3478  27.7662
    33.8779  35.6633  35.6633  38.6245  52.1550  52.1550  55.6828  55.6828
    56.6060  57.6731

     occupation numbers 
     1.0000   1.0000   1.0000   1.0000   0.0000   0.0000   0.0000   0.0000
     0.0000   0.0000   0.0000   0.0000   0.0000   0.0000   0.0000   0.0000
     0.0000   0.0000

          k = 0.0000 0.2887 0.2041 (  1996 PWs)   bands (ev):

    -5.8566   8.7433   9.1420   9.1420  17.6874  23.4796  24.7567  24.7567
    33.2725  35.3258  42.7387  45.8001  45.8001  48.8299  54.0169  54.0169
    58.8428  63.7717

     occupation numbers 
     1.0000   1.0000   1.0000   1.0000   0.0000   0.0000   0.0000   0.0000
     0.0000   0.0000   0.0000   0.0000   0.0000   0.0000   0.0000   0.0000
     0.0000   0.0000

          k = 0.0000 0.2887-0.7144 (  1977 PWs)   bands (ev):

    -2.1395   2.5111   6.5385   8.3899  19.3271  24.6387  25.9759  26.4821
    33.4483  36.6866  40.7353  44.1684  49.2832  54.6142  57.3228  59.0591
    63.9775  64.0343

     occupation numbers 
     1.0000   1.0000   1.0000   1.0000   0.0000   0.0000   0.0000   0.0000
     0.0000   0.0000   0.0000   0.0000   0.0000   0.0000   0.0000   0.0000
     0.0000   0.0000

          k = 0.0000 0.2887-0.4082 (  1959 PWs)   bands (ev):

    -3.6851   4.5838   5.6798  10.2431  21.1584  23.1961  25.5307  27.0610
    32.8138  34.0307  37.8363  46.4458  49.0186  54.6030  55.3304  55.5915
    64.1129  67.9012

     occupation numbers 
     1.0000   1.0000   1.0000   1.0000   0.0000   0.0000   0.0000   0.0000
     0.0000   0.0000   0.0000   0.0000   0.0000   0.0000   0.0000   0.0000
     0.0000   0.0000

          k = 0.0000-0.5774 0.2041 (  1946 PWs)   bands (ev):

    -2.3878  -0.0566  10.4520  10.4520  21.6799  21.6799  22.0425  28.8639
    35.0217  37.2850  39.1142  39.1142  47.2531  47.2531  59.1067  66.2983
    66.2983  69.0712

     occupation numbers 
     1.0000   1.0000   1.0000   1.0000   0.0000   0.0000   0.0000   0.0000
     0.0000   0.0000   0.0000   0.0000   0.0000   0.0000   0.0000   0.0000
     0.0000   0.0000

          k = 0.0000-0.5774 0.5103 (  1977 PWs)   bands (ev):

    -2.1395   2.5111   6.5385   8.3899  19.3271  24.6387  25.9759  26.4821
    33.4483  36.6866  40.7353  44.1684  49.2832  54.6142  57.3228  59.0591
    63.9775  64.0343

     occupation numbers 
     1.0000   1.0000   1.0000   1.0000   0.0000   0.0000   0.0000   0.0000
     0.0000   0.0000   0.0000   0.0000   0.0000   0.0000   0.0000   0.0000
     0.0000   0.0000

          k = 0.0000-0.5774-0.4082 (  1964 PWs)   bands (ev):

     0.5387   0.5387   6.9759   6.9759  18.0224  18.0224  29.9070  29.9070
    36.3167  36.3167  45.5558  45.5558  51.4657  51.4657  61.6143  61.6143
    61.9974  61.9974

     occupation numbers 
     1.0000   1.0000   1.0000   1.0000   0.0000   0.0000   0.0000   0.0000
     0.0000   0.0000   0.0000   0.0000   0.0000   0.0000   0.0000   0.0000
     0.0000   0.0000

          k = 0.2500-0.7217 0.1021 (  1977 PWs)   bands (ev):

    -2.1395   2.5111   6.5385   8.3899  19.3271  24.6387  25.9759  26.4821
    33.4483  36.6866  40.7353  44.1684  49.2832  54.6142  57.3228  59.0591
    63.9775  64.0343

     occupation numbers 
     1.0000   1.0000   1.0000   1.0000   0.0000   0.0000   0.0000   0.0000
     0.0000   0.0000   0.0000   0.0000   0.0000   0.0000   0.0000   0.0000
     0.0000   0.0000

          k = 0.2500-0.7217 0.4082 (  1959 PWs)   bands (ev):

    -3.6851   4.5838   5.6798  10.2431  21.1584  23.1961  25.5307  27.0610
    32.8138  34.0307  37.8363  46.4458  49.0186  54.6030  55.3304  55.5915
    64.1129  67.9012

     occupation numbers 
     1.0000   1.0000   1.0000   1.0000   0.0000   0.0000   0.0000   0.0000
     0.0000   0.0000   0.0000   0.0000   0.0000   0.0000   0.0000   0.0000
     0.0000   0.0000

          k = 0.2500-0.7217-0.2041 (  1964 PWs)   bands (ev):

     1.3218   1.3218   4.9718   4.9718  23.8470  23.8470  25.4797  25.4797
    34.4458  34.4458  43.5870  43.5870  56.2729  56.2729  58.6229  58.6229
    61.0408  61.0408

     occupation numbers 
     1.0000   1.0000   1.0000   1.0000   0.0000   0.0000   0.0000   0.0000
     0.0000   0.0000   0.0000   0.0000   0.0000   0.0000   0.0000   0.0000
     0.0000   0.0000

     the Fermi energy is    15.7916 ev

!    total energy              =     -22.77841468 Ry
     estimated scf accuracy    <          5.5E-10 Ry
     smearing contrib. (-TS)   =      -0.00000000 Ry
     internal energy E=F+TS    =     -22.77841468 Ry

     The total energy is F=E-TS. E is the sum of the following terms:
     one-electron contribution =       7.89886107 Ry
     hartree contribution      =       1.96140543 Ry
     xc contribution           =      -7.11387233 Ry
     ewald contribution        =     -25.52480885 Ry

     convergence has been achieved in   6 iterations

     Writing output data file ./out/aiida.save/
 
     init_run     :      0.21s CPU      0.30s WALL (       1 calls)
     electrons    :      1.24s CPU      1.41s WALL (       1 calls)

     Called by init_run:
     wfcinit      :      0.07s CPU      0.07s WALL (       1 calls)
     wfcinit:atom :      0.00s CPU      0.00s WALL (      13 calls)
     wfcinit:wfcr :      0.07s CPU      0.07s WALL (      13 calls)
     potinit      :      0.01s CPU      0.01s WALL (       1 calls)
     hinit0       :      0.01s CPU      0.02s WALL (       1 calls)

     Called by electrons:
     c_bands      :      1.07s CPU      1.10s WALL (       6 calls)
     sum_band     :      0.11s CPU      0.11s WALL (       6 calls)
     v_of_rho     :      0.02s CPU      0.02s WALL (       7 calls)
     v_h          :      0.00s CPU      0.00s WALL (       7 calls)
     v_xc         :      0.01s CPU      0.02s WALL (       7 calls)
     mix_rho      :      0.05s CPU      0.06s WALL (       6 calls)

     Called by c_bands:
     init_us_2    :      0.00s CPU      0.00s WALL (     169 calls)
     cegterg      :      1.06s CPU      1.09s WALL (      78 calls)

     Called by sum_band:
     sum_band:wei :      0.00s CPU      0.00s WALL (       6 calls)
     sum_band:loo :      0.10s CPU      0.11s WALL (       6 calls)
     sum_band:buf :      0.00s CPU      0.00s WALL (      78 calls)
     sum_band:ini :      0.00s CPU      0.00s WALL (      78 calls)

     Called by *egterg:
     cdiaghg      :      0.17s CPU      0.17s WALL (     480 calls)
     cegterg:over :      0.03s CPU      0.03s WALL (     402 calls)
     cegterg:upda :      0.00s CPU      0.00s WALL (     402 calls)
     cegterg:last :      0.00s CPU      0.01s WALL (     257 calls)
     h_psi        :      0.89s CPU      0.92s WALL (     493 calls)
     g_psi        :      0.00s CPU      0.00s WALL (     402 calls)

     Called by h_psi:
     h_psi:calbec :      0.03s CPU      0.03s WALL (     493 calls)
     vloc_psi     :      0.86s CPU      0.89s WALL (     493 calls)
     add_vuspsi   :      0.00s CPU      0.00s WALL (     493 calls)

     General routines
     calbec       :      0.03s CPU      0.03s WALL (     493 calls)
     fft          :      0.01s CPU      0.02s WALL (      69 calls)
     ffts         :      0.00s CPU      0.00s WALL (       6 calls)
     fftw         :      0.94s CPU      0.95s WALL (   12760 calls)
 
     Parallel routines
     fft_scatt_xy :      0.03s CPU      0.04s WALL (   12835 calls)
     fft_scatt_yz :      0.73s CPU      0.63s WALL (   12835 calls)
 
     PWSCF        :      3.66s CPU      6.00s WALL

 
   This run was terminated on:  20: 1:10  21Jun2022            

=------------------------------------------------------------------------------=
   JOB DONE.
=------------------------------------------------------------------------------=
