
     Program PWSCF v.7.1 starts on 30Nov2023 at 11:29: 6 

     This program is part of the open-source Quantum ESPRESSO suite
     for quantum simulation of materials; please cite
         "P. Giannozzi et al., J. Phys.:Condens. Matter 21 395502 (2009);
         "P. Giannozzi et al., J. Phys.:Condens. Matter 29 465901 (2017);
         "P. Giannozzi et al., J. Chem. Phys. 152 154105 (2020);
          URL http://www.quantum-espresso.org", 
     in publications or presentations arising from this work. More details at
     http://www.quantum-espresso.org/quote

     Parallel version (MPI), running on     8 processors

     MPI processes distributed on     1 nodes
     122358 MiB available memory on the printing compute node when the environment starts
 
     Reading input from pw_mp-2542_nscf_k70_E84.in
Warning: card &IONS ignored
Warning: card / ignored
Warning: card &CELL ignored
Warning: card / ignored

     Current dimensions of program PWSCF are:
     Max number of different atomic species (ntypx) = 10
     Max number of k-points (npk) =  40000
     Max angular momentum in pseudopotentials (lmaxx) =  4

     Atomic positions and unit cell read from directory:
     out/mp-2542.save/
     Atomic positions from file used, from input discarded
 
 
     R & G space division:  proc/nbgrp/npool/nimage =       8
     Subspace diagonalization in iterative solution of the eigenvalue problem:
     one sub-group per band group will be used
     scalapack distributed-memory algorithm (size of sub-group:  2*  2 procs)

 
     Parallelization info
     --------------------
     sticks:   dense  smooth     PW     G-vecs:    dense   smooth      PW
     Min          74      74     21                 2410     2410     375
     Max          75      75     22                 2415     2415     381
     Sum         595     595    169                19291    19291    3027
 
     Using Slab Decomposition
 


     bravais-lattice index     =            4
     lattice parameter (alat)  =       5.0914  a.u.
     unit-cell volume          =     185.6482 (a.u.)^3
     number of atoms/cell      =            4
     number of atomic types    =            2
     number of electrons       =        20.00
     number of Kohn-Sham states=         1200
     kinetic-energy cutoff     =      84.0000  Ry
     charge density cutoff     =     336.0000  Ry
     Exchange-correlation= PBE
                           (   1   4   3   4   0   0   0)

     celldm(1)=   5.091445  celldm(2)=   0.000000  celldm(3)=   1.624191
     celldm(4)=   0.000000  celldm(5)=   0.000000  celldm(6)=   0.000000

     crystal axes: (cart. coord. in units of alat)
               a(1) = (   1.000000   0.000000   0.000000 )  
               a(2) = (  -0.500000   0.866025   0.000000 )  
               a(3) = (   0.000000   0.000000   1.624191 )  

     reciprocal axes: (cart. coord. in units 2 pi/alat)
               b(1) = (  1.000000  0.577350  0.000000 )  
               b(2) = (  0.000000  1.154701  0.000000 )  
               b(3) = (  0.000000  0.000000  0.615691 )  


     PseudoPot. # 1 for Be read from file:
     /usr/scratch4/magr4985/MG/HTDF/pseudo/SG15/Be.upf
     MD5 check sum: dc1f98d164da9dc61a6fd2fad64b4ce2
     Pseudo is Norm-conserving, Zval =  4.0
     Generated using ONCVPSP code by D. R. Hamann
     Using radial grid of  602 points,  4 beta functions with: 
                l(1) =   0
                l(2) =   0
                l(3) =   1
                l(4) =   1

     PseudoPot. # 2 for O  read from file:
     /usr/scratch4/magr4985/MG/HTDF/pseudo/SG15/O.upf
     MD5 check sum: e36c48deb68f4e355fffe4602be2c42c
     Pseudo is Norm-conserving, Zval =  6.0
     Generated using ONCVPSP code by D. R. Hamann
     Using radial grid of  602 points,  4 beta functions with: 
                l(1) =   0
                l(2) =   0
                l(3) =   1
                l(4) =   1

     atomic species   valence    mass     pseudopotential
        Be             4.00     9.01220     Be( 1.00)
        O              6.00    15.99940     O ( 1.00)

      6 Sym. Ops. (no inversion) found



   Cartesian axes

     site n.     atom                  positions (alat units)
         1           Be  tau(   1) = (   0.5000000   0.2886752   0.0002601  )
         2           Be  tau(   2) = (   0.0000000   0.5773502   0.8123555  )
         3           O   tau(   3) = (   0.5000000   0.2886752   0.6128719  )
         4           O   tau(   4) = (   0.0000000   0.5773502   1.4249672  )

     number of k points=     8  Gaussian smearing, width (Ry)=  0.0005
                       cart. coord. in units 2pi/alat
        k(    1) = (   0.0000000   0.0000000   0.0000000), wk =   0.0625000
        k(    2) = (   0.0000000   0.0000000  -0.3078456), wk =   0.0625000
        k(    3) = (   0.0000000   0.2886751   0.0000000), wk =   0.3750000
        k(    4) = (   0.0000000   0.2886751  -0.3078456), wk =   0.3750000
        k(    5) = (   0.0000000  -0.5773503   0.0000000), wk =   0.1875000
        k(    6) = (   0.0000000  -0.5773503  -0.3078456), wk =   0.1875000
        k(    7) = (   0.2500000   0.4330127   0.0000000), wk =   0.3750000
        k(    8) = (   0.2500000   0.4330127  -0.3078456), wk =   0.3750000

     Dense  grid:    19291 G-vectors     FFT dimensions: (  30,  30,  50)

     Estimated max dynamical RAM per process >      95.42 MB

     Estimated total dynamical RAM >     763.34 MB

     The potential is recalculated from file :
     out/mp-2542.save/charge-density

     Starting wfcs are random

     Band Structure Calculation
     ParO style diagonalization

     ethr =  5.00E-06,  avg # of iterations =  5.9

     total cpu time spent up to now is      600.8 secs

     End of band structure calculation

          k = 0.0000 0.0000 0.0000 (  2383 PWs)   bands (ev):

   -90.2019 -90.1992 -12.1360 -10.3265   0.2623   5.5160   5.5160   6.4962
     6.4962   6.5168  14.2208  18.2322  20.8964  20.8964  21.4127  21.8088
    23.0362  23.0362  30.1908  30.2802  30.2802  34.3019  34.3019  34.6628
    37.9118  39.5051  41.8301  41.8302  44.6191  46.6490  46.6490  48.7305
    48.8068  48.8068  53.9776  53.9776  56.6114  60.2175  60.2175  60.6669
    62.1197  62.1197  67.3146  67.7690  73.8200  73.8200  75.1750  77.6294
    77.6294  77.9300  78.5292  78.5292  79.7019  82.3533  82.3533  83.2915
    84.7339  87.1695  87.1695  87.8092  87.8092  88.7916  89.0474  89.7432
    89.7432  92.9905  92.9905  93.3377  94.3882  94.3882  95.0757  97.9389
    97.9389  99.9267 100.5734 100.5734 103.7710 103.7710 104.6691 105.5029
   105.5029 107.3496 107.9408 108.7145 108.7145 109.6456 109.6576 110.0803
   110.0803 110.1161 110.1161 110.3885 112.2219 113.2882 113.2882 113.6675
   114.4517 114.5929 114.5929 117.5871 120.4335 122.4440 122.4440 126.6355
   128.5710 128.5710 132.8551 132.8551 134.9898 135.5734 135.5734 136.4241
   137.0051 137.0051 137.7447 139.7512 140.0948 140.0948 140.9173 144.4238
   144.4238 145.3060 146.4014 146.4014 146.5952 146.5952 146.6003 147.9836
   147.9836 148.3343 148.3343 149.0191 149.2516 150.0567 150.0567 153.7351
   153.7351 154.6168 163.2703 163.5478 163.5479 165.4571 165.4571 170.2093
   172.6145 172.6145 173.6209 174.5176 174.5176 174.5241 174.5241 174.8232
   177.5554 179.3384 179.3384 179.5104 179.5104 181.0211 181.9362 182.3353
   182.6984 184.1372 184.3361 184.3361 185.3282 185.3282 185.5757 190.1253
   190.1253 190.1799 191.1297 192.8949 192.8949 193.1245 194.4062 194.4062
   195.3893 195.4200 195.4947 195.4947 195.8766 195.8766 197.0061 197.1015
   197.1015 198.1161 199.1656 199.1656 200.0162 200.4608 200.4608 200.9724
   201.0381 202.1209 202.1209 202.3394 202.3394 203.7294 203.7294 204.2073
   204.2985 207.7723 208.7258 208.7258 211.6254 211.6254 212.4767 212.4767
   212.7045 215.0546 215.0546 215.0649 215.5758 215.6273 215.6274 216.4616
   216.9373 217.7400 217.7400 218.7778 219.0012 219.0012 219.3543 219.3544
   219.6851 219.6851 220.3973 220.9971 220.9971 221.7396 221.7396 221.8201
   221.9568 222.2967 225.5466 225.5466 227.5210 227.5210 228.2492 228.2492
   229.2085 229.5038 229.5038 229.6278 230.6592 231.6688 231.6688 238.3630
   238.3630 238.8116 239.3447 239.3447 239.9719 240.6893 242.9321 243.9417
   243.9417 244.2215 246.6211 246.6211 247.2596 248.0497 248.0497 249.9001
   249.9001 252.4062 252.5873 253.0072 253.0072 253.0893 253.0893 253.8212
   253.8212 253.9500 254.8771 255.3590 256.9541 256.9541 258.5796 258.5796
   258.8806 260.1289 260.2744 260.2744 260.4822 260.4822 260.9644 261.1223
   264.9045 265.5208 265.5208 266.2530 266.2531 267.4108 267.4108 268.8263
   269.1110 269.9857 271.3228 271.3228 272.0997 272.0997 272.1054 272.8362
   272.8362 273.0645 273.0645 273.7302 273.9031 273.9031 274.8999 274.9269
   277.6744 277.9643 287.0531 287.3964 287.3964 288.3952 292.0895 292.0895
   295.2880 295.2880 296.7016 296.7843 296.7843 298.1555 299.5891 299.5891
   300.7956 301.6081 301.6081 301.6545 302.3058 302.3058 302.3174 303.1350
   303.1351 304.0494 304.0494 305.9961 305.9961 306.5544 307.1268 307.1268
   307.3705 307.8012 307.8012 307.8902 307.8902 308.6982 308.6982 309.1393
   309.4974 309.9573 310.0065 311.4268 312.4114 312.4114 312.6253 312.6253
   313.5637 313.8884 313.8884 314.8282 314.8282 315.1456 315.1456 315.1561
   315.2006 315.2006 315.4177 315.4177 315.6695 316.0490 316.3486 319.3742
   319.3742 320.1690 320.1690 320.4481 323.8790 323.8790 324.1724 324.3320
   330.0702 330.1706 330.1706 331.0966 331.0966 333.4832 334.8657 335.1481
   335.1481 335.7018 341.8423 341.8423 344.7037 345.9586 345.9586 346.9542
   346.9542 347.6989 349.0685 349.1817 350.2977 350.2977 351.3938 351.3938
   352.1476 352.4985 352.4985 352.8260 352.8782 353.2485 353.2485 353.4992
   353.4992 353.5501 354.4986 354.4986 354.6961 355.5804 355.5804 355.9174
   356.1182 357.4944 357.4944 358.3462 358.3462 358.8556 358.8556 359.2115
   359.2115 359.4173 359.6119 359.7323 359.7509 359.7509 360.4633 360.4633
   361.1461 361.1913 361.3716 361.8580 361.8580 361.9061 364.3130 364.3130
   364.3420 364.3420 364.4794 364.5919 364.8751 364.8751 365.0527 365.4512
   365.4512 365.9248 365.9248 366.2446 366.2446 366.5470 367.1930 370.0983
   370.3859 370.3859 371.8198 372.7250 374.4520 374.6407 374.6407 375.1950
   375.1950 377.8154 377.8154 378.4389 378.4389 379.5669 379.5669 379.6996
   379.8247 379.8247 380.1581 380.5788 380.7799 380.8618 381.5302 381.5302
   382.1284 382.1284 382.1793 382.8627 382.8627 383.4170 383.4258 383.5992
   383.5992 384.4611 384.4611 384.7128 384.8942 385.4674 385.4674 385.6286
   385.8470 385.9797 385.9797 386.1227 386.1227 386.1573 386.1573 386.5480
   386.6364 387.0634 387.1572 387.1572 387.1741 387.8241 387.8242 387.9997
   387.9997 388.2127 388.2127 388.6894 389.9104 391.3011 392.3926 392.3926
   393.4865 393.5348 394.0364 394.0364 394.4978 394.4978 394.5603 394.9387
   395.3824 395.3824 398.7885 403.6247 403.6247 403.8309 403.8309 406.9189
   408.7805 408.7805 408.8740 408.8740 409.0103 409.0103 409.5685 414.8195
   415.9258 415.9258 416.6101 416.6101 418.5552 419.9542 419.9542 421.5468
   422.5869 423.0600 423.0600 423.1091 423.9330 423.9330 424.7029 424.7029
   424.8678 424.8678 425.1569 425.2802 425.8139 427.5236 428.6319 428.6319
   431.6923 431.6923 433.1009 433.1409 433.1409 433.3098 433.3098 433.6374
   434.7274 434.7274 436.4561 436.5984 436.5984 436.9013 436.9910 436.9910
   436.9990 436.9990 437.0628 439.8076 440.9654 442.1097 443.3316 444.9744
   444.9744 445.8504 445.8504 445.9342 445.9342 446.3878 447.0739 448.5836
   448.5897 448.5897 448.7247 448.9670 448.9670 449.1115 449.1115 450.1107
   450.1107 453.4707 454.5806 454.5806 455.3614 459.4701 459.4701 459.5329
   459.5330 459.5397 459.5397 461.3388 461.4737 462.3634 462.3934 463.5351
   463.5351 463.8702 463.8702 463.9957 464.7373 465.2235 465.2235 465.3778
   465.3778 466.6728 466.6728 466.7748 467.0055 467.0055 467.0157 467.1901
   467.1901 467.7185 467.7407 469.4810 469.4810 469.5935 469.6640 470.1511
   470.1511 471.9364 471.9364 472.4980 472.4980 472.8100 472.8100 473.2316
   473.3279 473.3428 474.0993 474.0993 474.6297 475.4875 475.4875 475.5558
   475.5558 477.7019 477.9785 478.1243 478.5682 478.5682 478.9332 478.9332
   479.7490 479.7490 479.8229 479.8229 480.1280 480.1848 480.3048 481.3323
   485.6611 486.2094 486.2094 486.3577 486.3577 488.9553 488.9553 489.1317
   489.1317 489.3748 490.0292 491.4892 493.9849 493.9849 494.4173 497.2649
   497.2649 501.4071 503.1145 504.5209 504.5209 504.9390 504.9390 505.0178
   505.3887 505.3887 505.5545 507.3917 507.9618 507.9618 508.6180 509.0547
   509.0547 510.7086 510.7159 511.1999 511.1999 514.9238 514.9965 515.4680
   517.3200 517.6838 517.6838 517.6886 517.6886 518.3177 518.3177 519.0775
   519.0924 519.0924 519.2236 519.2317 519.2317 520.7946 520.7946 520.8815
   521.0978 521.0978 521.3131 521.3131 521.4421 521.5888 521.5888 521.7449
   521.7449 522.2853 522.2853 523.0821 523.0821 523.0859 523.0859 523.3457
   523.4427 524.0441 524.8676 525.1875 525.2395 525.2395 526.4342 526.6795
   526.6795 526.7559 526.7559 527.1138 527.1138 527.3109 527.3334 527.3334
   527.5512 528.0060 528.4648 531.2422 531.2422 531.2688 531.3328 531.3328
   531.3791 538.5849 538.5849 538.9315 538.9315 540.0052 542.2959 542.2959
   543.1162 543.6589 543.6589 544.2741 544.5279 544.5279 545.7389 545.7389
   546.7292 546.7292 546.7716 546.8176 546.8176 547.1316 547.4253 547.9363
   548.0364 548.1190 548.2852 549.1058 549.1058 549.4690 549.4690 550.1896
   550.1896 550.5805 550.5805 550.8702 550.8702 551.0363 551.0712 551.1938
   551.3402 551.3402 551.6866 552.1412 552.1412 552.6161 552.7464 552.7464
   552.7598 555.5600 557.8102 557.8102 558.7553 559.5399 560.0725 560.0725
   560.2185 560.2185 560.4127 560.8081 560.8081 561.3436 561.3436 562.0512
   562.8600 562.8600 564.1562 564.6708 564.6708 565.5002 565.5002 566.2407
   566.2407 566.6885 567.9799 567.9799 568.4761 568.8223 568.8482 569.8072
   569.8072 570.7627 571.3325 572.1791 572.4781 572.4781 572.6493 572.6493
   572.8415 572.8415 573.5285 573.5515 573.5515 573.5698 573.5698 573.8574
   574.6133 574.6133 574.6315 574.6315 575.3556 575.3698 576.0040 576.7472
   576.7472 577.3850 577.3850 577.7603 578.5080 578.5511 578.5511 578.6950
   578.6950 578.9841 579.0816 579.9728 579.9728 580.0006 580.0006 581.4376
   581.4376 581.5838 581.5909 581.8615 581.8615 582.4130 583.5943 583.5943
   583.9609 584.1083 584.1444 584.1444 584.1479 584.2466 584.2466 584.3418
   584.4929 584.4929 585.3456 585.4966 585.4966 585.8190 585.8190 586.0325
   589.3552 589.8083 589.9236 589.9236 590.6129 590.6129 590.8818 590.8818
   590.9453 591.3350 591.3350 591.3569 591.8666 595.0552 597.9452 597.9452
   601.1449 601.3421 601.3421 602.3294 602.4422 602.4423 602.6833 602.6833
   603.3371 603.6253 603.6253 604.0632 604.3314 604.3314 605.1731 605.1731
   605.3857 605.4876 605.4876 605.5764 605.6423 605.6423 605.9278 605.9640
   605.9906 605.9906 606.2694 606.2787 606.2787 606.5247 606.5247 606.7338
   606.7338 606.8272 606.8927 606.8927 606.8959 607.3294 607.3344 607.3344
   607.7038 607.7038 607.8110 608.0669 609.3333 614.7147 616.5949 616.5949
   621.5129 621.5130 622.9071 622.9071 623.0815 623.0815 623.9281 624.2395
   624.9146 625.4594 627.1769 627.8357 627.8357 627.9187 628.4922 628.4922
   628.8151 629.2745 629.2745 629.7396 629.7396 630.3116 630.5871 632.4951
   632.4951 633.2223 633.4588 633.8781 633.8781 634.0022 634.0022 634.0269
   634.0269 634.2765 635.0553 635.1431 636.0954 636.0954 636.1316 636.5884
   636.5884 636.8436 636.8436 636.9429 636.9429 637.0846 637.0846 637.1852
   637.1945 637.9135 638.2007 638.2007 638.3777 638.3777 638.8221 638.8221
   638.8286 639.4342 639.6096 640.5731 641.4117 641.4117 641.4753 641.6097
   641.6097 642.1096 642.2289 642.2289 643.4973 643.4973 643.9684 644.1199
   644.3057 644.5776 644.5776 645.4550 645.4550 645.6657 645.8592 645.8592
   646.0455 646.3089 646.3089 646.5296 646.6599 646.7652 646.7888 646.7888
   646.9926 646.9926 647.0849 647.0849 647.1568 647.2616 647.2616 647.3158
   648.6084 654.8131 654.8131 654.9491 654.9491 658.3851 659.9853 659.9854
   660.0394 660.0394 660.8515 674.3406 676.1006 676.1006 678.2373 678.2373
   681.3009 681.3105 681.3105 681.5933 681.5933 681.7931 682.0801 682.0801
   682.5428 684.0076 684.0076 684.0816 684.0816 684.1482 684.6164 684.6164
   686.2541 686.5428 686.5596 686.6219 689.4647 689.4647 690.1108 690.1108
   690.5174 691.6150 691.9939 691.9939 692.2774 692.2774 692.6247 692.6247
   693.1075 693.1215 693.2686 693.2686 693.2916 693.8685 693.8685 695.7008
   695.7008 695.9425 696.1431 696.4632 696.4632 697.2103 697.2103 697.2153
   698.7972 698.8722 699.0166 699.1712 699.1712 699.3006 699.3006 699.7421
   699.7421 699.8766 699.8766 700.0999 700.1890 701.7772 704.4778 704.4778
   707.2640 707.2640 707.4029 707.4029 707.4520 707.4520 707.5410 707.6069
   707.9208 708.5018 708.5018 708.5024 709.1651 709.8265 709.8265 709.9273
   709.9273 710.2590 710.2773 710.5971 710.7605 710.7605 710.9224 710.9224
   711.0945 711.0945 711.6016 711.6016 712.2115 713.1777 713.1777 713.2806

          k = 0.0000 0.0000-0.3078 (  2424 PWs)   bands (ev):

   -90.2005 -90.2005 -11.3556 -11.3556   3.1380   3.1380   5.9911   5.9911
     5.9911   5.9911  16.4530  16.4530  21.2153  21.2153  21.6299  21.6299
    21.6299  21.6299  33.9326  33.9326  33.9326  33.9326  33.9747  33.9747
    38.3149  38.3149  40.6425  40.6425  40.6425  40.6425  46.4984  46.4984
    52.1049  52.1049  52.1049  52.1049  54.6809  54.6809  69.0448  69.0448
    69.0448  69.0448  71.8908  71.8908  71.8908  71.8908  74.4629  74.4630
    76.8267  76.8267  76.9060  76.9060  76.9060  76.9060  79.7300  79.7300
    81.2685  81.2685  81.2685  81.2685  86.2188  86.2188  90.4435  90.4435
    93.9130  93.9130  93.9130  93.9130  96.5146  96.5146  97.9530  97.9530
    97.9530  97.9530 102.9663 102.9663 104.1296 104.1296 104.1296 104.1296
   106.1636 106.1636 108.8725 108.8725 110.6860 110.6860 110.6860 110.6860
   116.7104 116.7104 116.7104 116.7104 117.8076 117.8076 119.2510 119.2510
   119.2510 119.2510 121.2243 121.2243 121.2243 121.2243 122.5843 122.5843
   123.9173 123.9173 123.9173 123.9173 124.0966 124.0966 126.6390 126.6390
   126.6390 126.6390 127.6086 127.6086 137.9786 137.9786 141.4870 141.4870
   141.4870 141.4870 145.4132 145.4132 151.2876 151.2876 151.7069 151.7069
   151.7069 151.7069 155.0296 155.0296 158.8845 158.8845 158.8845 158.8845
   164.0650 164.0650 169.3486 169.3486 169.3486 169.3486 172.1532 172.1532
   172.1532 172.1532 174.4617 174.4617 174.7796 174.7796 176.4417 176.4417
   176.4417 176.4417 179.2448 179.2448 179.2448 179.2448 179.6619 179.6619
   182.2568 182.2568 182.2568 182.2568 183.8804 183.8804 184.2450 184.2450
   184.2450 184.2450 189.5025 189.5025 191.1074 191.1074 191.1074 191.1074
   191.8275 191.8275 193.8556 193.8556 194.4314 194.4314 194.4314 194.4314
   197.6731 197.6731 198.9186 198.9186 198.9186 198.9186 200.7442 200.7442
   200.7442 200.7442 201.0851 201.0851 202.3444 202.3444 202.3444 202.3444
   203.2037 203.2037 204.8311 204.8311 205.4785 205.4785 205.4785 205.4785
   207.8785 207.8785 207.8785 207.8785 208.5328 208.5328 212.8751 212.8751
   218.7360 218.7360 218.7360 218.7360 224.2395 224.2395 227.3759 227.3759
   227.3759 227.3759 230.4240 230.4240 231.2422 231.2422 231.2422 231.2422
   233.6632 233.6632 234.6826 234.6826 234.6826 234.6826 234.7276 234.7276
   236.1167 236.1167 236.1167 236.1167 237.0863 237.0863 238.8405 238.8405
   238.8406 238.8406 238.9965 238.9965 240.0693 240.0693 240.4905 240.4905
   240.4905 240.4905 242.0468 242.0468 242.4082 242.4082 242.4082 242.4082
   243.8581 243.8581 253.0406 253.0406 253.0406 253.0406 254.7177 254.7177
   255.6050 255.6050 255.6050 255.6050 258.2506 258.2506 258.8879 258.8879
   258.8879 258.8879 259.2819 259.2819 259.2819 259.2819 259.6193 259.6193
   262.5528 262.5528 263.0153 263.0153 263.0153 263.0153 263.3379 263.3379
   263.3379 263.3379 264.7018 264.7018 271.7989 271.7989 271.7989 271.7989
   273.5563 273.5563 277.2100 277.2100 277.2100 277.2100 280.5229 280.5229
   281.7393 281.7393 281.7393 281.7393 282.2372 282.2372 285.8066 285.8066
   285.8066 285.8066 286.5709 286.5709 287.8770 287.8770 287.8770 287.8770
   288.9013 288.9013 290.8280 290.8280 290.8280 290.8280 291.3142 291.3142
   300.4554 300.4554 303.9222 303.9222 303.9222 303.9222 311.2489 311.2489
   311.2489 311.2489 313.0845 313.0845 313.7351 313.7351 313.7351 313.7351
   316.0360 316.0360 320.5782 320.5782 320.5782 320.5782 321.5592 321.5592
   322.3501 322.3502 324.2636 324.2636 324.2636 324.2636 327.5476 327.5476
   332.4970 332.4970 332.4970 332.4970 332.9000 332.9000 335.6613 335.6613
   335.6613 335.6613 336.1774 336.1774 338.0553 338.0553 338.0553 338.0553
   338.4807 338.4807 339.1970 339.1971 339.4630 339.4631 340.3701 340.3701
   340.3701 340.3701 340.7045 340.7045 340.7045 340.7045 342.5010 342.5010
   342.5010 342.5010 343.2951 343.2951 344.0632 344.0632 344.0632 344.0632
   344.4274 344.4274 344.8633 344.8633 345.9376 345.9376 345.9376 345.9376
   347.3086 347.3086 348.4539 348.4539 348.4539 348.4539 348.8418 348.8418
   348.8418 348.8418 349.2648 349.2648 350.4013 350.4013 350.4013 350.4013
   350.4199 350.4199 351.3374 351.3374 351.3374 351.3374 353.9008 353.9008
   354.0696 354.0696 354.5414 354.5414 354.5414 354.5414 355.5672 355.5672
   355.5672 355.5672 355.9476 355.9477 356.0942 356.0942 356.0942 356.0942
   358.4709 358.4709 363.5897 363.5897 363.5897 363.5897 367.1137 367.1137
   367.1137 367.1137 368.0388 368.0388 368.9341 368.9341 369.8738 369.8738
   370.5345 370.5345 370.5345 370.5345 371.1752 371.1752 371.1752 371.1752
   372.5768 372.5768 372.7058 372.7058 372.7058 372.7059 374.2488 374.2488
   374.5505 374.5505 374.7450 374.7450 374.7450 374.7450 384.8759 384.8759
   389.3292 389.3292 389.3292 389.3292 393.3753 393.3753 393.3753 393.3753
   397.6149 397.6149 399.2254 399.2254 399.2254 399.2254 399.6221 399.6221
   399.8365 399.8365 399.8365 399.8365 401.1517 401.1517 401.6692 401.6692
   402.2127 402.2127 402.2127 402.2127 403.2830 403.2830 403.3284 403.3284
   403.3284 403.3284 403.6353 403.6353 403.9391 403.9391 403.9391 403.9391
   407.9533 407.9533 407.9533 407.9533 410.0660 410.0660 412.5391 412.5391
   415.0064 415.0064 415.0064 415.0064 417.7953 417.7953 417.7953 417.7953
   419.2627 419.2627 419.2655 419.2655 419.2655 419.2655 420.6806 420.6806
   420.6806 420.6806 420.6953 420.6953 422.1904 422.1904 423.6369 423.6369
   425.3475 425.3475 425.3475 425.3475 427.6147 427.6147 427.6147 427.6147
   428.3864 428.3864 428.4052 428.4052 430.2573 430.2573 430.2573 430.2573
   432.0106 432.0106 432.0106 432.0106 433.4938 433.4938 434.1424 434.1424
   434.4018 434.4018 434.4018 434.4018 436.3022 436.3022 436.3022 436.3022
   436.4277 436.4277 438.9612 438.9612 441.9360 441.9360 441.9360 441.9360
   444.7247 444.7247 445.2455 445.2455 445.5031 445.5031 445.5031 445.5031
   448.4346 448.4346 449.2371 449.2371 449.2371 449.2371 449.3521 449.3521
   450.3203 450.3203 450.3203 450.3203 450.7271 450.7271 451.7958 451.7958
   451.7958 451.7958 452.9853 452.9853 453.3161 453.3161 453.3161 453.3161
   455.5601 455.5602 460.5998 460.5998 460.5998 460.5998 465.5569 465.5569
   465.5569 465.5569 465.7396 465.7396 472.1716 472.1716 472.1716 472.1716
   474.2538 474.2538 477.4573 477.4573 477.4573 477.4573 477.8406 477.8406
   479.3699 479.3699 479.3699 479.3699 481.7501 481.7501 481.7501 481.7501
   481.8848 481.8848 482.3073 482.3073 482.3073 482.3073 482.3650 482.3650
   483.6890 483.6890 483.9795 483.9795 483.9795 483.9795 486.0727 486.0727
   496.6927 496.6927 496.6927 496.6927 497.4080 497.4080 505.4980 505.4980
   505.4980 505.4980 507.1782 507.1782 507.1782 507.1782 507.7556 507.7556
   508.2145 508.2146 509.5744 509.5744 509.7366 509.7366 509.7366 509.7366
   510.4146 510.4146 510.4146 510.4146 511.5812 511.5812 511.6914 511.6914
   511.6914 511.6914 513.1774 513.1774 513.2771 513.2771 513.2771 513.2771
   513.6329 513.6329 513.8604 513.8604 513.8604 513.8604 515.7762 515.7762
   516.0515 516.0515 517.2369 517.2369 517.2369 517.2369 519.1903 519.1903
   519.1903 519.1903 520.0673 520.0673 520.0673 520.0673 520.4196 520.4196
   520.4196 520.4196 521.2268 521.2268 521.2442 521.2442 521.6168 521.6168
   521.6168 521.6168 521.8559 521.8559 522.0923 522.0923 522.0923 522.0923
   522.3887 522.3887 523.8363 523.8363 528.3186 528.3186 528.3186 528.3186
   529.7742 529.7742 530.0316 530.0316 530.0316 530.0316 532.2526 532.2526
   532.9975 532.9976 533.1196 533.1196 533.1196 533.1196 533.5500 533.5500
   533.5500 533.5500 534.4109 534.4109 537.8174 537.8174 537.8174 537.8174
   537.8900 537.8900 538.3709 538.3709 538.4652 538.4652 538.4652 538.4652
   541.0170 541.0170 542.9354 542.9354 542.9354 542.9354 545.8180 545.8180
   545.8180 545.8180 547.0017 547.0017 552.8980 552.8980 552.8980 552.8980
   556.2262 556.2262 559.0534 559.0534 559.1400 559.1400 559.1736 559.1736
   559.1736 559.1736 562.2002 562.2002 562.2002 562.2002 563.6453 563.6453
   563.9239 563.9239 563.9239 563.9239 564.0503 564.0503 565.0723 565.0723
   565.0723 565.0723 567.6518 567.6518 567.6518 567.6518 568.1632 568.1632
   568.6322 568.6322 569.3630 569.3630 570.1113 570.1113 570.1113 570.1113
   570.7814 570.7814 571.0058 571.0058 571.0058 571.0058 571.6576 571.6576
   571.6576 571.6576 572.1710 572.1710 572.1710 572.1710 572.3061 572.3061
   572.7354 572.7354 575.7692 575.7692 575.7692 575.7692 575.8205 575.8205
   576.0361 576.0361 576.0361 576.0361 576.1447 576.1447 577.9961 577.9961
   584.2025 584.2025 584.2025 584.2025 584.3731 584.3731 584.9104 584.9104
   584.9104 584.9104 586.3635 586.3635 586.3635 586.3635 587.9688 587.9688
   587.9688 587.9688 588.3075 588.3075 589.5255 589.5255 589.6158 589.6158
   589.8596 589.8596 589.8596 589.8596 590.5610 590.5610 590.5780 590.5780
   590.5780 590.5780 591.3924 591.3924 591.3924 591.3924 591.6926 591.6926
   591.6926 591.6926 592.0623 592.0623 592.7275 592.7275 592.7275 592.7275
   592.7834 592.7834 592.7899 592.7899 592.8036 592.8036 592.8036 592.8036
   592.8919 592.8919 594.8365 594.8365 594.8932 594.8932 594.8932 594.8932
   595.7482 595.7482 595.7482 595.7482 595.7877 595.7877 606.7911 606.7911
   606.7911 606.7911 609.2236 609.2236 609.2236 609.2236 609.4301 609.4301
   609.9646 609.9646 614.4037 614.4037 614.5160 614.5160 614.5160 614.5160
   616.0660 616.0660 616.0660 616.0660 616.2684 616.2684 617.8881 617.8881
   619.3055 619.3055 619.3055 619.3055 620.3819 620.3819 620.3819 620.3819
   620.8834 620.8834 621.2567 621.2567 621.2567 621.2567 622.2759 622.2759
   623.3941 623.3941 623.3941 623.3941 623.9939 623.9939 623.9939 623.9939
   624.0634 624.0634 624.1516 624.1516 624.1902 624.1902 624.1902 624.1902
   625.8195 625.8195 628.6075 628.6075 629.4922 629.4922 629.4922 629.4922
   631.5574 631.5574 631.5574 631.5574 632.2942 632.2942 638.7449 638.7449
   641.0227 641.0227 641.0227 641.0227 644.4476 644.4476 644.4476 644.4476
   646.1921 646.1921 652.5785 652.5785 653.1398 653.1398 653.1398 653.1398
   655.0013 655.0013 655.0700 655.0700 655.0700 655.0700 657.5012 657.5012
   657.5012 657.5012 662.9543 662.9543 663.5361 663.5361 663.5361 663.5361
   664.8341 664.8341 665.8646 665.8646 667.8312 667.8312 667.8312 667.8312
   667.8830 667.8830 668.8773 668.8773 668.8773 668.8773 669.9873 669.9873
   669.9873 669.9873 670.3356 670.3356 670.3356 670.3356 670.5664 670.5664
   671.3100 671.3100 671.5372 671.5372 671.5372 671.5372 671.7348 671.7348
   671.8189 671.8189 671.8189 671.8189 672.7902 672.7902 674.2703 674.2703
   674.2703 674.2703 674.4808 674.4808 674.8973 674.8973 674.8973 674.8973
   675.0455 675.0455 678.8120 678.8120 678.8120 678.8120 679.2840 679.2840
   679.3865 679.3865 679.3865 679.3865 679.6098 679.6098 679.6379 679.6379
   680.2266 680.2266 680.2266 680.2266 680.8061 680.8061 680.8061 680.8061
   681.2401 681.2401 682.2610 682.2610 682.2610 682.2610 683.0852 683.0852
   683.0852 683.0852 683.5568 683.5568 684.5348 684.5348 684.6761 684.6761
   685.2926 685.2926 685.2926 685.2926 685.9969 685.9969 685.9969 685.9969
   686.0443 686.0443 686.2687 686.2687 686.2687 686.2687 686.4150 686.4150
   686.5537 686.5537 686.9091 686.9091 686.9091 686.9091 698.4031 698.4031
   700.3293 700.3293 700.3293 700.3293 701.5386 701.5386 701.5984 701.5984
   701.5984 701.5984 702.2854 702.2854 715.4802 715.4802 722.2353 722.2353

          k = 0.0000 0.2887 0.0000 (  2415 PWs)   bands (ev):

   -90.2007 -90.1987 -11.4505 -10.0039   1.0963   3.1700   4.2375   4.5890
     5.9348   6.0571  15.8028  18.9309  19.3669  21.6415  21.9251  22.7061
    23.8044  24.4486  25.5802  30.0103  30.9259  35.9813  37.2747  38.3619
    40.1667  40.1974  42.3919  44.5051  44.6670  46.7568  47.4204  47.8056
    49.0175  51.3329  51.8920  55.8023  58.9842  59.1273  59.6231  60.8445
    62.4542  64.2660  65.7332  66.0106  66.9717  69.5038  71.7242  71.9078
    72.4178  75.1135  76.7289  78.6461  79.3180  80.0057  81.5671  82.5951
    83.7985  84.4487  84.9094  86.1682  87.0999  88.4057  88.6685  89.6878
    89.7182  91.4036  92.7674  92.7776  93.9790  94.9203  95.9278  97.7066
    98.4736  98.5272  99.2930  99.7635 101.3317 101.7148 102.6494 104.6247
   105.3839 106.7106 107.3433 108.4018 108.5841 109.6218 110.4780 112.3931
   112.5416 112.9720 113.6699 116.3143 117.2855 117.8137 119.4458 120.4415
   121.0698 121.8711 124.7180 125.6599 126.9985 127.1311 127.7662 128.2843
   129.0227 130.0247 130.7930 130.9713 131.2125 132.6163 135.3005 135.8040
   136.8303 137.6745 139.5326 139.7222 141.3920 141.6748 141.7324 143.4272
   143.4634 145.4233 145.7407 146.0090 148.0094 148.2632 149.6005 149.9145
   151.3098 151.3953 151.6680 154.0680 154.2154 154.5623 155.7665 156.0654
   156.5766 159.3102 159.8568 160.9947 161.2229 161.7767 162.7850 162.9107
   163.1498 163.7909 165.5331 165.7870 167.4378 167.7513 169.4892 169.7439
   170.9972 171.5209 171.6642 172.5202 173.2426 173.8542 176.1405 177.3050
   179.5666 179.8384 180.9873 181.9283 182.3511 182.3902 182.9012 183.5892
   185.3049 185.8949 186.5297 187.1483 188.5600 189.9842 190.7923 190.9626
   192.1567 192.2871 193.1150 193.8066 194.0823 194.9631 195.7230 196.4762
   197.6671 198.3527 199.5232 200.2966 200.4510 200.7548 202.4058 204.0008
   204.7753 205.0376 205.2935 205.7055 206.3618 207.1110 207.8618 208.5663
   209.0779 209.5969 210.2932 210.9069 211.5782 212.2084 212.7232 212.9698
   214.1218 214.4654 214.6805 215.3799 216.2135 216.3717 216.8515 217.0855
   217.4360 218.5998 221.5893 221.8337 222.3639 222.4273 222.9237 223.3048
   223.4282 223.7172 223.9263 224.1816 224.5489 224.6040 225.4919 225.5558
   226.1842 226.9838 227.1690 227.6636 228.1388 228.6262 228.7216 229.2006
   230.1056 230.9316 231.7966 231.9427 232.8364 233.4246 234.0783 234.3168
   235.0191 235.4884 238.4228 238.8687 239.9956 242.5374 242.5688 243.0162
   244.1124 245.3092 246.0619 246.6764 247.0864 247.8387 249.2168 249.4968
   250.0049 250.7015 250.7845 251.0568 253.3254 253.6036 254.1027 254.7266
   255.0235 255.8087 256.1809 256.7325 257.8090 258.7965 260.0101 261.5936
   261.7938 262.9012 263.5427 265.5782 266.2361 266.2523 267.3469 268.0369
   269.9557 270.1432 270.9575 271.3514 272.0014 272.8461 273.3857 274.0572
   274.2129 275.0842 275.1181 276.8548 277.2597 278.1279 279.2561 280.2527
   280.6589 281.8831 281.8899 282.3307 282.6293 282.8738 283.3527 284.0250
   284.1956 284.3190 284.6030 286.3945 286.8283 287.0247 287.5708 288.4991
   288.5117 289.0615 289.3269 291.0936 291.4177 292.1940 292.5768 292.7228
   293.4808 293.6122 293.6913 294.3825 294.4808 295.1318 295.3082 295.8061
   296.3061 296.4609 296.5527 296.7190 297.9008 298.3906 298.9286 300.2478
   300.8409 301.8943 302.8499 303.1385 304.7463 305.9031 306.3925 306.9719
   308.0770 309.0851 309.7248 310.7482 311.1809 312.0184 312.5948 312.8192
   313.1495 314.0900 314.3943 315.2083 315.2477 315.3415 315.8957 316.7456
   317.3416 317.5640 318.1940 318.5237 318.8470 320.0831 320.5154 321.3419
   321.5900 321.8284 322.0929 323.1793 323.8463 325.2622 326.0592 327.0756
   327.7018 328.2540 328.3634 329.9814 330.5801 330.6589 331.4452 332.8056
   332.9954 333.4495 334.5433 334.9912 335.1731 335.6757 337.5337 337.5672
   338.0941 338.1925 338.4481 339.0414 339.6686 340.3402 340.3408 340.4411
   341.1183 341.5761 343.5222 344.1769 344.5025 344.9510 345.1169 346.0184
   347.4857 347.8616 348.4654 348.7525 349.2561 349.3490 349.6923 350.0476
   350.6787 350.8179 351.4782 351.6526 352.2057 352.5662 353.8772 353.9629
   354.4863 354.9631 355.0670 355.2226 356.1612 356.1845 356.8405 356.9578
   357.3955 357.4131 357.9177 358.5376 359.0551 359.1221 359.9093 359.9982
   361.5625 361.9535 364.5162 365.9113 366.1639 366.5841 368.0438 368.4027
   369.2995 369.8710 370.0144 370.5262 371.3315 371.4881 372.0888 372.3922
   373.2124 373.3081 374.4822 374.5704 375.3219 375.9510 376.3992 376.5450
   377.1785 377.3159 377.3788 377.6584 378.6858 378.7270 379.4024 379.8378
   380.6421 380.8083 380.8747 382.3708 382.8332 384.0497 384.2511 384.3779
   386.3300 387.0364 387.3525 387.5914 387.8707 388.1147 388.4326 388.8716
   390.0894 390.8589 391.1802 391.8626 392.4447 393.1845 393.8091 393.8418
   394.0764 394.9402 395.0307 395.2543 395.8585 396.4794 396.8223 397.6868
   398.0564 398.2126 398.4601 399.3052 399.5144 399.6161 400.0910 400.1926
   400.2865 400.5424 400.6657 400.7041 400.9218 401.1151 401.8130 402.5403
   403.2089 403.9345 404.4520 404.9393 406.1814 406.4624 407.3110 408.4994
   408.5120 408.5383 408.8296 409.2659 409.4118 409.8310 410.3267 410.4724
   410.6392 410.7701 410.9845 411.4800 411.7190 411.9283 412.2027 412.7690
   413.5655 414.2274 414.7242 415.1669 415.1966 415.4720 416.1382 416.2258
   416.6837 416.8092 417.5978 417.8372 418.8098 419.3131 420.1262 420.3884
   420.5349 420.7504 421.0504 421.3364 422.3865 422.8284 424.3162 426.0592
   429.5770 429.8064 429.8731 430.7301 430.8944 431.6014 432.2582 433.8550
   434.2798 434.5578 434.6949 435.1228 435.5389 435.8334 436.4911 436.5349
   437.1094 437.8534 438.1895 438.3963 438.4832 440.0424 440.2184 441.1819
   441.4743 441.6751 441.7785 442.3664 443.3875 443.6536 444.0265 444.7287
   445.0885 445.4623 446.9910 447.8762 449.1537 450.3772 450.6966 451.1524
   451.4309 451.6187 451.8959 454.7083 455.3405 455.5228 456.5803 457.4017
   458.3606 458.8183 459.0499 459.4676 459.7351 460.0080 460.2039 460.8995
   461.0930 461.8999 462.7441 463.0559 463.1122 463.7505 463.8754 464.2595
   464.9531 465.1414 465.2697 465.3996 466.0458 466.9274 467.5351 468.8289
   470.6033 470.7216 471.2522 471.6811 472.5287 473.8202 473.8612 474.1297
   474.4788 474.8497 475.3544 475.3687 475.5666 475.8250 476.1373 476.6910
   476.8679 477.0179 477.6465 478.0027 478.3691 478.4886 479.1956 479.2549
   479.5826 479.7068 479.8035 480.8179 481.5625 481.7725 482.1791 482.2569
   483.2741 483.3295 483.3902 483.5650 486.6786 487.5335 487.6598 489.4859
   490.1586 490.2100 490.6744 491.2734 491.3533 491.8710 492.5538 493.0198
   493.2678 493.7383 493.8347 494.3500 494.7486 495.0320 495.8360 496.1142
   496.4364 496.7685 496.9359 497.2921 497.3288 497.6537 499.1912 500.3371
   500.5836 501.3269 501.3681 502.2406 502.3320 502.7199 502.9176 503.1562
   503.3201 503.4978 503.5605 504.1153 504.3281 504.3408 504.6903 505.0263
   505.6741 506.1463 506.4021 506.8691 507.3573 507.6027 507.6474 507.7596
   509.5996 511.2537 512.4466 512.6059 513.0179 513.3692 513.4752 513.9179
   514.1336 514.6065 514.9065 515.9387 516.3390 517.3205 517.9717 518.0590
   518.3680 518.4277 518.4313 518.9994 519.6743 519.8430 520.2391 520.7449
   521.5467 522.7388 523.0273 523.4887 524.5908 524.7047 525.0927 525.4066
   526.3719 526.6934 526.8364 527.4733 527.8647 528.9426 529.1203 529.1659
   529.3496 530.2780 530.7222 531.3993 531.9557 531.9773 532.4446 532.6348
   532.8281 532.9402 533.0075 533.0616 533.6024 533.8250 534.0702 534.2629
   535.0991 535.6913 536.6224 536.6294 537.1110 537.1799 537.6435 537.9135
   538.0308 538.2664 538.4912 539.2701 540.1857 540.7192 540.9693 541.5809
   541.7684 541.8400 542.1529 542.7260 542.9463 543.4351 543.4782 543.9956
   544.4572 544.6618 544.8271 544.8831 545.1343 545.4221 545.5096 545.6786
   545.7804 546.5147 546.9640 550.0227 552.1142 553.5522 554.6056 555.6026
   555.8655 556.6173 556.6557 557.2652 557.6154 558.8074 558.9141 559.2835
   559.6486 559.8118 559.8866 561.0701 561.0896 561.6134 561.8049 562.0553
   562.4059 562.6495 562.9079 563.2511 563.6663 563.6971 564.3565 564.6405
   564.6887 564.9004 565.1413 565.1551 565.1999 565.3554 565.6543 565.8918
   566.0441 566.1263 566.6664 566.9302 569.5344 570.0347 572.8771 574.6003
   574.8998 574.9242 575.7020 576.6193 576.8126 576.9223 577.8124 578.1884
   578.5227 578.9940 579.2215 579.3228 579.7497 580.0849 580.2290 580.3954
   580.4330 580.6627 581.1039 581.3939 581.7293 582.1725 582.5079 582.7796
   582.9275 583.0475 584.0118 584.4071 585.4151 585.4540 586.3157 586.4509
   586.7029 586.7195 587.1111 587.3902 587.5858 587.7384 587.9185 588.8496
   589.2727 589.7060 589.7488 590.0726 590.2259 590.4413 590.5548 590.6072
   590.9610 591.4605 592.1439 592.3511 593.0113 593.0124 593.6443 594.5469
   595.3197 595.5692 595.7435 595.7808 596.0590 596.2672 596.4271 596.5475
   596.7359 596.7959 597.0538 597.1121 598.2988 598.4806 598.5261 598.7457
   598.8721 599.0302 599.3041 599.6302 599.9638 600.1408 600.6653 601.3571
   602.2388 603.1714 603.3051 603.5469 603.7256 603.9429 604.3520 604.5111
   604.8650 605.1886 605.3801 605.5851 605.9693 606.0513 606.6808 606.9479
   607.2861 607.3347 607.4765 607.4849 607.5573 607.8246 608.1005 608.2211
   608.4270 608.8515 609.0158 609.4918 609.5873 613.1988 614.1715 614.7425
   616.8380 616.9086 617.4606 618.0147 618.5760 619.1936 619.7881 620.8923
   620.9312 621.6039 621.7989 622.0025 623.1740 624.1085 624.8315 624.8675
   624.9568 625.1135 625.8274 626.1289 626.7664 627.0828 627.6281 627.8087
   627.8568 628.7207 629.3320 632.2765 633.6386 634.2623 634.4574 634.6201
   635.1225 635.2065 635.2412 635.6753 636.1789 636.6358 636.9945 637.0302
   637.8985 638.0617 639.0421 639.3284 640.7998 641.9227 642.3498 643.3891
   643.7060 644.4754 644.6805 645.1503 645.1957 645.6774 646.4196 646.5382
   646.9036 647.1647 647.4688 647.6466 648.2247 648.4089 648.5588 648.7128
   648.9517 649.2131 649.2956 649.3273 649.8717 650.1296 650.4183 650.6458
   650.6992 650.9436 651.0699 651.6713 651.7681 651.8118 651.9968 652.2002
   652.4404 652.6422 653.2399 653.5022 654.2544 654.3747 654.6268 655.2367
   656.1193 657.0511 659.0892 659.1000 659.3340 659.9676 660.0698 660.2386
   660.3278 660.3570 660.8006 661.6407 661.8895 662.5318 662.5629 662.6361
   662.6509 662.8467 662.9503 663.3913 664.8256 665.0596 665.6002 665.7430
   666.0852 666.1648 666.5441 666.6287 666.6849 666.7327 667.1164 667.3399
   668.0123 668.5192 669.5650 670.2891 670.3369 670.5367 670.5889 670.7442
   670.9664 671.1419 671.4330 671.7042 672.9541 673.0135 673.1127 673.6439
   675.0393 675.2773 676.8701 677.9086 678.4786 678.8552 679.5745 679.9062
   680.3408 680.7189 681.3345 681.6115 681.6784 682.3401 683.0296 683.3650
   684.1414 684.7899 685.0394 685.1320 685.6805 685.8060 686.2203 686.4530
   687.3622 687.8237 688.5449 688.9615 689.1021 689.4502 689.7225 689.9439
   690.2227 690.2387 690.5070 691.1070 691.7907 691.8706 692.6251 692.6493
   692.9666 692.9975 693.9687 694.0632 694.3892 695.3611 696.2273 696.3766
   696.9675 697.6284 699.1299 699.5055 699.7285 700.3213 700.5932 700.6651
   701.4982 702.9100 703.0054 703.5142 704.4059 704.7569 704.9929 705.2272
   705.7917 706.3942 706.5819 706.6914 707.1546 707.6053 707.8187 708.1171
   708.3120 708.3390 708.6234 708.9274 709.4268 709.5933 709.8468 710.0824

          k = 0.0000 0.2887-0.3078 (  2420 PWs)   bands (ev):

   -90.1997 -90.1997 -10.8064 -10.8064   2.5893   2.5893   4.6944   4.6944
     5.2718   5.2718  16.4505  16.4505  20.6678  20.6678  23.0929  23.0929
    23.4271  23.4272  29.2974  29.2974  33.8591  33.8591  35.7606  35.7606
    40.2940  40.2940  44.1247  44.1247  45.5554  45.5554  47.4836  47.4836
    51.4385  51.4385  51.9611  51.9611  56.8723  56.8723  62.4697  62.4697
    63.5326  63.5326  67.9742  67.9742  70.1162  70.1162  72.9517  72.9517
    73.3207  73.3207  76.0929  76.0929  79.3992  79.3992  79.7544  79.7544
    81.8907  81.8907  84.1252  84.1252  86.0254  86.0254  89.7567  89.7567
    92.9247  92.9247  94.1626  94.1626  94.5565  94.5565  95.7906  95.7906
    98.3446  98.3446 100.6841 100.6841 102.9569 102.9569 104.0193 104.0193
   107.8695 107.8695 108.4921 108.4921 110.1265 110.1265 111.7810 111.7810
   113.0612 113.0612 114.9672 114.9672 117.7758 117.7758 118.2976 118.2976
   122.5716 122.5716 123.9980 123.9980 124.7671 124.7671 126.8039 126.8039
   127.9342 127.9342 131.7386 131.7386 133.6627 133.6627 133.9911 133.9911
   136.3149 136.3149 136.6640 136.6640 138.8322 138.8322 142.6895 142.6895
   144.9589 144.9589 147.1849 147.1849 148.2782 148.2782 148.3238 148.3238
   150.2987 150.2987 152.2800 152.2800 154.2056 154.2056 157.6890 157.6890
   158.4953 158.4953 161.2628 161.2628 163.2463 163.2463 166.4011 166.4011
   168.2744 168.2744 169.2644 169.2644 171.4165 171.4165 172.7421 172.7421
   173.8875 173.8875 174.0310 174.0310 175.5493 175.5493 175.8609 175.8609
   177.6961 177.6961 178.8596 178.8596 179.9210 179.9210 181.9278 181.9278
   183.5819 183.5819 184.7593 184.7593 187.9967 187.9967 188.8499 188.8499
   189.2675 189.2675 190.3897 190.3897 193.7079 193.7079 195.3155 195.3155
   196.6051 196.6051 198.3705 198.3705 198.3788 198.3788 200.2904 200.2904
   201.3170 201.3170 202.9355 202.9355 206.3009 206.3009 207.1232 207.1232
   208.8683 208.8683 209.2988 209.2989 211.6732 211.6732 212.4463 212.4464
   213.4425 213.4425 214.8225 214.8225 216.3906 216.3906 217.3745 217.3745
   218.8327 218.8327 219.2134 219.2134 220.9312 220.9312 223.5707 223.5707
   224.9907 224.9907 227.2049 227.2049 227.7659 227.7659 228.4081 228.4081
   230.7018 230.7018 231.2475 231.2475 231.7075 231.7075 233.2013 233.2013
   234.5629 234.5629 235.9196 235.9196 237.9149 237.9149 238.6190 238.6190
   240.7479 240.7479 240.9054 240.9054 242.1403 242.1403 243.0211 243.0211
   244.6384 244.6384 247.1201 247.1201 247.2831 247.2831 249.3663 249.3663
   249.6363 249.6363 251.1785 251.1785 252.4545 252.4545 253.2558 253.2558
   255.3760 255.3760 256.3523 256.3523 257.1601 257.1601 258.9972 258.9972
   259.4835 259.4835 262.0249 262.0249 264.2243 264.2244 264.2725 264.2725
   266.8906 266.8906 268.0626 268.0626 268.4160 268.4160 269.3586 269.3586
   272.2849 272.2849 273.3707 273.3707 274.0192 274.0192 274.1041 274.1041
   275.3636 275.3636 276.7912 276.7912 279.6164 279.6164 280.4721 280.4721
   281.4109 281.4109 281.7504 281.7504 283.0349 283.0349 286.6651 286.6651
   288.4826 288.4826 288.7750 288.7750 289.9975 289.9975 293.1575 293.1575
   293.7556 293.7556 297.9364 297.9364 298.4132 298.4132 300.3899 300.3899
   302.1874 302.1875 303.8559 303.8559 304.7772 304.7772 305.9726 305.9726
   308.1949 308.1949 308.8960 308.8960 309.0945 309.0945 311.3990 311.3990
   311.4775 311.4775 313.0317 313.0317 313.1286 313.1286 314.5326 314.5326
   315.1955 315.1955 316.1480 316.1480 317.4597 317.4597 319.1178 319.1178
   319.5900 319.5900 319.8527 319.8527 320.6462 320.6462 320.7084 320.7084
   321.2110 321.2110 321.6311 321.6311 324.5129 324.5129 324.9637 324.9638
   327.0798 327.0798 328.2181 328.2181 330.1111 330.1111 330.9999 330.9999
   331.4469 331.4469 332.6328 332.6328 333.5181 333.5182 334.7756 334.7756
   335.8412 335.8412 336.8982 336.8982 338.2550 338.2550 338.7067 338.7067
   338.8290 338.8290 340.3124 340.3124 343.7760 343.7760 344.3472 344.3472
   345.6981 345.6981 346.8225 346.8225 347.5867 347.5867 348.3943 348.3943
   349.9926 349.9927 354.0603 354.0603 354.7654 354.7654 355.6688 355.6688
   355.7237 355.7237 356.7302 356.7302 357.6181 357.6181 358.3671 358.3672
   358.5495 358.5495 360.3583 360.3583 362.0785 362.0785 362.2139 362.2139
   362.8543 362.8543 364.3042 364.3042 365.0941 365.0941 366.3759 366.3759
   367.0743 367.0743 368.9190 368.9190 369.7594 369.7594 370.9439 370.9439
   372.8151 372.8151 373.1500 373.1500 373.2472 373.2472 374.5548 374.5548
   376.5519 376.5519 378.2317 378.2317 379.3484 379.3484 379.7045 379.7045
   380.5666 380.5666 381.8909 381.8909 381.9574 381.9574 383.0823 383.0823
   383.6775 383.6775 384.7385 384.7385 384.9021 384.9021 386.0926 386.0926
   386.7016 386.7016 387.8186 387.8186 388.5562 388.5562 389.0412 389.0412
   390.0600 390.0600 390.7951 390.7951 392.3739 392.3739 394.7167 394.7167
   396.2117 396.2117 397.9801 397.9801 398.7701 398.7701 400.7570 400.7570
   402.2802 402.2802 402.7190 402.7190 403.2650 403.2650 404.3966 404.3966
   405.5753 405.5753 405.9270 405.9270 406.6909 406.6910 407.6199 407.6199
   409.8364 409.8364 411.3579 411.3579 411.9889 411.9889 413.7890 413.7890
   414.1964 414.1964 415.0274 415.0274 415.3801 415.3801 416.6160 416.6160
   417.4049 417.4049 418.6379 418.6379 419.9783 419.9783 420.1542 420.1542
   421.6752 421.6752 421.7751 421.7751 422.4204 422.4204 423.5246 423.5246
   423.5350 423.5350 424.7407 424.7407 425.9601 425.9601 426.8128 426.8128
   428.0191 428.0191 430.1983 430.1983 430.7999 430.7999 432.3300 432.3300
   433.3007 433.3007 434.6417 434.6417 435.2956 435.2956 436.3328 436.3328
   436.3813 436.3813 437.1124 437.1124 439.3460 439.3460 441.8138 441.8138
   441.8258 441.8258 443.4832 443.4832 446.7736 446.7736 448.3151 448.3151
   448.3680 448.3680 450.3567 450.3567 450.4895 450.4895 452.4623 452.4623
   453.2646 453.2646 454.4244 454.4244 455.9236 455.9236 457.1626 457.1626
   457.3031 457.3031 457.9063 457.9063 458.2324 458.2324 459.1170 459.1170
   459.2047 459.2047 459.8914 459.8914 461.1232 461.1232 461.3226 461.3226
   462.4893 462.4893 464.0117 464.0117 464.5766 464.5766 464.7755 464.7755
   464.7907 464.7907 465.9020 465.9020 466.3497 466.3497 468.3570 468.3570
   471.3987 471.3987 471.4811 471.4811 472.2916 472.2916 474.5505 474.5505
   475.7638 475.7638 476.2333 476.2333 478.6833 478.6833 479.5816 479.5816
   479.8203 479.8203 481.1294 481.1294 481.5796 481.5796 482.4667 482.4667
   482.6276 482.6276 483.3127 483.3127 484.2245 484.2245 484.7517 484.7517
   484.7774 484.7774 487.9015 487.9015 489.3646 489.3646 489.3932 489.3932
   491.4290 491.4290 491.4917 491.4917 494.2214 494.2214 494.9722 494.9722
   496.1949 496.1949 497.7578 497.7578 499.1106 499.1106 499.2210 499.2210
   499.6533 499.6533 500.0833 500.0833 502.8652 502.8652 504.7029 504.7029
   505.2561 505.2561 505.8125 505.8125 508.6522 508.6522 509.0850 509.0850
   509.7212 509.7212 510.3580 510.3580 510.9204 510.9204 511.9213 511.9213
   512.5993 512.5993 513.3097 513.3097 515.3288 515.3288 515.4362 515.4362
   518.2865 518.2865 518.3483 518.3483 518.7411 518.7411 519.2304 519.2304
   520.5049 520.5049 521.1810 521.1810 521.2524 521.2524 522.2406 522.2406
   523.5391 523.5391 524.7951 524.7951 524.8665 524.8665 525.3668 525.3668
   526.2283 526.2283 527.1411 527.1411 527.3743 527.3743 528.8440 528.8440
   530.2421 530.2421 530.4139 530.4139 531.2765 531.2765 532.2187 532.2187
   532.4889 532.4889 532.5129 532.5129 532.9123 532.9123 532.9268 532.9268
   535.6062 535.6062 537.4026 537.4026 539.1907 539.1907 539.9982 539.9982
   542.4902 542.4902 543.4330 543.4330 543.9261 543.9261 544.1161 544.1161
   544.8713 544.8713 545.0649 545.0649 547.1388 547.1388 547.4970 547.4970
   548.6995 548.6995 548.9720 548.9720 550.7463 550.7463 550.9550 550.9550
   552.0432 552.0432 553.0704 553.0704 553.9754 553.9754 554.6665 554.6665
   556.0449 556.0449 556.2529 556.2529 556.2909 556.2909 557.1033 557.1033
   557.6999 557.6999 558.3636 558.3636 558.4178 558.4178 559.5287 559.5287
   559.5595 559.5595 560.3993 560.3993 560.7509 560.7509 561.2625 561.2625
   561.6111 561.6111 562.1621 562.1621 563.0514 563.0514 563.1380 563.1380
   563.6178 563.6178 564.0746 564.0746 564.1100 564.1100 567.2716 567.2716
   567.4104 567.4104 567.8298 567.8298 568.2082 568.2082 569.9074 569.9074
   572.0320 572.0320 572.9733 572.9733 573.8282 573.8282 574.3419 574.3419
   575.1746 575.1746 576.0755 576.0755 576.1067 576.1067 577.8853 577.8853
   578.2990 578.2990 581.5208 581.5208 581.9386 581.9386 582.5213 582.5213
   583.1159 583.1159 584.5902 584.5902 584.8255 584.8255 586.6283 586.6283
   588.6880 588.6880 591.3293 591.3293 592.2014 592.2014 593.2301 593.2301
   593.3238 593.3238 594.0010 594.0011 594.2431 594.2431 594.5555 594.5555
   595.4869 595.4869 597.8749 597.8749 599.7703 599.7703 600.1113 600.1113
   601.0842 601.0842 602.1567 602.1567 602.1926 602.1926 602.9128 602.9128
   603.7732 603.7732 604.5039 604.5039 604.7124 604.7124 606.0076 606.0076
   608.2083 608.2083 608.9938 608.9938 609.5468 609.5468 610.9076 610.9076
   610.9412 610.9412 613.2217 613.2217 614.1435 614.1435 614.3975 614.3975
   614.5121 614.5121 615.1825 615.1825 616.0186 616.0186 617.3735 617.3735
   617.5890 617.5891 618.2882 618.2882 619.2626 619.2626 619.4113 619.4113
   620.4403 620.4403 620.7059 620.7059 621.5036 621.5036 621.5223 621.5223
   622.2100 622.2100 622.3062 622.3062 622.9124 622.9124 624.2304 624.2304
   624.3464 624.3464 625.6381 625.6381 626.6862 626.6862 626.7314 626.7314
   627.1510 627.1510 627.6384 627.6384 631.5538 631.5538 631.9861 631.9861
   632.5049 632.5049 633.4238 633.4238 634.1741 634.1741 634.5045 634.5045
   634.6309 634.6309 634.9926 634.9926 635.5883 635.5883 636.4226 636.4226
   638.8104 638.8104 639.5002 639.5002 640.9377 640.9377 641.8976 641.8976
   642.1130 642.1130 643.3573 643.3573 643.9495 643.9495 643.9930 643.9930
   644.4684 644.4684 644.8737 644.8737 646.7370 646.7370 647.3318 647.3318
   648.7374 648.7374 650.0044 650.0044 650.7769 650.7769 650.9290 650.9290
   651.4615 651.4615 651.4951 651.4951 652.7145 652.7145 654.2740 654.2740
   654.4925 654.4925 656.4725 656.4725 656.6715 656.6715 656.8966 656.8966
   657.8650 657.8650 657.8837 657.8837 659.6206 659.6206 660.1743 660.1743
   660.5646 660.5646 663.4650 663.4650 664.3485 664.3485 664.4287 664.4287
   665.6978 665.6978 665.7108 665.7108 666.4619 666.4619 666.5516 666.5516
   667.2693 667.2693 667.8433 667.8433 668.0165 668.0165 668.9275 668.9275
   669.1965 669.1965 669.9843 669.9843 671.2661 671.2661 671.4409 671.4409
   672.0737 672.0737 673.3038 673.3038 673.3517 673.3517 674.7792 674.7792
   674.7945 674.7945 682.7658 682.7658 682.9606 682.9606 683.9414 683.9414
   684.9878 684.9878 685.6798 685.6798 687.7177 687.7177 689.3175 689.3175
   689.8689 689.8689 691.0626 691.0626 691.4673 691.4673 692.8426 692.8426
   693.2892 693.2892 695.4195 695.4195 695.8648 695.8648 697.4932 697.4932
   698.3398 698.3398 698.6450 698.6450 698.9913 698.9913 699.3358 699.3358
   699.8344 699.8344 700.0638 700.0638 700.7912 700.7912 701.1529 701.1529
   701.2064 701.2064 702.5835 702.5835 702.8856 702.8856 705.8153 705.8153
   705.9023 705.9023 706.3104 706.3104 708.8649 708.8649 709.5425 709.5425
   710.2853 710.2853 710.3712 710.3712 711.4471 711.4471 712.0987 712.0987

          k = 0.0000-0.5774 0.0000 (  2412 PWs)   bands (ev):

   -90.1993 -90.1984 -10.3930  -9.8827   0.7703   2.4383   3.1301   3.8637
     4.5434   5.5956  16.3575  16.8054  20.0343  21.6653  21.8781  24.4842
    24.7090  25.4177  25.9406  30.9328  34.0663  34.8926  35.3086  37.8953
    40.6503  41.8564  45.2507  45.3086  45.8884  48.5167  49.6370  51.3343
    51.5830  51.7165  52.8708  55.1656  55.7185  57.9307  57.9907  61.6985
    62.6583  64.5598  65.4448  65.9377  68.2638  68.4651  68.6060  69.0229
    70.8060  74.4047  75.0078  75.5016  76.0615  76.3305  78.1400  79.7354
    80.9862  81.0892  81.3963  82.4113  83.3919  85.1065  85.1600  85.6356
    87.4354  88.4689  90.0160  90.9529  94.9955  95.1005  96.1305  97.8138
    98.3291 100.6838 102.4146 102.8323 102.8939 102.9424 107.2502 107.7391
   107.9987 109.8691 112.3311 113.2386 113.4653 114.1400 114.7948 115.1077
   116.4909 117.2439 117.5230 119.8464 120.4531 121.1080 122.3101 122.5921
   123.2939 123.3078 123.5569 124.8522 124.9859 126.9898 130.1482 130.3642
   130.4123 132.6155 132.8042 133.9642 134.5494 135.5739 136.2075 136.8704
   137.5174 137.9456 138.6260 138.7871 140.2171 140.9840 143.3283 143.8260
   145.0629 146.3933 146.6420 146.9670 148.9568 149.0146 149.5262 149.6700
   149.7731 151.3920 151.6304 153.1445 154.5227 154.7366 155.7134 155.8523
   156.3010 156.3015 156.4795 156.7348 159.3205 160.4274 161.7493 161.8586
   163.9330 164.1347 165.9254 166.2389 166.4354 166.9213 167.5464 168.4874
   168.8003 169.1954 169.5507 169.7379 170.4220 171.0383 171.6822 173.8551
   174.0834 174.7774 176.2666 177.3666 177.5100 177.6692 179.1952 180.5192
   181.0929 181.2429 182.4608 184.4406 187.1494 187.4883 188.7407 188.8688
   191.4746 191.8277 192.4968 192.6112 194.2810 194.5438 195.1165 195.5003
   196.3210 197.1060 197.1805 197.8854 198.7787 199.3288 200.0043 200.3869
   200.6361 203.0764 203.2820 203.9882 204.0328 205.9801 206.2529 207.1844
   208.1651 208.3556 208.7256 208.9476 209.1347 209.2856 210.5932 211.1419
   211.1857 211.1891 211.3840 211.6549 212.2742 212.2812 212.4611 212.7991
   212.8507 213.4450 216.9094 218.1331 218.2728 218.7802 221.8300 221.9756
   222.7029 227.3790 229.4484 230.7098 231.6310 232.3336 232.5573 233.3418
   234.0698 234.8000 235.8629 236.6462 237.0062 237.2013 238.0738 238.7335
   239.0264 239.2265 239.2271 239.6643 242.2943 242.3346 243.4916 243.6512
   243.7450 244.2270 244.4051 244.4475 245.8121 246.8133 246.9514 247.1359
   248.9049 248.9127 249.4152 249.6913 250.3251 250.5268 251.1678 251.5323
   251.5447 252.2858 252.7977 253.5003 255.7861 256.1265 257.4418 257.9383
   258.1048 260.3138 260.9607 261.1729 261.4823 261.8759 262.0930 262.7858
   263.8093 264.2533 264.6157 264.9618 265.5245 266.0177 266.5060 267.6188
   269.2348 270.4571 272.8866 273.2618 273.2651 273.2799 273.3264 274.4842
   274.6613 274.7068 274.7172 275.7902 276.1998 276.3307 276.5652 276.7654
   277.2336 277.7058 277.8716 278.0906 278.1292 278.6083 279.1120 279.5568
   279.8760 280.8684 281.3884 281.6088 281.6785 282.7391 284.7762 286.3874
   286.6197 287.1780 287.2315 288.1718 288.2700 288.9192 289.5662 289.9090
   290.3210 291.0746 291.2577 291.9974 293.4636 294.0663 294.3682 294.9969
   295.0036 295.6575 296.0172 296.5219 296.9861 297.6861 300.2049 300.2716
   300.6797 300.8628 301.6992 303.0486 303.9816 304.2191 304.9036 304.9544
   306.6617 308.5031 308.7297 312.5084 314.0113 314.3236 314.9024 315.2936
   316.1970 316.5692 317.0085 317.1659 317.7376 318.3966 318.8064 319.2290
   319.4312 319.5919 319.7978 320.2518 321.0752 321.1238 321.9298 321.9529
   322.0648 322.4543 322.7832 323.4944 323.6807 323.9597 324.4992 324.8191
   326.2289 326.3079 326.3856 326.6287 327.2094 327.3073 328.3422 329.1041
   329.2604 330.5287 330.6391 330.7795 331.5371 331.5546 331.6630 332.2826
   332.4342 333.0249 333.2689 333.6868 334.1367 334.5774 334.6406 334.7866
   334.9013 334.9820 335.3440 335.8437 335.8914 335.9355 336.0296 336.8709
   337.2466 337.3331 337.7936 337.9790 339.3034 340.2961 341.1953 341.5603
   342.2830 343.0562 344.7577 344.7872 352.0683 352.9169 353.1746 353.3021
   353.5101 355.3722 356.3622 357.6291 358.4472 358.7115 358.7974 358.9589
   359.1354 359.1443 359.6156 360.0164 360.1491 360.5647 361.1116 362.1121
   362.3047 362.6102 362.7838 363.5526 364.0701 364.2828 364.5317 364.8889
   365.6771 366.5986 366.9087 367.2038 369.7514 370.3387 370.9270 371.1763
   371.5050 372.5024 372.7778 372.8369 374.0491 374.0585 375.3507 375.4800
   375.9246 377.4556 377.6612 379.3242 379.9819 382.1878 382.3050 382.8814
   383.4524 383.5755 384.3395 384.9252 386.0602 387.3198 388.8143 389.2133
   389.2587 389.2892 389.3349 390.2302 390.8541 392.0356 393.0745 393.8250
   394.8927 394.9890 395.0693 396.9636 397.4866 397.6350 398.1092 398.6730
   398.7192 398.8896 399.4151 399.9564 400.6218 400.8200 401.4403 401.5062
   401.9323 402.0997 402.2401 402.6579 402.7734 403.0169 403.2759 403.4290
   403.7188 404.3528 404.5982 405.0949 405.1960 405.4887 406.5489 406.6546
   407.2024 407.2964 407.9001 407.9791 409.4382 410.6373 411.2797 411.9842
   412.0980 413.0208 413.5662 413.5700 414.6990 414.7322 415.2216 415.9221
   416.0686 417.1211 417.2253 417.4698 417.5075 418.0955 418.4768 418.8204
   419.1351 419.1539 419.2240 419.6660 419.7421 419.8661 420.3996 420.5425
   421.8456 422.2625 423.3645 423.5584 423.6238 424.0641 425.3150 425.5183
   426.6672 427.1487 427.6371 428.1081 428.1474 428.4348 428.4879 428.5465
   429.5755 430.1379 430.3799 431.8415 433.6730 434.7712 436.9848 438.1399
   438.3069 438.4931 439.0348 439.1349 439.1754 439.5388 440.7348 440.9296
   440.9719 441.2050 442.2134 442.4094 443.4889 443.9593 444.4930 445.2268
   445.2495 445.4008 445.9150 446.0594 446.2597 446.4228 446.5437 446.9012
   448.2188 448.3643 449.1585 449.3876 450.3137 450.9573 451.3753 452.0266
   452.5758 453.3211 453.7825 454.0158 454.0464 454.9910 455.3598 455.5394
   455.7277 456.1848 456.4727 456.5010 456.8822 457.1090 457.4640 457.8822
   458.2529 458.3852 458.4222 458.5207 458.7756 459.1143 459.1878 459.5608
   459.9598 460.0748 460.0931 460.2322 460.3729 460.5222 460.6363 460.7653
   460.8861 461.0463 461.1422 461.1666 461.8067 462.0699 462.1306 463.0165
   464.8864 465.3389 465.5665 466.2279 466.4278 466.5407 467.1283 468.2063
   468.2535 468.4486 468.9566 470.6281 477.6517 477.8799 478.2792 478.2846
   479.2023 479.9056 481.4771 481.6145 482.2900 483.4173 483.8639 483.9395
   484.1904 484.3333 484.4388 484.4911 486.1403 486.1601 487.2750 487.3581
   488.1362 488.1844 488.7284 488.7882 488.9896 489.2808 489.2987 489.6858
   489.7771 490.5914 490.8240 490.8251 491.3306 491.5168 492.2128 492.6155
   493.3642 493.9000 495.2434 495.6287 496.4844 497.0318 498.1468 498.1644
   498.3221 498.6100 499.6080 499.8368 499.9817 500.1381 500.5280 501.7548
   502.8985 503.1612 503.1824 503.3959 504.4256 505.3138 507.1061 507.9038
   507.9795 507.9985 508.4346 508.8159 508.9489 508.9906 509.0507 509.3083
   510.3061 510.6274 510.8985 511.4122 511.6365 511.7763 512.0586 512.9845
   514.5383 515.8173 516.4412 516.5079 516.7042 516.9353 518.9229 519.6147
   519.7725 520.3422 521.2517 521.3614 521.5116 521.6649 521.7723 522.0335
   522.1605 522.4125 522.4850 523.4746 524.3589 524.5338 525.3249 525.7323
   526.0229 526.4570 526.6759 526.7112 526.9950 527.0397 527.1124 527.3268
   527.6374 528.1073 528.8246 528.8782 528.9704 529.2493 529.3898 529.4896
   530.0251 530.1906 530.2902 530.3896 530.4205 530.4940 530.5256 530.7698
   531.2044 531.6539 531.8860 535.1326 535.5281 536.2156 536.4403 537.0947
   537.4731 537.4967 537.8814 538.0714 538.1589 538.2391 538.6460 538.6826
   539.4000 540.4556 541.3610 541.9772 542.0462 542.2199 542.3418 542.4082
   542.5933 542.9824 543.2122 543.8752 543.9636 544.1072 545.1307 545.2970
   546.0578 546.1205 546.8434 546.8672 546.8756 546.8908 548.3912 549.3439
   549.3986 550.0393 550.1029 550.2444 550.4635 550.9408 550.9562 551.7176
   551.7497 551.9508 551.9774 552.4437 553.1310 553.2250 553.2756 553.4136
   555.4121 555.8178 557.1720 557.6190 557.8331 558.6517 559.4376 559.6119
   560.6504 562.7433 563.0172 563.9359 564.1072 564.1240 565.8724 565.9827
   566.2651 566.5016 566.7689 566.9705 567.0931 568.1682 568.2312 569.2521
   569.3721 569.7745 570.5477 570.5990 571.0364 571.0693 571.3839 571.3896
   571.4703 571.7098 571.9861 572.1203 576.4416 576.6368 576.8566 577.3368
   578.4400 578.7580 580.0253 580.6174 581.1630 581.5383 581.7120 581.7454
   582.1026 582.2054 582.2505 582.3490 582.4562 582.5812 582.7820 582.7982
   582.8236 582.8810 582.9559 583.0653 584.1129 584.1619 584.5035 584.7416
   585.2890 585.5547 585.6042 587.3866 590.5634 591.0841 592.1638 592.4240
   592.6338 592.7050 592.7987 592.8782 600.6931 600.7257 602.8908 604.5224
   605.2576 605.4516 606.4301 607.1332 607.9144 608.0510 608.2521 608.4575
   608.5268 608.6875 608.9570 609.1142 609.7044 610.3888 610.5979 610.6480
   611.2833 611.3351 611.4805 612.3580 612.7130 613.2260 613.9668 614.0497
   615.3991 615.8986 616.4413 616.5932 616.7991 616.9531 617.8267 618.0656
   618.3698 619.0781 619.1152 619.3815 619.6112 619.7825 620.0094 620.0750
   620.1930 620.2185 620.6353 620.8495 621.0508 621.5197 621.7335 621.9900
   622.6136 622.7258 623.4854 623.5874 623.6020 623.7616 624.4622 624.7692
   624.8946 625.0249 625.0472 625.0736 625.3114 625.6879 625.8965 626.4965
   626.6228 626.6342 626.7933 626.7965 626.8333 630.1587 630.2808 631.1422
   631.2355 631.4689 631.5141 632.2065 632.4699 632.6013 632.6259 632.6362
   632.6900 632.9476 632.9562 633.0932 633.2080 633.2543 633.4480 634.4372
   634.9939 635.1022 635.4326 635.5100 635.5317 635.5929 635.7293 636.9747
   637.4453 637.8326 638.1458 638.5582 638.7982 639.8565 640.2378 640.5150
   640.6294 640.6593 640.8165 641.6225 644.0349 644.5780 645.1251 645.6044
   646.4618 646.4843 646.5088 646.7037 647.2235 647.8681 648.4265 648.7644
   648.7988 648.8152 648.8518 648.8542 648.8949 649.6360 649.8058 649.9038
   650.1057 650.2762 650.3647 650.4522 650.9653 651.1941 652.0660 652.2811
   652.5124 652.6198 652.7853 653.2367 653.2452 653.3769 653.3828 653.5028
   653.5662 653.6007 653.7467 653.8649 660.1098 660.1472 660.2828 660.8563
   661.2890 661.3929 661.4884 662.0286 662.1446 663.2710 663.3954 664.0755
   664.4847 665.3821 665.5966 665.7794 665.7931 665.8300 666.0304 666.0609
   666.2238 666.5093 666.7604 666.9815 667.1041 667.2295 667.2767 667.5942
   667.6530 667.6950 667.7810 667.8006 667.9870 668.0759 668.5636 669.1258
   671.2364 673.6256 674.0128 674.1892 674.2082 674.2448 674.4279 674.4807
   674.6264 674.7491 674.8383 675.0377 675.0507 675.1199 675.6234 676.2048
   676.6740 677.1495 677.2555 677.5152 677.8557 678.8751 679.5083 679.5401
   680.3350 681.2002 681.5418 681.5538 685.2753 685.8783 686.1739 686.6409
   687.0209 687.1084 687.6220 687.6506 690.2926 690.6280 690.7232 691.0936
   691.1566 691.1988 691.4647 691.5302 691.5513 691.5641 692.3035 692.3268
   693.1506 693.3014 693.3993 693.4109 693.7944 693.8043 693.8411 693.9191
   694.7345 694.9192 694.9322 695.2002 695.3039 695.7688 695.8784 696.1769
   696.1978 696.2304 696.3769 696.4459 696.4547 696.5176 696.5446 696.6361
   697.7601 699.8990 700.7777 701.8415 702.0544 702.8922 703.5909 703.7687
   704.6870 704.7774 705.3641 705.6576 705.7310 706.2087 706.5394 706.5809

          k = 0.0000-0.5774-0.3078 (  2416 PWs)   bands (ev):

   -90.1988 -90.1988 -10.1433 -10.1432   1.0007   1.0007   4.6534   4.6534
     4.7865   4.7865  15.6141  15.6141  21.2135  21.2135  23.7542  23.7542
    24.0039  24.0039  29.0575  29.0575  35.4768  35.4768  36.7059  36.7059
    40.0523  40.0523  43.3886  43.3886  47.6445  47.6445  51.3106  51.3106
    53.1327  53.1327  56.3173  56.3173  59.2128  59.2128  60.4514  60.4514
    60.8092  60.8092  61.7191  61.7191  66.6554  66.6554  68.5537  68.5537
    69.3164  69.3164  73.4105  73.4105  78.4887  78.4887  79.5952  79.5952
    81.8090  81.8090  85.8616  85.8616  86.5308  86.5308  89.7483  89.7483
    91.4560  91.4560  91.8017  91.8017  92.1212  92.1212  95.4977  95.4977
    98.2399  98.2399 101.5865 101.5865 101.7597 101.7597 104.4900 104.4900
   106.3972 106.3972 109.4553 109.4553 110.5509 110.5509 114.5478 114.5478
   114.9861 114.9861 118.3011 118.3011 122.0234 122.0234 122.6472 122.6472
   126.5270 126.5270 129.1983 129.1983 130.3562 130.3562 131.8169 131.8169
   133.2577 133.2577 133.7827 133.7827 137.0624 137.0624 137.0946 137.0946
   138.5370 138.5370 139.7241 139.7241 140.1178 140.1178 141.7336 141.7336
   143.3017 143.3017 144.0494 144.0494 145.9010 145.9010 148.5945 148.5945
   149.8359 149.8359 151.8131 151.8131 153.1874 153.1874 154.7509 154.7509
   155.9962 155.9963 156.7482 156.7482 159.6742 159.6742 162.7211 162.7211
   163.0120 163.0120 167.8474 167.8474 168.7137 168.7137 170.5289 170.5289
   170.8191 170.8191 171.4311 171.4311 173.6392 173.6392 174.1058 174.1058
   176.1967 176.1967 178.2450 178.2450 178.6136 178.6136 179.1484 179.1484
   180.1040 180.1040 182.8523 182.8523 183.9801 183.9801 184.1915 184.1915
   186.4685 186.4685 186.9258 186.9258 191.3725 191.3725 191.8139 191.8139
   193.8500 193.8500 196.6726 196.6726 199.3119 199.3119 201.7302 201.7302
   201.9388 201.9388 202.2112 202.2112 206.0779 206.0779 207.3157 207.3157
   207.5684 207.5684 209.2897 209.2897 210.7822 210.7822 213.6363 213.6363
   215.1712 215.1712 217.6002 217.6002 217.6050 217.6050 219.9325 219.9325
   220.1996 220.1996 221.0292 221.0292 223.1035 223.1035 223.9711 223.9711
   225.5150 225.5150 226.5008 226.5008 228.6455 228.6455 229.8425 229.8426
   230.0015 230.0015 231.6224 231.6224 233.2799 233.2799 233.6239 233.6240
   236.2954 236.2954 236.8890 236.8890 238.0535 238.0535 242.5168 242.5168
   242.9495 242.9495 243.9343 243.9343 244.9208 244.9208 245.1633 245.1633
   248.3529 248.3529 251.1115 251.1115 251.4360 251.4360 252.4290 252.4290
   252.9335 252.9335 255.4720 255.4720 255.9825 255.9825 259.2318 259.2318
   260.3034 260.3034 260.6077 260.6077 261.5341 261.5341 262.4556 262.4556
   264.8174 264.8175 265.7687 265.7687 266.9164 266.9164 267.5329 267.5329
   267.6260 267.6260 272.1161 272.1161 272.1372 272.1372 273.1725 273.1725
   275.4214 275.4214 275.4663 275.4663 277.7303 277.7303 279.3460 279.3460
   280.0192 280.0192 280.7299 280.7299 281.2243 281.2243 281.2804 281.2804
   283.3178 283.3178 283.3735 283.3735 284.4232 284.4232 285.0929 285.0929
   286.3836 286.3836 287.9033 287.9033 289.8365 289.8365 292.1142 292.1142
   292.4936 292.4936 293.8809 293.8809 294.3226 294.3226 294.9375 294.9375
   296.8591 296.8591 296.8762 296.8762 297.9817 297.9817 298.4222 298.4222
   300.2006 300.2006 301.0812 301.0812 303.2400 303.2400 303.5961 303.5961
   305.2103 305.2103 306.3870 306.3870 306.7166 306.7166 307.5924 307.5924
   308.4630 308.4630 310.1819 310.1819 312.1389 312.1389 312.6399 312.6399
   313.1634 313.1634 314.6150 314.6150 318.1208 318.1208 318.5719 318.5719
   321.7470 321.7470 322.1900 322.1900 322.3983 322.3983 323.8095 323.8095
   325.7484 325.7484 328.0763 328.0763 328.9557 328.9557 330.2257 330.2257
   331.8081 331.8081 333.7333 333.7333 335.1748 335.1748 335.6327 335.6327
   336.0941 336.0941 336.3572 336.3572 337.6793 337.6793 339.2088 339.2088
   340.5094 340.5094 342.4063 342.4063 342.6224 342.6224 343.5989 343.5989
   344.4375 344.4375 345.7261 345.7262 345.8528 345.8528 346.2107 346.2107
   347.1380 347.1380 348.9149 348.9149 350.1573 350.1573 350.5348 350.5348
   351.5806 351.5806 355.3163 355.3163 356.3185 356.3185 357.1655 357.1655
   357.8804 357.8804 358.6422 358.6422 360.4999 360.4999 362.1260 362.1260
   363.0358 363.0358 363.4299 363.4299 365.6427 365.6427 365.8722 365.8722
   366.7938 366.7938 370.4390 370.4390 370.9546 370.9546 372.2232 372.2232
   372.4130 372.4130 373.9999 373.9999 374.8970 374.8970 376.5365 376.5365
   376.5580 376.5580 376.8785 376.8785 377.1589 377.1589 379.2807 379.2807
   379.5645 379.5645 380.9155 380.9155 381.8410 381.8410 382.8843 382.8843
   384.2142 384.2142 384.9336 384.9336 385.7754 385.7754 386.8249 386.8249
   387.2791 387.2791 387.7504 387.7504 387.8369 387.8369 389.5762 389.5762
   395.7281 395.7281 399.1632 399.1632 399.4677 399.4677 401.7614 401.7614
   403.5258 403.5258 403.9660 403.9660 404.4947 404.4947 405.1685 405.1685
   405.8488 405.8488 405.8729 405.8729 406.1637 406.1637 407.8194 407.8194
   408.0066 408.0066 409.2577 409.2577 410.4395 410.4395 410.8421 410.8421
   414.8527 414.8527 414.9745 414.9745 416.3997 416.3997 416.5134 416.5134
   417.8119 417.8119 418.5054 418.5054 419.9560 419.9560 422.0960 422.0960
   422.3840 422.3840 422.7578 422.7578 424.7485 424.7485 425.9190 425.9190
   426.4347 426.4347 426.4602 426.4602 427.8474 427.8474 428.5476 428.5476
   428.8768 428.8768 429.3377 429.3377 431.0311 431.0311 431.6944 431.6944
   432.2211 432.2211 433.1095 433.1095 433.1568 433.1568 433.8295 433.8295
   435.1949 435.1949 435.5654 435.5654 435.8015 435.8015 438.5308 438.5308
   440.1695 440.1695 440.5228 440.5228 441.9951 441.9951 443.2772 443.2772
   444.5056 444.5056 444.8753 444.8753 445.9410 445.9410 447.0704 447.0704
   447.4486 447.4486 448.5712 448.5712 448.9908 448.9908 449.5504 449.5504
   449.6868 449.6868 450.4378 450.4378 451.7181 451.7181 454.9802 454.9802
   455.3158 455.3158 455.6118 455.6118 456.1186 456.1186 456.7966 456.7966
   457.3406 457.3406 457.8691 457.8692 460.2995 460.2995 461.8942 461.8942
   462.1553 462.1553 462.5555 462.5555 465.3194 465.3194 467.0476 467.0476
   469.1830 469.1830 469.1934 469.1934 470.7061 470.7061 472.1629 472.1629
   472.7008 472.7008 473.9910 473.9910 474.9567 474.9567 475.2770 475.2770
   475.5013 475.5014 476.7762 476.7762 477.0645 477.0645 477.4352 477.4352
   479.9701 479.9701 480.8777 480.8777 481.5853 481.5853 482.5946 482.5946
   482.6269 482.6269 483.1078 483.1078 484.1423 484.1423 484.6636 484.6636
   485.3585 485.3585 485.7143 485.7143 486.1743 486.1743 487.0770 487.0770
   487.7347 487.7347 489.2145 489.2145 490.8511 490.8511 491.3339 491.3339
   492.5341 492.5341 494.1981 494.1981 494.4240 494.4240 495.3394 495.3394
   496.0999 496.0999 496.6582 496.6582 497.8947 497.8947 498.7619 498.7619
   499.8605 499.8605 500.4392 500.4392 500.6652 500.6652 501.4404 501.4404
   502.1020 502.1020 503.1425 503.1425 503.8820 503.8820 505.5328 505.5328
   505.5972 505.5972 507.0644 507.0644 507.9732 507.9732 508.2278 508.2278
   509.7359 509.7359 509.8124 509.8124 510.0382 510.0382 511.5424 511.5424
   513.5668 513.5668 513.7497 513.7497 515.0438 515.0438 515.6971 515.6971
   518.2026 518.2026 519.8135 519.8135 521.5440 521.5440 522.4925 522.4925
   523.4897 523.4897 524.0109 524.0109 524.4000 524.4000 524.7196 524.7196
   525.2633 525.2633 526.5080 526.5080 526.6267 526.6267 527.2755 527.2755
   527.7901 527.7901 529.3424 529.3424 534.9823 534.9823 535.9470 535.9470
   537.4880 537.4880 538.4847 538.4847 538.8171 538.8171 539.4211 539.4211
   539.8011 539.8011 539.8705 539.8705 541.2365 541.2365 543.1470 543.1470
   543.8027 543.8027 544.2149 544.2149 544.5235 544.5235 546.1364 546.1364
   546.2495 546.2495 546.6004 546.6004 546.8775 546.8775 549.3208 549.3208
   551.9092 551.9092 552.8134 552.8134 552.9694 552.9694 553.1690 553.1690
   553.4903 553.4903 553.6221 553.6221 554.5715 554.5715 557.2447 557.2447
   557.3492 557.3492 559.6042 559.6042 560.0856 560.0856 561.3001 561.3001
   562.3381 562.3382 563.9795 563.9795 564.8492 564.8492 565.4711 565.4711
   565.6292 565.6292 565.9076 565.9076 567.3699 567.3699 567.7086 567.7086
   568.6856 568.6856 569.8324 569.8324 570.3387 570.3387 570.8691 570.8691
   570.9441 570.9441 571.3052 571.3052 571.3730 571.3730 573.2396 573.2396
   575.8033 575.8033 576.9179 576.9179 577.4928 577.4928 577.5572 577.5573
   579.5017 579.5017 580.4255 580.4255 580.6491 580.6491 581.2557 581.2557
   581.5184 581.5184 581.7653 581.7653 583.5156 583.5156 584.9443 584.9443
   585.5631 585.5631 585.8434 585.8434 586.1973 586.1973 587.6492 587.6492
   588.0418 588.0418 588.3068 588.3068 590.7180 590.7180 591.6437 591.6437
   592.5039 592.5039 593.0338 593.0338 593.2031 593.2031 593.8937 593.8937
   595.8898 595.8898 595.9579 595.9579 598.5961 598.5961 600.7227 600.7227
   603.5416 603.5416 604.1250 604.1250 605.4636 605.4636 606.0937 606.0937
   606.5920 606.5920 607.5527 607.5527 608.3355 608.3355 608.6150 608.6150
   610.7959 610.7959 611.7873 611.7873 612.1828 612.1828 614.3850 614.3850
   614.9463 614.9463 615.2006 615.2006 615.7534 615.7534 616.6387 616.6387
   617.2419 617.2419 617.7041 617.7041 618.3835 618.3835 620.0548 620.0548
   620.3444 620.3444 620.8916 620.8916 621.2836 621.2836 621.5136 621.5137
   622.0431 622.0431 622.2032 622.2032 623.0211 623.0212 623.8413 623.8413
   624.8212 624.8212 624.8664 624.8664 625.1039 625.1039 625.2797 625.2797
   631.0596 631.0597 631.8291 631.8291 632.8566 632.8566 634.0052 634.0052
   634.2812 634.2812 634.9557 634.9557 635.1011 635.1011 635.5556 635.5556
   638.4173 638.4173 639.0003 639.0003 639.4221 639.4221 639.4925 639.4925
   640.1496 640.1497 640.1528 640.1528 640.3243 640.3243 640.4644 640.4644
   642.1983 642.1983 644.4609 644.4609 645.1564 645.1564 645.4098 645.4098
   646.2046 646.2046 648.0224 648.0224 648.4188 648.4188 648.5875 648.5875
   649.0894 649.0894 650.0527 650.0527 650.3105 650.3105 651.1679 651.1679
   652.9596 652.9596 653.1818 653.1818 653.4054 653.4054 653.4973 653.4973
   653.7372 653.7372 654.1852 654.1852 654.5432 654.5432 654.7501 654.7501
   655.2866 655.2866 655.7373 655.7373 659.0842 659.0842 659.6734 659.6734
   659.9626 659.9626 661.3715 661.3715 661.5407 661.5407 661.8312 661.8312
   662.7598 662.7598 663.1529 663.1529 664.4349 664.4349 665.2298 665.2298
   665.6883 665.6884 665.7700 665.7700 666.0706 666.0706 666.1870 666.1870
   669.0856 669.0856 669.3742 669.3742 669.6104 669.6104 669.6227 669.6227
   669.7489 669.7489 670.0275 670.0275 670.0278 670.0278 670.3826 670.3826
   670.9473 670.9473 671.3133 671.3133 678.7669 678.7669 680.6538 680.6538
   680.8336 680.8336 681.4493 681.4493 681.4838 681.4838 682.5060 682.5060
   683.6781 683.6781 683.9097 683.9098 684.2026 684.2026 685.0903 685.0903
   686.2714 686.2714 686.5318 686.5318 689.6847 689.6847 690.2254 690.2254
   691.3795 691.3795 692.9608 692.9608 693.3702 693.3702 693.4917 693.4917
   694.2735 694.2735 694.7267 694.7267 694.7775 694.7775 694.8735 694.8735
   697.4339 697.4339 697.4575 697.4575 698.1198 698.1198 699.8322 699.8322
   700.9591 700.9591 702.1390 702.1390 703.1766 703.1766 703.7678 703.7678
   704.4745 704.4745 705.1854 705.1854 706.3389 706.3389 706.4842 706.4842
   706.4855 706.4855 706.6496 706.6496 706.7397 706.7397 708.2667 708.2667

          k = 0.2500 0.4330 0.0000 (  2413 PWs)   bands (ev):

   -90.1993 -90.1983 -10.4739  -9.7985   1.3849   2.1681   3.1506   3.7232
     4.5090   4.8941  16.4066  18.2388  20.4829  21.5614  22.6791  22.9366
    24.3229  25.6663  26.6287  28.9898  33.3412  34.0323  36.3910  39.5818
    40.4436  41.6811  43.3437  45.3909  46.2946  47.1882  48.4024  50.7893
    51.6509  55.3960  55.6757  56.5386  57.9084  58.9452  59.4195  60.9859
    61.6884  63.7847  63.8609  64.5143  66.0399  67.7392  68.9718  70.8962
    71.3867  71.6051  72.2924  73.4377  75.4889  77.3457  77.3955  78.1698
    79.4339  79.6247  81.0720  84.4869  85.9968  86.1856  86.9332  87.9551
    88.1812  88.7893  89.6759  93.5202  94.6196  96.2665  96.9260  98.1438
    98.4777  99.2629 101.9660 102.2960 103.6385 103.9390 105.7376 107.1483
   108.6531 109.1527 109.2242 112.7404 113.3898 113.6171 115.1528 116.0903
   116.9048 116.9366 119.2886 119.3543 119.5935 120.0593 121.2427 123.1468
   123.8717 124.8422 126.1109 126.3096 126.7741 128.5425 128.7119 130.6586
   131.0705 131.2751 132.5630 133.2000 133.5834 134.8202 135.6372 136.9140
   136.9280 137.3279 138.3847 138.8796 139.4804 140.5994 142.3999 142.4884
   143.7077 144.4186 145.2989 145.4796 146.2401 146.5072 147.7324 148.9866
   149.8143 151.0789 151.4486 152.7570 153.5185 153.9901 155.4559 156.2826
   156.5082 156.5664 158.3801 159.1415 161.6802 162.2696 163.0525 163.1529
   163.7696 164.1509 165.3319 167.5015 167.7720 168.3447 168.4946 169.9123
   170.1978 170.5441 172.6887 174.1345 175.1665 176.3060 176.4986 176.8962
   177.5175 177.6696 179.0474 179.4360 179.7246 179.9030 181.1815 181.2000
   181.3463 181.9131 182.7628 182.7968 182.9772 183.7658 184.3144 184.7056
   186.4821 187.1571 188.0387 188.0575 190.2617 190.8639 190.8951 192.5278
   192.6602 193.0213 193.2870 195.2022 195.8155 196.1732 196.6589 197.8713
   198.1195 199.3247 200.4798 201.5067 201.9225 204.8573 205.1440 205.5386
   205.5783 206.0743 206.9236 208.9567 209.9042 212.3949 213.0147 213.9174
   214.1714 214.3858 216.3313 216.6382 217.5235 218.5804 219.0353 219.4968
   220.4988 220.8522 221.2600 221.7137 222.0485 223.3436 223.7084 224.7338
   225.0203 226.3686 226.6572 227.1775 229.3146 230.7512 231.1285 231.5987
   233.4893 233.5547 234.3031 235.3671 235.7006 236.9092 237.4582 238.2195
   239.3881 239.8137 240.3108 240.7085 241.6594 241.8112 241.8896 242.6431
   243.5895 243.8287 244.3412 244.5141 245.0225 246.0049 246.3161 246.5981
   247.3746 247.7993 249.2796 249.5022 249.6135 250.1789 250.6656 251.9174
   253.4485 253.8658 254.3135 254.6338 254.8782 255.6470 255.7530 257.3113
   257.3548 257.7663 257.8319 259.8103 260.2351 260.7702 261.2028 261.3339
   262.0665 262.6328 262.9773 263.8310 264.3330 265.3923 266.9024 267.2879
   268.0097 268.6286 269.2368 270.0263 271.6889 272.4772 273.1880 273.4252
   274.2944 274.9410 275.2752 276.1114 276.1767 276.4061 277.0840 277.1330
   277.9210 278.5481 279.4362 279.9058 280.0131 280.1947 281.0660 281.1518
   281.5211 281.8593 282.4740 282.9236 283.7653 285.3741 285.8004 286.8089
   287.0778 287.2535 288.9849 289.2117 289.8488 290.8062 291.1228 291.2130
   292.0883 293.6070 293.7655 294.3557 296.0779 296.5800 297.8450 297.8777
   298.9559 298.9638 299.6861 299.9153 300.0131 300.1184 301.6926 302.2306
   302.9127 303.6120 303.6301 304.2967 304.5963 305.5772 305.6792 306.0679
   306.5331 307.1440 307.2332 307.6273 307.9469 309.0310 309.0418 309.3841
   309.7657 309.8000 310.1119 310.9722 311.9904 313.7670 313.8877 314.7139
   314.9626 315.3540 315.9129 316.0778 316.4508 316.5977 316.6430 317.4206
   318.1894 318.9550 319.2854 319.7406 320.1435 321.6888 323.1907 324.1933
   324.6279 324.8295 325.0847 325.6688 326.4439 326.4675 326.8804 327.0799
   327.7342 328.2543 329.0431 330.8135 330.9519 332.1474 333.4373 334.2365
   334.4947 334.8086 335.4865 336.8636 336.9095 337.6441 337.8819 338.3821
   338.6960 338.8328 339.4399 340.1431 341.8513 342.0604 342.2615 342.8079
   344.2571 344.4638 345.2668 345.3745 345.9275 346.0981 346.5533 347.0866
   347.2889 347.4300 347.8244 349.2842 350.0304 350.8646 351.8076 352.4391
   353.6553 354.0012 354.3284 354.8884 356.2996 356.4536 356.6622 356.8757
   358.3986 358.5751 359.9727 361.4180 362.1026 362.4087 363.9545 364.1783
   364.9118 365.3027 365.8674 366.6330 367.4756 367.5329 367.7588 368.1515
   368.4301 368.8411 368.9815 368.9900 369.2236 369.4656 369.9243 370.2258
   371.4491 371.5273 372.5162 373.1208 373.7065 374.8581 375.5743 375.7588
   377.1239 377.7501 378.3099 378.6677 378.9282 379.2011 379.8009 379.9409
   380.3524 380.4825 381.0886 381.5323 381.5909 382.0830 382.2974 382.6675
   382.9352 383.0519 384.6336 384.9075 386.9476 387.4537 388.5224 388.6640
   389.4474 389.8582 390.0523 390.3692 390.6483 391.9041 393.0430 393.5695
   393.6927 395.1241 395.9121 396.5702 397.6114 399.1521 399.7356 400.7951
   401.2427 401.8763 402.6461 403.3306 403.7150 404.4991 404.5646 404.6115
   405.0271 406.4282 406.6972 406.7820 407.0868 407.1657 407.8196 408.3909
   409.1085 409.5442 409.9043 409.9565 410.4891 410.6233 411.0793 411.4296
   412.1761 412.5414 412.8687 413.0850 413.2388 413.9914 416.2885 416.8300
   417.2517 417.8865 419.9555 419.9622 420.0806 420.5181 421.0022 421.8233
   421.9645 422.2608 422.7989 423.4128 423.4460 424.2791 426.0334 426.3109
   427.0191 427.2966 427.7843 428.3815 428.6362 429.1843 429.3137 429.4234
   429.8875 430.1588 430.3499 430.3735 430.8807 431.2539 431.7698 432.5546
   432.9350 433.6925 433.8274 434.2404 434.6997 434.8996 435.2443 435.4867
   435.6419 436.6295 436.9652 436.9933 438.2378 438.8711 438.9099 439.3292
   439.5919 439.9220 440.3800 441.0086 441.2647 441.2669 442.2987 442.6621
   442.8552 443.4061 443.8759 444.1898 444.3980 444.8684 445.1121 446.0557
   446.2672 446.7029 447.4450 447.7819 448.1511 448.5419 448.5886 449.2222
   449.5230 449.7354 450.2289 450.4893 450.9062 451.1840 451.4476 451.7677
   451.8355 451.9009 451.9486 452.2924 452.3908 452.6918 452.8750 453.5675
   453.9993 454.0359 454.5200 454.7027 455.2030 458.9786 459.1911 460.5170
   460.5469 461.2128 462.2329 462.4002 464.8527 465.4260 465.4350 466.7703
   468.6095 468.7341 469.0892 469.5905 470.0374 470.5849 470.7909 470.8042
   471.3280 471.6141 471.6164 471.8766 471.9537 472.6465 473.0247 473.8834
   474.4666 475.3278 478.5042 478.6146 479.2303 479.6244 480.3261 480.4664
   480.8483 481.0413 481.2684 481.6593 482.6547 482.7140 483.0087 483.2712
   483.3689 483.7718 484.1905 484.3350 484.9564 485.6071 485.9464 486.7018
   487.2465 487.5977 488.1344 488.8934 489.9405 490.6910 490.6953 490.8768
   491.0491 491.5594 491.7020 491.7853 492.2791 492.3176 492.5820 492.9649
   493.2823 493.3685 493.4889 493.8244 494.2728 494.3214 494.5328 494.5622
   494.8382 495.1547 495.4162 495.5631 495.7853 496.8419 497.3135 498.8299
   499.0792 499.4338 500.6074 501.8789 502.0746 502.8268 502.9158 503.0986
   503.2236 503.9808 504.4162 504.7091 505.3338 505.5639 506.3431 506.6754
   506.7029 506.7720 506.9701 507.2065 507.5457 508.2523 509.0982 509.2631
   510.1832 510.5415 510.6308 510.7629 511.2244 511.3880 511.5883 512.0607
   512.3384 513.0217 513.3724 514.2022 514.6177 514.6547 515.6186 516.2023
   516.9832 520.2744 520.5019 521.5757 521.9247 522.3797 523.7005 523.8174
   525.2927 525.3228 525.9458 526.1357 526.7174 527.2661 527.4183 527.7071
   528.1237 528.4096 528.8003 529.9298 530.4067 530.4722 530.6688 530.9918
   531.0302 531.3758 532.0041 532.4697 532.9041 533.6434 533.7556 533.7926
   533.8624 534.0251 534.1583 534.2451 535.1459 535.7526 535.9189 536.1764
   536.3167 536.7806 536.7925 539.6541 540.0732 540.2749 541.3494 542.0863
   542.7190 542.9651 543.2930 543.6136 543.6840 544.9658 545.0570 546.6321
   546.7931 546.9321 547.4834 547.8814 548.8543 549.2865 549.7538 550.1846
   550.6852 551.1033 551.4124 551.6932 551.7046 552.0801 552.1378 553.0990
   553.5896 553.6833 553.8096 554.6454 555.0192 555.4639 555.8683 556.3293
   556.3863 556.9718 557.9491 558.3425 559.1838 559.7716 560.3026 560.4779
   560.7807 561.1688 561.6898 561.7153 562.1617 562.5062 562.8554 563.3694
   563.7312 563.7533 564.0151 564.7110 564.8913 565.3710 565.5081 565.8885
   566.0351 566.2013 566.4972 566.5447 566.8911 567.2159 567.8391 567.9291
   569.0842 569.1725 569.3040 569.4026 569.5768 569.9682 570.1071 571.8922
   572.2083 572.2168 572.4462 573.6016 574.0052 574.2740 575.0671 575.5901
   575.6509 578.2183 578.2875 578.5787 578.7881 579.7487 581.6398 582.2130
   582.3284 583.8957 584.2638 584.6707 585.1906 585.4327 585.9710 586.4889
   586.8072 586.8501 586.9843 587.1762 588.6200 588.7877 589.1927 590.0516
   590.8259 592.5809 592.7134 592.9577 593.2202 593.5502 593.8540 593.8806
   594.4344 594.6032 594.6992 594.9669 595.0337 595.9245 596.0064 597.4496
   597.6066 598.0031 598.3503 598.4936 599.2061 599.2269 599.7746 601.4836
   602.0360 602.9932 603.0920 603.4122 603.6128 604.2504 604.3064 605.3091
   606.0556 606.3450 606.6819 608.2578 609.1003 609.4389 609.8042 610.2863
   610.5373 610.6432 611.4163 611.8666 612.7471 613.4922 613.4989 614.3378
   614.6915 615.2391 615.5308 615.5829 616.0397 616.2372 616.3424 616.5920
   616.9653 617.0957 617.1877 617.4415 617.5121 617.5629 617.7963 617.8399
   617.9968 618.1963 618.5475 619.1298 619.6131 620.3433 620.3728 620.5762
   621.6356 622.1233 622.2835 623.3980 624.8585 625.6992 626.2163 627.3624
   627.6216 628.0613 628.2413 628.5520 628.7219 629.1163 629.3749 630.0548
   630.1563 630.6047 630.6673 631.2341 631.2786 631.5929 631.6517 632.2346
   632.7133 633.2297 633.7168 633.9710 634.5144 634.5547 634.8868 635.0601
   635.1565 635.9984 636.2568 636.3865 636.4917 636.5011 636.8731 636.9100
   637.0065 637.2375 637.7010 638.1876 638.3172 638.4441 639.0237 639.8339
   640.1509 640.8134 641.9103 644.4081 644.4928 644.9546 646.9492 647.1440
   647.6613 647.7510 648.1365 648.9231 649.1028 649.3152 649.7656 650.4796
   650.5114 651.1116 651.1318 651.4305 651.4464 651.7243 652.2664 652.6878
   653.1247 653.2556 653.4425 653.8652 653.8670 654.3255 654.5007 654.8628
   655.2212 655.2349 655.5590 655.6179 655.7735 655.8889 656.1069 656.6757
   657.4794 657.7692 658.6637 659.2877 659.4860 659.5545 659.6222 659.7002
   659.9277 660.1909 660.5711 660.6086 660.9109 661.0714 661.2655 661.4980
   661.7810 662.3625 662.8427 663.1170 666.6438 667.3467 667.9271 668.9560
   668.9628 669.1774 669.3568 669.4390 669.4812 669.7704 670.0284 670.3436
   670.5476 671.9047 672.7651 672.7898 672.8648 673.4864 673.4973 674.4168
   674.4937 674.6444 675.3769 675.7889 676.6043 676.6932 677.0335 678.0243
   678.2049 678.4683 678.5023 679.0297 679.2353 679.5416 679.7691 679.8009
   679.9819 680.1590 680.2966 681.2377 682.0954 683.2518 683.5070 683.8352
   683.8865 684.5775 684.6700 685.4315 686.1453 686.6760 686.7339 686.9947
   687.3885 687.4198 687.7933 687.8802 688.3475 688.4767 688.8655 688.9387
   689.5626 689.8082 690.0241 690.1859 690.2157 690.4385 690.8982 690.9506
   691.0488 691.0697 691.3003 691.5078 691.6392 691.8992 692.2445 692.3619
   692.4728 693.2621 693.3689 693.4043 693.5470 693.5983 693.9340 693.9869
   694.8321 694.9148 694.9635 695.5806 695.9360 696.1944 698.6075 698.9995
   699.6083 699.9727 700.2632 700.4716 700.5854 700.6627 701.3773 701.5535
   701.6351 701.8427 702.4104 703.7064 704.1055 704.2516 704.9408 705.0177

          k = 0.2500 0.4330-0.3078 (  2420 PWs)   bands (ev):

   -90.1988 -90.1988 -10.1517 -10.1517   1.6967   1.6967   3.2611   3.2611
     5.1340   5.1340  17.1299  17.1299  19.9428  19.9428  23.6743  23.6743
    24.8826  24.8826  28.2485  28.2485  33.8712  33.8712  36.8005  36.8005
    41.1651  41.1651  45.7220  45.7220  47.6721  47.6721  50.0605  50.0605
    52.0001  52.0001  55.7935  55.7935  58.3717  58.3717  60.1045  60.1045
    61.2906  61.2906  65.1577  65.1577  66.1231  66.1231  68.7776  68.7776
    71.1948  71.1948  73.6679  73.6679  75.7312  75.7312  78.6827  78.6827
    81.1742  81.1742  84.2630  84.2630  85.3451  85.3451  87.2145  87.2145
    89.8604  89.8604  92.0109  92.0109  94.2345  94.2345  97.3371  97.3371
   100.6980 100.6980 102.2551 102.2552 103.6509 103.6509 107.1519 107.1519
   108.7133 108.7133 110.0063 110.0063 113.6489 113.6489 114.7174 114.7174
   116.7031 116.7031 117.3993 117.3993 118.5762 118.5762 120.2840 120.2840
   122.2259 122.2259 124.9005 124.9005 125.6046 125.6046 128.3140 128.3140
   130.9245 130.9245 133.1116 133.1116 135.6612 135.6612 136.3396 136.3396
   139.6097 139.6097 142.2403 142.2403 143.1375 143.1375 145.5194 145.5194
   147.4016 147.4016 148.0557 148.0557 149.3401 149.3402 150.7312 150.7312
   151.6282 151.6282 152.6021 152.6021 153.4366 153.4366 154.4157 154.4157
   155.7658 155.7658 158.5292 158.5292 159.6220 159.6220 161.7072 161.7073
   164.2046 164.2046 164.8125 164.8125 166.1087 166.1087 167.5326 167.5326
   168.0898 168.0898 169.3415 169.3415 170.1348 170.1348 171.5841 171.5841
   172.8645 172.8645 175.8495 175.8495 178.6951 178.6951 181.4627 181.4627
   183.0135 183.0135 183.7258 183.7258 185.4419 185.4419 186.8165 186.8165
   189.5627 189.5627 191.7735 191.7735 193.9510 193.9510 195.0510 195.0510
   195.8559 195.8559 197.2483 197.2483 198.2523 198.2523 199.2235 199.2235
   200.3409 200.3409 202.5933 202.5933 203.1984 203.1984 204.2344 204.2344
   206.6720 206.6720 207.6781 207.6781 208.6869 208.6869 211.8881 211.8881
   213.7034 213.7034 215.2203 215.2203 216.9851 216.9851 218.1561 218.1561
   218.5520 218.5520 220.2721 220.2721 223.1033 223.1033 224.6959 224.6959
   226.7808 226.7808 227.7694 227.7694 228.8161 228.8161 230.0287 230.0287
   232.0186 232.0186 232.7879 232.7879 233.1374 233.1374 235.4032 235.4032
   237.9741 237.9741 239.9838 239.9838 242.9054 242.9054 243.6532 243.6532
   244.5508 244.5509 244.7126 244.7126 245.7949 245.7949 246.8066 246.8066
   247.8727 247.8727 248.9380 248.9380 249.9847 249.9847 251.7797 251.7797
   255.0382 255.0382 256.0372 256.0372 256.9435 256.9435 257.1736 257.1736
   259.6289 259.6289 261.4134 261.4134 262.3488 262.3488 263.3833 263.3833
   264.2030 264.2030 265.9990 265.9990 266.3372 266.3372 267.1526 267.1526
   267.8500 267.8500 268.9369 268.9369 270.6509 270.6509 271.4105 271.4105
   272.2203 272.2203 273.7343 273.7343 276.8741 276.8741 277.5334 277.5334
   277.8692 277.8692 278.9766 278.9766 279.8215 279.8215 281.4037 281.4037
   282.5331 282.5331 283.7178 283.7178 284.1340 284.1340 285.4073 285.4073
   288.3380 288.3380 290.4261 290.4261 291.3602 291.3602 292.7454 292.7454
   293.0705 293.0705 293.9364 293.9364 294.7198 294.7198 294.7867 294.7868
   295.6557 295.6557 296.0214 296.0214 298.3877 298.3877 300.7544 300.7544
   301.6219 301.6219 302.5289 302.5289 304.1908 304.1908 304.6841 304.6841
   305.5129 305.5129 306.3215 306.3215 307.3469 307.3469 308.1387 308.1387
   308.8603 308.8603 309.1428 309.1428 309.3501 309.3501 310.0060 310.0060
   312.1887 312.1887 313.6893 313.6893 316.9934 316.9934 318.6159 318.6159
   321.1763 321.1763 323.3978 323.3978 324.6286 324.6286 326.1118 326.1118
   327.1095 327.1095 328.0486 328.0486 328.5595 328.5595 329.3949 329.3950
   330.8200 330.8200 333.7742 333.7742 335.3556 335.3556 336.4162 336.4162
   336.7334 336.7334 336.9917 336.9917 339.2432 339.2432 339.8842 339.8842
   341.1510 341.1510 341.5614 341.5614 341.9963 341.9963 342.5399 342.5399
   343.4269 343.4269 343.7333 343.7333 345.3665 345.3665 345.7520 345.7520
   347.1034 347.1034 350.5330 350.5330 351.9131 351.9131 352.3010 352.3010
   353.5962 353.5962 354.5704 354.5704 355.2271 355.2271 356.3342 356.3342
   356.7523 356.7523 358.0147 358.0147 359.1554 359.1554 360.0759 360.0759
   361.8284 361.8284 365.4299 365.4299 367.3176 367.3176 368.7552 368.7552
   369.1275 369.1275 369.7568 369.7568 369.9854 369.9854 371.2751 371.2751
   373.2404 373.2404 374.0031 374.0031 374.3309 374.3309 375.9259 375.9259
   376.9401 376.9401 378.6072 378.6072 379.6785 379.6785 381.0580 381.0580
   382.0923 382.0923 382.5256 382.5256 384.2343 384.2343 384.8594 384.8594
   386.2739 386.2739 387.3282 387.3282 387.5996 387.5996 388.1068 388.1068
   389.9345 389.9345 391.0852 391.0852 391.3128 391.3128 391.5539 391.5539
   391.9488 391.9488 392.9166 392.9166 394.9963 394.9963 395.5878 395.5878
   396.7493 396.7493 397.7531 397.7531 399.6088 399.6088 401.5494 401.5494
   402.6001 402.6001 403.5082 403.5082 404.1174 404.1174 405.1793 405.1793
   405.8247 405.8247 407.9150 407.9150 408.6700 408.6700 409.3146 409.3146
   409.6174 409.6174 411.7231 411.7231 413.9897 413.9897 415.0019 415.0019
   416.0884 416.0884 419.6130 419.6130 420.0077 420.0077 420.3761 420.3761
   420.9883 420.9883 422.2022 422.2022 424.2256 424.2256 425.1230 425.1230
   426.9046 426.9046 427.5046 427.5046 428.0655 428.0655 429.8700 429.8700
   430.4243 430.4243 431.4928 431.4928 432.0867 432.0867 434.4096 434.4096
   435.1226 435.1226 435.9378 435.9378 436.4770 436.4770 437.8877 437.8877
   438.6516 438.6516 439.0685 439.0685 439.8184 439.8184 439.9010 439.9010
   440.3627 440.3627 441.6835 441.6835 441.8391 441.8391 443.7946 443.7946
   445.6363 445.6363 446.9236 446.9236 448.1794 448.1794 449.5764 449.5764
   449.9967 449.9967 450.1471 450.1471 452.1164 452.1164 452.7627 452.7627
   454.2537 454.2537 454.8515 454.8515 455.8149 455.8150 455.9782 455.9782
   456.9431 456.9431 457.6586 457.6586 458.4039 458.4039 458.6403 458.6403
   459.3607 459.3607 460.5168 460.5168 461.6370 461.6370 462.9712 462.9712
   464.1825 464.1825 465.6822 465.6822 465.8985 465.8985 466.2607 466.2607
   467.6373 467.6373 468.7807 468.7807 469.2836 469.2836 469.6215 469.6215
   470.4980 470.4980 471.4228 471.4228 472.2755 472.2755 473.7050 473.7050
   474.3615 474.3615 474.6213 474.6213 475.5817 475.5817 476.0363 476.0363
   477.3826 477.3826 478.0014 478.0014 479.6989 479.6989 480.7134 480.7134
   481.3411 481.3411 481.9337 481.9337 482.6416 482.6416 483.1830 483.1830
   483.4009 483.4009 483.8158 483.8158 485.7092 485.7092 486.8583 486.8583
   488.0175 488.0175 488.4450 488.4450 489.2607 489.2607 490.0028 490.0028
   490.5634 490.5634 491.0016 491.0016 491.8847 491.8847 493.5290 493.5290
   494.1942 494.1942 494.3254 494.3254 495.7717 495.7717 495.9842 495.9842
   497.6717 497.6717 499.0388 499.0388 499.4754 499.4754 499.8747 499.8747
   501.4022 501.4022 502.7929 502.7929 503.7444 503.7444 505.9997 505.9997
   507.3413 507.3413 507.7874 507.7874 508.8400 508.8400 509.1834 509.1834
   511.0955 511.0955 511.7433 511.7433 512.4650 512.4650 513.2424 513.2424
   514.0029 514.0029 515.1050 515.1050 515.6478 515.6478 516.2658 516.2658
   517.2187 517.2187 517.5927 517.5927 518.0970 518.0970 521.3849 521.3849
   521.8039 521.8039 522.9876 522.9876 523.6449 523.6449 523.9617 523.9617
   524.3287 524.3287 526.0175 526.0175 527.3423 527.3423 528.3235 528.3235
   529.8848 529.8848 532.0542 532.0542 532.4902 532.4902 533.2680 533.2680
   533.4400 533.4400 534.4754 534.4754 535.2336 535.2336 536.5194 536.5194
   538.1006 538.1006 538.8842 538.8842 539.6126 539.6126 540.3938 540.3938
   540.7300 540.7301 543.1331 543.1331 543.3379 543.3379 544.2941 544.2941
   545.0942 545.0942 545.4937 545.4937 546.0815 546.0815 549.1491 549.1491
   550.2068 550.2068 552.2744 552.2744 555.5442 555.5442 555.9487 555.9487
   557.3485 557.3485 558.1994 558.1994 559.0512 559.0512 559.7086 559.7086
   561.3356 561.3356 562.9409 562.9409 563.5720 563.5720 564.7905 564.7905
   566.4687 566.4687 566.6508 566.6508 568.8797 568.8797 569.4235 569.4235
   569.8388 569.8388 570.2276 570.2276 571.0247 571.0247 572.5119 572.5119
   573.0499 573.0499 573.3370 573.3370 575.1734 575.1734 575.5963 575.5963
   575.9033 575.9033 576.2546 576.2546 577.1078 577.1078 577.8211 577.8211
   577.9792 577.9792 578.3701 578.3701 578.6346 578.6346 578.9250 578.9250
   579.3909 579.3909 580.0990 580.0990 581.1834 581.1834 582.0578 582.0578
   583.6877 583.6877 584.1905 584.1905 585.7220 585.7220 586.7417 586.7417
   587.0755 587.0755 587.3788 587.3788 589.4346 589.4346 590.4548 590.4548
   590.6762 590.6762 591.3603 591.3603 592.1018 592.1018 592.5706 592.5706
   593.4982 593.4982 593.7592 593.7592 593.9565 593.9565 595.2392 595.2392
   596.8843 596.8843 597.6662 597.6662 598.8818 598.8818 599.2188 599.2188
   599.6943 599.6943 602.0440 602.0440 602.5340 602.5340 602.9645 602.9645
   603.4000 603.4000 603.9416 603.9416 605.0588 605.0588 605.7466 605.7467
   606.1673 606.1673 606.8387 606.8387 607.0523 607.0523 607.6460 607.6460
   608.9699 608.9699 610.9325 610.9325 611.4492 611.4492 612.2699 612.2699
   612.5280 612.5280 612.9919 612.9919 615.6880 615.6880 615.8876 615.8876
   616.3563 616.3563 616.8555 616.8555 617.0230 617.0230 617.4439 617.4439
   618.0189 618.0189 618.1554 618.1554 618.5651 618.5651 618.7698 618.7698
   619.9598 619.9598 620.6345 620.6345 623.5179 623.5179 624.4838 624.4838
   626.5620 626.5620 626.9892 626.9892 628.6033 628.6033 628.9352 628.9352
   630.3178 630.3178 630.7115 630.7115 631.1461 631.1461 632.5233 632.5233
   633.3418 633.3418 634.2845 634.2845 634.4888 634.4888 634.9387 634.9387
   636.0503 636.0503 636.5108 636.5108 637.8951 637.8951 638.6075 638.6075
   639.2981 639.2981 640.2397 640.2397 641.7579 641.7579 645.4377 645.4377
   645.7743 645.7743 646.6205 646.6205 647.6337 647.6337 648.5502 648.5502
   648.8726 648.8727 649.6375 649.6375 651.1597 651.1597 652.0281 652.0281
   652.4979 652.4979 653.5983 653.5983 653.7591 653.7591 654.1519 654.1519
   655.8248 655.8248 655.9150 655.9150 658.8548 658.8548 659.3776 659.3776
   659.9216 659.9216 660.5134 660.5134 660.7607 660.7607 662.8711 662.8711
   664.3910 664.3910 665.4744 665.4744 665.9395 665.9395 666.7422 666.7422
   667.3766 667.3766 669.4078 669.4078 670.3628 670.3628 671.7069 671.7069
   672.1956 672.1956 672.7377 672.7377 673.8678 673.8678 676.2662 676.2662
   676.4320 676.4320 676.8239 676.8239 677.1501 677.1501 677.4032 677.4032
   677.6289 677.6289 677.9155 677.9155 678.4735 678.4735 678.6626 678.6626
   679.7849 679.7849 680.4086 680.4086 681.2439 681.2439 681.5069 681.5069
   682.4231 682.4231 682.6871 682.6871 682.8054 682.8054 683.2108 683.2108
   683.7866 683.7866 686.2717 686.2717 686.6335 686.6335 687.1102 687.1102
   687.8998 687.8998 688.2336 688.2336 688.6116 688.6116 689.1343 689.1343
   689.8881 689.8881 690.4703 690.4703 693.5258 693.5258 693.8569 693.8569
   694.4888 694.4888 694.5731 694.5731 694.8680 694.8680 695.6873 695.6873
   696.4213 696.4213 696.8122 696.8122 697.2591 697.2591 698.0606 698.0606
   698.7708 698.7708 699.1296 699.1296 700.0792 700.0792 700.2343 700.2343
   700.7568 700.7568 701.2204 701.2204 702.7105 702.7105 705.7547 705.7547
   706.7518 706.7518 707.1835 707.1835 707.3683 707.3683 707.5030 707.5030

     the Fermi energy is    11.3059 ev
     (compare with:    10.6981 eV, computed in scf)

     Writing all to output data dir out/mp-2542.save/
 
     init_run     :      0.04s CPU      0.05s WALL (       1 calls)
     electrons    :    559.39s CPU    600.53s WALL (       1 calls)

     Called by init_run:
     wfcinit      :      0.00s CPU      0.00s WALL (       1 calls)
     potinit      :      0.01s CPU      0.01s WALL (       1 calls)
     hinit0       :      0.02s CPU      0.02s WALL (       1 calls)

     Called by electrons:
     c_bands      :    559.39s CPU    600.53s WALL (       1 calls)
     v_of_rho     :      0.01s CPU      0.01s WALL (       1 calls)

     Called by c_bands:
     init_us_2    :      0.00s CPU      0.00s WALL (       8 calls)
     init_us_2:cp :      0.00s CPU      0.00s WALL (       8 calls)
     paro_k       :    541.33s CPU    581.37s WALL (       8 calls)

     Called by paro_*:
     h_psi        :      8.43s CPU      8.84s WALL (     832 calls)
     g_psi        :      0.22s CPU      0.25s WALL (   80044 calls)

     Called by h_psi:
     h_psi:calbec :      0.24s CPU      0.25s WALL (     832 calls)
     vloc_psi     :      7.95s CPU      8.34s WALL (     832 calls)
     add_vuspsi   :      0.17s CPU      0.18s WALL (     832 calls)

     General routines
     calbec       :      0.23s CPU      0.25s WALL (     832 calls)
     fft          :      0.00s CPU      0.01s WALL (      10 calls)
     fftw         :      7.09s CPU      7.44s WALL (  131166 calls)
 
     Parallel routines
 
     PWSCF        :   9m20.10s CPU  10m 1.51s WALL

 
   This run was terminated on:  11:39: 7  30Nov2023            

=------------------------------------------------------------------------------=
   JOB DONE.
=------------------------------------------------------------------------------=
