
     Program PWSCF v.7.1 starts on 19Dec2023 at  9:43:51 

     This program is part of the open-source Quantum ESPRESSO suite
     for quantum simulation of materials; please cite
         "P. Giannozzi et al., J. Phys.:Condens. Matter 21 395502 (2009);
         "P. Giannozzi et al., J. Phys.:Condens. Matter 29 465901 (2017);
         "P. Giannozzi et al., J. Chem. Phys. 152 154105 (2020);
          URL http://www.quantum-espresso.org", 
     in publications or presentations arising from this work. More details at
     http://www.quantum-espresso.org/quote

     Parallel version (MPI), running on    24 processors

     MPI processes distributed on     1 nodes
     122742 MiB available memory on the printing compute node when the environment starts
 
     Reading input from pw_mp-22916_scf_k3000_E95.in
Warning: card &CELL ignored
Warning: card / ignored

     Current dimensions of program PWSCF are:
     Max number of different atomic species (ntypx) = 10
     Max number of k-points (npk) =  40000
     Max angular momentum in pseudopotentials (lmaxx) =  4
 
     R & G space division:  proc/nbgrp/npool/nimage =      24
     Subspace diagonalization in iterative solution of the eigenvalue problem:
     a serial algorithm will be used

 
     Parallelization info
     --------------------
     sticks:   dense  smooth     PW     G-vecs:    dense   smooth      PW
     Min          68      68     19                 1827     1827     283
     Max          69      69     20                 1831     1831     287
     Sum        1639    1639    475                43895    43895    6855
 
     Using Slab Decomposition
 


     bravais-lattice index     =            2
     lattice parameter (alat)  =      11.1930  a.u.
     unit-cell volume          =     350.5745 (a.u.)^3
     number of atoms/cell      =            2
     number of atomic types    =            2
     number of electrons       =        16.00
     number of Kohn-Sham states=           16
     kinetic-energy cutoff     =      95.0000  Ry
     charge density cutoff     =     380.0000  Ry
     scf convergence threshold =      1.0E-10
     mixing beta               =       0.7000
     number of iterations used =            8  plain     mixing
     Exchange-correlation= PBE
                           (   1   4   3   4   0   0   0)

     celldm(1)=  11.193007  celldm(2)=   0.000000  celldm(3)=   0.000000
     celldm(4)=   0.000000  celldm(5)=   0.000000  celldm(6)=   0.000000

     crystal axes: (cart. coord. in units of alat)
               a(1) = (  -0.500000   0.000000   0.500000 )  
               a(2) = (   0.000000   0.500000   0.500000 )  
               a(3) = (  -0.500000   0.500000   0.000000 )  

     reciprocal axes: (cart. coord. in units 2 pi/alat)
               b(1) = ( -1.000000 -1.000000  1.000000 )  
               b(2) = (  1.000000  1.000000  1.000000 )  
               b(3) = ( -1.000000  1.000000 -1.000000 )  


     PseudoPot. # 1 for Br read from file:
     /usr/scratch4/magr4985/MG/HTDF/pseudo/SG15/Br.upf
     MD5 check sum: 5b50323dbf1c0ae0ed9e7f1e72c3f86c
     Pseudo is Norm-conserving, Zval =  7.0
     Generated using ONCVPSP code by D. R. Hamann
     Using radial grid of  602 points,  6 beta functions with: 
                l(1) =   0
                l(2) =   0
                l(3) =   1
                l(4) =   1
                l(5) =   2
                l(6) =   2

     PseudoPot. # 2 for Na read from file:
     /usr/scratch4/magr4985/MG/HTDF/pseudo/SG15/Na.upf
     MD5 check sum: 425b17ce8ead78efa4860b7b3310c7e3
     Pseudo is Norm-conserving, Zval =  9.0
     Generated using ONCVPSP code by D. R. Hamann
     Using radial grid of  602 points,  4 beta functions with: 
                l(1) =   0
                l(2) =   0
                l(3) =   1
                l(4) =   1

     atomic species   valence    mass     pseudopotential
        Br             7.00    79.90400     Br( 1.00)
        Na             9.00    22.98980     Na( 1.00)

     48 Sym. Ops., with inversion, found



   Cartesian axes

     site n.     atom                  positions (alat units)
         1           Na  tau(   1) = (   0.0000000   0.0000000   0.0000000  )
         2           Br  tau(   2) = (  -0.5000000   0.5000000   0.5000000  )

     number of k points=    72  Gaussian smearing, width (Ry)=  0.0005
                       cart. coord. in units 2pi/alat
        k(    1) = (   0.0000000   0.0000000   0.0000000), wk =   0.0011574
        k(    2) = (  -0.0833333   0.0833333  -0.0833333), wk =   0.0092593
        k(    3) = (  -0.1666667   0.1666667  -0.1666667), wk =   0.0092593
        k(    4) = (  -0.2500000   0.2500000  -0.2500000), wk =   0.0092593
        k(    5) = (  -0.3333333   0.3333333  -0.3333333), wk =   0.0092593
        k(    6) = (  -0.4166667   0.4166667  -0.4166667), wk =   0.0092593
        k(    7) = (   0.5000000  -0.5000000   0.5000000), wk =   0.0046296
        k(    8) = (   0.0000000   0.1666667   0.0000000), wk =   0.0069444
        k(    9) = (  -0.0833333   0.2500000  -0.0833333), wk =   0.0277778
        k(   10) = (  -0.1666667   0.3333333  -0.1666667), wk =   0.0277778
        k(   11) = (  -0.2500000   0.4166667  -0.2500000), wk =   0.0277778
        k(   12) = (  -0.3333333   0.5000000  -0.3333333), wk =   0.0277778
        k(   13) = (   0.5833333  -0.4166667   0.5833333), wk =   0.0277778
        k(   14) = (   0.5000000  -0.3333333   0.5000000), wk =   0.0277778
        k(   15) = (   0.4166667  -0.2500000   0.4166667), wk =   0.0277778
        k(   16) = (   0.3333333  -0.1666667   0.3333333), wk =   0.0277778
        k(   17) = (   0.2500000  -0.0833333   0.2500000), wk =   0.0277778
        k(   18) = (   0.1666667  -0.0000000   0.1666667), wk =   0.0138889
        k(   19) = (   0.0000000   0.3333333   0.0000000), wk =   0.0069444
        k(   20) = (  -0.0833333   0.4166667  -0.0833333), wk =   0.0277778
        k(   21) = (  -0.1666667   0.5000000  -0.1666667), wk =   0.0277778
        k(   22) = (  -0.2500000   0.5833333  -0.2500000), wk =   0.0277778
        k(   23) = (   0.6666667  -0.3333333   0.6666667), wk =   0.0277778
        k(   24) = (   0.5833333  -0.2500000   0.5833333), wk =   0.0277778
        k(   25) = (   0.5000000  -0.1666667   0.5000000), wk =   0.0277778
        k(   26) = (   0.4166667  -0.0833333   0.4166667), wk =   0.0277778
        k(   27) = (   0.3333333   0.0000000   0.3333333), wk =   0.0138889
        k(   28) = (   0.0000000   0.5000000   0.0000000), wk =   0.0069444
        k(   29) = (  -0.0833333   0.5833333  -0.0833333), wk =   0.0277778
        k(   30) = (  -0.1666667   0.6666667  -0.1666667), wk =   0.0277778
        k(   31) = (   0.7500000  -0.2500000   0.7500000), wk =   0.0277778
        k(   32) = (   0.6666667  -0.1666667   0.6666667), wk =   0.0277778
        k(   33) = (   0.5833333  -0.0833333   0.5833333), wk =   0.0277778
        k(   34) = (   0.5000000   0.0000000   0.5000000), wk =   0.0138889
        k(   35) = (   0.0000000   0.6666667   0.0000000), wk =   0.0069444
        k(   36) = (  -0.0833333   0.7500000  -0.0833333), wk =   0.0277778
        k(   37) = (   0.8333333  -0.1666667   0.8333333), wk =   0.0277778
        k(   38) = (   0.7500000  -0.0833333   0.7500000), wk =   0.0277778
        k(   39) = (   0.6666667  -0.0000000   0.6666667), wk =   0.0138889
        k(   40) = (   0.0000000   0.8333333   0.0000000), wk =   0.0069444
        k(   41) = (   0.9166667  -0.0833333   0.9166667), wk =   0.0277778
        k(   42) = (   0.8333333   0.0000000   0.8333333), wk =   0.0138889
        k(   43) = (   0.0000000  -1.0000000   0.0000000), wk =   0.0034722
        k(   44) = (  -0.1666667   0.3333333   0.0000000), wk =   0.0277778
        k(   45) = (  -0.2500000   0.4166667  -0.0833333), wk =   0.0555556
        k(   46) = (  -0.3333333   0.5000000  -0.1666667), wk =   0.0555556
        k(   47) = (   0.5833333  -0.4166667   0.7500000), wk =   0.0555556
        k(   48) = (   0.5000000  -0.3333333   0.6666667), wk =   0.0277778
        k(   49) = (  -0.1666667   0.5000000   0.0000000), wk =   0.0277778
        k(   50) = (  -0.2500000   0.5833333  -0.0833333), wk =   0.0555556
        k(   51) = (   0.6666667  -0.3333333   0.8333333), wk =   0.0555556
        k(   52) = (   0.5833333  -0.2500000   0.7500000), wk =   0.0555556
        k(   53) = (   0.5000000  -0.1666667   0.6666667), wk =   0.0555556
        k(   54) = (   0.4166667  -0.0833333   0.5833333), wk =   0.0555556
        k(   55) = (   0.3333333   0.0000000   0.5000000), wk =   0.0277778
        k(   56) = (  -0.1666667   0.6666667  -0.0000000), wk =   0.0277778
        k(   57) = (   0.7500000  -0.2500000   0.9166667), wk =   0.0555556
        k(   58) = (   0.6666667  -0.1666667   0.8333333), wk =   0.0555556
        k(   59) = (   0.5833333  -0.0833333   0.7500000), wk =   0.0555556
        k(   60) = (   0.5000000   0.0000000   0.6666667), wk =   0.0277778
        k(   61) = (   0.8333333  -0.1666667   1.0000000), wk =   0.0277778
        k(   62) = (   0.7500000  -0.0833333   0.9166667), wk =   0.0555556
        k(   63) = (   0.6666667   0.0000000   0.8333333), wk =   0.0277778
        k(   64) = (  -0.1666667  -1.0000000  -0.0000000), wk =   0.0138889
        k(   65) = (   0.6666667  -0.3333333   1.0000000), wk =   0.0277778
        k(   66) = (   0.5833333  -0.2500000   0.9166667), wk =   0.0555556
        k(   67) = (   0.5000000  -0.1666667   0.8333333), wk =   0.0277778
        k(   68) = (   0.6666667  -0.1666667   1.0000000), wk =   0.0277778
        k(   69) = (   0.5833333  -0.0833333   0.9166667), wk =   0.0555556
        k(   70) = (   0.5000000   0.0000000   0.8333333), wk =   0.0277778
        k(   71) = (  -0.3333333  -1.0000000   0.0000000), wk =   0.0138889
        k(   72) = (  -0.5000000  -1.0000000   0.0000000), wk =   0.0069444

     Dense  grid:    43895 G-vectors     FFT dimensions: (  50,  50,  50)

     Estimated max dynamical RAM per process >       4.88 MB

     Estimated total dynamical RAM >     117.17 MB

     Initial potential from superposition of free atoms

     starting charge      15.8534, renormalised to      16.0000
     Starting wfcs are random

     total cpu time spent up to now is        0.8 secs

     Self-consistent Calculation

     iteration #  1     ecut=    95.00 Ry     beta= 0.70
     Davidson diagonalization with overlap
     ethr =  1.00E-02,  avg # of iterations =  9.3

     Threshold (ethr) on eigenvalues was too large:
     Diagonalizing with lowered threshold

     Davidson diagonalization with overlap
     ethr =  2.62E-04,  avg # of iterations =  5.3

     total cpu time spent up to now is        4.4 secs

     total energy              =    -112.39225561 Ry
     estimated scf accuracy    <       0.03705552 Ry

     iteration #  2     ecut=    95.00 Ry     beta= 0.70
     Davidson diagonalization with overlap
     ethr =  2.32E-04,  avg # of iterations =  2.3

     total cpu time spent up to now is        5.3 secs

     total energy              =    -112.40204001 Ry
     estimated scf accuracy    <       0.00465469 Ry

     iteration #  3     ecut=    95.00 Ry     beta= 0.70
     Davidson diagonalization with overlap
     ethr =  2.91E-05,  avg # of iterations =  5.9

     total cpu time spent up to now is        6.4 secs

     total energy              =    -112.40301625 Ry
     estimated scf accuracy    <       0.00020159 Ry

     iteration #  4     ecut=    95.00 Ry     beta= 0.70
     Davidson diagonalization with overlap
     c_bands:  1 eigenvalues not converged
     ethr =  1.26E-06,  avg # of iterations =  6.9

     total cpu time spent up to now is        7.7 secs

     total energy              =    -112.40309914 Ry
     estimated scf accuracy    <       0.00000502 Ry

     iteration #  5     ecut=    95.00 Ry     beta= 0.70
     Davidson diagonalization with overlap
     ethr =  3.14E-08,  avg # of iterations =  3.7

     total cpu time spent up to now is        8.7 secs

     total energy              =    -112.40310234 Ry
     estimated scf accuracy    <       0.00000031 Ry

     iteration #  6     ecut=    95.00 Ry     beta= 0.70
     Davidson diagonalization with overlap
     ethr =  1.96E-09,  avg # of iterations =  4.6

     total cpu time spent up to now is        9.7 secs

     total energy              =    -112.40310261 Ry
     estimated scf accuracy    <       0.00000003 Ry

     iteration #  7     ecut=    95.00 Ry     beta= 0.70
     Davidson diagonalization with overlap
     ethr =  1.82E-10,  avg # of iterations =  2.4

     total cpu time spent up to now is       10.6 secs

     total energy              =    -112.40310262 Ry
     estimated scf accuracy    <          3.1E-09 Ry

     iteration #  8     ecut=    95.00 Ry     beta= 0.70
     Davidson diagonalization with overlap
     ethr =  1.93E-11,  avg # of iterations =  4.2

     total cpu time spent up to now is       11.6 secs

     total energy              =    -112.40310262 Ry
     estimated scf accuracy    <          1.3E-10 Ry

     iteration #  9     ecut=    95.00 Ry     beta= 0.70
     Davidson diagonalization with overlap
     ethr =  8.27E-13,  avg # of iterations =  3.5

     total cpu time spent up to now is       12.5 secs

     total energy              =    -112.40310262 Ry
     estimated scf accuracy    <          1.1E-10 Ry

     iteration # 10     ecut=    95.00 Ry     beta= 0.70
     Davidson diagonalization with overlap
     ethr =  7.09E-13,  avg # of iterations =  2.5

     total cpu time spent up to now is       13.4 secs

     End of self-consistent calculation

          k = 0.0000 0.0000 0.0000 (  5577 PWs)   bands (ev):

   -47.8965 -19.8246 -19.8246 -19.8246 -11.1119   1.7466   1.7466   1.7466
     5.9529  11.6219  11.6219  11.6219  13.8209  13.8209  14.7632  16.5844

          k =-0.0833 0.0833-0.0833 (  5513 PWs)   bands (ev):

   -47.8964 -19.8257 -19.8247 -19.8247 -11.0929   1.5329   1.7260   1.7260
     6.2184  11.3506  11.7142  11.7142  13.6071  13.6071  15.2440  16.4755

          k =-0.1667 0.1667-0.1667 (  5498 PWs)   bands (ev):

   -47.8964 -19.8289 -19.8249 -19.8249 -11.0403   1.0392   1.6708   1.6708
     6.8349  10.9187  11.8779  11.8779  13.3574  13.3574  15.6107  16.9931

          k =-0.2500 0.2500-0.2500 (  5477 PWs)   bands (ev):

   -47.8963 -19.8331 -19.8252 -19.8252 -10.9666   0.4896   1.5980   1.5980
     7.4629  10.7618  11.8089  11.8089  13.6421  13.6421  15.2260  18.6347

          k =-0.3333 0.3333-0.3333 (  5480 PWs)   bands (ev):

   -47.8962 -19.8374 -19.8255 -19.8255 -10.8909   0.0224   1.5279   1.5279
     7.8252  11.0638  11.5676  11.5676  14.4721  14.4721  14.8652  19.7864

          k =-0.4167 0.4167-0.4167 (  5480 PWs)   bands (ev):

   -47.8961 -19.8405 -19.8257 -19.8257 -10.8339  -0.2856   1.4781   1.4781
     7.9289  11.3750  11.3750  11.6026  14.7013  15.6281  15.6281  18.4324

          k = 0.5000-0.5000 0.5000 (  5480 PWs)   bands (ev):

   -47.8961 -19.8416 -19.8257 -19.8257 -10.8127  -0.3929   1.4602   1.4602
     7.9409  11.3058  11.3058  11.8711  14.6975  16.8031  16.8032  17.3245

          k = 0.0000 0.1667 0.0000 (  5521 PWs)   bands (ev):

   -47.8964 -19.8257 -19.8249 -19.8249 -11.0867   1.5176   1.6930   1.6930
     6.3063  11.1932  11.7932  11.7932  13.1792  13.9170  15.4240  16.7683

          k =-0.0833 0.2500-0.0833 (  5490 PWs)   bands (ev):

   -47.8964 -19.8280 -19.8252 -19.8250 -11.0458   1.1494   1.6280   1.6495
     6.8072  10.8014  11.9345  11.9905  12.7517  13.8905  16.0574  16.9024

          k =-0.1667 0.3333-0.1667 (  5473 PWs)   bands (ev):

   -47.8963 -19.8317 -19.8256 -19.8252 -10.9798   0.6450   1.5505   1.5812
     7.4514  10.5578  11.6978  12.0409  13.0018  14.0751  15.8304  18.2027

          k =-0.2500 0.4167-0.2500 (  5479 PWs)   bands (ev):

   -47.8962 -19.8358 -19.8259 -19.8256 -10.9053   0.1742   1.4815   1.4937
     7.9277  10.7165  11.3301  11.8465  13.7603  14.7878  15.4625  19.7985

          k =-0.3333 0.5000-0.3333 (  5488 PWs)   bands (ev):

   -47.8961 -19.8392 -19.8260 -19.8260 -10.8423  -0.1706   1.4110   1.4381
     8.1098  11.0040  11.3409  11.6115  14.6593  15.3361  15.8770  18.3086

          k = 0.5833-0.4167 0.5833 (  5492 PWs)   bands (ev):

   -47.8961 -19.8409 -19.8263 -19.8260 -10.8092  -0.3371   1.3541   1.4301
     8.1457  10.9267  11.4635  11.8003  15.0572  15.9345  16.7848  17.4240

          k = 0.5000-0.3333 0.5000 (  5492 PWs)   bands (ev):

   -47.8961 -19.8406 -19.8265 -19.8257 -10.8160  -0.3023   1.3365   1.4591
     8.1474  10.9875  11.4472  11.6993  15.1457  15.4707  16.5985  17.0253

          k = 0.4167-0.2500 0.4167 (  5474 PWs)   bands (ev):

   -47.8961 -19.8382 -19.8265 -19.8254 -10.8607  -0.0718   1.3632   1.5187
     8.0884  11.0815  11.2550  11.5738  14.2551  15.2736  15.6277  18.2293

          k = 0.3333-0.1667 0.3333 (  5465 PWs)   bands (ev):

   -47.8962 -19.8345 -19.8262 -19.8250 -10.9298   0.3206   1.4302   1.5947
     7.8121  10.6727  11.5317  11.8242  13.3033  14.6022  15.5966  18.9051

          k = 0.2500-0.0833 0.2500 (  5491 PWs)   bands (ev):

   -47.8963 -19.8305 -19.8258 -19.8247 -11.0037   0.8071   1.5259   1.6676
     7.2382  10.6800  11.8191  12.0290  12.8033  13.9136  15.9920  17.4255

          k = 0.1667-0.0000 0.1667 (  5503 PWs)   bands (ev):

   -47.8964 -19.8273 -19.8252 -19.8246 -11.0628   1.2687   1.6353   1.7164
     6.6007  11.0177  11.8467  11.8583  13.0831  13.7002  15.8378  16.7042

          k = 0.0000 0.3333 0.0000 (  5509 PWs)   bands (ev):

   -47.8963 -19.8284 -19.8258 -19.8258 -11.0189   1.0262   1.5528   1.5528
     7.1352  10.4173  12.0617  12.2760  12.2760  14.1990  16.8956  17.3241

          k =-0.0833 0.4167-0.0833 (  5477 PWs)   bands (ev):

   -47.8963 -19.8309 -19.8263 -19.8261 -10.9660   0.6847   1.4675   1.4680
     7.6751  10.1086  11.4752  12.4917  12.7845  14.4306  17.0296  18.0339

          k =-0.1667 0.5000-0.1667 (  5479 PWs)   bands (ev):

   -47.8962 -19.8343 -19.8267 -19.8265 -10.9002   0.3022   1.3533   1.3951
     8.2060  10.0957  10.9952  12.3964  13.5149  15.0691  16.7094  19.1939

          k =-0.2500 0.5833-0.2500 (  5487 PWs)   bands (ev):

   -47.8961 -19.8373 -19.8271 -19.8268 -10.8390  -0.0087   1.2197   1.3529
     8.4979  10.4027  10.8085  12.1429  14.3056  16.1109  16.5361  18.2617

          k = 0.6667-0.3333 0.6667 (  5480 PWs)   bands (ev):

   -47.8961 -19.8392 -19.8278 -19.8267 -10.7995  -0.1877   1.1029   1.3503
     8.6084  10.3597  11.3427  11.9205  14.8075  16.5107  16.8031  17.5292

          k = 0.5833-0.2500 0.5833 (  5485 PWs)   bands (ev):

   -47.8961 -19.8394 -19.8283 -19.8263 -10.7934  -0.2071   1.0356   1.3877
     8.6723  10.3739  11.5447  11.8066  15.2138  15.4648  16.3169  17.8891

          k = 0.5000-0.1667 0.5000 (  5473 PWs)   bands (ev):

   -47.8961 -19.8381 -19.8284 -19.8258 -10.8227  -0.0694   1.0408   1.4570
     8.6743  10.5750  11.0466  11.8306  14.2266  16.1515  16.3841  17.3131

          k = 0.4167-0.0833 0.4167 (  5467 PWs)   bands (ev):

   -47.8962 -19.8356 -19.8280 -19.8252 -10.8785   0.1905   1.1320   1.5416
     8.4440  10.5234  10.9528  12.0027  13.2257  15.7725  16.6734  18.0490

          k = 0.3333 0.0000 0.3333 (  5468 PWs)   bands (ev):

   -47.8962 -19.8328 -19.8271 -19.8249 -10.9448   0.5073   1.3084   1.6194
     7.8721  10.4485  11.4303  12.2999  12.5175  14.7286  16.9104  17.2816

          k = 0.0000 0.5000 0.0000 (  5457 PWs)   bands (ev):

   -47.8962 -19.8316 -19.8270 -19.8270 -10.9286   0.5355   1.3741   1.3741
     7.9931   9.7078  11.2250  12.9951  12.9951  14.6440  18.2437  18.2437

          k =-0.0833 0.5833-0.0833 (  5475 PWs)   bands (ev):

   -47.8961 -19.8336 -19.8275 -19.8275 -10.8770   0.2962   1.2581   1.2949
     8.3343   9.5205  11.0008  13.1516  13.5576  15.1542  18.2045  19.0046

          k =-0.1667 0.6667-0.1667 (  5486 PWs)   bands (ev):

   -47.8961 -19.8357 -19.8284 -19.8277 -10.8246   0.0910   1.0763   1.2489
     8.6035   9.6731  10.8564  12.9278  14.2496  16.1623  17.9619  18.4260

          k = 0.7500-0.2500 0.7500 (  5479 PWs)   bands (ev):

   -47.8960 -19.8370 -19.8295 -19.8276 -10.7859  -0.0194   0.8667   1.2461
     8.7800   9.9939  10.9669  12.6320  14.5019  16.9085  17.5260  17.7895

          k = 0.6667-0.1667 0.6667 (  5462 PWs)   bands (ev):

   -47.8960 -19.8373 -19.8305 -19.8271 -10.7719  -0.0226   0.7017   1.2871
     8.9892  10.1054  11.2604  12.3942  14.2664  15.6564  17.5440  18.7007

          k = 0.5833-0.0833 0.5833 (  5471 PWs)   bands (ev):

   -47.8960 -19.8369 -19.8308 -19.8264 -10.7868   0.0414   0.6689   1.3630
     9.2104  10.1738  10.9743  12.2441  14.4795  14.7917  17.7251  18.5925

          k = 0.5000 0.0000 0.5000 (  5452 PWs)   bands (ev):

   -47.8961 -19.8363 -19.8299 -19.8258 -10.8260   0.1084   0.8330   1.4560
     9.0844  10.4285  10.5391  12.1487  13.6188  16.0240  17.3987  17.8928

          k = 0.0000 0.6667 0.0000 (  5490 PWs)   bands (ev):

   -47.8961 -19.8343 -19.8282 -19.8282 -10.8414   0.1673   1.2079   1.2079
     8.2867   9.1735  11.2889  13.8620  13.8620  15.1950  19.2194  19.2198

          k =-0.0833 0.7500-0.0833 (  5497 PWs)   bands (ev):

   -47.8960 -19.8353 -19.8289 -19.8285 -10.8029   0.0446   1.0796   1.1548
     8.3144   9.1070  11.5040  13.8938  14.3930  15.9310  18.2111  18.7394

          k = 0.8333-0.1667 0.8333 (  5488 PWs)   bands (ev):

   -47.8960 -19.8357 -19.8303 -19.8285 -10.7719   0.0143   0.8389   1.1471
     8.4598   9.3785  11.5705  13.5299  14.5250  16.9885  17.6241  17.6557

          k = 0.7500-0.0833 0.7500 (  5475 PWs)   bands (ev):

   -47.8960 -19.8352 -19.8323 -19.8280 -10.7571   0.1097   0.5418   1.1863
     8.6991   9.8650  11.5293  13.1153  13.9344  16.0930  18.2040  18.6968

          k = 0.6667-0.0000 0.6667 (  5480 PWs)   bands (ev):

   -47.8960 -19.8352 -19.8330 -19.8273 -10.7626   0.2420   0.3523   1.2642
     9.0341  10.2098  11.2066  12.6911  13.8715  15.1042  18.8742  18.9474

          k = 0.0000 0.8333 0.0000 (  5498 PWs)   bands (ev):

   -47.8960 -19.8358 -19.8290 -19.8290 -10.7797  -0.0476   1.0932   1.0932
     8.0679   8.8459  12.1057  14.7517  14.7517  15.7168  18.0970  18.4411

          k = 0.9167-0.0833 0.9167 (  5479 PWs)   bands (ev):

   -47.8960 -19.8360 -19.8298 -19.8291 -10.7615  -0.0714   0.9770   1.0775
     8.0934   8.8953  12.3209  14.5161  14.8699  16.5521  17.5950  17.7059

          k = 0.8333 0.0000 0.8333 (  5480 PWs)   bands (ev):

   -47.8960 -19.8354 -19.8314 -19.8287 -10.7533   0.0073   0.7391   1.1108
     8.3411   9.2804  12.1203  13.8567  14.2576  16.7980  17.7331  18.3654

          k = 0.0000-1.0000 0.0000 (  5466 PWs)   bands (ev):

   -47.8960 -19.8363 -19.8294 -19.8294 -10.7576  -0.1166   1.0525   1.0525
     7.9345   8.7358  12.6150  15.2456  15.2456  15.9512  17.3647  17.8216

          k =-0.1667 0.3333 0.0000 (  5489 PWs)   bands (ev):

   -47.8963 -19.8301 -19.8261 -19.8251 -10.9987   0.8371   1.4847   1.6151
     7.3340  10.4652  11.7586  12.2853  12.5351  14.1467  16.7112  17.1068

          k =-0.2500 0.4167-0.0833 (  5486 PWs)   bands (ev):

   -47.8962 -19.8333 -19.8269 -19.8253 -10.9329   0.4403   1.3409   1.5522
     7.9538  10.3265  11.2778  12.2522  12.9648  14.7867  16.5179  18.1500

          k =-0.3333 0.5000-0.1667 (  5474 PWs)   bands (ev):

   -47.8961 -19.8366 -19.8273 -19.8257 -10.8654   0.0763   1.2332   1.4728
     8.3686  10.5983  10.8856  11.9882  13.7985  15.7645  16.2037  18.1720

          k = 0.5833-0.4167 0.7500 (  5474 PWs)   bands (ev):

   -47.8961 -19.8391 -19.8275 -19.8261 -10.8149  -0.1730   1.1688   1.4076
     8.4998  10.5634  11.2844  11.7904  14.7252  16.0275  16.5530  17.1534

          k = 0.5000-0.3333 0.6667 (  5492 PWs)   bands (ev):

   -47.8961 -19.8400 -19.8275 -19.8263 -10.7962  -0.2611   1.1478   1.3823
     8.5188  10.4743  11.6559  11.7112  15.3084  15.6406  16.6712  17.1719

          k =-0.1667 0.5000 0.0000 (  5481 PWs)   bands (ev):

   -47.8962 -19.8329 -19.8273 -19.8263 -10.9137   0.4314   1.2935   1.4257
     8.1668   9.8650  11.0490  12.8421  13.0210  14.9581  17.7763  17.9356

          k =-0.2500 0.5833-0.0833 (  5490 PWs)   bands (ev):

   -47.8961 -19.8352 -19.8282 -19.8267 -10.8551   0.1769   1.1265   1.3513
     8.6370   9.9189  10.6705  12.6802  13.7084  15.8976  17.5631  18.2351

          k = 0.6667-0.3333 0.8333 (  5491 PWs)   bands (ev):

   -47.8961 -19.8372 -19.8288 -19.8271 -10.8060  -0.0115   0.9782   1.2901
     8.8850  10.1430  10.6739  12.4210  14.4198  16.6820  17.0273  17.5857

          k = 0.5833-0.2500 0.7500 (  5479 PWs)   bands (ev):

   -47.8960 -19.8381 -19.8293 -19.8271 -10.7804  -0.0952   0.8686   1.2784
     9.0209  10.0371  11.2225  12.2045  14.5516  16.1013  17.2325  17.6625

          k = 0.5000-0.1667 0.6667 (  5478 PWs)   bands (ev):

   -47.8960 -19.8379 -19.8296 -19.8267 -10.7858  -0.0646   0.8323   1.3204
     9.1172  10.0533  11.1441  12.1534  14.6301  15.4188  17.1646  18.1977

          k = 0.4167-0.0833 0.5833 (  5478 PWs)   bands (ev):

   -47.8961 -19.8367 -19.8294 -19.8261 -10.8207   0.0595   0.9024   1.3993
     9.0477  10.3031  10.5338  12.2536  13.9209  16.1743  17.2117  17.5658

          k = 0.3333 0.0000 0.5000 (  5473 PWs)   bands (ev):

   -47.8961 -19.8350 -19.8284 -19.8256 -10.8747   0.2379   1.0874   1.4874
     8.5993  10.2289  10.7533  12.3764  13.1678  15.8432  17.5882  17.8564

          k =-0.1667 0.6667-0.0000 (  5489 PWs)   bands (ev):

   -47.8961 -19.8348 -19.8286 -19.8278 -10.8322   0.1437   1.1165   1.2225
     8.5255   9.3881  10.9931  13.4225  13.9145  15.8551  18.2990  18.9468

          k = 0.7500-0.2500 0.9167 (  5491 PWs)   bands (ev):

   -47.8960 -19.8358 -19.8296 -19.8282 -10.7914   0.0546   0.9186   1.1592
     8.7323   9.5736  10.9623  13.1863  14.4852  16.7177  17.2062  18.6275

          k = 0.6667-0.1667 0.8333 (  5478 PWs)   bands (ev):

   -47.8960 -19.8360 -19.8309 -19.8282 -10.7657   0.0628   0.6797   1.1548
     8.9331   9.9342  11.0453  12.7631  14.4329  16.4556  17.2988  18.8003

          k = 0.5833-0.0833 0.7500 (  5473 PWs)   bands (ev):

   -47.8960 -19.8358 -19.8320 -19.8276 -10.7626   0.1382   0.5062   1.2078
     9.2151  10.0810  11.0794  12.4280  14.2680  15.4115  18.0343  19.2312

          k = 0.5000 0.0000 0.6667 (  5493 PWs)   bands (ev):

   -47.8960 -19.8361 -19.8313 -19.8269 -10.7829   0.1170   0.6034   1.2990
     9.5038  10.0047  10.6443  12.4233  14.4477  14.9243  18.3121  18.5886

          k = 0.8333-0.1667 1.0000 (  5491 PWs)   bands (ev):

   -47.8960 -19.8357 -19.8295 -19.8291 -10.7750  -0.0095   0.9947   1.0665
     8.3250   9.0892  11.7695  13.8902  14.8290  16.4929  17.3761  18.4623

          k = 0.7500-0.0833 0.9167 (  5480 PWs)   bands (ev):

   -47.8960 -19.8353 -19.8310 -19.8291 -10.7563   0.0358   0.7688   1.0503
     8.5313   9.3917  11.7748  13.2448  14.9126  16.8681  17.1154  18.2319

          k = 0.6667 0.0000 0.8333 (  5483 PWs)   bands (ev):

   -47.8960 -19.8341 -19.8331 -19.8285 -10.7518   0.1838   0.4794   1.1078
     8.8421   9.9020  11.5060  12.6014  14.4683  16.0419  18.0369  18.5753

          k =-0.1667-1.0000-0.0000 (  5472 PWs)   bands (ev):

   -47.8960 -19.8358 -19.8298 -19.8297 -10.7546  -0.0542   0.9515   1.0072
     8.1926   8.9879  12.3345  13.9122  15.3396  16.5460  17.4846  17.8457

          k = 0.6667-0.3333 1.0000 (  5469 PWs)   bands (ev):

   -47.8961 -19.8358 -19.8298 -19.8272 -10.8092   0.1034   0.8851   1.2632
     9.1534   9.9502  10.3222  12.8028  14.0875  16.3902  17.2820  18.6026

          k = 0.5833-0.2500 0.9167 (  5486 PWs)   bands (ev):

   -47.8960 -19.8361 -19.8307 -19.8278 -10.7752   0.0837   0.6971   1.1738
     9.4581   9.9282  10.5166  12.5644  14.6186  15.6460  17.7210  18.8644

          k = 0.5000-0.1667 0.8333 (  5480 PWs)   bands (ev):

   -47.8960 -19.8362 -19.8311 -19.8281 -10.7626   0.0866   0.6223   1.1369
     9.6295   9.7004  10.9638  12.2812  14.4917  16.0078  17.2947  18.9665

          k = 0.6667-0.1667 1.0000 (  5494 PWs)   bands (ev):

   -47.8960 -19.8353 -19.8307 -19.8291 -10.7643   0.0973   0.7468   1.0303
     8.9944   9.7459  10.9220  12.8635  15.0629  16.0266  17.5896  18.5045

          k = 0.5833-0.0833 0.9167 (  5480 PWs)   bands (ev):

   -47.8960 -19.8343 -19.8321 -19.8294 -10.7510   0.2212   0.5251   0.9843
     9.2345  10.1107  10.9253  12.1367  15.1755  16.2066  17.2198  18.4393

          k = 0.5000 0.0000 0.8333 (  5484 PWs)   bands (ev):

   -47.8960 -19.8345 -19.8324 -19.8288 -10.7550   0.2606   0.4481   1.0495
     9.4775  10.1948  10.6326  12.1435  15.1125  15.4614  17.9240  18.5450

          k =-0.3333-1.0000 0.0000 (  5494 PWs)   bands (ev):

   -47.8960 -19.8346 -19.8311 -19.8302 -10.7486   0.1249   0.6981   0.9198
     8.8513   9.6727  11.5905  12.4034  15.6251  16.7186  16.7779  17.8961

          k =-0.5000-1.0000 0.0000 (  5520 PWs)   bands (ev):

   -47.8960 -19.8328 -19.8328 -19.8305 -10.7456   0.3936   0.3936   0.8776
     9.3553  10.6162  10.6162  11.6181  16.1098  16.1098  16.7655  17.9226

     the Fermi energy is     2.9060 ev

!    total energy              =    -112.40310262 Ry
     estimated scf accuracy    <          7.0E-12 Ry
     smearing contrib. (-TS)   =      -0.00000000 Ry
     internal energy E=F+TS    =    -112.40310262 Ry

     The total energy is F=E-TS. E is the sum of the following terms:
     one-electron contribution =     -64.21651936 Ry
     hartree contribution      =      35.20745962 Ry
     xc contribution           =     -17.87648972 Ry
     ewald contribution        =     -65.51755315 Ry

     convergence has been achieved in  10 iterations

     Writing all to output data dir out/mp-22916.save/
 
     init_run     :      0.61s CPU      0.72s WALL (       1 calls)
     electrons    :     11.51s CPU     12.59s WALL (       1 calls)

     Called by init_run:
     wfcinit      :      0.59s CPU      0.67s WALL (       1 calls)
     potinit      :      0.01s CPU      0.01s WALL (       1 calls)
     hinit0       :      0.01s CPU      0.03s WALL (       1 calls)

     Called by electrons:
     c_bands      :     10.03s CPU     10.89s WALL (      11 calls)
     sum_band     :      1.39s CPU      1.57s WALL (      11 calls)
     v_of_rho     :      0.04s CPU      0.04s WALL (      11 calls)
     mix_rho      :      0.03s CPU      0.04s WALL (      11 calls)

     Called by c_bands:
     init_us_2    :      0.11s CPU      0.12s WALL (    1656 calls)
     init_us_2:cp :      0.11s CPU      0.12s WALL (    1656 calls)
     cegterg      :      9.47s CPU      9.95s WALL (     792 calls)

     Called by *egterg:
     cdiaghg      :      1.23s CPU      1.29s WALL (    4352 calls)
     h_psi        :      8.08s CPU      8.54s WALL (    4496 calls)
     g_psi        :      0.04s CPU      0.04s WALL (    3632 calls)

     Called by h_psi:
     h_psi:calbec :      0.19s CPU      0.20s WALL (    4496 calls)
     vloc_psi     :      7.74s CPU      8.17s WALL (    4496 calls)
     add_vuspsi   :      0.11s CPU      0.12s WALL (    4496 calls)

     General routines
     calbec       :      0.18s CPU      0.19s WALL (    4496 calls)
     fft          :      0.02s CPU      0.04s WALL (     110 calls)
     ffts         :      0.00s CPU      0.00s WALL (      11 calls)
     fftw         :      8.25s CPU      8.73s WALL (   93898 calls)
     davcio       :      0.12s CPU      0.48s WALL (    2626 calls)
 
     Parallel routines
 
     PWSCF        :     12.36s CPU     14.20s WALL

 
   This run was terminated on:   9:44: 5  19Dec2023            

=------------------------------------------------------------------------------=
   JOB DONE.
=------------------------------------------------------------------------------=
