
     Program PWSCF v.7.1 starts on  1Dec2023 at 16:35:43 

     This program is part of the open-source Quantum ESPRESSO suite
     for quantum simulation of materials; please cite
         "P. Giannozzi et al., J. Phys.:Condens. Matter 21 395502 (2009);
         "P. Giannozzi et al., J. Phys.:Condens. Matter 29 465901 (2017);
         "P. Giannozzi et al., J. Chem. Phys. 152 154105 (2020);
          URL http://www.quantum-espresso.org", 
     in publications or presentations arising from this work. More details at
     http://www.quantum-espresso.org/quote

     Parallel version (MPI), running on    24 processors

     MPI processes distributed on     1 nodes
     122700 MiB available memory on the printing compute node when the environment starts
 
     Reading input from pw_mp-2455_scf_k3000_E60.in
Warning: card &CELL ignored
Warning: card / ignored

     Current dimensions of program PWSCF are:
     Max number of different atomic species (ntypx) = 10
     Max number of k-points (npk) =  40000
     Max angular momentum in pseudopotentials (lmaxx) =  4
 
     R & G space division:  proc/nbgrp/npool/nimage =      24
     Subspace diagonalization in iterative solution of the eigenvalue problem:
     a serial algorithm will be used

 
     Parallelization info
     --------------------
     sticks:   dense  smooth     PW     G-vecs:    dense   smooth      PW
     Min          46      46     13                 1804     1804     287
     Max          47      47     14                 1809     1809     294
     Sum        1123    1123    329                43359    43359    7007
 
     Using Slab Decomposition
 


     bravais-lattice index     =            8
     lattice parameter (alat)  =       5.7510  a.u.
     unit-cell volume          =     691.1208 (a.u.)^3
     number of atoms/cell      =            6
     number of atomic types    =            2
     number of electrons       =        52.00
     number of Kohn-Sham states=           52
     kinetic-energy cutoff     =      60.0000  Ry
     charge density cutoff     =     240.0000  Ry
     scf convergence threshold =      1.0E-10
     mixing beta               =       0.7000
     number of iterations used =            8  plain     mixing
     Exchange-correlation= PBE
                           (   1   4   3   4   0   0   0)

     celldm(1)=   5.750963  celldm(2)=   1.780735  celldm(3)=   2.040484
     celldm(4)=   0.000000  celldm(5)=   0.000000  celldm(6)=   0.000000

     crystal axes: (cart. coord. in units of alat)
               a(1) = (   1.000000   0.000000   0.000000 )  
               a(2) = (   0.000000   1.780735   0.000000 )  
               a(3) = (   0.000000   0.000000   2.040484 )  

     reciprocal axes: (cart. coord. in units 2 pi/alat)
               b(1) = (  1.000000  0.000000  0.000000 )  
               b(2) = (  0.000000  0.561566  0.000000 )  
               b(3) = (  0.000000  0.000000  0.490080 )  


     PseudoPot. # 1 for As read from file:
     /usr/scratch4/magr4985/MG/HTDF/pseudo/SG15/As.upf
     MD5 check sum: a2ff92a4799c87c945fff9e6739df4dd
     Pseudo is Norm-conserving, Zval =  5.0
     Generated using ONCVPSP code by D. R. Hamann
     Using radial grid of  602 points,  6 beta functions with: 
                l(1) =   0
                l(2) =   0
                l(3) =   1
                l(4) =   1
                l(5) =   2
                l(6) =   2

     PseudoPot. # 2 for Os read from file:
     /usr/scratch4/magr4985/MG/HTDF/pseudo/SG15/Os.upf
     MD5 check sum: 95cd203db9fc26cc83e0e7c2505c7528
     Pseudo is Norm-conserving, Zval = 16.0
     Generated using ONCVPSP code by D. R. Hamann
     Using radial grid of  602 points,  8 beta functions with: 
                l(1) =   0
                l(2) =   0
                l(3) =   1
                l(4) =   1
                l(5) =   2
                l(6) =   2
                l(7) =   3
                l(8) =   3

     atomic species   valence    mass     pseudopotential
        As             5.00    74.92160     As( 1.00)
        Os            16.00   190.23000     Os( 1.00)

      4 Sym. Ops., with inversion, found



   Cartesian axes

     site n.     atom                  positions (alat units)
         1           As  tau(   1) = (   0.5000000   0.5860498   1.7674369  )
         2           As  tau(   2) = (   0.5000000   1.1946849   0.2730470  )
         3           As  tau(   3) = (   0.0000000   0.3043176   0.7471950  )
         4           As  tau(   4) = (   0.0000000   1.4764171   1.2932889  )
         5           Os  tau(   5) = (   0.5000000   0.8903674   1.0202419  )
         6           Os  tau(   6) = (   0.0000000   0.0000000   0.0000000  )

     number of k points=   140  Gaussian smearing, width (Ry)=  0.0005

     Number of k-points >= 100: set verbosity='high' to print them.

     Dense  grid:    43359 G-vectors     FFT dimensions: (  30,  54,  60)

     Estimated max dynamical RAM per process >       9.08 MB

     Estimated total dynamical RAM >     217.91 MB

     Initial potential from superposition of free atoms

     starting charge      51.7909, renormalised to      52.0000
     Starting wfcs are random

     total cpu time spent up to now is        6.0 secs

     Self-consistent Calculation

     iteration #  1     ecut=    60.00 Ry     beta= 0.70
     Davidson diagonalization with overlap
     ethr =  1.00E-02,  avg # of iterations =  9.1

     Threshold (ethr) on eigenvalues was too large:
     Diagonalizing with lowered threshold

     Davidson diagonalization with overlap
     ethr =  2.79E-04,  avg # of iterations =  1.8

     total cpu time spent up to now is       29.0 secs

     total energy              =    -418.90184895 Ry
     estimated scf accuracy    <       0.14371122 Ry

     iteration #  2     ecut=    60.00 Ry     beta= 0.70
     Davidson diagonalization with overlap
     ethr =  2.76E-04,  avg # of iterations =  2.0

     total cpu time spent up to now is       36.3 secs

     total energy              =    -418.87620987 Ry
     estimated scf accuracy    <       0.17226100 Ry

     iteration #  3     ecut=    60.00 Ry     beta= 0.70
     Davidson diagonalization with overlap
     ethr =  2.76E-04,  avg # of iterations =  2.1

     total cpu time spent up to now is       41.8 secs

     total energy              =    -418.91950722 Ry
     estimated scf accuracy    <       0.07023353 Ry

     iteration #  4     ecut=    60.00 Ry     beta= 0.70
     Davidson diagonalization with overlap
     ethr =  1.35E-04,  avg # of iterations =  1.1

     total cpu time spent up to now is       46.9 secs

     total energy              =    -418.93005179 Ry
     estimated scf accuracy    <       0.00023356 Ry

     iteration #  5     ecut=    60.00 Ry     beta= 0.70
     Davidson diagonalization with overlap
     c_bands:  1 eigenvalues not converged
     ethr =  4.49E-07,  avg # of iterations =  6.2

     total cpu time spent up to now is       54.7 secs

     total energy              =    -418.93009003 Ry
     estimated scf accuracy    <       0.00001899 Ry

     iteration #  6     ecut=    60.00 Ry     beta= 0.70
     Davidson diagonalization with overlap
     ethr =  3.65E-08,  avg # of iterations =  2.0

     total cpu time spent up to now is       61.2 secs

     total energy              =    -418.93007896 Ry
     estimated scf accuracy    <       0.00018397 Ry

     iteration #  7     ecut=    60.00 Ry     beta= 0.70
     Davidson diagonalization with overlap
     ethr =  3.65E-08,  avg # of iterations =  1.6

     total cpu time spent up to now is       67.8 secs

     total energy              =    -418.93009793 Ry
     estimated scf accuracy    <       0.00000014 Ry

     iteration #  8     ecut=    60.00 Ry     beta= 0.70
     Davidson diagonalization with overlap
     ethr =  2.60E-10,  avg # of iterations =  2.0

     total cpu time spent up to now is       74.7 secs

     total energy              =    -418.93009797 Ry
     estimated scf accuracy    <          5.4E-09 Ry

     iteration #  9     ecut=    60.00 Ry     beta= 0.70
     Davidson diagonalization with overlap
     ethr =  1.04E-11,  avg # of iterations =  2.0

     total cpu time spent up to now is       80.8 secs

     total energy              =    -418.93009797 Ry
     estimated scf accuracy    <          5.3E-10 Ry

     iteration # 10     ecut=    60.00 Ry     beta= 0.70
     Davidson diagonalization with overlap
     ethr =  1.03E-12,  avg # of iterations =  2.0

     total cpu time spent up to now is       86.4 secs

     total energy              =    -418.93009797 Ry
     estimated scf accuracy    <          2.3E-10 Ry

     iteration # 11     ecut=    60.00 Ry     beta= 0.70
     Davidson diagonalization with overlap
     ethr =  4.51E-13,  avg # of iterations =  1.2

     total cpu time spent up to now is       91.4 secs

     End of self-consistent calculation

     Number of k-points >= 100: set verbosity='high' to print the bands.

     the Fermi energy is    13.4635 ev

!    total energy              =    -418.93009797 Ry
     estimated scf accuracy    <          1.4E-11 Ry
     smearing contrib. (-TS)   =      -0.00000000 Ry
     internal energy E=F+TS    =    -418.93009797 Ry

     The total energy is F=E-TS. E is the sum of the following terms:
     one-electron contribution =    -165.97382872 Ry
     hartree contribution      =     102.50493841 Ry
     xc contribution           =     -51.15026848 Ry
     ewald contribution        =    -304.31093917 Ry

     convergence has been achieved in  11 iterations

     Writing all to output data dir out/mp-2455.save/
 
     init_run     :      4.89s CPU      5.96s WALL (       1 calls)
     electrons    :     74.64s CPU     85.42s WALL (       1 calls)

     Called by init_run:
     wfcinit      :      4.85s CPU      5.89s WALL (       1 calls)
     potinit      :      0.01s CPU      0.02s WALL (       1 calls)
     hinit0       :      0.02s CPU      0.03s WALL (       1 calls)

     Called by electrons:
     c_bands      :     65.49s CPU     73.99s WALL (      12 calls)
     sum_band     :      9.11s CPU     11.29s WALL (      12 calls)
     v_of_rho     :      0.03s CPU      0.03s WALL (      12 calls)
     mix_rho      :      0.01s CPU      0.05s WALL (      12 calls)

     Called by c_bands:
     init_us_2    :      0.53s CPU      0.71s WALL (    3500 calls)
     init_us_2:cp :      0.52s CPU      0.70s WALL (    3500 calls)
     cegterg      :     59.14s CPU     60.93s WALL (    1680 calls)

     Called by *egterg:
     cdiaghg      :     17.95s CPU     18.06s WALL (    6182 calls)
     h_psi        :     38.68s CPU     40.75s WALL (    6462 calls)
     g_psi        :      0.19s CPU      0.19s WALL (    4642 calls)

     Called by h_psi:
     h_psi:calbec :      2.91s CPU      3.03s WALL (    6462 calls)
     vloc_psi     :     33.39s CPU     35.29s WALL (    6462 calls)
     add_vuspsi   :      2.17s CPU      2.21s WALL (    6462 calls)

     General routines
     calbec       :      2.89s CPU      3.01s WALL (    6462 calls)
     fft          :      0.02s CPU      0.03s WALL (     120 calls)
     ffts         :      0.00s CPU      0.00s WALL (      12 calls)
     fftw         :     38.82s CPU     41.35s WALL (  538928 calls)
     davcio       :      0.77s CPU      8.06s WALL (    5446 calls)
 
     Parallel routines
 
     PWSCF        :   1m20.49s CPU   1m33.28s WALL

 
   This run was terminated on:  16:37:17   1Dec2023            

=------------------------------------------------------------------------------=
   JOB DONE.
=------------------------------------------------------------------------------=
