
     Program PWSCF v.7.1 starts on  5Apr2024 at 23:45:19 

     This program is part of the open-source Quantum ESPRESSO suite
     for quantum simulation of materials; please cite
         "P. Giannozzi et al., J. Phys.:Condens. Matter 21 395502 (2009);
         "P. Giannozzi et al., J. Phys.:Condens. Matter 29 465901 (2017);
         "P. Giannozzi et al., J. Chem. Phys. 152 154105 (2020);
          URL http://www.quantum-espresso.org", 
     in publications or presentations arising from this work. More details at
     http://www.quantum-espresso.org/quote

     Parallel version (MPI), running on     8 processors

     MPI processes distributed on     1 nodes
     240557 MiB available memory on the printing compute node when the environment starts
 
     Reading input from pw_SbAs_nscf_k49_E47.in
Warning: card &IONS ignored
Warning: card / ignored
Warning: card &CELL ignored
Warning: card / ignored

     Current dimensions of program PWSCF are:
     Max number of different atomic species (ntypx) = 10
     Max number of k-points (npk) =  40000
     Max angular momentum in pseudopotentials (lmaxx) =  4

     Atomic positions and unit cell read from directory:
     out/SbAs.save/
     Atomic positions from file used, from input discarded
 
 
     R & G space division:  proc/nbgrp/npool/nimage =       8
     Subspace diagonalization in iterative solution of the eigenvalue problem:
     one sub-group per band group will be used
     scalapack distributed-memory algorithm (size of sub-group:  2*  2 procs)

 
     Parallelization info
     --------------------
     sticks:   dense  smooth     PW     G-vecs:    dense   smooth      PW
     Min          84      84     24                 9376     9376    1492
     Max          85      85     25                 9403     9403    1515
     Sum         673     673    199                75069    75069   12071
 
     Using Slab Decomposition
 


     bravais-lattice index     =            4
     lattice parameter (alat)  =       7.2635  a.u.
     unit-cell volume          =    1726.8150 (a.u.)^3
     number of atoms/cell      =            2
     number of atomic types    =            2
     number of electrons       =        20.00
     number of Kohn-Sham states=         1200
     kinetic-energy cutoff     =      47.0000  Ry
     charge density cutoff     =     188.0000  Ry
     Exchange-correlation= PBE
                           (   1   4   3   4   0   0   0)

     celldm(1)=   7.263454  celldm(2)=   0.000000  celldm(3)=   5.203381
     celldm(4)=   0.000000  celldm(5)=   0.000000  celldm(6)=   0.000000

     crystal axes: (cart. coord. in units of alat)
               a(1) = (   1.000000   0.000000   0.000000 )  
               a(2) = (  -0.500000   0.866025   0.000000 )  
               a(3) = (   0.000000   0.000000   5.203381 )  

     reciprocal axes: (cart. coord. in units 2 pi/alat)
               b(1) = (  1.000000  0.577350  0.000000 )  
               b(2) = (  0.000000  1.154701  0.000000 )  
               b(3) = (  0.000000  0.000000  0.192183 )  


     PseudoPot. # 1 for As read from file:
     /usr/scratch4/magr4985/FGWC/FGWC/pseudo/SG15/As.upf
     MD5 check sum: a2ff92a4799c87c945fff9e6739df4dd
     Pseudo is Norm-conserving, Zval =  5.0
     Generated using ONCVPSP code by D. R. Hamann
     Using radial grid of  602 points,  6 beta functions with: 
                l(1) =   0
                l(2) =   0
                l(3) =   1
                l(4) =   1
                l(5) =   2
                l(6) =   2

     PseudoPot. # 2 for Sb read from file:
     /usr/scratch4/magr4985/FGWC/FGWC/pseudo/SG15/Sb.upf
     MD5 check sum: 0417cd6c0fe8ce4611e2b23135f1abd9
     Pseudo is Norm-conserving, Zval = 15.0
     Generated using ONCVPSP code by D. R. Hamann
     Using radial grid of  602 points,  6 beta functions with: 
                l(1) =   0
                l(2) =   0
                l(3) =   1
                l(4) =   1
                l(5) =   2
                l(6) =   2

     atomic species   valence    mass     pseudopotential
        As             5.00    74.92160     As( 1.00)
        Sb            15.00   121.76000     Sb( 1.00)

      6 Sym. Ops. (no inversion) found



   Cartesian axes

     site n.     atom                  positions (alat units)
         1           Sb  tau(   1) = (   0.5000000   0.2886752   0.1996508  )
         2           As  tau(   2) = (   0.0000000   0.0000000   5.0037309  )

     number of k points=     7  Gaussian smearing, width (Ry)=  0.0005
                       cart. coord. in units 2pi/alat
        k(    1) = (   0.0000000   0.0000000   0.0000000), wk =   0.0555556
        k(    2) = (   0.0000000   0.1924501   0.0000000), wk =   0.3333333
        k(    3) = (   0.0000000   0.3849002   0.0000000), wk =   0.3333333
        k(    4) = (   0.0000000  -0.5773503   0.0000000), wk =   0.1666667
        k(    5) = (   0.1666667   0.2886751   0.0000000), wk =   0.3333333
        k(    6) = (   0.1666667   0.4811252   0.0000000), wk =   0.6666667
        k(    7) = (   0.3333333   0.5773503   0.0000000), wk =   0.1111111

     Dense  grid:    75069 G-vectors     FFT dimensions: (  32,  32, 180)

     Estimated max dynamical RAM per process >     330.58 MB

     Estimated total dynamical RAM >       2.58 GB

     The potential is recalculated from file :
     out/SbAs.save/charge-density

     Starting wfcs are random

     Band Structure Calculation
     Davidson diagonalization with overlap

     ethr =  5.00E-06,  avg # of iterations = 13.4

     total cpu time spent up to now is      527.8 secs

     End of band structure calculation

          k = 0.0000 0.0000 0.0000 (  9377 PWs)   bands (ev):

   -30.6811 -30.6811 -30.5911 -30.5911 -30.5652 -14.4767  -8.9205  -2.7914
    -2.0660  -2.0660  -0.3150   1.1978   1.1978   2.4153   2.7075   3.4553
     4.0410   5.3139   6.0953   6.3043   7.0551   7.0551   7.7827   8.2814
     9.0462   9.0462   9.6473   9.8275  12.3390  12.3390  12.4171  13.0405
    13.5945  13.5945  13.8386  14.8648  15.4664  15.4664  15.9143  15.9515
    15.9515  16.1593  16.3985  16.3985  16.4115  16.5062  16.5062  16.6250
    17.0498  17.2619  17.2619  17.3060  17.3060  17.3589  17.5288  17.5288
    17.6024  17.6024  17.7464  17.9215  18.0579  18.2159  19.3690  19.3690
    19.4223  19.4223  19.4318  19.7761  19.7761  19.8350  19.8350  19.8873
    20.1591  20.3418  22.1604  22.3673  22.3673  22.4836  22.4836  22.6167
    22.8941  22.8941  22.9550  22.9550  23.2341  23.5526  23.7490  23.8920
    26.0251  26.1479  26.1479  26.3099  26.3099  26.3597  26.5750  26.7274
    26.7274  26.8345  26.8345  27.4126  27.5963  28.0524  28.0524  28.7342
    28.7342  29.4716  29.5610  30.6617  30.8628  30.8628  31.0788  31.0788
    31.4313  31.5993  31.5993  31.7276  31.7276  32.1172  32.3760  32.8115
    33.1694  34.4263  34.4263  34.8897  34.8897  35.3874  36.2652  36.2652
    36.3340  36.3340  36.6583  36.7711  37.0294  37.0294  37.1005  37.4463
    37.4463  37.7459  38.1765  38.3196  38.6525  38.6851  38.6851  39.4941
    39.9591  39.9601  39.9601  41.5634  41.5634  41.9873  42.4581  42.4581
    42.6050  42.7171  42.7171  42.8133  43.0344  43.0344  43.1024  43.1024
    43.1573  43.4171  43.4171  43.5362  43.5362  43.5728  43.5820  43.6539
    43.6539  43.7481  43.7481  43.8077  43.9126  43.9126  44.0504  44.3789
    44.3789  44.3923  44.4624  44.5240  44.5834  44.5834  44.6172  44.7542
    44.7542  44.8598  44.8598  45.0339  45.1476  45.3352  46.2119  46.2119
    46.5993  46.6837  46.7058  46.7058  46.7223  46.8548  46.8548  46.9852
    46.9852  47.4918  48.3274  48.3274  48.3399  48.7056  48.7056  49.3775
    49.3775  49.5049  49.5049  49.6705  49.7100  49.7785  49.9398  49.9779
    49.9779  50.0662  50.0662  50.2277  50.3755  50.3755  50.5165  50.5165
    50.7043  50.8180  50.8180  50.8941  50.8941  51.2328  51.5738  52.3153
    52.4551  52.4551  52.8461  53.2260  53.2260  53.4012  53.6149  53.6677
    53.6677  53.6846  53.7055  54.0621  54.0621  54.3632  54.4048  54.4048
    54.4480  54.5914  54.5914  55.3130  56.3083  56.4719  56.4719  56.6536
    56.6536  56.8815  56.9438  56.9438  57.0140  57.0140  57.1388  57.1842
    57.1842  57.2610  57.4427  57.4427  57.6345  57.8823  57.8823  57.9617
    57.9617  58.0088  58.0418  58.0418  58.0709  58.1957  58.2280  58.2280
    58.3097  58.3097  58.3382  58.3934  58.3934  58.4052  58.5933  58.6067
    58.6145  58.6145  58.9242  58.9371  58.9371  59.1606  59.1606  59.1958
    59.2029  59.2029  59.5326  60.0358  60.1640  60.1640  60.2269  60.3144
    60.4665  60.4665  60.5267  60.5267  60.6732  60.6732  60.7111  61.5180
    62.2262  62.5856  62.5856  62.6692  63.1869  63.1869  63.2060  63.3723
    63.4878  63.4878  63.5301  63.5301  63.6049  63.6049  63.7007  63.7774
    63.9175  64.1445  64.1445  64.2060  64.2060  64.3042  64.4403  64.4403
    64.8072  65.2144  65.9510  65.9510  66.2985  66.2985  66.3042  66.6044
    66.6044  66.9243  66.9738  66.9738  67.1120  67.1867  67.1867  67.3103
    67.5090  67.5090  67.6382  67.6382  67.7710  67.7710  67.7917  67.8549
    68.0581  69.0098  69.4887  69.7596  69.7596  69.8350  69.8350  70.1755
    70.2284  70.2284  70.6594  70.6595  70.8784  71.2552  71.6640  71.8427
    71.8715  71.9501  71.9501  72.0073  72.0073  72.1194  72.1194  72.1277
    72.2614  72.5892  72.5892  73.1404  73.5440  74.1691  74.1691  74.9352
    74.9352  75.1603  75.7136  75.7136  76.0177  76.0959  76.0959  76.4231
    76.4231  76.4241  76.6705  76.8717  76.9833  76.9833  77.0459  77.0459
    77.2936  77.3886  77.3969  77.3969  77.6045  77.6694  77.6694  77.9196
    78.0730  78.0730  78.1125  78.1875  78.1875  78.3267  78.5205  78.5205
    78.7248  78.8311  79.5640  79.5640  80.1159  80.2310  80.2310  81.2528
    81.2528  81.7382  82.5493  82.5493  82.5889  83.1018  83.1018  83.3080
    83.6930  83.6930  83.7761  83.9991  83.9991  84.2604  84.3094  84.3725
    84.3725  84.6769  84.8977  84.8977  84.9312  85.1556  85.1556  85.3326
    85.3554  85.4563  85.4563  85.5165  85.5165  85.7280  86.1748  86.1748
    86.2298  86.3863  86.3863  86.7377  86.8621  86.8621  86.8900  86.9161
    86.9161  87.2461  87.2995  87.3699  87.3699  87.9960  88.2699  88.2699
    88.5060  88.5060  88.8309  88.8946  88.8946  89.7110  90.0924  90.0924
    90.4632  90.5469  90.7801  90.7801  91.1443  91.2503  91.2503  91.3863
    91.3863  91.4754  92.6054  92.6054  92.7218  92.7557  92.7557  93.1043
    93.2648  93.2648  93.4724  93.5344  93.7753  93.7753  93.9388  93.9388
    94.0697  94.2081  94.2516  94.2516  94.6556  94.8072  94.9613  94.9613
    95.0339  95.0339  95.1850  95.5422  95.7342  96.1607  96.3861  96.3861
    96.4823  96.4823  96.6144  96.7787  96.7787  97.0059  97.0059  97.1258
    97.1896  97.1947  97.1947  97.2318  97.2318  97.3516  97.3516  97.4360
    97.4657  97.4657  97.5268  97.7577  97.7577  97.7775  97.8096  97.8096
    97.8386  97.9087  97.9087  97.9270  97.9640  97.9640  98.0454  98.0454
    98.0624  98.1869  98.3398  98.4324  98.4538  98.4538  98.5303  98.5699
    98.6212  98.6212  98.6710  98.6752  98.6752  98.7381  98.7381  98.8084
    98.8084  98.8904  98.8904  98.9201  98.9416  98.9578  98.9578  98.9615
    98.9755  99.0366  99.0366  99.1191  99.1191  99.1659  99.2274  99.4223
    99.4223  99.4927  99.4927 100.2078 100.2992 100.4123 100.4123 100.4186
   100.4754 100.5158 100.5808 100.5808 100.6772 100.8537 100.8553 100.8553
   100.9568 100.9568 101.0779 101.0779 101.1457 101.1457 101.1606 101.1606
   101.1680 101.1904 101.6391 101.6391 102.0370 102.0370 102.1397 102.4960
   102.6752 102.6752 102.8700 102.8700 102.9068 102.9102 102.9428 103.0413
   103.0413 103.0818 103.2181 103.3635 103.3635 103.7806 103.7806 103.9246
   103.9485 103.9485 103.9643 104.0385 104.0385 104.0997 104.1377 104.1377
   104.2630 104.2630 104.3018 104.3484 104.5358 104.5358 104.8579 104.8710
   104.8710 105.4919 105.7981 105.7981 105.8508 105.9842 106.2085 106.2999
   106.2999 106.5888 106.5888 106.7896 106.8745 106.8745 107.0537 107.2952
   107.3435 107.3435 107.3755 107.3764 107.3822 107.4683 107.4683 107.6076
   107.6076 107.7809 107.8979 107.8979 107.9579 107.9579 107.9663 108.1264
   108.1264 108.2879 108.3140 108.3263 108.3263 108.3294 108.4295 108.4295
   108.5561 108.5561 108.6321 108.6321 108.7981 108.9891 108.9891 109.2472
   109.2472 109.3605 109.3605 109.8073 109.8808 109.9324 109.9324 110.2393
   110.4346 111.1126 111.1126 111.1126 111.4174 111.4395 111.4395 111.7679
   111.7860 112.1036 112.1036 112.4152 112.4152 112.4737 112.7032 112.7032
   112.7309 112.8420 112.8420 112.9610 112.9610 113.0184 113.0184 113.0697
   113.0856 113.1400 113.1400 113.3374 113.3374 113.4565 113.4969 113.4969
   113.6506 113.6536 113.7476 113.7476 113.8342 114.3854 115.1169 115.1169
   115.5498 115.6414 115.6414 115.9399 115.9399 116.0423 116.2158 116.2158
   116.4138 116.7654 116.8642 116.8642 117.1371 117.1371 117.2494 117.3973
   117.3973 117.4730 117.5272 117.5985 117.8386 117.8673 117.8673 118.1398
   118.1518 118.1518 118.3259 118.3259 118.3818 118.6324 118.6452 118.6480
   118.6480 118.8035 118.8035 119.0429 119.0429 119.2846 119.5833 119.5833
   120.0410 120.0972 120.0972 120.5280 120.5280 120.5649 120.6880 120.6880
   120.8521 121.0972 121.0972 121.2688 121.2688 121.4121 121.8507 121.8507
   122.1616 122.1756 122.2012 122.2012 122.5221 122.7498 122.7545 122.7545
   123.0121 123.2121 123.2749 123.4272 123.4272 123.4605 123.4605 124.0148
   124.1277 124.1277 124.1886 124.3301 124.3301 124.3617 124.3617 124.5146
   124.5200 124.5200 124.5970 124.6213 124.6213 124.7274 124.7274 124.7448
   124.7901 124.8456 124.8456 124.9474 124.9474 124.9852 125.0279 125.0505
   125.0505 125.0761 125.0787 125.0787 125.0840 125.3228 125.4271 125.4271
   125.6848 125.7601 125.7601 125.8293 125.8296 125.8296 125.9826 125.9826
   126.0004 126.0508 126.0508 126.1518 126.2996 126.2996 126.3594 126.4546
   126.4546 126.7827 126.7827 126.9357 126.9533 126.9737 126.9737 127.2807
   127.5378 127.5378 127.7916 127.7916 127.8032 127.8356 127.9351 127.9667
   127.9667 128.1587 128.3253 128.3253 128.5196 128.5196 129.4775 129.6483
   129.6483 129.7850 130.1144 130.1216 130.1216 130.4739 130.5073 130.6117
   130.7027 130.9266 130.9266 131.0467 131.0467 131.0853 131.1148 131.1148
   131.2751 131.3816 131.3816 131.4672 131.4672 131.7485 131.7485 131.7578
   131.8920 131.8920 131.9528 132.0037 132.0772 132.0888 132.0888 132.1182
   132.3328 132.3328 132.4315 132.4315 132.7496 132.7496 133.3586 133.6189
   133.6189 133.7453 133.7956 133.7956 134.2560 134.2885 134.2885 134.4084
   134.4084 134.5663 134.6060 134.6658 134.6658 134.9785 135.0467 135.0467
   135.1403 135.1403 135.2121 135.2459 135.2459 135.4064 135.4064 135.5187
   135.5187 135.7618 135.9099 135.9218 135.9847 136.1772 136.2498 136.2498
   136.4013 136.7975 136.7975 137.3594 137.3594 137.4015 137.4143 137.4852
   137.4852 137.5206 137.5206 137.7609 137.8081 138.1398 138.1398 138.4798
   138.5180 138.6115 138.6115 138.6686 138.9682 138.9695 138.9695 139.0065
   139.1673 139.1810 139.1810 139.3266 139.3266 139.4090 139.4090 139.6079
   139.7719 139.7719 139.8146 139.8146 139.8938 139.9466 140.0113 140.0113
   140.1194 140.1194 140.2334 140.5404 140.5568 140.5568 140.5725 140.6146
   140.6146 141.4347 141.4347 142.5078 142.9975 143.5271 143.7546 143.7547
   144.0972 144.0972 144.2813 144.4814 144.5987 144.5987 144.8987 144.9473
   145.1151 145.1209 145.1209 145.3004 145.3004 145.5985 145.7453 145.7453
   146.0109 146.0109 146.1673 146.1673 146.4823 146.4823 146.6126 146.6513
   146.7897 146.7897 146.8355 146.8962 147.3914 147.3914 147.4370 147.4370
   147.4703 147.5309 147.7708 147.7708 148.0004 148.0004 148.2098 148.2098
   148.2157 148.3479 148.3479 148.4363 148.5034 148.6417 148.6417 148.7336
   148.7336 148.9055 148.9066 148.9542 149.0033 149.1540 149.1540 149.1638
   149.1638 149.2574 149.3679 149.5170 149.5170 149.7194 149.7194 149.9906
   150.0037 150.0037 150.0168 150.0368 150.0368 150.2288 150.2288 150.3550
   150.3953 150.6051 150.6051 150.8057 150.8057 150.9493 151.0962 151.1689
   151.2250 151.2250 151.4613 152.1933 152.1933 152.9045 152.9045 154.1363
   154.1363 154.3801 154.5986 154.9988 154.9988 155.4427 155.4427 155.5052
   155.7626 155.8138 155.8887 155.8887 156.3757 156.4689 156.5426 156.5426
   156.9721 157.0408 157.1260 157.1260 157.2944 157.2944 157.6364 157.6364
   157.6904 157.7841 157.7841 157.8931 157.9273 158.0611 158.3593 158.3593
   158.5675 158.5675 158.6583 158.6583 158.6999 158.9029 159.0029 159.0029
   159.1638 159.1673 159.1673 159.2543 159.3013 159.3157 159.3157 159.3697
   159.3697 159.7356 159.7356 159.8191 160.2468 160.2468 160.4262 160.4262
   160.9598 161.1460 161.1460 161.1683 161.1683 161.5472 161.5472 161.6094
   161.6335 161.6392 161.7779 161.7779 161.8300 161.9202 161.9521 161.9521
   162.0397 162.1173 162.2832 162.2832 162.5079 162.7398 162.7398 162.9596
   162.9596 162.9883 163.0172 163.0172 163.1087 163.1674 163.2652 163.2652

          k = 0.0000 0.1925 0.0000 (  9348 PWs)   bands (ev):

   -30.6816 -30.6767 -30.5935 -30.5917 -30.5627 -14.1553  -8.9053  -4.0215
    -2.6629  -2.6431  -0.0276   1.5068   1.6702   2.8400   3.0872   3.8003
     4.4029   5.1470   5.9374   6.5141   6.8563   7.0876   7.8984   8.8369
     9.3598   9.8240  10.1480  10.7993  11.5258  11.6310  11.8529  12.3826
    13.0533  13.2092  13.3135  13.6731  13.7279  13.8357  14.2612  14.5567
    14.6352  15.2207  15.2727  15.4866  15.5056  15.7113  15.8284  15.9383
    16.1489  17.5583  17.6130  17.7168  17.7763  17.9917  18.2975  18.4279
    18.5103  18.6781  18.8365  19.0263  19.0839  19.2219  19.9324  20.0817
    20.0955  20.2640  20.6728  20.7037  20.8745  20.9201  21.1597  21.3772
    21.8259  22.0159  22.0667  22.2184  22.3285  22.3827  22.5474  22.6130
    22.7036  23.2637  23.7516  23.8843  24.4789  24.5143  24.6198  24.6568
    24.9897  25.3214  25.3557  25.3911  25.6046  25.8512  26.8994  27.1336
    27.2552  27.5251  27.7242  28.2233  28.6976  28.9351  29.0027  29.1693
    29.4815  29.5693  29.6983  29.9401  29.9773  30.1622  30.3307  30.6136
    31.5133  31.9015  32.2937  32.7639  32.7845  33.1985  33.5526  33.6081
    33.7773  34.1069  34.1654  34.3681  34.6278  34.9420  35.0651  35.2494
    35.5175  35.7129  35.9809  36.4875  36.5313  36.6687  36.8555  37.1159
    37.1230  37.2731  37.5365  37.8484  37.8906  37.9894  38.1640  38.3732
    38.5483  38.5882  39.0970  39.3584  39.3853  39.5329  39.8032  40.0362
    40.1071  40.2369  40.3932  40.4961  40.6776  40.7545  41.0996  41.4188
    41.4357  41.6364  41.6766  41.9397  42.3942  42.9574  43.0037  43.2165
    43.3518  43.4619  43.5737  43.7049  43.9250  43.9343  44.1111  44.6202
    44.6469  44.7833  44.8097  45.1049  45.1136  45.2381  45.4171  45.4522
    45.6530  45.7181  45.9420  46.1675  46.3028  46.5339  46.8622  46.8732
    47.0449  47.1327  47.2556  47.3336  47.4756  47.5392  47.6409  47.8720
    47.8829  48.1415  48.2710  48.4293  48.5571  48.5613  48.7139  48.9790
    49.1220  49.4019  49.4120  49.5437  49.7215  49.9738  50.0421  50.3177
    50.3527  50.4648  50.4670  50.6839  50.7693  51.0055  51.3748  51.4671
    51.5911  51.7258  51.8136  51.8990  52.0430  52.0936  52.1243  52.4025
    52.4533  52.5459  52.5758  52.7945  52.9000  53.0119  53.0814  53.2279
    53.3177  53.4169  53.4887  53.7503  53.7535  53.8720  53.9723  53.9730
    54.0465  54.0873  54.2499  54.2724  54.3094  54.3639  54.4798  54.7224
    54.7535  54.8575  54.9229  55.1449  55.5125  55.7283  55.8820  56.0721
    56.1358  56.2642  56.4398  56.4512  56.5827  56.7269  56.9383  56.9417
    57.0744  57.4180  57.4375  57.6771  57.7384  58.0006  58.2450  58.3076
    58.5724  58.7731  58.8176  58.9421  59.0542  59.1310  59.2907  59.3900
    59.5103  59.6921  59.7468  60.1892  60.5077  60.5790  61.0081  61.0213
    61.1378  61.1793  61.3302  61.6109  61.8633  61.9749  62.0462  62.0917
    62.2279  62.5094  62.5213  62.6711  62.8478  62.9197  62.9999  63.1425
    63.1457  63.2273  63.2638  63.3784  63.5138  63.6104  63.6686  63.7735
    63.8349  63.9952  64.0585  64.1170  64.3721  64.5537  64.6693  64.8838
    64.9112  65.0180  65.1642  65.2339  65.3213  65.3626  65.4283  65.4554
    65.5967  65.8712  66.0239  66.2012  66.6051  66.7642  66.9892  67.4107
    67.5417  67.6085  67.7437  67.9455  68.1186  68.2165  68.2932  68.3445
    68.5368  68.6533  68.7829  68.8024  69.3663  69.3711  69.5493  69.8115
    69.8911  70.0451  70.2247  70.3588  70.3681  70.4849  70.5561  70.7082
    70.8941  71.1305  71.1509  71.3118  71.4517  71.6578  71.8270  71.8793
    72.0382  72.1251  72.3166  72.3758  72.4818  72.5536  72.6320  72.7459
    73.0381  73.0775  73.2133  73.3815  73.5867  73.6008  73.7894  73.9849
    74.1507  74.3893  74.5498  74.9644  75.3056  75.6379  75.7730  76.1946
    76.2049  76.5143  76.8311  76.9160  76.9302  77.0921  77.1974  77.2455
    77.4688  77.5450  77.6908  77.7842  77.9890  78.0788  78.1208  78.3814
    78.4043  78.6557  78.7686  78.8384  79.0169  79.1286  79.3868  79.5114
    79.7009  79.7634  80.0645  80.1216  80.4943  80.6262  80.9010  81.0366
    81.2478  81.4282  81.6718  81.7226  81.9399  82.0313  82.1848  82.4544
    82.4774  82.5945  82.8334  83.1405  83.2450  83.5470  83.8433  83.9120
    84.1727  84.2336  84.3393  84.5141  84.6296  84.7108  84.8146  85.0631
    85.2794  85.4097  85.4321  85.5903  85.7639  85.7954  86.0673  86.1026
    86.3050  86.3244  86.7279  86.7297  86.8554  86.8756  86.9420  87.0174
    87.0747  87.1242  87.3012  87.5143  87.5165  87.7839  87.7954  87.8388
    87.9227  88.0371  88.1685  88.2669  88.2675  88.4133  88.5352  88.7188
    88.7645  88.9563  89.1192  89.1313  89.1893  89.2673  89.3052  89.5146
    89.6964  89.7681  89.8272  89.9180  89.9794  90.1164  90.1545  90.2508
    90.3040  90.4101  90.4240  90.5951  90.9762  91.3384  91.3480  91.4799
    91.7231  91.7676  92.0506  92.0802  92.3162  92.3626  92.4922  92.5006
    92.6697  92.7368  92.7989  92.9156  92.9850  93.0816  93.2659  93.3640
    93.4668  93.5181  93.6628  93.7554  93.8072  94.1731  94.4075  94.4321
    94.6241  94.6341  94.6861  94.8848  95.1145  95.1648  95.1960  95.2827
    95.3355  95.4518  95.4685  95.5470  95.6450  95.7769  95.7989  95.8911
    95.9222  95.9942  96.0946  96.2043  96.2574  96.3088  96.3740  96.6030
    96.6716  96.8197  96.8784  97.0119  97.0293  97.0767  97.1302  97.2560
    97.2697  97.4186  97.4534  97.5266  97.8888  98.3681  98.4772  98.5740
    98.6965  98.7688  98.8205  98.9422  98.9554  99.0911  99.1194  99.2076
    99.3468  99.3569  99.4133  99.6923  99.7280  99.9698 100.1250 100.1258
   100.3059 100.3844 100.4606 100.5356 100.7414 100.8047 100.9169 100.9802
   101.0744 101.0763 101.1809 101.3301 101.3854 101.4335 101.6030 101.6477
   101.7370 101.7637 102.0310 102.0410 102.0824 102.2576 102.2630 102.3493
   102.3722 102.5945 102.6772 102.7739 102.9266 103.1132 103.2474 103.3042
   103.3115 103.5018 103.5953 103.6307 103.6476 103.7649 103.8036 103.9127
   103.9932 104.1477 104.1869 104.3154 104.3838 104.5382 104.5395 104.7291
   105.0649 105.2519 105.4020 105.5517 105.6736 105.7180 105.9658 105.9661
   106.0841 106.1989 106.2781 106.4775 106.5216 106.6088 106.6198 106.6870
   106.7517 106.8862 106.9440 106.9693 107.0359 107.2462 107.2962 107.3466
   107.4466 107.5883 107.6574 107.7677 107.8349 107.9391 107.9735 108.0535
   108.1035 108.1889 108.3488 108.5069 108.5666 108.5717 108.6484 108.7084
   108.7911 108.8343 108.9902 109.2828 109.4322 109.4594 109.5154 109.5421
   109.6439 109.7329 109.8513 109.9053 109.9312 110.1934 110.2247 110.2404
   110.3583 110.3646 110.5039 110.5078 110.5639 110.6649 110.7210 110.7297
   110.8623 110.8803 111.0268 111.1768 111.2955 111.3300 111.5017 111.5465
   111.5829 111.6343 111.7460 111.9102 112.1462 112.1671 112.3070 112.3462
   112.3525 112.4159 112.5099 112.6815 112.7911 112.8118 112.9287 113.0088
   113.0371 113.1100 113.2317 113.2940 113.3676 113.4973 113.5366 113.6569
   113.7292 113.8363 113.8509 114.0092 114.0103 114.1413 114.3766 114.5160
   114.6055 114.7223 114.7588 114.8701 115.0545 115.2991 115.3197 115.3947
   115.4315 115.5510 115.6278 115.6564 115.7525 115.8770 115.9259 116.0785
   116.2975 116.2982 116.3640 116.4532 116.6033 116.8435 116.8509 116.9728
   117.0609 117.2033 117.3643 117.3835 117.4282 117.5703 117.6726 117.7071
   117.7176 118.0079 118.1564 118.3019 118.3856 118.5410 118.5610 118.6741
   118.6791 118.7692 118.9780 118.9962 119.1230 119.2219 119.2955 119.3283
   119.4588 119.5011 119.5602 119.6310 119.7255 119.8095 119.9029 120.0268
   120.1309 120.1719 120.3159 120.4371 120.4796 120.6701 120.7211 120.8018
   120.8818 120.9801 121.0376 121.1900 121.2816 121.3345 121.4571 121.5517
   121.6368 121.7008 121.7880 121.8035 121.9130 121.9377 121.9897 122.0727
   122.1745 122.2544 122.3980 122.4294 122.4901 122.5421 122.7943 123.0000
   123.0179 123.0498 123.1618 123.1778 123.2859 123.3832 123.4336 123.6454
   123.7041 123.8720 123.9939 124.1968 124.2142 124.3789 124.5064 124.6890
   124.7157 124.7312 124.8148 124.9040 124.9150 125.0938 125.2170 125.2243
   125.4095 125.8280 126.1065 126.2952 126.4432 126.5766 126.7786 126.8534
   126.8791 126.9778 126.9967 127.1102 127.4443 127.5916 127.7110 127.7882
   128.0319 128.0388 128.1622 128.2961 128.3217 128.4021 128.4085 128.6173
   128.6797 129.0568 129.1526 129.2005 129.2290 129.3406 129.3902 129.4760
   129.4825 129.6810 129.7459 129.9128 129.9652 129.9668 130.0257 130.0625
   130.2922 130.3632 130.4473 130.7118 130.7768 130.9049 130.9793 131.1822
   131.1956 131.3816 131.4986 131.5442 131.6201 131.7343 131.9013 131.9910
   132.0821 132.1247 132.1270 132.2281 132.4118 132.5229 132.5818 132.7182
   132.7837 132.8100 132.8234 132.9911 133.0247 133.2483 133.4557 133.4988
   133.5922 133.6653 133.6840 133.7494 133.8310 133.8583 133.9260 134.0350
   134.1731 134.2895 134.3117 134.5060 134.6413 134.6809 135.0433 135.0736
   135.2459 135.3481 135.3936 135.4928 135.5906 135.7022 135.8238 135.8241
   136.1113 136.1139 136.2895 136.3074 136.5070 136.5404 136.6438 136.7366
   136.7577 136.8291 136.9480 137.0085 137.1240 137.4415 137.5113 137.5609
   137.6248 137.6995 137.8445 137.9479 138.0753 138.1240 138.2727 138.3288
   138.4406 138.6374 138.7172 138.8154 138.9481 138.9665 138.9894 139.1488
   139.2413 139.4154 139.4883 139.5271 139.6684 139.6788 139.7484 139.8993
   140.1079 140.4547 140.5977 140.6879 140.8061 140.9122 141.2271 141.2674
   141.4190 141.5578 141.5901 141.6749 141.7678 141.8619 141.9077 141.9237
   142.1143 142.1710 142.4063 142.4284 142.5743 142.6095 142.7008 142.7168
   142.8422 142.9619 143.0224 143.1075 143.1344 143.2760 143.4745 143.4803
   143.6476 143.8472 143.9947 144.1542 144.2795 144.4399 144.5022 144.7142
   144.8010 144.9593 145.0810 145.2324 145.2465 145.3238 145.3488 145.4852
   145.6230 145.7466 145.8925 145.9552 146.0513 146.1562 146.1718 146.3703
   146.4409 146.4761 146.5655 146.6213 146.7236 146.7876 146.8597 146.8665
   146.9853 147.3540 147.4737 147.6255 147.8922 147.8984 147.9754 148.0405
   148.2585 148.2874 148.3993 148.5222 148.5832 148.6288 148.6763 148.7489
   148.8228 148.8513 149.0590 149.2321 149.3218 149.5444 149.7145 149.7576
   150.0146 150.2896 150.3001 150.5247 150.5570 150.6005 150.6680 150.8325
   150.8443 150.9810 151.0638 151.1006 151.3515 151.3550 151.4659 151.5917
   151.8682 151.8699 152.0278 152.1564 152.2133 152.2654 152.3102 152.3642
   152.5007 152.5260 152.6080 152.7994 152.8782 152.9682 153.1106 153.2592
   153.3393 153.3631 153.4959 153.6050 153.6621 153.7323 153.8169 153.9939
   153.9970 154.1346 154.1602 154.4699 154.5256 154.5603 154.6315 154.7938
   154.9245 155.0066 155.0995 155.1205 155.3092 155.4708 155.6288 155.6303
   155.7668 155.8408 155.9995 156.0648 156.1993 156.2433 156.4589 156.4950
   156.5283 156.7997 156.8736 156.9075 157.1130 157.1410 157.2622 157.4080
   157.4276 157.5979 157.7295 157.7613 157.8936 157.9474 158.1174 158.1868
   158.1968 158.3720 158.3754 158.5316 158.6056 158.6482 158.8252 158.9191
   158.9643 158.9683 159.0396 159.2135 159.2969 159.3873 159.4727 159.5060
   159.6610 159.7375 159.7674 159.7968 159.8607 159.9177 160.0641 160.0796
   160.2102 160.2247 160.3359 160.4074 160.4623 160.4896 160.7388 160.8137
   161.0744 161.1394 161.2751 161.7386 161.8559 161.9470 162.0446 162.1244

          k = 0.0000 0.3849 0.0000 (  9394 PWs)   bands (ev):

   -30.6829 -30.6677 -30.5981 -30.5927 -30.5576 -13.2660  -9.4198  -5.4030
    -3.4275  -2.9447  -0.6941   1.3178   1.9220   3.6529   3.9088   4.5426
     5.2428   5.4655   6.6426   7.1893   7.4578   7.8367   8.2744   8.7397
     8.8937   9.2931   9.8880   9.9279  10.0973  10.7001  11.0154  11.9023
    12.1668  12.5228  12.7857  13.0573  13.3282  13.4243  13.7805  14.0239
    14.3307  14.3522  14.5774  14.6374  14.9114  15.2234  15.3328  15.5778
    16.2658  16.5569  16.5965  16.8218  17.0195  17.5171  17.8337  18.6499
    18.8157  19.1234  19.3481  19.6319  19.6862  19.8592  20.0354  20.1958
    20.5027  21.7390  22.0712  22.2413  22.4738  22.5071  23.0162  23.1880
    23.1898  23.3979  23.4563  23.5602  23.6253  23.7273  23.9763  24.0031
    24.1793  24.5652  24.9102  25.1946  25.5416  25.6568  25.8626  26.0184
    26.3125  26.6851  27.0152  27.1946  27.4783  27.8404  28.0476  28.0622
    28.4036  28.4177  28.5254  28.5938  28.8461  28.9630  29.0794  29.2313
    29.2999  29.7073  30.0250  30.1741  30.7346  30.8382  31.0867  31.2042
    31.3386  31.4908  31.5973  32.1088  32.2373  32.4094  32.5315  32.5353
    32.6465  32.6738  32.9540  33.1248  33.4182  33.5209  33.5531  33.9523
    34.0064  34.1073  34.2018  34.6535  34.7347  34.8321  34.8778  35.1956
    35.6468  36.0607  36.6829  36.8133  36.8214  37.0993  37.1900  37.3899
    37.4084  37.6410  37.7042  37.8643  37.9617  38.1998  38.3885  38.7039
    38.7445  39.1571  39.6447  40.1012  40.1550  40.2093  40.6245  40.7191
    40.7257  41.2218  41.2443  41.4679  41.5223  41.7119  41.8969  41.9153
    42.0492  42.1487  42.3482  42.4201  42.8937  42.9186  43.0438  43.1353
    43.2305  43.5340  43.7825  44.0079  44.4834  44.5563  44.9166  45.0280
    45.0667  45.4656  45.4933  45.7599  45.8560  46.0662  46.0747  46.2014
    46.3476  46.5191  46.5245  46.6077  46.8510  46.8997  47.0037  47.0682
    47.3778  47.4100  47.5470  47.8651  47.8989  48.1265  48.3128  48.3386
    48.4170  48.6232  48.9246  49.0583  49.1090  49.1182  49.3724  49.6047
    49.6692  49.8957  50.1762  50.3902  50.4497  50.4497  50.6813  50.7030
    50.9203  51.0349  51.1655  51.2312  51.2930  51.5325  51.6719  51.8201
    51.8220  51.9596  52.2987  52.5549  52.5967  52.6383  52.8515  53.0094
    53.2567  53.4657  54.0113  54.0420  54.1670  54.5201  54.7091  54.7977
    54.9532  55.1348  55.3190  55.5055  55.5301  55.5805  55.6131  55.7405
    55.8283  55.9247  55.9935  56.0479  56.3656  56.3725  56.5318  56.9168
    57.0659  57.4554  57.5956  57.9559  58.0609  58.1258  58.3574  58.4604
    58.4805  58.6452  58.6858  59.0875  59.2692  59.2830  59.5190  59.6322
    59.6327  59.6597  59.8221  59.8301  59.9524  60.1574  60.1615  60.3005
    60.4201  60.7289  60.7402  61.0280  61.1127  61.2436  61.4972  61.6517
    61.6924  61.8146  62.1830  62.5710  62.7191  62.7664  62.9924  63.3646
    63.3812  63.7051  63.9255  64.1612  64.1645  64.2346  64.3742  64.5365
    64.7226  64.7512  64.8663  64.9073  64.9824  65.0091  65.1257  65.1493
    65.2364  65.4265  65.4469  65.5833  65.6118  65.7934  65.8790  66.1198
    66.2992  66.6350  67.0716  67.1951  67.2959  67.4343  67.6203  67.6810
    67.9013  67.9657  68.3418  68.3522  68.4584  68.5741  68.6865  68.8460
    68.8519  68.9317  69.0523  69.0801  69.1750  69.2923  69.5689  69.8073
    69.9844  70.0560  70.2777  70.4107  70.7133  70.7834  70.8874  70.9919
    71.2035  71.2821  71.6277  71.7864  72.0247  72.2943  72.4325  72.4860
    72.5234  72.6225  72.8443  73.0285  73.0464  73.1208  73.2599  73.4808
    73.5223  73.6142  73.6685  73.7967  73.8122  73.9181  73.9732  74.0816
    74.2063  74.3069  74.3681  74.4100  74.6498  74.7492  74.8851  75.3194
    75.3458  75.9128  76.0311  76.1693  76.2807  76.3092  76.5571  76.6338
    76.7667  76.7982  76.9790  77.1512  77.2138  77.2579  77.3756  77.5688
    77.6141  77.6207  77.7483  77.8325  77.9075  77.9738  78.0589  78.1100
    78.1603  78.5111  78.6403  78.6409  78.8281  78.8867  79.0149  79.1554
    79.2832  79.3683  79.6055  79.7737  79.8007  79.8354  79.8858  80.0243
    80.1055  80.3423  80.4910  80.5116  80.7192  81.0519  81.1215  81.2872
    81.4059  81.4731  81.6687  81.8274  81.8505  81.9857  82.0679  82.1615
    82.1646  82.2249  82.4211  82.4869  82.5627  82.6546  82.7098  82.7726
    82.8535  82.8877  82.9300  83.0328  83.1383  83.1621  83.2659  83.3485
    83.3688  83.5446  83.5779  83.6624  83.8428  83.9146  84.0272  84.2112
    84.3678  84.4118  84.8254  85.0660  85.0988  85.1532  85.2641  85.3614
    85.5698  85.6464  85.8820  86.1438  86.3681  86.4853  86.5281  86.6370
    86.8162  86.8462  86.9536  87.1237  87.1267  87.1644  87.3092  87.4756
    87.5138  87.6518  87.8248  87.9537  88.0515  88.1942  88.3416  88.5017
    88.6513  88.8441  89.1739  89.3975  89.4330  89.8572  90.1624  90.2108
    90.5573  90.5926  90.7113  90.7963  91.0143  91.1911  91.2346  91.3234
    91.4067  91.5021  91.5210  91.6014  91.6089  91.7275  91.7421  91.9468
    92.0231  92.1079  92.1672  92.2559  92.2685  92.5049  92.5212  92.7810
    92.7933  93.0271  93.2539  93.2676  93.4061  93.6613  93.9835  94.0650
    94.1548  94.2748  94.2827  94.4380  94.5247  94.6403  94.8170  94.8749
    95.1055  95.1074  95.2547  95.3829  95.4257  95.5445  95.5520  95.7270
    95.7806  95.8642  95.8991  96.0648  96.1549  96.3172  96.3745  96.4657
    96.5981  96.7259  96.7426  96.9049  97.1813  97.2880  97.3790  97.4560
    97.6553  97.7426  97.7551  97.8503  98.2221  98.2450  98.5705  98.6945
    98.8266  98.9468  99.1194  99.2961  99.3313  99.5703  99.6143  99.6884
    99.8758 100.0041 100.0749 100.1258 100.1676 100.2484 100.3836 100.3858
   100.4584 100.5891 100.6653 100.9271 100.9603 101.0608 101.1648 101.2252
   101.2691 101.3590 101.3884 101.5878 101.6321 101.7070 101.7655 101.9278
   102.0260 102.1293 102.2914 102.3343 102.3759 102.4505 102.6601 102.7357
   102.8766 103.0883 103.1984 103.2520 103.3558 103.4058 103.4927 103.6494
   103.6723 103.8538 103.8854 103.9899 104.0026 104.1759 104.3087 104.4579
   104.6257 104.7129 104.7286 104.8546 104.9355 104.9934 105.1756 105.2055
   105.3528 105.4054 105.4750 105.7051 105.8120 106.0733 106.1353 106.2875
   106.4078 106.5131 106.6194 106.8086 106.9876 107.0368 107.0773 107.2866
   107.5763 107.5778 107.7801 108.0870 108.1110 108.2380 108.2916 108.3698
   108.5040 108.6256 108.6953 108.8103 108.8489 108.9683 109.0651 109.2133
   109.2462 109.3526 109.3737 109.5152 109.5998 109.6384 109.7553 109.9614
   110.0051 110.0395 110.1379 110.1770 110.1882 110.3114 110.3558 110.5502
   110.5795 110.6836 110.6978 110.8367 110.8587 110.9755 111.4250 111.5580
   111.7590 111.9147 112.1308 112.1872 112.3402 112.4234 112.6341 112.8234
   112.8948 112.9502 113.0649 113.3061 113.3714 113.4170 113.4910 113.6339
   113.7051 113.7302 113.8087 113.8672 113.9940 114.0201 114.2787 114.3257
   114.3422 114.5078 114.5207 114.6536 114.6646 114.7953 114.8106 115.0401
   115.0589 115.1739 115.2571 115.4364 115.6027 115.6585 115.9041 115.9194
   116.0687 116.1175 116.1912 116.2049 116.4540 116.5698 116.8389 117.0111
   117.0556 117.1566 117.3115 117.3588 117.4600 117.5380 117.6266 117.7254
   117.7490 117.8600 117.9169 118.0173 118.1073 118.1873 118.2097 118.3046
   118.3463 118.4555 118.4616 118.5708 118.6128 118.6766 118.7409 118.8041
   118.8487 118.8840 118.9748 119.1373 119.1465 119.2877 119.4284 119.4622
   119.5462 119.6387 119.6944 119.8112 119.8945 120.0272 120.0728 120.1710
   120.3301 120.4815 120.7049 120.7755 120.9288 121.0352 121.0717 121.1685
   121.1944 121.3038 121.3868 121.6242 121.6999 121.9058 121.9136 121.9740
   121.9988 122.1480 122.1684 122.5123 122.5469 122.6186 122.6911 122.7358
   122.8946 122.9313 123.0412 123.0991 123.1266 123.2354 123.3266 123.4197
   123.5793 123.6507 123.6605 123.7874 123.8658 123.9016 123.9122 124.0191
   124.2416 124.4603 124.5670 124.7205 124.7579 124.9420 124.9837 125.0459
   125.2897 125.4160 125.4270 125.6941 125.8736 125.9218 126.0727 126.1146
   126.2465 126.3010 126.3536 126.6110 126.7042 126.7777 126.8525 126.9629
   127.0035 127.1175 127.1688 127.2110 127.3398 127.3750 127.4886 127.7227
   127.7228 127.8050 127.8423 127.9629 128.1472 128.2150 128.2689 128.3079
   128.3626 128.3828 128.4973 128.5390 128.6576 128.6682 128.8088 128.8143
   129.1122 129.2528 129.3062 129.4251 129.7680 129.7721 130.1222 130.2945
   130.4054 130.5642 130.5795 130.6675 130.7871 130.7934 130.9846 131.1386
   131.3077 131.3548 131.4662 131.5199 131.5227 131.6191 131.6886 131.9158
   132.0021 132.0356 132.1541 132.2893 132.3809 132.3961 132.6391 132.7136
   132.8248 133.0479 133.0982 133.2541 133.3136 133.4735 133.7895 133.8660
   134.0200 134.0835 134.3750 134.6610 134.7732 135.0803 135.1541 135.1582
   135.4743 135.4926 135.6291 135.7205 135.7415 135.8358 135.8845 136.0212
   136.1387 136.2746 136.2771 136.4208 136.4498 136.5371 136.6751 136.7254
   136.8991 136.9242 136.9548 136.9884 137.0875 137.2363 137.3962 137.4430
   137.6519 137.6764 137.7823 137.7921 137.9073 138.0799 138.0804 138.1493
   138.1603 138.3263 138.4796 138.6201 138.7328 138.8707 139.0000 139.0037
   139.0716 139.1102 139.2523 139.3120 139.4535 139.4729 139.8215 139.8615
   139.8876 139.8974 140.0386 140.0495 140.1226 140.1576 140.3057 140.3235
   140.4240 140.4509 140.5999 140.6498 140.6611 140.7053 140.7520 140.7521
   140.8216 140.8800 140.9227 140.9561 141.1541 141.1628 141.2969 141.3283
   141.5642 141.5673 141.7297 141.7393 141.8562 141.9198 142.3926 142.4295
   142.5198 142.5555 142.6875 142.7238 142.8455 143.0262 143.1070 143.1212
   143.1779 143.3619 143.5636 143.5643 143.7112 143.7476 143.9194 143.9453
   143.9716 144.1089 144.1971 144.2647 144.4765 144.4912 144.7090 144.7297
   144.8299 144.9545 145.0338 145.0982 145.1559 145.1627 145.2199 145.4688
   145.7044 145.7722 145.8354 145.8956 145.9672 146.0357 146.1800 146.2506
   146.2721 146.3268 146.3752 146.4569 146.4607 146.5318 146.5732 146.6755
   146.6851 147.0494 147.0784 147.2743 147.3120 147.4796 147.6471 147.7427
   147.9185 147.9317 148.0517 148.2095 148.3308 148.3479 148.5277 148.6519
   148.8480 148.8684 148.9849 149.0390 149.1364 149.1496 149.3364 149.3585
   149.4829 149.5216 149.5406 149.6546 149.7149 149.7245 149.7949 149.8292
   149.8911 149.8980 149.9812 150.1007 150.1181 150.1791 150.2238 150.2822
   150.3277 150.4086 150.5146 150.6588 150.8279 150.9245 150.9734 151.1165
   151.2668 151.3188 151.3595 151.4872 151.5056 151.6820 151.8653 151.8751
   152.0887 152.1534 152.1800 152.2722 152.5472 152.6530 152.6770 152.8384
   152.8756 153.1324 153.3854 153.4128 153.5661 153.6358 153.7507 153.7945
   153.9185 153.9589 154.1204 154.1719 154.2244 154.2922 154.2989 154.3098
   154.4310 154.4966 154.5683 154.6551 154.7025 154.7591 154.8551 154.8837
   154.9989 155.0577 155.0945 155.1548 155.1856 155.2236 155.2910 155.3242
   155.3346 155.3762 155.5569 155.6676 155.6935 155.9526 156.0547 156.1802
   156.2423 156.3932 156.6191 156.6563 156.8179 156.9154 156.9878 157.0596
   157.2010 157.2942 157.4297 157.5096 157.6848 157.8618 157.8697 158.0210
   158.1075 158.1982 158.2841 158.4858 158.5930 158.6322 158.6900 158.7436
   158.8035 158.8968 158.9116 158.9333 158.9955 159.0622 159.0732 159.2482
   159.3090 159.3157 159.3745 159.4143 159.5051 159.5131 159.6184 159.7349

          k = 0.0000-0.5774 0.0000 (  9410 PWs)   bands (ev):

   -30.6837 -30.6633 -30.6004 -30.5933 -30.5549 -12.4652 -10.2914  -5.3295
    -3.7320  -3.6448  -0.3541   0.6556   1.8805   3.5001   5.3958   5.4803
     5.8357   6.2196   6.4899   6.9209   7.2167   7.3070   7.4643   8.4615
     9.1408   9.4808   9.5506   9.5945  10.2472  10.9944  11.3111  11.8091
    12.2411  12.3427  12.5901  12.7227  12.8332  12.9961  13.0081  13.0696
    13.1976  13.9429  14.0263  14.1504  14.3220  15.7683  16.0214  16.1540
    16.2033  16.3730  16.6520  16.8435  16.9666  17.6787  17.8212  18.0534
    19.1154  19.1583  19.2626  19.5523  19.7120  19.7885  20.6489  20.8897
    21.1957  21.2243  21.5312  22.1839  22.5941  22.7838  22.9402  23.5274
    23.5393  23.8092  23.8646  25.0044  25.7756  25.9108  25.9438  26.0143
    26.2925  26.3902  26.5422  26.5816  26.6290  26.6854  26.7954  26.9389
    27.0588  27.2337  27.4651  27.4994  27.6515  27.6639  27.6886  27.8773
    27.9650  27.9967  28.2136  28.2687  28.4697  29.0302  29.2100  29.5710
    29.6474  29.8263  29.8545  29.8872  30.1821  30.1876  30.3407  30.6205
    30.8474  32.3173  32.3525  32.4531  32.4918  32.6176  32.6886  32.7370
    32.9165  32.9384  33.0873  33.2018  33.2650  33.3687  33.4575  33.5353
    33.5692  33.6250  33.7359  33.8836  34.0173  34.0710  34.3180  34.4089
    34.4895  34.7345  35.0390  36.2005  36.3928  36.4684  36.5870  36.6161
    36.6614  36.8209  36.8995  36.9100  37.0030  37.2839  37.3608  37.7459
    38.1851  38.3989  39.1092  39.3577  39.4714  39.6315  39.6470  39.7286
    39.8349  39.9026  40.1228  40.3869  40.6440  40.7708  40.8336  40.9928
    41.5156  41.5309  41.6528  41.7613  41.9845  42.1786  42.2288  42.4364
    42.8840  43.6248  43.7010  43.8989  44.0658  44.0710  44.4682  45.2077
    45.8536  46.2351  46.2476  46.2829  46.3383  46.4120  46.6153  46.7824
    46.7984  46.8735  46.9549  46.9665  47.0388  47.0892  47.1087  47.3002
    47.3218  47.4092  47.5959  47.7727  47.7766  47.8238  47.9236  47.9604
    48.0925  48.1364  48.1410  48.1879  48.1982  48.4263  48.5805  48.7511
    48.7545  48.8762  48.9553  48.9807  49.8331  49.8418  50.1596  50.2099
    50.2806  50.3324  50.3935  50.5877  50.9128  51.3672  52.1624  52.4296
    52.5437  52.5952  52.7994  52.9670  53.0298  53.0587  53.1033  53.3331
    53.4120  53.5123  53.5536  53.5930  53.6505  53.8380  53.8415  54.1025
    54.3135  54.4898  54.6305  54.7731  54.9315  55.2758  55.4153  55.5650
    55.8640  56.3069  56.5161  56.6039  56.7836  56.9089  56.9412  57.1400
    57.4197  57.4216  57.6175  57.6266  57.7257  57.8540  58.6720  58.8472
    59.2148  59.4158  59.5894  59.7532  60.0040  60.2444  60.3555  60.4445
    60.5026  60.5763  60.9182  60.9316  61.2296  61.3787  61.4761  61.5742
    61.6529  61.6842  61.8863  62.1956  62.1994  62.5791  62.6683  62.6757
    62.7314  62.7673  63.1709  63.3949  63.6880  63.7825  64.0892  64.3984
    65.1768  65.3511  65.5908  65.7556  65.7600  65.9768  66.0879  66.3013
    66.5265  66.5330  66.6241  66.8296  66.9996  67.1134  67.1543  67.2771
    67.3273  67.3695  67.3733  67.4554  67.5458  67.5595  67.6345  67.7023
    67.7572  67.9150  67.9967  68.0839  68.1365  68.1962  68.2123  68.3104
    68.3629  68.3944  68.4198  68.5318  68.5750  68.6526  68.6983  68.7706
    69.0539  69.2714  69.5914  69.5927  69.9529  69.9921  70.1797  70.2049
    70.5179  70.5287  70.7374  70.7862  70.9999  71.0460  71.0644  71.4418
    71.6354  72.0509  72.4327  72.4855  72.7118  72.8350  73.1306  73.1701
    73.2793  73.3093  73.3524  73.4496  73.5826  73.6301  73.6436  73.7726
    73.7738  73.8045  73.8801  73.8893  74.0135  74.0597  74.1212  74.1908
    74.2139  74.2160  74.2710  74.3910  74.4414  74.6673  74.7973  74.9014
    74.9205  75.0641  75.1022  75.1403  75.1743  75.3052  75.3389  75.4511
    75.6256  75.6891  75.7914  76.1262  76.2854  76.4162  76.4499  76.5430
    76.6784  76.6854  76.9022  76.9639  77.1097  77.2122  77.2146  77.2272
    77.3584  77.3602  77.4348  77.4582  77.5407  77.6377  77.6830  77.7370
    77.8296  77.8630  77.9571  77.9579  78.1477  78.4554  78.5601  79.5068
    79.6022  79.6393  79.8400  79.8974  80.2345  80.3511  80.3807  80.4075
    80.4183  80.5273  80.6634  80.6651  81.0798  81.2142  81.2989  81.4668
    81.5904  81.6086  81.8234  81.9270  82.1130  82.2520  82.3601  82.5779
    82.6252  82.6309  82.8771  82.8775  83.1038  83.3229  83.4388  83.4695
    83.6874  83.8247  83.8381  83.9058  84.1666  84.3011  84.3900  84.4009
    84.5512  84.6838  84.8019  85.0407  85.3440  85.7468  85.8174  85.9271
    85.9978  86.1376  86.1799  86.3602  86.5864  86.7552  86.8882  87.0285
    87.1126  87.2763  87.3741  87.4018  87.5059  87.5983  87.7309  87.7451
    87.7588  87.8117  87.8472  87.9318  88.0697  88.1402  88.1615  88.2252
    88.3108  88.5817  88.6626  88.7092  88.7689  88.8624  88.9493  88.9620
    89.0501  89.1519  89.1757  89.2256  89.3030  89.3333  89.4816  89.5314
    89.5935  89.8956  90.1826  90.3987  90.6344  90.8150  90.8941  91.3065
    91.5253  91.7361  91.8238  92.3992  92.5041  92.7593  92.8223  92.8746
    93.1693  93.1907  93.2472  93.3428  93.4098  93.4700  93.5460  93.5728
    93.6511  93.7738  93.7989  94.0171  94.0201  94.1141  94.3142  94.3358
    94.3751  94.4629  94.5530  94.5593  94.6636  94.7271  94.8872  94.9683
    95.0307  95.1077  95.1596  95.1771  95.3008  95.3030  95.5671  95.6338
    95.7869  95.9714  96.0834  96.2289  96.4018  96.4115  96.4434  96.4878
    96.7008  96.8380  97.0598  97.1534  97.3089  97.3789  97.4894  97.5237
    97.6026  97.6608  97.7386  97.8826  97.9205  98.0865  98.1401  98.1532
    98.2716  98.3447  98.5780  98.7696  99.0221  99.3887  99.6269  99.6717
    99.7426  99.9121  99.9242 100.3014 100.3680 100.4537 100.5777 100.6741
   100.7303 100.7836 100.9107 100.9840 101.0201 101.2614 101.3391 101.3548
   101.5920 101.5993 101.7832 102.0683 102.2118 102.4309 102.5089 102.6310
   102.7781 102.8754 102.9337 103.1062 103.3558 103.4687 103.6441 103.7354
   103.7679 103.8219 103.9256 104.3349 104.3925 104.5940 104.8564 104.8743
   104.9008 105.1068 105.1284 105.5133 105.9175 106.0269 106.1845 106.2707
   106.3313 106.4058 106.4906 106.5508 106.5631 106.8278 106.8546 106.9039
   106.9984 107.2269 107.2302 107.3806 107.5177 107.6551 107.6991 107.7154
   107.7241 107.7387 107.9026 107.9275 107.9859 108.0260 108.0926 108.1126
   108.1189 108.1589 108.2191 108.4072 108.5484 108.5917 108.6598 108.6709
   108.7187 108.7720 108.8759 108.9272 108.9603 108.9810 109.0158 109.0710
   109.1639 109.2331 109.3146 109.4172 109.4647 109.4924 109.4995 109.5246
   109.5903 109.7930 110.1046 110.1463 110.4759 110.7499 110.9105 110.9916
   111.0660 111.0889 111.2018 111.2473 111.2592 111.3525 111.4654 111.7300
   111.8190 112.3548 112.6932 112.9171 112.9397 113.0585 113.2643 113.3507
   113.6387 113.7177 113.7412 113.9873 114.0279 114.0856 114.1934 114.3417
   114.3764 114.3986 114.4024 114.4346 114.8144 114.9726 115.0399 115.1534
   115.2486 115.2497 115.3746 115.6392 115.7223 115.8116 115.8158 115.9158
   116.3972 116.4111 116.6146 116.6305 116.7494 116.7586 116.8923 117.0118
   117.1412 117.2767 117.3088 117.3690 117.3989 117.5375 117.6326 117.6370
   117.7853 117.8855 117.9925 117.9942 118.0301 118.1042 118.1172 118.1846
   118.2396 118.3228 118.6060 118.6485 118.8835 119.0484 119.0755 119.1927
   119.4211 119.4782 119.5061 120.0241 120.1270 120.2454 120.2780 120.4570
   120.5056 120.5703 120.6238 121.0171 121.1442 121.2074 121.2983 121.4804
   121.6134 121.7388 121.9343 121.9536 122.2943 122.3427 122.6666 122.7530
   122.8704 123.0274 123.2934 123.3806 123.3920 123.3979 123.5868 123.6462
   123.9057 124.0412 124.1431 124.2466 124.2546 124.5144 124.5405 124.6115
   124.7995 125.0617 125.2850 125.4552 125.5411 125.6091 125.7384 125.7556
   125.8225 126.0412 126.0930 126.2374 126.3811 126.5112 126.5849 126.6323
   126.7520 126.7558 126.8613 127.0109 127.1431 127.2259 127.4794 127.5841
   127.6622 127.7201 127.8273 127.9212 127.9456 128.0099 128.2031 128.2462
   128.2556 128.3504 128.4090 128.4269 128.4430 128.5138 128.5928 128.6254
   128.6827 128.8254 128.9193 128.9383 129.0095 129.0253 129.1199 129.1236
   129.1328 129.1843 129.2025 129.4039 129.4129 129.5360 129.5824 129.7975
   129.9679 129.9883 130.1138 130.3018 130.4099 130.4728 130.5460 130.6886
   130.7305 130.7885 130.8751 131.0897 131.1313 131.2075 131.2378 131.3531
   131.3636 131.5271 131.6153 131.6417 131.7944 131.8004 131.9287 131.9988
   132.0253 132.1592 132.2409 132.5501 132.7221 132.8321 133.0284 133.1517
   133.4266 133.5747 133.6143 133.7076 133.8060 133.8799 133.9058 133.9335
   134.1094 134.1571 134.1875 134.2579 134.4136 134.4772 134.4972 134.5629
   134.7112 134.7227 134.7612 134.8287 134.8425 135.0339 135.1489 135.1660
   135.2002 135.2156 135.2899 135.4161 135.4211 135.4735 135.6809 135.6998
   135.7819 135.8149 135.8422 136.0211 136.0310 136.0579 136.0920 136.2706
   136.3222 136.3529 136.3967 136.4783 136.5689 136.5943 136.7045 136.8616
   136.9753 137.0000 137.0664 137.3003 137.3538 137.4091 137.6403 137.7009
   137.8277 137.8768 137.8910 137.9207 137.9964 138.0548 138.1599 138.2058
   138.2244 138.2401 138.3228 138.3372 138.3489 138.3579 138.4089 138.5512
   138.5694 138.7137 138.7413 138.7885 138.7939 138.8687 138.9664 138.9762
   139.0487 139.0570 139.3327 139.5160 139.6303 139.8017 140.2081 140.3087
   140.3206 140.5673 140.7274 140.8098 140.9393 141.0161 141.2416 141.3344
   141.4164 141.4284 141.4506 141.6166 141.6608 141.6885 142.0784 142.1316
   142.2198 142.2714 142.3856 142.5112 142.5412 142.7338 143.0102 143.0396
   143.1144 143.1840 143.2308 143.2827 143.4296 143.4749 143.6487 143.6723
   143.7168 143.7394 143.9169 143.9707 144.0395 144.2004 144.2785 144.3756
   144.4463 144.5037 144.5055 144.6649 144.7385 144.7754 144.8556 144.8604
   144.8827 144.9685 144.9961 145.0441 145.3012 145.3226 145.3244 145.3855
   145.3911 145.4414 145.7789 145.9380 146.2743 146.2971 146.3948 146.6180
   146.7953 146.9668 147.0916 147.1402 147.2333 147.4589 147.4608 147.5681
   147.6999 147.8356 147.9067 148.0484 148.0786 148.1890 148.3012 148.3870
   148.4903 148.5489 148.5556 148.5918 148.6121 148.7320 148.7798 148.7919
   148.8524 148.8811 148.9234 148.9547 149.0238 149.0987 149.1605 149.2552
   149.3586 149.3589 149.5393 149.5470 149.5649 149.5906 149.6671 149.7151
   149.7400 149.8289 149.8892 149.9040 149.9892 150.0522 150.1192 150.1543
   150.1898 150.3435 150.4286 150.5721 150.6989 150.7545 150.9187 150.9522
   151.0004 151.3614 151.3906 151.4447 151.5617 151.5815 151.6127 151.6289
   151.6510 151.6875 151.7351 151.7952 151.8824 151.9196 152.1358 152.4757
   152.5685 152.8198 152.9331 153.0778 153.0830 153.1292 153.2853 153.4161
   153.5503 153.6560 153.7224 153.7941 153.9749 154.1434 154.2477 154.3293
   154.3581 154.3634 154.3919 154.4972 154.5484 154.6331 154.6340 154.6572
   154.7633 154.8773 154.9476 155.1239 155.1992 155.2092 155.3891 155.4340
   155.4359 155.4814 155.6449 155.7407 155.8048 155.8335 155.8669 155.9017
   155.9188 155.9696 155.9907 156.6015 156.7560 156.8606 156.9568 157.0420
   157.3066 157.3128 157.3633 157.4205 157.5271 157.5592 157.6535 157.7157
   157.8462 157.9165 158.0137 158.1173 158.1271 158.2020 158.3864 158.4949
   158.6145 158.7044 158.7117 158.7568 158.8188 158.8485 158.9116 158.9203

          k = 0.1667 0.2887 0.0000 (  9408 PWs)   bands (ev):

   -30.6812 -30.6713 -30.5965 -30.5929 -30.5589 -13.5427  -9.1459  -4.9766
    -4.0674  -2.6343   0.2916   1.0225   2.0499   3.4750   3.7372   4.3015
     4.9366   5.1235   6.1247   6.7096   7.2528   7.9500   8.1986   9.3535
     9.6984   9.7948  10.3224  10.4888  10.6626  10.8181  10.9041  11.5248
    11.6174  11.9021  12.0177  12.2671  13.0063  13.6853  13.8489  13.9189
    14.0876  14.3039  14.6373  14.8765  15.4960  16.3337  16.5798  16.8288
    17.0253  17.1061  17.3410  17.3691  17.5314  17.6461  17.7479  18.4670
    18.4989  18.6749  18.7892  19.0307  19.1057  20.3256  20.5034  20.5650
    20.7256  20.8905  20.9241  21.0335  21.3662  21.4857  21.8982  22.3441
    22.5320  23.2166  23.6180  23.7618  23.8344  23.9152  24.0666  24.2528
    24.4204  24.4828  24.6372  24.7631  25.1840  25.3144  25.4732  25.5155
    25.6281  25.7125  26.1072  26.1405  27.2185  27.2754  27.5116  27.6220
    27.6370  27.7765  27.9579  28.0906  28.1949  28.6716  28.9260  29.8813
    30.0911  30.3927  30.5306  30.6486  30.7989  30.8407  30.9918  31.1008
    31.1872  31.3321  31.4584  31.6798  31.8002  32.0825  32.3096  32.3960
    32.7163  32.8413  32.9647  33.4703  33.7060  34.0996  34.2346  34.4803
    34.5165  34.8968  34.9696  35.6061  35.8046  36.2487  36.8564  36.9867
    37.0471  37.1984  37.2879  37.4034  37.4864  37.6127  37.7429  37.8793
    38.0034  38.0745  38.1885  38.3487  38.4778  38.5597  38.7165  38.8215
    38.9457  39.0474  39.0780  39.2319  39.4847  39.7896  39.8799  40.5744
    40.6919  40.8698  40.8937  41.1684  41.2412  41.7417  41.7497  41.9374
    42.1090  42.8506  43.0604  43.4916  43.6131  43.7345  43.9871  44.0645
    44.1923  44.2918  44.3534  44.3983  44.5269  44.6165  44.6843  44.7491
    44.7613  44.8437  44.9184  45.0598  45.2096  45.2997  45.5335  45.6210
    45.6665  45.8097  45.9730  46.1681  46.2495  46.2530  46.4088  46.5431
    46.7918  47.2736  47.6990  47.8181  48.0375  48.0561  48.2112  48.2427
    48.4231  48.4936  48.6770  49.6283  50.1392  50.4553  50.4769  50.6159
    50.7541  50.8831  50.9248  51.0335  51.1716  51.2037  51.3097  51.4338
    51.4624  51.5506  51.6113  51.7562  51.9482  52.0476  52.1405  52.2255
    52.3327  52.3590  52.5219  52.6166  52.6914  52.8312  52.9546  53.1494
    53.2113  53.3574  53.6060  53.7354  53.9208  54.3199  54.4520  54.5456
    54.6568  54.8099  54.8852  54.9897  55.0727  55.2829  55.3292  55.5549
    55.6192  56.2461  57.1537  57.2185  57.4226  57.5520  57.5840  57.6779
    57.7592  57.8691  58.0268  58.0370  58.1531  58.1796  58.2311  58.3325
    58.3624  58.4261  58.5217  58.6695  58.8050  58.8765  58.9571  59.1658
    59.2014  59.2376  59.2816  59.3945  59.5355  59.5893  59.6329  59.7249
    59.7666  59.8464  60.1403  60.2569  60.6173  60.7494  61.0241  61.1064
    61.1642  61.2450  61.4102  61.5348  61.5614  61.6794  61.7584  61.9036
    61.9778  62.0560  62.4084  62.7545  62.9582  63.3259  63.5707  63.7583
    64.1123  64.1182  64.2344  64.5308  64.6029  64.6800  64.7497  64.8306
    64.8776  65.0144  65.1086  65.2293  65.2792  65.4262  65.5503  65.7398
    65.9136  66.0181  66.1508  66.3257  66.4161  66.6396  66.7891  66.9030
    67.1516  67.5438  67.6598  67.7245  67.9743  68.2005  68.2944  68.3709
    68.5835  68.6358  68.6888  68.8099  69.0097  69.1497  69.2646  69.7209
    70.0418  70.4445  70.5950  70.6917  70.8656  71.1144  71.2922  71.4062
    71.4943  71.5673  71.6653  71.7897  71.8529  71.9121  71.9692  72.0354
    72.0367  72.1133  72.2734  72.4605  72.6379  72.7446  72.7532  72.9284
    73.0548  73.0903  73.1860  73.3255  73.3424  73.4703  73.5790  73.7067
    73.8586  73.9405  74.2159  74.5387  74.6082  74.7888  74.9257  75.0009
    75.0212  75.1954  75.2220  75.2700  75.5544  76.2305  76.4621  76.5396
    76.9494  76.9921  77.1607  77.2971  77.4841  77.7443  77.8057  78.0059
    78.0200  78.1285  78.1495  78.2556  78.2970  78.3618  78.4570  78.5800
    78.6528  78.6965  78.7282  78.8443  78.9226  79.0468  79.0749  79.1301
    79.2455  79.3292  79.4734  79.5336  79.6121  79.7032  79.8639  79.8938
    80.0115  80.0689  80.1897  80.4402  80.6703  80.7074  80.9960  81.2035
    81.5644  81.6049  81.6403  81.8132  81.9296  81.9585  82.0126  82.1226
    82.2610  82.5494  82.6716  82.8490  83.1660  83.3123  83.5736  83.7756
    84.1393  84.2838  84.3506  84.4946  84.6130  84.8085  84.8330  84.8594
    84.9202  85.0421  85.1240  85.1942  85.2324  85.2759  85.3900  85.4059
    85.4486  85.4950  85.5769  85.7186  86.0173  86.0774  86.1392  86.2337
    86.4344  86.4463  86.4698  86.5951  86.6234  86.7311  86.8416  86.9968
    87.0974  87.2262  87.3220  87.4550  87.6014  87.8339  87.9137  88.0928
    88.2015  88.2868  88.3268  88.4844  88.5820  88.6911  88.7421  88.8840
    88.9355  89.0186  89.0971  89.4851  89.5478  90.0558  90.2602  90.6439
    90.7371  90.8355  90.9494  91.2213  91.2857  91.3312  91.4065  91.4499
    91.6164  91.6835  91.7452  91.8510  91.9058  91.9411  92.0366  92.0751
    92.2037  92.2704  92.2876  92.3553  92.5376  92.6059  92.6831  92.8915
    92.9895  93.0615  93.0991  93.1453  93.2882  93.3468  93.4218  93.4533
    93.5811  93.6547  93.7741  93.9289  94.0632  94.1540  94.3960  94.5017
    94.5904  94.6162  94.7591  94.9516  95.0260  95.1633  95.2799  95.3629
    95.4241  95.6324  95.7640  95.8777  95.9723  96.1397  96.2560  96.4480
    96.6126  96.9439  97.0158  97.3114  97.3919  97.6477  97.7380  97.8150
    97.9244  98.0123  98.1345  98.2170  98.2705  98.3277  98.3964  98.5050
    98.6304  98.7488  98.8823  98.9062  99.0286  99.3483  99.4038  99.5388
    99.6490  99.8507  99.9125 100.0020 100.1380 100.1945 100.2398 100.3007
   100.3638 100.4449 100.6605 100.7168 100.9795 101.2263 101.3887 101.3973
   101.6425 101.6865 101.9135 101.9502 102.0521 102.1561 102.3104 102.3457
   102.6136 102.7380 102.8259 103.1539 103.3023 103.4748 103.5005 103.5741
   103.8737 104.0409 104.1283 104.3171 104.3559 104.5611 104.7039 104.8013
   104.8132 104.9445 105.0372 105.1587 105.3264 105.3644 105.4057 105.4416
   105.5890 105.6519 105.6791 105.8122 105.8623 105.8856 105.9185 105.9725
   105.9835 106.1426 106.2178 106.3276 106.4389 106.5229 106.5806 106.6658
   106.6797 106.7459 106.8219 106.8889 106.9461 107.0306 107.1130 107.2861
   107.4234 107.5546 107.6321 107.8189 107.8884 107.9715 108.0246 108.1910
   108.2446 108.2830 108.3808 108.4739 108.5401 108.6235 108.8269 108.9329
   108.9615 109.0393 109.1187 109.1234 109.2117 109.3069 109.3531 109.4878
   109.5667 109.8186 110.0179 110.1796 110.2799 110.4730 110.5787 110.7955
   110.8671 111.0855 111.2026 111.2545 111.3139 111.3677 111.5777 111.7158
   111.7983 111.8488 111.9257 111.9939 112.1104 112.1435 112.2421 112.3216
   112.3701 112.4249 112.5208 112.5482 112.5701 112.6065 112.6798 112.6903
   112.7600 112.8851 113.0410 113.2866 113.3630 113.3912 113.4249 113.5380
   113.5854 113.6422 113.8120 114.0571 114.0955 114.1785 114.3627 114.4565
   114.5857 114.9743 115.0321 115.1007 115.1834 115.2271 115.3233 115.4548
   115.5420 115.5823 115.6142 115.6893 115.7481 115.8636 115.9260 116.0297
   116.0955 116.2297 116.3306 116.4518 116.5468 116.7091 116.8732 117.0898
   117.2071 117.3163 117.4818 117.7538 117.8669 117.9459 117.9947 118.1081
   118.1871 118.3165 118.3683 118.3804 118.4841 118.6355 118.6953 118.8091
   119.0206 119.1051 119.1567 119.1761 119.2290 119.3184 119.3536 119.4946
   119.6661 119.7184 119.7588 119.8278 119.9170 119.9678 120.0050 120.1462
   120.1790 120.2235 120.2912 120.4124 120.4435 120.6374 120.6755 120.6838
   120.8975 121.0163 121.0572 121.1509 121.2556 121.3857 121.4888 121.6144
   121.7049 121.8038 122.0093 122.1360 122.1923 122.2331 122.3221 122.3612
   122.4337 122.5073 122.5930 122.6109 122.6690 122.7414 122.7550 122.8013
   122.9435 122.9814 123.3753 123.6233 123.8872 124.0723 124.3423 124.4697
   124.6171 124.8169 124.9351 124.9559 125.0755 125.1643 125.2952 125.4442
   125.5099 125.6726 125.7412 125.8269 125.8637 125.9419 125.9634 126.0716
   126.1579 126.1819 126.2080 126.3004 126.3928 126.5417 126.7370 126.7687
   126.8569 126.8950 127.0106 127.0391 127.0723 127.1303 127.1586 127.2671
   127.3088 127.3676 127.4958 127.6480 127.6960 127.7885 127.9222 127.9370
   127.9813 128.1852 128.2695 128.4399 128.5411 128.6834 128.7162 128.8011
   128.9428 128.9769 129.0097 129.0293 129.0689 129.1337 129.2618 129.4383
   129.4885 129.6973 129.7355 129.8231 129.9779 130.1031 130.2453 130.2890
   130.4134 130.6388 130.8810 130.9968 131.2611 131.2928 131.3564 131.4137
   131.5399 131.5723 131.6501 131.7513 131.9293 132.0863 132.1778 132.3672
   132.4610 132.5661 132.6480 132.7247 132.7516 132.8336 132.9144 132.9969
   133.0862 133.1506 133.2357 133.3348 133.4679 133.6164 133.6638 133.7205
   133.8515 134.1196 134.2448 134.3503 134.4556 134.4625 134.7159 134.7673
   134.9511 135.0345 135.1780 135.3837 135.4797 135.5784 135.7467 135.7557
   135.9552 135.9789 136.0091 136.0813 136.2411 136.3689 136.5273 136.5447
   136.7404 136.8061 137.0169 137.0745 137.2004 137.3341 137.6751 137.7357
   137.8150 137.9731 138.1390 138.3165 138.3905 138.5761 138.6710 138.6970
   138.9334 139.0095 139.0768 139.1534 139.2598 139.2732 139.3505 139.3813
   139.5402 139.6624 139.7700 139.7995 139.8441 139.9013 140.0097 140.1328
   140.2001 140.3336 140.4435 140.5022 140.5478 140.7307 140.8214 140.9436
   141.0194 141.1307 141.3213 141.3854 141.5627 141.6386 141.7137 141.8969
   141.9654 142.0839 142.1223 142.2525 142.2814 142.4537 142.5305 142.5655
   142.5974 142.7695 142.8498 142.9802 143.0232 143.0462 143.3112 143.4095
   143.4771 143.5132 143.6949 143.7780 143.8039 143.9484 144.0300 144.4368
   144.6244 144.8102 144.9016 145.0047 145.0297 145.2460 145.3869 145.5316
   145.5663 145.7417 145.7547 145.7964 145.9234 146.0234 146.0417 146.1691
   146.1958 146.3264 146.3529 146.4605 146.5512 146.5802 146.6362 146.8515
   146.9680 147.0681 147.0848 147.2351 147.3088 147.3494 147.3816 147.4241
   147.5126 147.6591 147.7086 147.8792 147.9087 148.0879 148.1814 148.2374
   148.3690 148.4597 148.5294 148.7691 148.8342 148.9556 149.1465 149.1773
   149.2745 149.3345 149.3794 149.4507 149.4722 149.5003 149.5623 149.7298
   149.7642 149.8248 149.9311 149.9744 150.0343 150.1755 150.2678 150.3962
   150.4179 150.7575 150.8430 150.9043 151.1034 151.2264 151.3079 151.4958
   151.6704 151.7005 151.8084 151.8894 151.9831 152.0853 152.2044 152.2732
   152.3610 152.3943 152.4562 152.5989 152.7065 152.7513 152.8409 152.8863
   153.1024 153.1885 153.1990 153.2651 153.3598 153.3981 153.4564 153.5029
   153.5543 153.6659 153.7132 153.7610 153.7720 153.8284 153.8715 153.9000
   153.9757 154.0228 154.0585 154.1082 154.1347 154.2503 154.4955 154.5505
   154.7005 154.7233 154.8053 154.9156 154.9968 155.0431 155.1332 155.2780
   155.3528 155.3768 155.4342 155.5139 155.6263 155.6887 155.7109 155.8837
   155.9328 155.9906 155.9960 156.1020 156.1242 156.1980 156.2221 156.2534
   156.2823 156.3138 156.3810 156.4266 156.4554 156.5195 156.5377 156.5689
   156.7525 156.7716 156.9157 157.0266 157.1607 157.2741 157.4321 157.5883
   157.6137 157.7359 157.9687 158.0435 158.2594 158.2847 158.4013 158.6572
   158.7787 158.8856 158.9523 159.1023 159.1680 159.2427 159.3059 159.3858
   159.4466 159.5451 159.5950 159.6918 159.9158 159.9698 159.9944 160.0680

          k = 0.1667 0.4811 0.0000 (  9413 PWs)   bands (ev):

   -30.6802 -30.6666 -30.5992 -30.5944 -30.5552 -12.5386 -10.0685  -5.4098
    -4.5814  -3.3068   0.0856   1.0321   1.7659   4.1450   4.8665   5.3957
     6.0452   6.2669   6.5963   6.9312   7.1941   7.8010   8.2030   8.6499
     8.7367   8.8036   8.9723   9.6387  10.0086  10.5163  10.6999  10.9754
    11.2040  11.3465  11.7384  11.9929  12.6191  12.9584  13.2088  13.3498
    13.7813  14.1874  14.3750  15.5218  15.7214  16.0708  16.2996  16.4892
    16.7750  16.9200  17.4411  17.6515  17.8507  17.9477  18.0685  18.1247
    18.4172  19.5298  19.8929  19.9788  20.2037  20.3802  20.5413  20.8755
    20.9571  21.3400  21.6025  22.1265  22.3494  22.4451  22.6039  22.8983
    22.9670  23.3206  23.5049  24.0290  24.3300  24.3543  24.6712  24.8133
    25.1286  25.3019  25.4468  25.8520  26.0149  26.2027  26.6367  26.7737
    26.9325  27.0385  27.3331  27.4501  27.6082  27.7643  27.8687  28.1966
    28.3119  28.4401  28.6347  28.9020  29.1591  29.2027  29.3178  29.7668
    30.0938  30.3291  30.4787  30.6013  30.6987  31.0374  31.2089  31.3978
    31.4362  31.5214  31.7656  31.8711  31.9083  32.0986  32.1865  32.4101
    32.4967  32.6467  32.7785  33.1450  33.3667  33.5514  33.7145  33.8179
    34.0943  34.3829  34.5323  34.6303  34.7477  35.3366  35.6573  35.8553
    36.0644  36.2003  36.2403  36.3826  36.5385  36.6910  36.7519  36.9745
    37.1435  37.1762  37.2278  37.5187  37.6749  38.1122  38.2027  38.3124
    38.5144  38.5645  38.8235  38.9162  39.0218  39.3910  39.5093  39.6275
    40.0144  40.2450  40.3596  40.4516  40.5641  40.8183  40.8489  41.0043
    41.1217  41.2248  41.5324  41.6567  41.7813  41.8114  42.1171  42.3148
    42.4810  42.5970  42.7399  42.8185  42.8855  43.0312  43.2030  43.4038
    43.4668  43.6085  43.9120  43.9615  44.0392  44.2131  44.6195  44.8401
    45.0810  45.3066  45.5595  45.7264  45.8666  46.0307  46.3024  46.4761
    46.9039  47.0571  47.2535  47.4384  47.5570  47.6342  47.9556  48.0470
    48.2038  48.2876  48.5053  48.6241  48.9965  49.1713  49.3876  49.5602
    49.6759  50.0587  50.2767  50.4697  50.7156  50.7677  51.2237  51.3166
    51.5139  51.6058  51.8393  52.0014  52.1202  52.2661  52.3325  52.4878
    52.6714  52.7417  53.0078  53.0395  53.3018  53.6158  53.8621  54.0135
    54.1058  54.2886  54.4097  54.6045  54.7882  54.9392  55.0713  55.2872
    55.3772  55.7226  55.8983  56.0063  56.1383  56.1619  56.3368  56.4059
    56.6495  56.7370  56.9819  57.1458  57.2639  57.4526  57.5883  57.8472
    57.9875  58.0824  58.3629  58.5082  58.6310  58.7695  58.8471  58.9449
    59.0922  59.3031  59.4621  59.5803  59.6129  59.7632  59.8637  60.0332
    60.2070  60.3406  60.5500  60.7660  60.8326  60.9355  61.0476  61.2081
    61.4837  61.6775  61.7566  61.9692  62.2024  62.3043  62.4807  62.6660
    62.8251  62.9089  63.1789  63.3003  63.3608  63.4812  63.6694  63.8296
    64.1396  64.2470  64.3239  64.5383  64.6329  64.7463  65.0855  65.1528
    65.3645  65.4765  65.6113  65.6742  65.8343  65.9253  66.1415  66.1837
    66.2270  66.4540  66.5105  66.6011  66.6534  66.9299  67.0949  67.1754
    67.2856  67.4515  67.4926  67.5778  67.7233  67.8502  67.9264  68.0686
    68.1807  68.2888  68.3626  68.6380  68.7041  68.8788  68.9837  69.1822
    69.3495  69.3978  69.5614  69.6385  69.7746  69.8924  69.9626  70.0356
    70.1377  70.2327  70.3664  70.4929  70.5667  70.6682  70.7585  70.8720
    71.0918  71.1517  71.2545  71.3929  71.4632  71.6965  71.8190  72.0382
    72.1018  72.2404  72.3357  72.5040  72.7212  72.8733  72.9902  73.1298
    73.3252  73.4664  73.6899  73.9279  73.9692  74.1120  74.2210  74.3539
    74.4674  74.5431  74.6631  74.8116  74.8505  74.9740  75.1243  75.2646
    75.3487  75.4173  75.5849  75.7049  75.7980  75.8566  75.9277  75.9961
    76.2754  76.3358  76.4978  76.6230  76.7047  76.8257  76.9813  77.1029
    77.2130  77.3612  77.4998  77.6033  77.8265  77.9016  78.0657  78.1831
    78.4045  78.4805  78.5926  78.7082  78.7555  78.8135  78.9707  79.0462
    79.1072  79.2613  79.4403  79.5114  79.5459  79.6895  79.8305  79.9096
    79.9754  80.0920  80.3726  80.5638  80.6216  80.7718  80.8825  81.0105
    81.0910  81.2206  81.3271  81.3714  81.4609  81.5991  81.6340  81.7490
    81.8517  81.8871  81.9782  82.0248  82.3059  82.4506  82.6384  82.7987
    82.9444  83.1778  83.2495  83.3221  83.5023  83.6172  83.7363  83.8779
    83.9908  84.1221  84.2013  84.2862  84.4727  84.5596  84.6591  84.7885
    84.8636  85.0128  85.0747  85.2333  85.4050  85.5126  85.5846  85.6652
    85.7467  85.7742  85.8178  85.9541  85.9876  86.0888  86.1706  86.2815
    86.4436  86.5361  86.6015  86.6879  86.8072  86.9909  87.1658  87.2108
    87.3912  87.5553  87.6310  87.7404  87.7961  87.9516  88.0166  88.0979
    88.1369  88.2606  88.3942  88.5186  88.6014  88.7474  88.8267  88.9726
    89.0479  89.3022  89.3554  89.4737  89.5797  89.7543  89.9483  90.0955
    90.1057  90.3378  90.4615  90.5407  90.6833  90.8620  90.9784  91.0323
    91.1185  91.2145  91.2972  91.3436  91.4654  91.6307  91.8916  92.0552
    92.1198  92.1338  92.2323  92.3445  92.4916  92.6184  92.7343  92.8455
    93.0892  93.2586  93.3981  93.6044  93.7619  93.8541  93.9456  94.0915
    94.2601  94.3373  94.5407  94.6127  94.6682  94.8645  94.9307  95.1617
    95.2960  95.4348  95.6255  95.7037  95.8824  95.9544  96.0729  96.1801
    96.2136  96.3736  96.5486  96.6393  96.7149  96.7997  96.8669  96.9044
    97.0212  97.0678  97.1521  97.2828  97.3810  97.5034  97.6099  97.8074
    97.8518  98.0170  98.1095  98.2398  98.2982  98.4706  98.5941  98.7158
    98.8169  98.9569  99.0883  99.1367  99.2068  99.3952  99.4602  99.6496
    99.7375  99.8131  99.8537  99.9316 100.0330 100.1536 100.2912 100.3521
   100.4401 100.5634 100.6074 100.6795 100.9172 101.0714 101.1678 101.3215
   101.3457 101.4325 101.6139 101.7367 101.8351 101.8472 101.9357 102.0364
   102.1909 102.3338 102.4009 102.5294 102.6362 102.7093 102.8371 102.8809
   103.0774 103.1964 103.3176 103.4421 103.5231 103.7052 103.7579 103.9679
   104.0616 104.1926 104.3455 104.4501 104.6547 104.7472 104.8352 104.9984
   105.0330 105.1657 105.3179 105.4107 105.5461 105.6115 105.7415 105.8724
   105.9709 106.0547 106.2347 106.2897 106.4464 106.5736 106.7104 106.7776
   106.9157 107.1986 107.4218 107.4803 107.5969 107.7266 108.0198 108.0463
   108.1403 108.2524 108.3231 108.5418 108.6688 108.7990 108.8702 108.9742
   109.1642 109.2589 109.3791 109.5126 109.6648 109.7500 109.8465 109.9911
   110.0799 110.1987 110.2881 110.3523 110.4435 110.6307 110.7408 110.8635
   110.9027 110.9928 111.0862 111.1852 111.2534 111.3871 111.5221 111.6071
   111.7955 111.8477 111.9159 111.9695 112.2040 112.2345 112.4574 112.5746
   112.6508 112.7099 112.8167 112.9748 113.0637 113.2516 113.3958 113.5615
   113.7578 113.8861 114.0774 114.2373 114.4289 114.5032 114.6987 114.7916
   114.8588 114.9297 115.1179 115.2242 115.2896 115.4581 115.5983 115.7685
   115.8859 115.9260 116.0725 116.1993 116.3158 116.3535 116.5175 116.6444
   116.7936 116.8669 116.9805 117.1010 117.1141 117.2097 117.3428 117.4976
   117.6349 117.7899 117.8223 117.9398 117.9895 118.1404 118.2894 118.4514
   118.5309 118.6353 118.7301 118.9295 119.0246 119.1029 119.1514 119.2228
   119.2932 119.4626 119.4975 119.5739 119.6579 119.7817 119.8573 120.0034
   120.0217 120.1386 120.2093 120.3115 120.5733 120.6918 120.8005 120.8743
   120.9498 120.9946 121.1748 121.3828 121.4380 121.5281 121.6114 121.6814
   121.7941 121.8631 121.9985 122.0108 122.1842 122.2727 122.3602 122.4635
   122.5114 122.7311 122.7696 122.8707 122.9774 123.0375 123.2879 123.3737
   123.4739 123.5554 123.6260 123.7024 123.8812 124.0178 124.1900 124.3340
   124.4493 124.5765 124.6706 124.8377 124.8754 124.9834 125.0713 125.1939
   125.3245 125.3993 125.4525 125.5071 125.6732 125.7688 125.8428 125.9038
   125.9988 126.0465 126.1031 126.1876 126.2593 126.3004 126.3554 126.4468
   126.5982 126.6580 126.7785 126.9024 126.9736 127.0325 127.1160 127.2464
   127.2718 127.3958 127.4363 127.5729 127.6469 127.7899 127.8911 127.9770
   128.1275 128.2738 128.4218 128.4919 128.6648 128.7348 128.8435 128.9789
   129.0396 129.2514 129.3410 129.4825 129.5194 129.6413 129.7223 129.8692
   129.8830 129.9699 130.0395 130.1665 130.3495 130.4197 130.5672 130.6243
   130.7133 130.7367 130.8095 130.8416 130.9647 131.0326 131.1744 131.2301
   131.2773 131.3366 131.4257 131.4957 131.6989 131.7313 131.8819 131.9934
   132.0944 132.2242 132.2601 132.4176 132.4913 132.5419 132.6749 132.7286
   132.9242 133.0019 133.1068 133.1665 133.2830 133.3788 133.5569 133.6599
   133.7558 133.7974 133.8967 133.9595 134.0719 134.2172 134.2478 134.2736
   134.3467 134.4381 134.5250 134.6130 134.6368 134.7415 134.8652 134.9358
   134.9919 135.0805 135.1683 135.2941 135.3180 135.3829 135.4386 135.6027
   135.6516 135.6933 135.8276 135.8634 135.9886 136.0483 136.1614 136.2335
   136.3126 136.3652 136.4162 136.4824 136.6108 136.7025 136.8557 136.9085
   137.0056 137.1799 137.2989 137.3484 137.4401 137.4626 137.5124 137.6125
   137.7331 137.7851 137.9112 137.9853 138.0070 138.1461 138.2539 138.4001
   138.4369 138.6087 138.7437 138.8808 138.9593 139.0487 139.1990 139.3408
   139.3501 139.5153 139.6413 139.6971 139.8201 139.8679 140.0104 140.0542
   140.0939 140.2931 140.3462 140.5075 140.5973 140.7394 140.8125 140.8451
   141.0209 141.0884 141.1649 141.2692 141.3659 141.4286 141.5020 141.5887
   141.6976 141.7478 141.8289 141.9485 141.9848 142.0085 142.1270 142.2904
   142.3657 142.4546 142.5135 142.5829 142.7190 142.7548 142.8281 142.8980
   142.9802 143.0962 143.2130 143.3393 143.4482 143.4714 143.5514 143.6710
   143.7601 143.8166 143.9182 143.9419 144.0069 144.1579 144.1952 144.2479
   144.2752 144.3424 144.4839 144.6388 144.6786 144.7638 144.8391 144.8613
   144.9161 144.9865 145.0789 145.0915 145.2397 145.3680 145.4621 145.6142
   145.6556 145.7745 145.8728 145.9218 145.9558 146.0725 146.1283 146.2142
   146.2980 146.3579 146.4422 146.4626 146.5343 146.6671 146.7244 146.8400
   146.8993 147.0198 147.1491 147.2227 147.3194 147.3928 147.5060 147.5524
   147.6374 147.7022 147.7715 147.8779 148.1091 148.2003 148.2976 148.3761
   148.4896 148.5447 148.6030 148.7221 148.7506 148.9033 148.9621 149.0531
   149.1668 149.2770 149.4558 149.5389 149.7073 149.7609 149.8297 149.9001
   149.9903 150.1515 150.2354 150.3060 150.3956 150.4216 150.6270 150.6939
   150.8856 150.9823 151.1461 151.2163 151.3220 151.4365 151.4943 151.6262
   151.7331 151.7880 151.8862 152.0711 152.1532 152.2400 152.3122 152.3771
   152.5540 152.6395 152.6804 152.7715 152.9145 153.0134 153.0748 153.1595
   153.2184 153.2748 153.4785 153.5458 153.6014 153.6854 153.7776 153.9173
   154.0086 154.1108 154.2429 154.3237 154.4504 154.5021 154.6232 154.6973
   154.7549 154.8217 154.8952 154.9521 155.0186 155.1098 155.1784 155.2957
   155.4085 155.4398 155.4917 155.5758 155.6669 155.7107 155.8123 155.8606
   155.9459 156.0266 156.1351 156.2082 156.2843 156.3314 156.3785 156.4616
   156.5384 156.6490 156.8130 156.8740 156.9448 157.0876 157.1914 157.2287
   157.3423 157.3880 157.4497 157.5320 157.5587 157.5836 157.6753 157.7535
   157.8167 157.9159 157.9776 158.0236 158.0952 158.2055 158.2972 158.3545
   158.4595 158.5302 158.6661 158.7562 158.8954 158.9317 159.0075 159.0646

          k = 0.3333 0.5774 0.0000 (  9474 PWs)   bands (ev):

   -30.6747 -30.6700 -30.5982 -30.5967 -30.5542 -11.9493 -10.5556  -5.9742
    -4.2124  -3.8134  -0.4939   1.5185   2.1835   5.2098   5.8917   6.1004
     6.4482   6.6847   6.8982   7.0850   7.4446   7.4677   7.5067   8.2005
     8.2566   8.4339   8.4752   8.5086   8.6369  10.1936  10.3303  10.4985
    10.5072  10.6710  10.9065  12.0976  12.7412  12.8322  13.5108  13.6970
    13.8134  14.0279  14.0293  14.1409  16.4248  16.7452  17.1042  17.3951
    17.4270  17.4370  17.9920  18.1696  18.2190  18.2797  18.3816  19.6328
    20.2705  20.3976  20.4650  20.9317  20.9374  20.9405  21.4470  21.5129
    21.6737  21.7009  21.8753  21.9046  21.9121  21.9672  22.1566  22.3425
    22.3721  22.6508  22.7286  22.8683  22.9267  24.0091  24.0493  24.0770
    24.1286  24.2630  24.3456  25.0263  25.6756  25.7522  26.2327  26.5046
    26.6010  27.0666  27.1164  27.1588  27.4128  27.8313  27.8976  27.9826
    28.1015  28.2829  28.3119  28.4883  28.5311  29.6649  30.2719  30.5823
    30.6809  31.1322  31.2496  31.3954  31.4231  31.5768  32.1752  32.1781
    32.3111  33.4584  33.5674  33.7597  33.7943  33.8727  34.0284  34.0771
    34.1640  34.2369  34.2773  34.3887  34.5267  34.5394  34.5644  34.6409
    34.6416  34.7206  34.7458  35.2497  35.3162  35.3724  35.4918  35.5023
    35.5272  35.5595  35.6577  35.6811  35.7112  35.7420  35.7964  35.9850
    36.0608  36.1960  36.2006  36.2860  36.4576  37.4343  37.5136  37.5396
    37.6161  37.6661  37.7951  37.8166  37.8845  38.0090  38.0343  38.0489
    38.1828  39.7936  39.8860  40.2652  40.2734  40.4815  40.4962  40.5519
    40.5625  40.7507  40.8355  41.0140  41.0450  41.2158  41.2439  41.2949
    41.3309  41.3795  41.5721  41.6835  41.9237  42.0127  42.1551  42.1638
    42.2670  43.5948  43.6170  43.9300  44.3083  44.3889  44.4960  44.6504
    44.7289  45.0117  45.0136  45.0270  45.1810  45.4696  45.6741  45.7122
    46.7430  46.9890  47.0133  47.3999  47.5762  47.8049  47.9569  48.2058
    48.2205  48.5180  48.8715  48.9848  49.0712  49.1237  49.2707  49.3734
    49.5314  49.6762  49.7078  49.7552  49.8767  49.9816  49.9985  50.2587
    50.2804  50.3181  50.6662  51.2933  51.7416  52.2091  52.4217  52.7264
    53.5232  53.9574  54.1528  54.2326  54.4116  54.5354  54.8366  54.8648
    54.9284  55.0170  55.0612  55.1500  55.2641  55.3443  55.6080  55.6827
    55.7211  55.9090  55.9491  56.3417  56.6471  57.0685  57.3654  57.6047
    57.7184  57.9758  57.9847  58.1698  58.4616  58.6901  59.1191  59.5581
    59.9668  60.0294  60.2870  60.4443  60.4852  60.6840  60.7933  60.9794
    61.0568  61.1193  61.1654  61.1832  61.2771  61.4214  61.4216  61.5232
    61.5477  61.6040  61.6230  61.6473  61.7745  61.8301  61.8382  61.8449
    61.9983  62.1050  62.3350  62.4156  62.4664  62.5373  62.6201  62.7112
    62.7233  62.7291  62.7894  62.8372  62.8457  62.8486  62.9429  62.9782
    63.0474  63.1325  63.3573  63.4991  64.2557  64.2767  64.4782  64.5059
    64.6012  64.6828  64.7413  64.8417  64.8810  65.0717  65.1116  65.1798
    65.4403  65.9658  66.0982  66.6546  66.6732  66.9105  66.9420  66.9600
    67.0097  67.0391  67.1946  67.5790  67.6948  67.8382  67.8416  67.9899
    67.9979  68.1793  68.2053  68.3454  68.3510  68.3632  68.4535  68.4930
    68.6770  68.7071  68.8235  68.8493  69.0322  69.0601  69.1018  69.1609
    69.4788  69.8263  70.1342  70.1482  70.1931  70.6545  70.8917  71.2918
    71.4205  71.4361  71.5632  71.6262  71.7957  71.9425  71.9891  72.0005
    72.0986  72.1889  72.2744  72.3063  72.3066  72.3756  72.5222  72.9945
    73.1679  74.0071  74.1217  74.2657  74.5866  74.8006  74.9804  75.0302
    75.0340  75.0706  75.2347  75.3449  75.4286  75.4843  75.5845  75.8310
    75.8855  75.9494  75.9562  75.9969  76.0092  76.2273  76.2296  76.2625
    76.3935  76.4450  76.4776  76.5237  76.5258  76.7189  76.8375  76.8823
    76.9317  77.0115  77.0239  77.0886  77.1666  77.2673  77.2861  77.2868
    77.4358  77.6134  77.6427  77.9730  78.0012  78.0342  78.0764  78.1482
    78.2705  78.5444  78.6691  78.8226  79.1485  79.6667  79.7825  79.9906
    80.0021  80.3120  80.3411  80.3443  80.5550  80.6549  80.8871  81.2760
    81.3878  81.3929  81.4493  81.5219  81.5812  81.7807  81.8643  81.8900
    82.0407  82.0424  82.1813  82.2858  82.5721  82.5972  82.6075  82.8083
    82.8572  83.4403  83.7514  83.8957  84.0555  84.1067  84.4433  84.5249
    84.5425  84.5920  84.7450  84.9493  84.9544  85.1282  85.1948  85.2772
    85.4056  85.4140  85.5397  85.5655  85.7080  85.7908  85.8666  85.9810
    86.2151  86.5905  87.0718  87.3778  87.4051  87.4389  87.6940  87.7295
    87.7352  87.8581  88.0409  88.0955  88.1439  88.1485  88.1741  88.2036
    88.3677  88.5086  88.5550  88.6020  88.7313  88.7854  88.7963  88.8291
    88.8358  88.8523  88.8739  88.9428  88.9520  89.0122  89.1752  89.2807
    89.5009  89.5426  89.5494  89.6098  89.6833  89.7518  89.7922  89.8085
    89.8543  89.8881  89.9257  90.1934  90.2121  90.2165  90.2426  90.2766
    90.4547  90.4718  90.4725  90.6361  90.7904  90.9088  90.9668  91.5961
    91.6932  91.7108  91.7421  91.7948  91.9009  91.9249  91.9528  92.0167
    92.0262  92.0866  92.1914  92.3053  92.4205  92.8266  93.3771  93.3858
    93.5127  93.5639  93.6745  93.6804  94.1483  94.1571  94.3108  94.5237
    94.6019  94.6206  94.6418  94.6777  94.7246  94.7931  94.8127  94.8387
    95.0375  95.0507  95.0764  95.1171  95.1442  95.1820  95.1842  95.3388
    95.5349  95.6510  95.6679  95.7005  95.8507  95.9022  95.9209  96.0214
    96.0459  96.1240  96.1528  96.2828  96.2913  96.5729  96.7267  97.6711
    97.8807  98.2594  98.2716  98.4003  98.4865  98.5956  98.6099  98.7773
    98.8218  98.8473  98.8919  99.1787  99.2137  99.3287  99.3901  99.5663
    99.7934 100.1256 100.1696 100.3010 100.4509 100.5727 100.9489 101.0569
   101.0647 101.1306 101.1427 101.2420 101.4177 101.4381 101.8147 102.0039
   102.0252 102.1125 102.4325 102.5265 102.7276 102.7593 102.9346 103.0162
   103.0262 103.2233 103.2728 103.3440 103.3939 103.4240 103.4900 103.5393
   103.5502 103.6422 103.7992 103.8458 104.0212 104.0500 104.1317 104.1378
   104.2136 104.2601 104.3059 104.4447 104.5560 104.6599 104.7155 104.7506
   104.8227 104.8451 104.8658 105.0726 105.2027 105.2559 107.3829 107.5267
   107.5437 107.9498 107.9554 108.0011 108.2451 108.2911 108.6901 108.8095
   108.8734 108.8875 108.9206 109.0721 109.3734 109.4203 109.4845 109.6227
   109.7598 109.8223 109.9415 110.0963 110.2042 110.2593 110.4936 110.5928
   110.6696 110.7375 110.7439 111.0214 111.1429 111.3790 111.3945 111.5037
   111.7741 111.8654 112.0678 112.2532 112.2791 112.3337 112.4970 112.5105
   112.7129 112.8836 112.9693 112.9829 112.9888 113.2721 113.4050 113.7109
   113.7770 113.7902 113.9657 113.9684 114.1002 114.1089 114.2855 114.4226
   114.5209 114.5444 114.6324 114.7225 114.7749 114.8488 115.0780 115.2893
   115.3832 115.4602 115.4869 115.5394 115.5778 115.6766 115.7918 115.8163
   115.8769 115.8899 115.9695 115.9717 116.0154 116.0946 116.1895 116.2344
   116.3710 116.5725 116.6952 116.6956 116.8720 116.9934 117.0354 117.0511
   117.1354 117.1505 117.1737 117.5522 117.6027 117.6293 117.6711 118.3181
   118.6127 118.6317 118.7051 118.8456 118.9622 119.0959 119.1096 119.3818
   119.4443 119.5549 119.6163 120.0090 120.2380 120.2667 120.6846 120.7879
   120.9082 121.0596 121.0933 121.2633 121.4124 121.5563 121.6424 121.6944
   121.8595 122.0242 122.0602 122.0865 122.1410 122.1597 122.1953 122.2632
   122.3729 122.3882 122.4242 122.5036 122.5878 122.6212 123.1999 123.3536
   123.5574 123.6062 123.8403 123.8660 124.0610 124.1508 124.2678 124.2888
   124.6426 124.6646 124.7045 124.7676 124.8120 125.0495 125.2135 125.2849
   125.3151 125.3354 125.5556 125.6429 125.7529 125.9421 126.0057 126.0411
   126.1568 126.1885 126.2914 126.3598 126.4236 126.4779 126.5955 126.6318
   126.6449 126.7018 126.8984 126.9590 127.0966 127.1070 127.2323 127.2652
   127.3740 127.5849 127.6595 127.7699 127.8116 127.8524 128.1374 128.2932
   128.5929 128.6818 128.7011 128.9889 129.0228 129.0578 129.4131 129.4134
   129.4554 129.5188 129.5264 129.5338 129.6067 129.6808 129.6952 129.7775
   129.7846 129.8497 130.0204 130.0263 130.1306 130.2219 130.2667 130.2722
   130.3044 130.3359 130.3660 130.4267 130.5236 130.5766 130.6303 130.6389
   130.6810 130.8255 130.8646 130.8668 130.9521 131.0495 131.0624 131.1732
   131.2065 131.2081 131.2277 131.2882 131.2958 131.4104 131.6872 131.7523
   131.8153 131.9118 131.9209 131.9418 132.2433 132.3085 132.3212 132.3474
   132.3970 132.5351 132.5521 132.5862 132.6063 132.6550 132.6657 132.7854
   132.8422 133.2919 133.2998 133.7377 133.8103 133.8461 134.1850 134.2333
   134.3043 134.4872 134.5549 134.7359 134.7798 134.9876 135.0783 135.1885
   135.3150 135.3973 135.4065 135.4207 135.6367 135.6723 135.9025 136.2069
   136.2529 136.2677 136.3126 136.4732 136.5463 136.5615 136.6611 136.8025
   136.8763 136.9562 137.0057 137.0692 137.0984 137.4567 137.5197 137.6367
   137.8953 137.9739 138.0555 138.1037 138.1865 138.3175 138.4881 138.5263
   138.5575 138.7024 138.7037 138.8775 138.9424 139.0687 139.1079 139.1411
   139.2642 139.2887 139.3472 139.3614 139.3645 139.4727 139.4796 139.5222
   139.6295 139.6367 139.7248 139.7583 139.7875 139.8439 139.8909 139.8911
   140.1823 140.2522 140.2689 140.3269 140.4861 140.5502 140.6553 140.8057
   140.8196 140.8797 140.9952 141.0950 141.1171 141.1423 141.4360 141.6274
   141.7110 141.8716 141.9199 141.9935 142.1181 142.3025 142.3424 142.3900
   142.4653 142.4929 142.4961 142.6594 142.7410 142.7513 142.7542 142.8188
   142.8296 142.8830 143.0307 143.0539 143.0604 143.1510 143.2279 143.2667
   143.3632 143.4407 143.4593 143.5081 143.5214 143.5732 143.8798 143.9095
   143.9169 143.9580 144.0101 144.0480 144.0770 144.0894 144.0985 144.1506
   144.1666 144.1914 144.2237 144.2457 144.3324 144.4015 144.4177 144.4205
   144.4321 144.4681 144.9691 145.1790 145.2777 145.4910 145.5679 145.7341
   145.7421 145.7445 145.9022 145.9835 146.0157 146.0434 146.1872 146.2046
   146.3295 146.3783 146.4748 146.7867 146.8218 146.9241 147.0870 147.5273
   147.6672 147.7827 147.9082 147.9723 147.9819 148.1612 148.1758 148.3253
   148.4488 148.6198 148.6552 148.6647 148.7446 148.7464 148.7960 148.9382
   149.0010 149.0518 149.0735 149.0986 149.1197 149.3076 149.3667 149.4154
   149.4252 149.4376 149.5391 149.6082 149.6823 149.7438 149.8447 149.9548
   150.0240 150.1773 150.2678 150.2861 150.3138 150.3635 150.4238 150.5793
   150.8035 150.9548 151.0027 151.1194 151.1510 151.2111 151.2852 151.3130
   151.4077 151.5549 151.8539 151.9589 152.1193 152.1823 152.2056 152.3072
   152.3348 152.4003 152.4757 152.5036 152.6660 152.6695 152.7046 152.8662
   152.8910 153.0694 153.1558 153.1809 153.2194 153.2860 153.2915 153.4172
   153.4226 153.5746 153.5869 153.6365 153.6937 153.7266 153.8661 153.9870
   154.1177 154.2655 154.3264 154.3616 154.4358 154.5105 154.6012 154.7648
   154.8614 154.8822 155.0869 155.1258 155.1603 155.1776 155.2523 155.2990
   155.3381 155.3814 155.5960 155.7172 155.7621 155.7808 155.8649 155.8884
   156.4437 156.4575 156.5281 156.7276 156.8571 156.9388 156.9566 157.0524
   157.1125 157.1777 157.1882 157.3298 157.3792 157.4397 157.5884 157.6504
   157.6968 157.7463 157.8067 157.8257 157.8296 158.0338 158.1158 158.1578

     the Fermi energy is    -1.9383 ev
     (compare with:    -0.8381 eV, computed in scf)

     Writing all to output data dir out/SbAs.save/
 
     init_run     :      0.22s CPU      0.27s WALL (       1 calls)
     electrons    :    512.18s CPU    527.24s WALL (       1 calls)

     Called by init_run:
     wfcinit      :      0.00s CPU      0.00s WALL (       1 calls)
     potinit      :      0.02s CPU      0.03s WALL (       1 calls)
     hinit0       :      0.06s CPU      0.10s WALL (       1 calls)

     Called by electrons:
     c_bands      :    512.18s CPU    527.24s WALL (       1 calls)
     v_of_rho     :      0.02s CPU      0.02s WALL (       1 calls)

     Called by c_bands:
     init_us_2    :      0.00s CPU      0.00s WALL (       7 calls)
     init_us_2:cp :      0.00s CPU      0.00s WALL (       7 calls)
     cegterg      :    499.86s CPU    514.52s WALL (       7 calls)

     Called by *egterg:
     cdiaghg      :    437.53s CPU    451.25s WALL (     101 calls)
     h_psi        :     11.27s CPU     11.52s WALL (     108 calls)
     g_psi        :      0.11s CPU      0.11s WALL (      94 calls)

     Called by h_psi:
     h_psi:calbec :      0.30s CPU      0.32s WALL (     108 calls)
     vloc_psi     :     10.55s CPU     10.76s WALL (     108 calls)
     add_vuspsi   :      0.28s CPU      0.29s WALL (     108 calls)

     General routines
     calbec       :      0.30s CPU      0.32s WALL (     108 calls)
     fft          :      0.00s CPU      0.05s WALL (      10 calls)
     fftw         :      9.27s CPU      9.46s WALL (  120708 calls)
 
     Parallel routines
 
     PWSCF        :   8m33.69s CPU   8m49.83s WALL

 
   This run was terminated on:  23:54: 9   5Apr2024            

=------------------------------------------------------------------------------=
   JOB DONE.
=------------------------------------------------------------------------------=
