
     Program PWSCF v.7.1 starts on  5Apr2024 at 23: 4:38 

     This program is part of the open-source Quantum ESPRESSO suite
     for quantum simulation of materials; please cite
         "P. Giannozzi et al., J. Phys.:Condens. Matter 21 395502 (2009);
         "P. Giannozzi et al., J. Phys.:Condens. Matter 29 465901 (2017);
         "P. Giannozzi et al., J. Chem. Phys. 152 154105 (2020);
          URL http://www.quantum-espresso.org", 
     in publications or presentations arising from this work. More details at
     http://www.quantum-espresso.org/quote

     Parallel version (MPI), running on     8 processors

     MPI processes distributed on     1 nodes
     240365 MiB available memory on the printing compute node when the environment starts
 
     Reading input from pw_SbAs_nscf_k11_E47.in
Warning: card &IONS ignored
Warning: card / ignored
Warning: card &CELL ignored
Warning: card / ignored

     Current dimensions of program PWSCF are:
     Max number of different atomic species (ntypx) = 10
     Max number of k-points (npk) =  40000
     Max angular momentum in pseudopotentials (lmaxx) =  4

     Atomic positions and unit cell read from directory:
     out/SbAs.save/
     Atomic positions from file used, from input discarded
 
 
     R & G space division:  proc/nbgrp/npool/nimage =       8
     Subspace diagonalization in iterative solution of the eigenvalue problem:
     one sub-group per band group will be used
     scalapack distributed-memory algorithm (size of sub-group:  2*  2 procs)

 
     Parallelization info
     --------------------
     sticks:   dense  smooth     PW     G-vecs:    dense   smooth      PW
     Min          84      84     24                 9376     9376    1444
     Max          85      85     25                 9403     9403    1461
     Sum         673     673    199                75069    75069   11651
 
     Using Slab Decomposition
 


     bravais-lattice index     =            4
     lattice parameter (alat)  =       7.2635  a.u.
     unit-cell volume          =    1726.8150 (a.u.)^3
     number of atoms/cell      =            2
     number of atomic types    =            2
     number of electrons       =        20.00
     number of Kohn-Sham states=         1200
     kinetic-energy cutoff     =      47.0000  Ry
     charge density cutoff     =     188.0000  Ry
     Exchange-correlation= PBE
                           (   1   4   3   4   0   0   0)

     celldm(1)=   7.263454  celldm(2)=   0.000000  celldm(3)=   5.203381
     celldm(4)=   0.000000  celldm(5)=   0.000000  celldm(6)=   0.000000

     crystal axes: (cart. coord. in units of alat)
               a(1) = (   1.000000   0.000000   0.000000 )  
               a(2) = (  -0.500000   0.866025   0.000000 )  
               a(3) = (   0.000000   0.000000   5.203381 )  

     reciprocal axes: (cart. coord. in units 2 pi/alat)
               b(1) = (  1.000000  0.577350  0.000000 )  
               b(2) = (  0.000000  1.154701  0.000000 )  
               b(3) = (  0.000000  0.000000  0.192183 )  


     PseudoPot. # 1 for As read from file:
     /usr/scratch4/magr4985/FGWC/FGWC/pseudo/SG15/As.upf
     MD5 check sum: a2ff92a4799c87c945fff9e6739df4dd
     Pseudo is Norm-conserving, Zval =  5.0
     Generated using ONCVPSP code by D. R. Hamann
     Using radial grid of  602 points,  6 beta functions with: 
                l(1) =   0
                l(2) =   0
                l(3) =   1
                l(4) =   1
                l(5) =   2
                l(6) =   2

     PseudoPot. # 2 for Sb read from file:
     /usr/scratch4/magr4985/FGWC/FGWC/pseudo/SG15/Sb.upf
     MD5 check sum: 0417cd6c0fe8ce4611e2b23135f1abd9
     Pseudo is Norm-conserving, Zval = 15.0
     Generated using ONCVPSP code by D. R. Hamann
     Using radial grid of  602 points,  6 beta functions with: 
                l(1) =   0
                l(2) =   0
                l(3) =   1
                l(4) =   1
                l(5) =   2
                l(6) =   2

     atomic species   valence    mass     pseudopotential
        As             5.00    74.92160     As( 1.00)
        Sb            15.00   121.76000     Sb( 1.00)

      6 Sym. Ops. (no inversion) found



   Cartesian axes

     site n.     atom                  positions (alat units)
         1           Sb  tau(   1) = (   0.5000000   0.2886752   0.1996508  )
         2           As  tau(   2) = (   0.0000000   0.0000000   5.0037309  )

     number of k points=     4  Gaussian smearing, width (Ry)=  0.0005
                       cart. coord. in units 2pi/alat
        k(    1) = (   0.0000000   0.0000000   0.0000000), wk =   0.1250000
        k(    2) = (   0.0000000   0.2886751   0.0000000), wk =   0.7500000
        k(    3) = (   0.0000000  -0.5773503   0.0000000), wk =   0.3750000
        k(    4) = (   0.2500000   0.4330127   0.0000000), wk =   0.7500000

     Dense  grid:    75069 G-vectors     FFT dimensions: (  32,  32, 180)

     Estimated max dynamical RAM per process >     266.09 MB

     Estimated total dynamical RAM >       2.08 GB

     The potential is recalculated from file :
     out/SbAs.save/charge-density

     Starting wfcs are random

     Band Structure Calculation
     Davidson diagonalization with overlap

     ethr =  5.00E-06,  avg # of iterations = 13.2

     total cpu time spent up to now is      315.1 secs

     End of band structure calculation

          k = 0.0000 0.0000 0.0000 (  9377 PWs)   bands (ev):

   -30.6811 -30.6811 -30.5911 -30.5911 -30.5652 -14.4767  -8.9205  -2.7914
    -2.0660  -2.0660  -0.3150   1.1978   1.1978   2.4153   2.7075   3.4553
     4.0410   5.3139   6.0953   6.3043   7.0551   7.0551   7.7827   8.2814
     9.0462   9.0462   9.6473   9.8275  12.3390  12.3390  12.4171  13.0405
    13.5945  13.5945  13.8386  14.8648  15.4664  15.4664  15.9143  15.9515
    15.9515  16.1593  16.3985  16.3985  16.4115  16.5062  16.5062  16.6250
    17.0498  17.2619  17.2619  17.3060  17.3060  17.3589  17.5288  17.5288
    17.6024  17.6024  17.7464  17.9215  18.0579  18.2159  19.3690  19.3690
    19.4223  19.4223  19.4318  19.7761  19.7761  19.8350  19.8350  19.8873
    20.1591  20.3418  22.1604  22.3673  22.3673  22.4836  22.4836  22.6167
    22.8941  22.8941  22.9550  22.9550  23.2341  23.5526  23.7490  23.8920
    26.0251  26.1479  26.1479  26.3099  26.3099  26.3597  26.5750  26.7274
    26.7274  26.8345  26.8345  27.4126  27.5963  28.0524  28.0524  28.7342
    28.7342  29.4716  29.5610  30.6617  30.8628  30.8628  31.0788  31.0788
    31.4313  31.5993  31.5993  31.7276  31.7276  32.1172  32.3760  32.8115
    33.1694  34.4263  34.4263  34.8897  34.8897  35.3874  36.2652  36.2652
    36.3340  36.3340  36.6583  36.7711  37.0294  37.0294  37.1005  37.4463
    37.4463  37.7459  38.1765  38.3196  38.6525  38.6851  38.6851  39.4941
    39.9591  39.9601  39.9601  41.5634  41.5634  41.9873  42.4581  42.4581
    42.6050  42.7171  42.7171  42.8133  43.0344  43.0344  43.1024  43.1024
    43.1573  43.4171  43.4171  43.5362  43.5362  43.5728  43.5820  43.6539
    43.6539  43.7481  43.7481  43.8077  43.9126  43.9126  44.0504  44.3789
    44.3789  44.3923  44.4624  44.5240  44.5834  44.5834  44.6172  44.7542
    44.7542  44.8598  44.8598  45.0339  45.1476  45.3352  46.2119  46.2119
    46.5993  46.6837  46.7058  46.7058  46.7223  46.8548  46.8548  46.9852
    46.9852  47.4918  48.3274  48.3274  48.3399  48.7056  48.7056  49.3775
    49.3775  49.5049  49.5049  49.6705  49.7100  49.7785  49.9398  49.9779
    49.9779  50.0662  50.0662  50.2277  50.3755  50.3755  50.5165  50.5165
    50.7043  50.8180  50.8180  50.8941  50.8941  51.2328  51.5738  52.3153
    52.4551  52.4551  52.8461  53.2260  53.2260  53.4012  53.6149  53.6677
    53.6677  53.6846  53.7055  54.0621  54.0621  54.3632  54.4048  54.4048
    54.4480  54.5914  54.5914  55.3130  56.3083  56.4719  56.4719  56.6536
    56.6536  56.8815  56.9438  56.9438  57.0140  57.0140  57.1388  57.1842
    57.1842  57.2610  57.4427  57.4427  57.6345  57.8823  57.8823  57.9617
    57.9617  58.0088  58.0418  58.0418  58.0709  58.1957  58.2280  58.2280
    58.3097  58.3097  58.3382  58.3934  58.3934  58.4052  58.5933  58.6067
    58.6145  58.6145  58.9242  58.9371  58.9371  59.1606  59.1606  59.1958
    59.2029  59.2029  59.5326  60.0358  60.1640  60.1640  60.2269  60.3144
    60.4665  60.4665  60.5267  60.5267  60.6732  60.6732  60.7111  61.5180
    62.2262  62.5856  62.5856  62.6692  63.1869  63.1869  63.2060  63.3723
    63.4878  63.4878  63.5301  63.5301  63.6049  63.6049  63.7007  63.7774
    63.9175  64.1445  64.1445  64.2060  64.2060  64.3042  64.4403  64.4403
    64.8072  65.2144  65.9510  65.9510  66.2985  66.2985  66.3042  66.6044
    66.6044  66.9243  66.9738  66.9738  67.1120  67.1867  67.1867  67.3103
    67.5090  67.5090  67.6382  67.6382  67.7710  67.7710  67.7917  67.8549
    68.0581  69.0098  69.4887  69.7596  69.7596  69.8350  69.8350  70.1755
    70.2284  70.2284  70.6594  70.6595  70.8784  71.2552  71.6640  71.8427
    71.8715  71.9501  71.9501  72.0073  72.0073  72.1194  72.1194  72.1277
    72.2614  72.5892  72.5892  73.1404  73.5440  74.1691  74.1691  74.9352
    74.9352  75.1603  75.7136  75.7136  76.0177  76.0959  76.0959  76.4231
    76.4231  76.4241  76.6705  76.8717  76.9833  76.9833  77.0459  77.0459
    77.2936  77.3886  77.3969  77.3969  77.6045  77.6694  77.6694  77.9196
    78.0730  78.0730  78.1125  78.1875  78.1875  78.3267  78.5205  78.5205
    78.7248  78.8311  79.5640  79.5640  80.1159  80.2310  80.2310  81.2528
    81.2528  81.7382  82.5493  82.5493  82.5889  83.1018  83.1018  83.3080
    83.6930  83.6930  83.7761  83.9991  83.9991  84.2604  84.3094  84.3725
    84.3725  84.6769  84.8977  84.8977  84.9312  85.1556  85.1556  85.3326
    85.3554  85.4563  85.4563  85.5165  85.5165  85.7280  86.1748  86.1748
    86.2298  86.3863  86.3863  86.7377  86.8621  86.8621  86.8900  86.9161
    86.9161  87.2461  87.2995  87.3699  87.3699  87.9960  88.2699  88.2699
    88.5060  88.5060  88.8309  88.8946  88.8946  89.7110  90.0924  90.0924
    90.4632  90.5469  90.7801  90.7801  91.1443  91.2503  91.2503  91.3863
    91.3863  91.4754  92.6054  92.6054  92.7218  92.7557  92.7557  93.1043
    93.2648  93.2648  93.4724  93.5344  93.7753  93.7753  93.9388  93.9388
    94.0697  94.2081  94.2516  94.2516  94.6556  94.8072  94.9613  94.9613
    95.0339  95.0339  95.1850  95.5422  95.7342  96.1607  96.3861  96.3861
    96.4823  96.4823  96.6144  96.7787  96.7787  97.0059  97.0059  97.1258
    97.1896  97.1947  97.1947  97.2318  97.2318  97.3516  97.3516  97.4360
    97.4657  97.4657  97.5268  97.7577  97.7577  97.7775  97.8096  97.8096
    97.8386  97.9087  97.9087  97.9270  97.9640  97.9640  98.0454  98.0454
    98.0624  98.1869  98.3398  98.4324  98.4538  98.4538  98.5303  98.5699
    98.6212  98.6213  98.6710  98.6752  98.6752  98.7381  98.7381  98.8084
    98.8084  98.8904  98.8904  98.9201  98.9416  98.9578  98.9578  98.9615
    98.9755  99.0366  99.0366  99.1191  99.1191  99.1659  99.2274  99.4223
    99.4223  99.4927  99.4927 100.2078 100.2992 100.4123 100.4123 100.4186
   100.4754 100.5158 100.5808 100.5808 100.6772 100.8537 100.8553 100.8553
   100.9568 100.9568 101.0779 101.0779 101.1457 101.1457 101.1606 101.1606
   101.1680 101.1904 101.6391 101.6391 102.0370 102.0370 102.1397 102.4960
   102.6752 102.6752 102.8700 102.8700 102.9068 102.9102 102.9428 103.0413
   103.0413 103.0818 103.2181 103.3635 103.3635 103.7806 103.7806 103.9246
   103.9485 103.9485 103.9643 104.0385 104.0385 104.0997 104.1377 104.1377
   104.2630 104.2630 104.3018 104.3484 104.5358 104.5358 104.8579 104.8710
   104.8710 105.4919 105.7981 105.7981 105.8508 105.9842 106.2085 106.2999
   106.2999 106.5888 106.5888 106.7896 106.8745 106.8745 107.0537 107.2952
   107.3435 107.3435 107.3755 107.3764 107.3822 107.4683 107.4683 107.6076
   107.6076 107.7809 107.8979 107.8979 107.9579 107.9579 107.9663 108.1264
   108.1264 108.2879 108.3140 108.3263 108.3263 108.3294 108.4295 108.4295
   108.5561 108.5561 108.6321 108.6321 108.7981 108.9891 108.9891 109.2472
   109.2472 109.3605 109.3605 109.8073 109.8808 109.9324 109.9324 110.2393
   110.4346 111.1126 111.1126 111.1126 111.4174 111.4395 111.4395 111.7679
   111.7860 112.1036 112.1036 112.4152 112.4152 112.4737 112.7032 112.7032
   112.7309 112.8420 112.8420 112.9610 112.9610 113.0184 113.0184 113.0697
   113.0856 113.1400 113.1400 113.3374 113.3374 113.4565 113.4969 113.4969
   113.6506 113.6536 113.7476 113.7476 113.8342 114.3854 115.1169 115.1169
   115.5498 115.6414 115.6414 115.9399 115.9399 116.0423 116.2158 116.2158
   116.4138 116.7654 116.8642 116.8642 117.1371 117.1371 117.2494 117.3973
   117.3973 117.4730 117.5272 117.5985 117.8386 117.8673 117.8673 118.1398
   118.1518 118.1518 118.3259 118.3259 118.3818 118.6324 118.6452 118.6480
   118.6480 118.8035 118.8035 119.0429 119.0429 119.2846 119.5833 119.5833
   120.0410 120.0972 120.0972 120.5280 120.5280 120.5649 120.6880 120.6880
   120.8521 121.0972 121.0972 121.2688 121.2688 121.4121 121.8507 121.8507
   122.1616 122.1756 122.2012 122.2012 122.5221 122.7498 122.7545 122.7545
   123.0121 123.2121 123.2749 123.4272 123.4272 123.4605 123.4605 124.0148
   124.1277 124.1277 124.1886 124.3301 124.3301 124.3617 124.3617 124.5146
   124.5200 124.5200 124.5970 124.6213 124.6213 124.7274 124.7274 124.7448
   124.7901 124.8456 124.8456 124.9474 124.9474 124.9852 125.0279 125.0505
   125.0505 125.0761 125.0787 125.0787 125.0840 125.3228 125.4271 125.4271
   125.6848 125.7601 125.7601 125.8293 125.8296 125.8296 125.9826 125.9827
   126.0004 126.0508 126.0508 126.1518 126.2996 126.2996 126.3594 126.4546
   126.4546 126.7827 126.7827 126.9357 126.9533 126.9737 126.9737 127.2807
   127.5378 127.5378 127.7916 127.7916 127.8032 127.8356 127.9351 127.9667
   127.9667 128.1587 128.3253 128.3253 128.5196 128.5196 129.4775 129.6483
   129.6483 129.7850 130.1144 130.1216 130.1216 130.4739 130.5073 130.6117
   130.7027 130.9266 130.9266 131.0467 131.0467 131.0853 131.1148 131.1148
   131.2751 131.3816 131.3816 131.4672 131.4672 131.7485 131.7485 131.7578
   131.8920 131.8920 131.9528 132.0037 132.0772 132.0888 132.0888 132.1182
   132.3328 132.3328 132.4315 132.4315 132.7496 132.7496 133.3586 133.6189
   133.6189 133.7453 133.7956 133.7956 134.2560 134.2885 134.2885 134.4084
   134.4084 134.5663 134.6060 134.6658 134.6658 134.9785 135.0467 135.0467
   135.1403 135.1403 135.2121 135.2459 135.2459 135.4064 135.4064 135.5187
   135.5187 135.7618 135.9099 135.9218 135.9847 136.1772 136.2498 136.2498
   136.4013 136.7975 136.7975 137.3594 137.3594 137.4015 137.4143 137.4852
   137.4852 137.5206 137.5206 137.7609 137.8081 138.1398 138.1398 138.4798
   138.5180 138.6115 138.6115 138.6686 138.9682 138.9695 138.9695 139.0065
   139.1673 139.1810 139.1810 139.3266 139.3266 139.4090 139.4090 139.6079
   139.7719 139.7719 139.8146 139.8146 139.8938 139.9466 140.0113 140.0113
   140.1194 140.1194 140.2334 140.5404 140.5568 140.5568 140.5725 140.6146
   140.6146 141.4347 141.4347 142.5078 142.9975 143.5271 143.7546 143.7547
   144.0972 144.0972 144.2813 144.4814 144.5987 144.5987 144.8987 144.9473
   145.1151 145.1209 145.1209 145.3004 145.3004 145.5985 145.7453 145.7453
   146.0109 146.0109 146.1673 146.1673 146.4823 146.4823 146.6126 146.6513
   146.7897 146.7897 146.8355 146.8962 147.3914 147.3914 147.4370 147.4370
   147.4703 147.5309 147.7708 147.7708 148.0004 148.0004 148.2098 148.2098
   148.2157 148.3479 148.3479 148.4363 148.5034 148.6417 148.6417 148.7336
   148.7336 148.9055 148.9066 148.9542 149.0033 149.1540 149.1540 149.1638
   149.1638 149.2574 149.3679 149.5170 149.5170 149.7194 149.7194 149.9906
   150.0037 150.0037 150.0168 150.0368 150.0368 150.2287 150.2288 150.3550
   150.3953 150.6051 150.6051 150.8057 150.8057 150.9493 151.0962 151.1689
   151.2250 151.2250 151.4613 152.1933 152.1933 152.9045 152.9045 154.1363
   154.1363 154.3801 154.5986 154.9988 154.9988 155.4427 155.4427 155.5052
   155.7626 155.8138 155.8887 155.8887 156.3757 156.4689 156.5425 156.5426
   156.9721 157.0408 157.1260 157.1260 157.2943 157.2944 157.6364 157.6364
   157.6904 157.7841 157.7841 157.8931 157.9273 158.0611 158.3593 158.3593
   158.5675 158.5675 158.6583 158.6583 158.6999 158.9029 159.0029 159.0029
   159.1638 159.1673 159.1673 159.2543 159.3013 159.3157 159.3157 159.3697
   159.3697 159.7356 159.7356 159.8191 160.2468 160.2468 160.4262 160.4262
   160.9598 161.1460 161.1460 161.1683 161.1683 161.5472 161.5472 161.6094
   161.6335 161.6392 161.7779 161.7779 161.8300 161.9202 161.9521 161.9521
   162.0397 162.1173 162.2832 162.2832 162.5079 162.7398 162.7398 162.9596
   162.9596 162.9883 163.0172 163.0172 163.1087 163.1674 163.2652 163.2652

          k = 0.0000 0.2887 0.0000 (  9366 PWs)   bands (ev):

   -30.6823 -30.6722 -30.5958 -30.5922 -30.5601 -13.7683  -9.0304  -4.9534
    -3.0738  -2.6617  -0.5523   1.7095   1.8749   3.1484   3.5130   4.1993
     4.7500   5.2292   6.1236   6.6860   7.0998   7.6659   7.8932   8.8401
     9.7507   9.9852  10.2173  10.4360  10.6341  11.0192  11.6600  11.7342
    12.1469  12.9507  13.1713  13.2377  13.5158  13.8212  13.9346  13.9820
    14.1158  14.3158  14.8315  14.8664  14.8742  15.0579  15.6303  16.5786
    16.6058  16.8367  16.9966  17.2522  17.4446  17.5618  17.8534  18.5603
    19.0063  19.2124  19.6567  19.7938  20.0462  20.1514  20.3201  20.3719
    20.5181  20.6693  20.7233  20.8599  21.0489  21.1629  21.5912  21.7207
    21.8775  22.0545  23.3685  23.5252  23.5297  23.7440  23.9285  23.9715
    24.0439  24.2017  24.2045  24.3494  24.5632  24.7448  25.0720  25.1114
    25.2289  25.4697  25.6396  26.3150  26.7140  26.9629  26.9782  27.1090
    27.4666  27.6116  27.9840  28.7536  28.7682  28.9432  28.9866  29.4343
    29.7744  29.9102  30.2269  30.2412  30.6002  30.7531  30.8944  30.9849
    31.0076  31.2461  31.3696  31.6048  31.9269  33.2854  33.6811  33.8435
    33.9016  34.0685  34.1334  34.2317  34.3410  34.4153  34.4546  34.7144
    34.9413  35.0891  35.2401  35.3273  35.4519  35.5728  35.6083  35.7193
    36.0501  36.1862  36.8051  37.1006  37.1611  37.2364  37.5396  37.7335
    37.7628  37.7786  37.9640  38.3031  38.4848  38.6651  39.2746  39.5392
    39.8337  39.8713  39.9982  40.3723  40.3786  40.7239  40.7866  40.9848
    41.0831  41.1526  41.2338  41.5210  41.5838  41.7532  41.9599  42.9419
    43.1245  43.5373  43.6528  43.9257  44.0764  44.1752  44.2792  44.3204
    44.3929  44.4139  44.4273  44.5498  44.6262  44.7911  44.9395  45.0980
    45.1530  45.3197  45.3592  45.4741  45.6265  45.6267  45.7415  46.0581
    46.4686  46.5089  46.7118  46.9751  47.4178  47.5476  47.5813  47.7117
    47.7228  47.8458  47.8556  47.9848  48.1001  48.1504  48.1607  48.3673
    48.6302  48.9439  49.0128  49.3656  49.4020  49.5813  49.8852  50.0780
    50.4687  50.4692  50.6952  50.7383  50.7719  50.9052  50.9467  51.0446
    51.1115  51.2075  51.3061  51.3725  51.7301  51.9815  52.1412  52.2518
    52.3955  52.4182  52.5967  53.4307  53.4421  53.6043  53.7227  53.8358
    53.9773  54.0898  54.1601  54.2337  54.3627  54.4161  54.5031  54.5666
    54.6065  54.6492  54.6909  54.7700  54.8793  54.9044  54.9862  54.9984
    55.2108  55.3308  55.3525  55.4552  55.5750  55.6340  55.6469  55.7724
    55.9341  55.9611  56.0754  56.4276  56.5373  57.3815  57.4306  57.5090
    57.5780  57.6263  57.6943  57.9614  57.9940  58.0941  58.2596  58.6282
    59.1286  59.1604  59.2841  59.4867  59.4879  59.7912  59.8026  60.2290
    60.4392  60.5105  60.6340  60.8363  60.8987  61.0624  61.2306  61.3794
    61.3837  61.5783  61.5838  61.7016  61.7795  61.8265  61.9511  62.4547
    62.5293  62.6891  62.9639  63.0024  63.1858  63.6304  63.7621  63.9842
    64.1271  64.2359  64.3345  64.5012  64.6032  64.6448  64.7057  64.8117
    64.8764  64.9642  64.9657  65.1383  65.2123  65.2267  65.2666  65.4654
    65.7000  65.7591  65.9235  65.9783  66.0319  66.2146  66.2350  66.2999
    66.3796  66.6578  67.2122  67.3039  67.5276  67.5880  67.6714  67.9056
    67.9560  68.1823  68.2787  68.3217  68.6801  69.1252  69.2277  69.2992
    69.6485  69.8401  70.0217  70.0255  70.3285  70.5598  70.6353  70.8329
    70.8880  70.9313  70.9967  71.0696  71.1962  71.2703  71.3594  71.5083
    71.5831  71.5914  71.6605  71.7333  71.7728  71.9917  72.1053  72.3469
    72.5771  72.6379  72.6905  72.9295  73.1836  73.2592  73.5969  73.7607
    73.8930  73.9447  73.9645  74.4081  74.5399  74.6534  74.7465  74.9255
    74.9589  75.0833  75.1582  75.1918  75.3617  75.5327  75.5671  75.6108
    75.6995  76.1162  76.2452  76.6602  76.7340  76.9457  77.2849  77.4583
    77.7788  77.7830  77.9002  78.0660  78.2041  78.3511  78.5299  78.6070
    78.7025  78.8567  79.1209  79.3694  79.4409  79.6085  79.6429  79.9466
    79.9702  80.0854  80.2761  80.3022  80.4727  80.7975  80.9757  81.0006
    81.2476  81.3238  81.3513  81.6022  81.6550  81.7278  81.8399  81.8493
    81.9525  81.9599  82.2198  82.4873  82.5336  82.8315  82.8591  82.9695
    83.2556  83.3513  83.5290  83.6464  83.6850  83.9725  83.9748  84.1456
    84.3128  84.3137  84.4837  84.5370  84.7075  84.8148  84.8586  84.9368
    84.9394  84.9903  85.1279  85.1702  85.1979  85.2422  85.2907  85.3776
    85.4117  85.5791  85.6588  85.7926  85.9304  85.9971  86.0375  86.0420
    86.1562  86.3314  86.4213  86.4310  86.6334  86.6746  86.7292  86.8746
    87.0894  87.6360  87.6802  87.7818  87.8337  87.9885  88.0695  88.1114
    88.2323  88.2800  88.4094  88.5173  88.5922  89.0052  89.2510  89.4609
    89.5160  89.8379  90.0722  90.2445  90.3314  90.6361  90.6521  90.9300
    90.9602  90.9911  91.1958  91.3708  91.4062  91.5131  91.5401  91.6558
    91.6593  91.7727  91.9532  92.0585  92.1844  92.2046  92.3160  92.4336
    92.8339  92.8463  92.9590  93.1141  93.3034  93.4322  93.4356  93.6444
    93.7823  93.8361  93.9198  94.1318  94.2297  94.4600  94.5468  94.6031
    94.6101  94.7880  94.7915  94.8344  95.0040  95.0724  95.0792  95.2675
    95.3255  95.3429  95.4309  95.4914  95.5398  95.7596  95.8612  95.9783
    96.0845  96.1456  96.1897  96.2617  96.3184  96.3843  96.4254  96.5015
    96.6248  96.7967  96.9928  97.0121  97.1283  97.2933  97.5876  97.8689
    97.9250  97.9332  98.2565  98.4292  98.4868  98.5841  98.6762  98.9130
    98.9258  99.0628  99.4217  99.4953  99.8570  99.9833 100.0343 100.2596
   100.2904 100.3823 100.4886 100.4941 100.8183 100.8324 100.9587 101.0497
   101.1337 101.2918 101.3273 101.4262 101.5479 101.6472 101.8327 101.8647
   101.9091 101.9888 102.0383 102.1463 102.1612 102.3918 102.4179 102.5194
   102.7758 102.7804 102.8419 102.9521 103.0508 103.0631 103.1933 103.2533
   103.3189 103.3876 103.5843 103.6968 103.8756 103.9321 103.9577 104.1372
   104.3197 104.3582 104.5056 104.5952 104.6944 104.7889 104.7932 104.8807
   104.9247 105.1507 105.1941 105.2805 105.3025 105.4093 105.4457 105.5430
   105.5677 105.5800 105.6887 105.7591 105.8092 105.8455 105.9636 106.0581
   106.0594 106.1781 106.3113 106.3810 106.4610 106.5327 106.6312 106.7736
   106.7795 106.9185 106.9924 107.6122 107.7407 107.9212 107.9731 108.0460
   108.1062 108.2609 108.3250 108.4461 108.6276 108.7423 108.8318 108.9923
   109.0518 109.1494 109.2448 109.9214 109.9966 110.0435 110.1315 110.3654
   110.5726 110.6669 110.7777 110.8779 110.9370 111.1630 111.2129 111.2580
   111.4276 111.5296 111.6678 111.8145 111.8231 111.9000 111.9772 112.0640
   112.1457 112.2931 112.2972 112.3428 112.3775 112.4799 112.5485 112.7616
   112.9226 112.9449 113.0048 113.1217 113.1963 113.3375 113.4194 113.5293
   113.5712 113.7747 113.8270 113.9599 114.0002 114.0563 114.2157 114.2193
   114.3224 114.3634 114.4972 114.4994 114.7154 114.7525 114.8148 114.8685
   114.9907 115.0289 115.1308 115.1400 115.2446 115.3103 115.3838 115.4128
   115.4389 115.5778 115.5892 115.6341 115.6426 115.7036 115.7606 115.7842
   115.7979 115.8471 115.9173 116.0154 116.1042 116.1701 116.1907 116.2575
   116.3786 116.3955 116.4334 116.5242 116.5430 116.5921 116.6491 116.7113
   116.7569 116.8276 116.8948 117.1887 117.2343 117.5443 117.5473 117.7079
   117.8427 117.9609 118.0026 118.0522 118.2289 118.4001 118.4501 118.4858
   118.5218 118.6400 118.6454 118.8254 118.8712 118.9469 118.9951 119.0784
   119.1265 119.2487 119.3621 119.5480 119.8470 120.0008 120.0183 120.2255
   120.5182 120.6575 120.7180 120.9116 120.9491 121.1166 121.1962 121.2244
   121.3196 121.3697 121.5147 121.6201 121.6344 121.7231 121.7653 121.8114
   121.9911 122.0341 122.1795 122.2355 122.3627 122.4165 122.5088 122.5526
   122.6350 122.6933 122.8480 122.8481 123.0853 123.0996 123.3467 123.5486
   123.6286 123.7095 123.9304 124.0396 124.1867 124.2242 124.3090 124.4081
   124.4423 124.6264 124.6423 124.8146 124.8962 124.9304 125.1250 125.1718
   125.2911 125.3526 125.5270 125.5342 125.6900 125.7768 125.8527 125.8606
   125.9191 125.9856 126.0560 126.1949 126.2070 126.3001 126.5108 126.6524
   126.7181 126.8119 126.9276 126.9817 127.1758 127.2363 127.2927 127.5031
   127.5427 127.5976 127.7534 128.0523 128.1421 128.2198 128.3962 128.4890
   128.5425 128.7915 128.9580 129.2631 129.3263 129.4516 129.4700 129.8502
   129.8784 130.0869 130.1682 130.2217 130.4428 130.4910 130.5343 130.6493
   130.6909 130.8097 130.8493 131.0292 131.1873 131.3145 131.3308 131.4396
   131.5003 131.7020 131.7323 131.9878 132.0716 132.0841 132.2471 132.4805
   132.5099 132.5571 132.6908 132.7502 133.0963 133.2629 133.3784 133.4388
   133.8168 133.9550 134.1612 134.1822 134.2801 134.5245 134.5991 134.6823
   134.8957 134.9624 135.0092 135.2090 135.2147 135.2756 135.3422 135.3915
   135.5448 135.5574 135.7077 135.8020 135.8119 135.8896 135.9166 136.0383
   136.0622 136.1136 136.1866 136.2696 136.2708 136.3733 136.5399 136.6901
   136.7238 136.8034 136.8425 136.8716 137.0211 137.0812 137.1846 137.2377
   137.3441 137.3580 137.6154 137.8148 137.8674 137.9392 138.0625 138.2311
   138.2928 138.3262 138.5015 138.5121 138.6803 138.7774 138.7962 138.8766
   138.9245 139.0182 139.2529 139.3298 139.4015 139.4466 139.4908 139.8882
   139.9514 140.0594 140.4772 140.4822 140.6759 140.8464 140.8660 141.0329
   141.1303 141.2315 141.4582 141.5705 141.6002 141.6718 141.7526 141.7857
   142.0807 142.1600 142.2555 142.2671 142.3485 142.4145 142.5048 142.5125
   142.7075 142.8349 142.8552 142.9579 143.0265 143.1501 143.2439 143.2797
   143.5581 143.8212 144.0033 144.0499 144.1410 144.2304 144.2933 144.5064
   144.5354 144.8086 144.8316 144.9370 145.0582 145.1020 145.1843 145.2646
   145.2855 145.3957 145.5059 145.5277 145.6207 145.6826 145.7511 145.7956
   145.8472 145.8779 146.0160 146.0679 146.0758 146.1506 146.2992 146.3288
   146.4053 146.4797 146.5130 146.6141 146.7202 146.7417 146.8372 146.9027
   146.9942 147.0102 147.1473 147.2454 147.3197 147.4005 147.5922 147.8427
   147.9623 147.9660 148.1249 148.2855 148.4044 148.4196 148.5868 148.7814
   148.8122 148.8630 148.9220 149.0291 149.0589 149.1997 149.2458 149.3692
   149.4445 149.5567 149.6294 149.6378 149.8005 149.8557 150.1631 150.2088
   150.3566 150.3942 150.4817 150.4995 150.7338 150.7657 151.0528 151.0939
   151.2702 151.2904 151.5176 151.5552 151.6850 151.7264 151.7989 151.9192
   151.9739 152.0487 152.0629 152.1454 152.2527 152.2686 152.3808 152.5085
   152.5090 152.5402 152.5606 152.7552 152.8286 153.0281 153.0405 153.2062
   153.2766 153.5445 153.6999 153.8598 153.9926 154.1605 154.2672 154.3974
   154.5576 154.8109 154.8442 155.0318 155.1049 155.1620 155.2384 155.2464
   155.2908 155.3353 155.4669 155.5988 155.6878 155.7369 155.8294 155.9314
   155.9493 156.1001 156.1344 156.1677 156.2258 156.2799 156.3438 156.3820
   156.4702 156.4972 156.5592 156.5630 156.6382 156.7137 156.7957 156.8405
   156.9414 157.0620 157.1127 157.1454 157.2089 157.2929 157.3765 157.4060
   157.4386 157.4433 157.6145 158.0772 158.1056 158.4878 158.5759 158.6608
   158.6822 158.8211 158.8359 158.9130 159.0628 159.1430 159.1594 159.3687
   159.5538 159.6738 159.6844 159.7617 159.7973 160.0431 160.2182 160.3422
   160.4042 160.4540 160.6339 160.7193 160.8121 160.8186 160.9018 160.9024

          k = 0.0000-0.5774 0.0000 (  9410 PWs)   bands (ev):

   -30.6837 -30.6633 -30.6004 -30.5933 -30.5549 -12.4652 -10.2914  -5.3295
    -3.7320  -3.6448  -0.3541   0.6556   1.8805   3.5001   5.3958   5.4803
     5.8357   6.2196   6.4899   6.9209   7.2167   7.3070   7.4643   8.4615
     9.1408   9.4808   9.5506   9.5945  10.2472  10.9944  11.3111  11.8091
    12.2411  12.3427  12.5901  12.7227  12.8332  12.9961  13.0081  13.0696
    13.1976  13.9429  14.0263  14.1504  14.3220  15.7683  16.0214  16.1540
    16.2033  16.3730  16.6520  16.8435  16.9666  17.6787  17.8212  18.0534
    19.1154  19.1583  19.2626  19.5523  19.7120  19.7885  20.6489  20.8897
    21.1957  21.2243  21.5312  22.1839  22.5941  22.7838  22.9402  23.5274
    23.5393  23.8092  23.8646  25.0044  25.7756  25.9108  25.9438  26.0143
    26.2925  26.3902  26.5422  26.5816  26.6290  26.6854  26.7954  26.9389
    27.0588  27.2337  27.4651  27.4994  27.6515  27.6639  27.6886  27.8773
    27.9650  27.9967  28.2136  28.2687  28.4697  29.0302  29.2100  29.5710
    29.6474  29.8263  29.8545  29.8872  30.1821  30.1876  30.3407  30.6205
    30.8474  32.3173  32.3525  32.4531  32.4918  32.6176  32.6886  32.7370
    32.9165  32.9384  33.0873  33.2018  33.2650  33.3687  33.4575  33.5353
    33.5692  33.6250  33.7359  33.8836  34.0173  34.0710  34.3180  34.4089
    34.4895  34.7345  35.0390  36.2005  36.3928  36.4684  36.5870  36.6161
    36.6614  36.8209  36.8995  36.9100  37.0030  37.2839  37.3608  37.7459
    38.1851  38.3989  39.1092  39.3577  39.4714  39.6315  39.6470  39.7286
    39.8349  39.9026  40.1228  40.3869  40.6440  40.7708  40.8336  40.9928
    41.5156  41.5309  41.6528  41.7613  41.9845  42.1786  42.2288  42.4364
    42.8840  43.6248  43.7010  43.8989  44.0658  44.0710  44.4682  45.2077
    45.8536  46.2351  46.2476  46.2829  46.3383  46.4120  46.6153  46.7824
    46.7984  46.8735  46.9549  46.9665  47.0388  47.0892  47.1087  47.3002
    47.3218  47.4092  47.5959  47.7727  47.7766  47.8238  47.9236  47.9604
    48.0925  48.1364  48.1410  48.1879  48.1982  48.4263  48.5805  48.7511
    48.7545  48.8762  48.9553  48.9807  49.8331  49.8418  50.1596  50.2099
    50.2806  50.3324  50.3935  50.5877  50.9128  51.3672  52.1624  52.4296
    52.5437  52.5952  52.7994  52.9670  53.0298  53.0587  53.1033  53.3331
    53.4120  53.5123  53.5536  53.5930  53.6505  53.8380  53.8415  54.1025
    54.3135  54.4898  54.6305  54.7731  54.9315  55.2758  55.4153  55.5650
    55.8640  56.3069  56.5161  56.6039  56.7836  56.9089  56.9412  57.1400
    57.4197  57.4216  57.6175  57.6266  57.7257  57.8540  58.6720  58.8472
    59.2148  59.4158  59.5894  59.7532  60.0040  60.2444  60.3555  60.4445
    60.5026  60.5763  60.9182  60.9316  61.2296  61.3787  61.4761  61.5742
    61.6529  61.6842  61.8863  62.1956  62.1994  62.5791  62.6683  62.6757
    62.7314  62.7673  63.1709  63.3949  63.6880  63.7825  64.0892  64.3984
    65.1768  65.3511  65.5908  65.7556  65.7600  65.9768  66.0879  66.3013
    66.5265  66.5330  66.6241  66.8296  66.9996  67.1134  67.1543  67.2771
    67.3273  67.3695  67.3733  67.4554  67.5458  67.5595  67.6345  67.7023
    67.7572  67.9150  67.9967  68.0839  68.1365  68.1962  68.2123  68.3104
    68.3629  68.3944  68.4198  68.5318  68.5750  68.6526  68.6983  68.7706
    69.0539  69.2714  69.5914  69.5927  69.9529  69.9921  70.1797  70.2049
    70.5179  70.5287  70.7374  70.7862  70.9999  71.0460  71.0644  71.4418
    71.6354  72.0509  72.4327  72.4855  72.7118  72.8350  73.1306  73.1701
    73.2793  73.3093  73.3524  73.4496  73.5826  73.6301  73.6436  73.7726
    73.7738  73.8045  73.8801  73.8893  74.0135  74.0597  74.1212  74.1908
    74.2139  74.2160  74.2710  74.3910  74.4414  74.6673  74.7973  74.9014
    74.9205  75.0641  75.1022  75.1403  75.1743  75.3052  75.3389  75.4511
    75.6256  75.6891  75.7914  76.1262  76.2854  76.4162  76.4499  76.5430
    76.6784  76.6854  76.9022  76.9639  77.1097  77.2122  77.2146  77.2272
    77.3584  77.3602  77.4348  77.4582  77.5407  77.6377  77.6830  77.7370
    77.8296  77.8630  77.9571  77.9579  78.1477  78.4554  78.5601  79.5068
    79.6022  79.6393  79.8400  79.8974  80.2345  80.3511  80.3807  80.4075
    80.4183  80.5273  80.6634  80.6651  81.0798  81.2142  81.2989  81.4668
    81.5904  81.6086  81.8234  81.9270  82.1130  82.2520  82.3601  82.5779
    82.6252  82.6309  82.8771  82.8775  83.1038  83.3229  83.4388  83.4695
    83.6874  83.8247  83.8381  83.9058  84.1666  84.3011  84.3900  84.4009
    84.5512  84.6838  84.8019  85.0407  85.3440  85.7468  85.8174  85.9271
    85.9978  86.1376  86.1799  86.3602  86.5864  86.7552  86.8882  87.0285
    87.1126  87.2763  87.3741  87.4018  87.5059  87.5983  87.7309  87.7451
    87.7588  87.8117  87.8472  87.9318  88.0697  88.1402  88.1615  88.2252
    88.3108  88.5817  88.6626  88.7092  88.7689  88.8624  88.9493  88.9620
    89.0501  89.1519  89.1757  89.2256  89.3030  89.3333  89.4816  89.5314
    89.5935  89.8956  90.1826  90.3987  90.6344  90.8150  90.8941  91.3065
    91.5253  91.7361  91.8238  92.3992  92.5041  92.7593  92.8223  92.8746
    93.1693  93.1907  93.2472  93.3428  93.4098  93.4700  93.5460  93.5728
    93.6511  93.7738  93.7989  94.0171  94.0201  94.1141  94.3142  94.3358
    94.3751  94.4629  94.5530  94.5593  94.6636  94.7271  94.8872  94.9683
    95.0307  95.1077  95.1596  95.1771  95.3008  95.3030  95.5671  95.6338
    95.7869  95.9714  96.0834  96.2289  96.4018  96.4115  96.4434  96.4878
    96.7008  96.8380  97.0598  97.1534  97.3089  97.3789  97.4894  97.5237
    97.6026  97.6608  97.7386  97.8826  97.9205  98.0865  98.1401  98.1532
    98.2716  98.3447  98.5780  98.7696  99.0221  99.3887  99.6269  99.6717
    99.7426  99.9121  99.9242 100.3014 100.3680 100.4537 100.5777 100.6741
   100.7303 100.7836 100.9107 100.9840 101.0201 101.2614 101.3391 101.3548
   101.5920 101.5993 101.7832 102.0683 102.2118 102.4309 102.5089 102.6310
   102.7781 102.8754 102.9337 103.1062 103.3558 103.4687 103.6441 103.7354
   103.7679 103.8219 103.9256 104.3349 104.3925 104.5940 104.8564 104.8743
   104.9008 105.1068 105.1284 105.5133 105.9175 106.0269 106.1845 106.2707
   106.3313 106.4058 106.4906 106.5508 106.5631 106.8278 106.8546 106.9039
   106.9984 107.2269 107.2302 107.3806 107.5177 107.6551 107.6991 107.7154
   107.7241 107.7387 107.9026 107.9275 107.9859 108.0260 108.0926 108.1126
   108.1189 108.1589 108.2191 108.4072 108.5484 108.5917 108.6598 108.6709
   108.7187 108.7720 108.8759 108.9272 108.9603 108.9810 109.0158 109.0710
   109.1639 109.2331 109.3146 109.4172 109.4647 109.4924 109.4995 109.5246
   109.5903 109.7930 110.1046 110.1463 110.4759 110.7499 110.9105 110.9916
   111.0660 111.0889 111.2018 111.2473 111.2592 111.3525 111.4654 111.7300
   111.8190 112.3548 112.6932 112.9171 112.9397 113.0585 113.2643 113.3507
   113.6387 113.7177 113.7412 113.9873 114.0279 114.0856 114.1934 114.3417
   114.3764 114.3986 114.4024 114.4346 114.8144 114.9726 115.0399 115.1534
   115.2486 115.2497 115.3746 115.6392 115.7223 115.8116 115.8158 115.9158
   116.3972 116.4111 116.6146 116.6305 116.7494 116.7586 116.8923 117.0118
   117.1412 117.2767 117.3088 117.3690 117.3989 117.5375 117.6326 117.6370
   117.7853 117.8855 117.9925 117.9942 118.0301 118.1042 118.1172 118.1846
   118.2396 118.3228 118.6060 118.6485 118.8835 119.0484 119.0755 119.1927
   119.4211 119.4782 119.5061 120.0241 120.1270 120.2454 120.2780 120.4570
   120.5056 120.5703 120.6238 121.0171 121.1442 121.2074 121.2983 121.4804
   121.6134 121.7388 121.9343 121.9536 122.2943 122.3427 122.6666 122.7530
   122.8704 123.0274 123.2934 123.3806 123.3920 123.3979 123.5868 123.6462
   123.9057 124.0412 124.1431 124.2466 124.2546 124.5144 124.5405 124.6115
   124.7995 125.0617 125.2850 125.4552 125.5411 125.6091 125.7384 125.7556
   125.8225 126.0412 126.0930 126.2374 126.3811 126.5112 126.5849 126.6323
   126.7520 126.7558 126.8613 127.0109 127.1431 127.2259 127.4794 127.5841
   127.6622 127.7201 127.8273 127.9212 127.9456 128.0099 128.2031 128.2462
   128.2556 128.3504 128.4090 128.4269 128.4430 128.5138 128.5928 128.6254
   128.6827 128.8254 128.9193 128.9383 129.0095 129.0253 129.1199 129.1236
   129.1328 129.1843 129.2025 129.4039 129.4129 129.5360 129.5824 129.7975
   129.9679 129.9883 130.1138 130.3018 130.4099 130.4728 130.5460 130.6886
   130.7305 130.7885 130.8751 131.0897 131.1313 131.2075 131.2378 131.3531
   131.3636 131.5271 131.6153 131.6417 131.7944 131.8004 131.9287 131.9988
   132.0253 132.1592 132.2409 132.5501 132.7221 132.8321 133.0284 133.1517
   133.4266 133.5747 133.6143 133.7076 133.8060 133.8799 133.9058 133.9335
   134.1094 134.1571 134.1875 134.2579 134.4136 134.4772 134.4972 134.5629
   134.7112 134.7227 134.7612 134.8287 134.8425 135.0339 135.1489 135.1660
   135.2002 135.2156 135.2899 135.4161 135.4211 135.4735 135.6809 135.6998
   135.7819 135.8149 135.8422 136.0211 136.0310 136.0579 136.0920 136.2706
   136.3222 136.3529 136.3967 136.4783 136.5689 136.5943 136.7045 136.8616
   136.9753 137.0000 137.0664 137.3003 137.3538 137.4091 137.6403 137.7009
   137.8277 137.8768 137.8910 137.9207 137.9964 138.0548 138.1599 138.2058
   138.2244 138.2401 138.3228 138.3372 138.3489 138.3579 138.4089 138.5512
   138.5694 138.7137 138.7413 138.7885 138.7939 138.8687 138.9664 138.9762
   139.0487 139.0570 139.3327 139.5160 139.6303 139.8017 140.2081 140.3087
   140.3206 140.5673 140.7274 140.8098 140.9393 141.0161 141.2416 141.3344
   141.4164 141.4284 141.4506 141.6166 141.6608 141.6885 142.0784 142.1316
   142.2198 142.2714 142.3856 142.5112 142.5412 142.7338 143.0102 143.0396
   143.1144 143.1840 143.2308 143.2827 143.4296 143.4749 143.6487 143.6723
   143.7168 143.7394 143.9169 143.9707 144.0395 144.2004 144.2785 144.3756
   144.4463 144.5037 144.5055 144.6649 144.7385 144.7754 144.8556 144.8604
   144.8827 144.9685 144.9961 145.0441 145.3012 145.3226 145.3244 145.3855
   145.3911 145.4414 145.7789 145.9380 146.2743 146.2971 146.3948 146.6180
   146.7953 146.9668 147.0916 147.1402 147.2333 147.4589 147.4608 147.5681
   147.6999 147.8356 147.9067 148.0484 148.0786 148.1890 148.3012 148.3870
   148.4903 148.5489 148.5556 148.5918 148.6121 148.7320 148.7798 148.7919
   148.8524 148.8811 148.9234 148.9547 149.0238 149.0987 149.1605 149.2552
   149.3586 149.3589 149.5393 149.5470 149.5649 149.5906 149.6671 149.7151
   149.7400 149.8289 149.8892 149.9040 149.9892 150.0522 150.1192 150.1543
   150.1898 150.3435 150.4286 150.5721 150.6989 150.7545 150.9187 150.9522
   151.0004 151.3614 151.3906 151.4447 151.5617 151.5815 151.6127 151.6289
   151.6510 151.6875 151.7351 151.7952 151.8824 151.9196 152.1358 152.4757
   152.5685 152.8198 152.9331 153.0778 153.0830 153.1292 153.2853 153.4161
   153.5503 153.6560 153.7224 153.7941 153.9749 154.1434 154.2477 154.3293
   154.3581 154.3634 154.3919 154.4972 154.5484 154.6331 154.6340 154.6572
   154.7633 154.8773 154.9476 155.1239 155.1992 155.2092 155.3891 155.4340
   155.4359 155.4814 155.6449 155.7407 155.8048 155.8335 155.8669 155.9017
   155.9188 155.9696 155.9907 156.6015 156.7560 156.8606 156.9568 157.0420
   157.3066 157.3128 157.3633 157.4205 157.5271 157.5592 157.6535 157.7157
   157.8462 157.9165 158.0137 158.1173 158.1271 158.2020 158.3864 158.4949
   158.6145 158.7044 158.7118 158.7568 158.8188 158.8485 158.9116 158.9203

          k = 0.2500 0.4330 0.0000 (  9412 PWs)   bands (ev):

   -30.6786 -30.6681 -30.5987 -30.5949 -30.5553 -12.5611  -9.9918  -5.4152
    -4.8295  -3.1853   0.0504   0.9134   2.2504   4.5973   4.9162   5.3110
     5.5902   5.8755   6.4840   6.6225   7.8716   8.0237   8.3030   8.6580
     8.7240   8.9061   9.4783   9.5661   9.6746   9.8597  10.2436  10.6655
    11.4138  11.7000  11.8402  12.0970  12.1785  12.3349  12.4474  13.2991
    14.3306  14.7799  15.1116  15.2149  15.3325  15.5950  16.0189  16.2094
    16.7766  17.7418  18.1735  18.3982  18.6173  18.9107  18.9722  19.0374
    19.2231  19.2717  19.4941  19.7689  19.9931  20.0873  20.1003  20.2005
    20.6056  20.6650  21.4718  21.8307  21.9824  22.1090  22.1982  22.4612
    22.7320  23.5164  23.8158  23.8790  24.0584  24.5741  24.8078  25.1441
    25.2147  25.2673  25.4387  25.5985  25.7709  25.8050  26.2061  26.3902
    26.5867  26.7502  26.7633  27.4515  27.7745  28.4261  28.5170  28.6046
    28.7211  28.8976  29.0072  29.1425  29.2080  29.3528  29.3871  29.4244
    29.5678  29.7793  29.9461  30.0317  30.2200  30.3248  30.4312  30.5188
    31.0683  31.7294  31.9864  31.9950  32.1963  32.4526  32.5341  32.6264
    32.6784  32.8709  32.9938  33.7170  33.9007  34.1736  34.2190  34.8541
    35.1052  35.1349  35.2649  35.2860  35.5191  35.6169  35.7636  35.8239
    35.9091  36.0618  36.0675  36.2079  36.2807  36.3445  36.4229  36.9385
    37.0440  37.1012  37.1677  38.3395  38.4461  38.5391  38.5584  38.7740
    38.9718  39.0753  39.1515  39.2414  39.2571  39.3329  39.4576  39.4835
    39.5797  39.6752  39.8346  39.9691  40.1032  40.1723  40.2909  40.3125
    40.4052  40.5587  40.8836  41.0451  41.2070  41.8261  41.9285  42.0557
    42.1183  42.4385  42.5316  42.6546  42.7160  42.7623  42.9441  43.0605
    43.1687  43.5766  43.9556  44.2738  44.4086  44.5959  44.9410  45.2698
    45.3521  45.4584  45.5029  45.6826  45.8921  46.0088  46.1275  46.1654
    46.2793  46.3452  46.5354  46.6543  46.7968  47.2430  47.4627  47.5567
    47.7157  48.2923  48.8856  49.3540  49.4056  49.5631  49.6606  49.7998
    49.9096  50.1365  50.2241  50.4003  50.5044  50.5865  50.7328  50.7877
    51.1838  51.2889  51.4477  51.6560  52.0233  52.2646  52.6236  52.7459
    52.8754  53.0812  53.2079  53.2297  53.6556  54.1364  54.3480  54.5133
    54.6287  54.8020  55.2090  55.3227  55.5694  55.5822  55.8998  56.0734
    56.1128  56.1228  56.3146  56.4238  56.4648  56.5392  56.6297  56.6845
    56.9119  56.9684  57.1823  57.2749  57.3185  57.4742  57.9432  58.2768
    58.4453  58.6835  58.8714  58.9965  59.1715  59.2710  59.3672  59.4489
    59.5727  59.5762  59.6432  59.7474  59.8135  59.9045  59.9424  60.1027
    60.1313  60.2500  60.3893  60.5660  60.5936  60.7067  60.7698  60.8406
    60.9222  61.0935  61.2252  61.7111  61.9996  62.1296  62.2943  62.4144
    62.4798  62.6006  62.6697  62.8057  62.9232  62.9480  63.0211  63.0810
    63.2215  63.3012  63.6746  63.7677  63.9135  64.1383  64.4852  64.7108
    64.9244  65.2712  65.4579  65.6370  65.7596  65.8164  65.9348  66.0582
    66.0851  66.3136  66.3490  66.4371  66.5038  66.5958  66.7345  66.8502
    67.0263  67.1147  67.3134  67.4937  67.5979  67.7861  67.8297  68.1391
    68.3733  68.6015  68.8304  68.8431  69.0291  69.0879  69.2734  69.3298
    69.3861  69.6330  69.7022  69.7611  69.8047  69.8977  69.9571  70.0110
    70.1031  70.1747  70.2047  70.2454  70.4537  70.6408  70.6452  70.6895
    70.7944  70.9478  71.0266  71.0905  71.2011  71.3929  71.4770  71.5629
    71.6209  71.6504  72.0597  72.4093  72.6558  72.6944  72.8973  73.0101
    73.1556  73.1833  73.2952  73.4328  73.5570  73.6544  74.0880  74.2116
    74.2829  74.5308  74.7530  74.8086  74.9230  75.1621  75.3962  75.6455
    75.7697  75.9187  76.0507  76.1098  76.2205  76.2952  76.4364  76.4793
    76.5740  76.7487  76.8942  76.9642  77.1684  77.2169  77.3891  77.6653
    77.8407  77.9668  78.1571  78.2555  78.3369  78.4736  78.7661  78.9185
    78.9653  79.0192  79.1341  79.2421  79.3444  79.3775  79.4367  79.5563
    79.5997  79.6547  79.8831  79.9201  79.9656  80.0152  80.0697  80.0982
    80.1512  80.2594  80.2964  80.3585  80.4057  80.5694  80.6321  80.6810
    80.7815  80.8663  80.9160  80.9713  81.0224  81.1327  81.1505  81.1984
    81.3089  81.3979  81.4703  81.6291  81.7472  82.0200  82.2935  82.5898
    82.8348  82.9331  82.9646  83.0815  83.1353  83.1901  83.3451  83.3949
    83.4152  83.4477  83.5793  83.8019  84.0957  84.4064  84.5895  84.8994
    85.0932  85.2033  85.3901  85.4685  85.5655  85.6989  85.8413  85.9247
    85.9874  86.0386  86.1123  86.2147  86.3152  86.3558  86.4315  86.5079
    86.5414  86.6757  86.7413  86.9649  87.0066  87.0887  87.1001  87.3643
    87.5176  87.5955  87.9134  88.0064  88.2995  88.4682  88.5787  88.6981
    88.8990  88.9399  89.0202  89.1960  89.2993  89.3918  89.5435  89.5999
    89.6257  89.6929  89.7924  89.9012  89.9829  90.0429  90.1044  90.1755
    90.2550  90.2800  90.3553  90.3933  90.4125  90.4347  90.4979  90.5173
    90.5466  90.6034  90.7503  90.8493  90.9908  91.1157  91.2106  91.2540
    91.2936  91.7260  92.0889  92.3518  92.5962  92.6920  92.7695  93.0848
    93.2632  93.3215  93.3616  93.5080  93.6244  93.6507  93.8980  94.0340
    94.2920  94.4263  94.5806  94.6234  94.7530  94.8016  94.9893  95.0938
    95.2167  95.2783  95.4891  95.6280  95.7042  95.8744  95.9744  96.0509
    96.1952  96.2372  96.3334  96.4244  96.4783  96.5461  96.6203  96.8382
    96.9106  97.0028  97.0305  97.0718  97.1861  97.5721  97.6604  97.7800
    97.8064  97.8961  97.9359  98.0039  98.1429  98.2277  98.4185  98.4792
    98.6836  98.8018  98.9491  99.0770  99.1425  99.2795  99.3640  99.4257
    99.5610  99.7114  99.8356  99.8376  99.8967 100.0352 100.1084 100.1516
   100.1990 100.3041 100.3708 100.4403 100.4745 100.5072 100.6345 100.6582
   100.7706 100.8314 100.9619 101.0512 101.0908 101.2174 101.2640 101.3993
   101.5536 101.6125 101.8434 101.8745 102.2696 102.4741 102.5363 102.7826
   102.9867 103.2475 103.3636 103.6029 103.9491 103.9648 104.0905 104.2011
   104.3226 104.4506 104.5897 104.5997 104.8793 105.0301 105.0684 105.1865
   105.4965 105.7968 105.8579 105.9790 106.0529 106.1625 106.3050 106.3314
   106.4833 106.6416 106.6663 106.7767 106.8715 106.9534 106.9997 107.1075
   107.2682 107.3045 107.4506 107.5624 107.7084 107.7601 108.0072 108.1544
   108.3333 108.4674 108.5866 108.8651 108.9120 109.0318 109.1349 109.3221
   109.5346 109.5686 109.7010 109.7443 109.8796 110.0820 110.1739 110.2779
   110.3292 110.4130 110.5249 110.5411 110.5874 110.6648 110.7198 110.8780
   110.9646 111.0108 111.0738 111.2189 111.3209 111.4524 111.5228 111.6128
   111.6729 111.7076 111.7673 111.8747 111.9593 112.1051 112.2540 112.3545
   112.5087 112.5590 112.8068 112.8765 113.0929 113.2123 113.3102 113.3710
   113.4208 113.6012 113.7139 113.7766 113.8667 113.9685 114.1177 114.2652
   114.3164 114.7508 114.8582 114.9393 115.1810 115.4472 115.6696 115.7353
   115.8387 115.9063 116.0183 116.1454 116.2436 116.3215 116.4028 116.5448
   116.6524 116.7483 116.8009 116.9190 117.1038 117.1828 117.2590 117.2874
   117.4977 117.5561 117.7799 117.8163 118.0436 118.2569 118.4392 118.5944
   118.6827 118.7535 119.0070 119.1618 119.2556 119.4719 119.5070 119.6298
   119.7046 119.7662 119.8708 119.9481 120.1200 120.1321 120.2799 120.3724
   120.4382 120.5284 120.6132 120.6676 120.8038 120.8978 120.9345 121.0516
   121.1185 121.2312 121.3264 121.4010 121.4363 121.5935 121.6849 121.7786
   121.7946 121.8555 121.8981 122.0103 122.2376 122.2607 122.3496 122.3921
   122.7116 122.8363 122.9434 123.0705 123.1244 123.4188 123.4858 123.5526
   123.5877 123.6960 123.7208 123.8194 123.9985 124.0411 124.1450 124.1580
   124.2669 124.4422 124.5996 124.8168 124.8287 124.9523 124.9876 125.1351
   125.2932 125.4580 125.6438 125.7006 125.8999 125.9642 126.0330 126.0740
   126.1051 126.3055 126.3499 126.4607 126.5387 126.7045 126.8323 126.8565
   126.9058 126.9598 127.0126 127.1482 127.3336 127.4040 127.5166 127.5728
   127.7912 127.8530 127.9263 127.9596 128.0843 128.2041 128.2733 128.2969
   128.3934 128.4535 128.5336 128.5882 128.6663 128.8418 128.9647 129.0378
   129.2142 129.3432 129.3921 129.4933 129.6302 129.7427 129.8027 129.8701
   129.9289 130.0764 130.1100 130.1300 130.1651 130.1933 130.2553 130.2894
   130.4245 130.4537 130.4961 130.5552 130.6309 130.6569 130.8036 130.8805
   130.9585 130.9901 131.0774 131.0960 131.2067 131.2273 131.2961 131.3110
   131.4230 131.4378 131.5538 131.5759 131.6133 131.6776 131.7455 131.7914
   131.9002 131.9313 131.9570 132.0426 132.0796 132.2150 132.5574 132.7393
   132.9739 133.0447 133.2438 133.3469 133.4102 133.5080 133.5158 133.5506
   133.7220 133.9189 133.9869 134.1113 134.2624 134.3016 134.4922 134.6005
   134.7620 135.0076 135.0793 135.2292 135.4135 135.6001 135.7437 135.7723
   135.8914 136.0963 136.1114 136.2703 136.3116 136.4796 136.5186 136.6454
   136.7154 136.7296 136.8655 136.9338 137.0077 137.0245 137.1375 137.2092
   137.3519 137.3827 137.4477 137.4709 137.5454 137.6598 137.6805 137.8045
   137.9602 138.0095 138.1096 138.2020 138.2616 138.2892 138.4698 138.5703
   138.5812 138.7763 138.8377 138.9458 139.1420 139.2608 139.2892 139.4954
   139.5684 139.6036 139.6499 139.7821 139.8329 139.9413 140.0408 140.1891
   140.2466 140.3030 140.3476 140.4032 140.4414 140.5494 140.5755 140.7049
   140.7503 140.8173 140.8891 141.0106 141.0543 141.1221 141.1351 141.2485
   141.2702 141.2970 141.4404 141.4799 141.5423 141.5533 141.6443 141.6731
   141.8152 141.9717 141.9839 142.0438 142.1140 142.3740 142.4025 142.5368
   142.6370 142.8300 142.9396 143.0346 143.1623 143.2823 143.4511 143.5108
   143.7017 143.7482 143.8542 143.9936 144.0144 144.1082 144.2264 144.2731
   144.3364 144.4332 144.6505 144.7737 144.9089 144.9469 145.1200 145.3930
   145.4787 145.7537 145.8168 145.9126 146.0080 146.2404 146.3491 146.4289
   146.5201 146.6293 146.6939 146.8715 146.9423 146.9748 147.1088 147.1758
   147.1943 147.2891 147.3182 147.3474 147.4204 147.5318 147.6196 147.7871
   147.8235 147.8692 147.9396 147.9934 148.0655 148.1092 148.1376 148.2875
   148.4833 148.4987 148.5524 148.6027 148.7330 148.7567 148.8938 148.9761
   149.0842 149.1590 149.2319 149.3284 149.4215 149.5320 149.5618 149.7162
   149.7372 149.8119 149.8321 149.9382 150.0889 150.1046 150.2168 150.3030
   150.3494 150.4041 150.5553 150.5579 150.6361 150.7882 150.8042 150.8401
   150.9258 150.9684 151.0412 151.1116 151.1468 151.2189 151.2547 151.3261
   151.3424 151.3996 151.4426 151.5943 151.7027 151.7607 151.8871 151.9670
   152.0349 152.0846 152.1231 152.1880 152.2397 152.3116 152.4224 152.5600
   152.6516 152.7229 152.8855 153.0645 153.1344 153.2968 153.4482 153.5572
   153.5744 153.7072 153.7647 153.8176 153.8964 153.9090 153.9710 154.0379
   154.0457 154.1551 154.2405 154.2524 154.4375 154.4661 154.6424 154.6732
   154.7224 154.7971 154.8973 155.0085 155.2046 155.2575 155.4306 155.5204
   155.6194 155.6993 155.7564 155.8212 156.0102 156.1789 156.3247 156.4364
   156.5539 156.5823 156.6976 156.8217 156.8961 156.9329 157.1183 157.2457
   157.2659 157.3585 157.4098 157.5294 157.5709 157.6250 157.7767 157.8158
   157.9064 157.9434 158.0318 158.1033 158.1171 158.1362 158.3268 158.3541
   158.5380 158.6574 158.8223 158.8304 158.9136 159.0145 159.0324 159.0576

     the Fermi energy is    -1.9383 ev
     (compare with:    -0.8381 eV, computed in scf)

     Writing all to output data dir out/SbAs.save/
 
     init_run     :      0.20s CPU      0.25s WALL (       1 calls)
     electrons    :    305.99s CPU    314.58s WALL (       1 calls)

     Called by init_run:
     wfcinit      :      0.00s CPU      0.00s WALL (       1 calls)
     potinit      :      0.02s CPU      0.03s WALL (       1 calls)
     hinit0       :      0.04s CPU      0.07s WALL (       1 calls)

     Called by electrons:
     c_bands      :    305.99s CPU    314.58s WALL (       1 calls)
     v_of_rho     :      0.02s CPU      0.02s WALL (       1 calls)

     Called by c_bands:
     init_us_2    :      0.00s CPU      0.00s WALL (       4 calls)
     init_us_2:cp :      0.00s CPU      0.00s WALL (       4 calls)
     cegterg      :    298.54s CPU    306.92s WALL (       4 calls)

     Called by *egterg:
     cdiaghg      :    261.02s CPU    268.90s WALL (      57 calls)
     h_psi        :      6.76s CPU      6.90s WALL (      61 calls)
     g_psi        :      0.06s CPU      0.06s WALL (      53 calls)

     Called by h_psi:
     h_psi:calbec :      0.18s CPU      0.19s WALL (      61 calls)
     vloc_psi     :      6.34s CPU      6.46s WALL (      61 calls)
     add_vuspsi   :      0.16s CPU      0.16s WALL (      61 calls)

     General routines
     calbec       :      0.18s CPU      0.19s WALL (      61 calls)
     fft          :      0.01s CPU      0.03s WALL (      10 calls)
     fftw         :      5.56s CPU      5.66s WALL (   71078 calls)
 
     Parallel routines
 
     PWSCF        :   5m 7.00s CPU   5m16.13s WALL

 
   This run was terminated on:  23: 9:54   5Apr2024            

=------------------------------------------------------------------------------=
   JOB DONE.
=------------------------------------------------------------------------------=
