
     Program PWSCF v.7.1 starts on  5Dec2023 at  3:41: 3 

     This program is part of the open-source Quantum ESPRESSO suite
     for quantum simulation of materials; please cite
         "P. Giannozzi et al., J. Phys.:Condens. Matter 21 395502 (2009);
         "P. Giannozzi et al., J. Phys.:Condens. Matter 29 465901 (2017);
         "P. Giannozzi et al., J. Chem. Phys. 152 154105 (2020);
          URL http://www.quantum-espresso.org", 
     in publications or presentations arising from this work. More details at
     http://www.quantum-espresso.org/quote

     Parallel version (MPI), running on     8 processors

     MPI processes distributed on     1 nodes
     121797 MiB available memory on the printing compute node when the environment starts
 
     Reading input from pw_mp-661_nscf_k10_E67.in
Warning: card &IONS ignored
Warning: card / ignored
Warning: card &CELL ignored
Warning: card / ignored

     Current dimensions of program PWSCF are:
     Max number of different atomic species (ntypx) = 10
     Max number of k-points (npk) =  40000
     Max angular momentum in pseudopotentials (lmaxx) =  4

     Atomic positions and unit cell read from directory:
     out/mp-661.save/
     Atomic positions from file used, from input discarded
 
 
     R & G space division:  proc/nbgrp/npool/nimage =       8
     Subspace diagonalization in iterative solution of the eigenvalue problem:
     one sub-group per band group will be used
     scalapack distributed-memory algorithm (size of sub-group:  2*  2 procs)

 
     Parallelization info
     --------------------
     sticks:   dense  smooth     PW     G-vecs:    dense   smooth      PW
     Min          81      81     24                 2665     2665     427
     Max          82      82     26                 2672     2672     430
     Sum         649     649    199                21337    21337    3429
 
     Using Slab Decomposition
 


     bravais-lattice index     =            4
     lattice parameter (alat)  =       5.9122  a.u.
     unit-cell volume          =     286.9883 (a.u.)^3
     number of atoms/cell      =            4
     number of atomic types    =            2
     number of electrons       =        32.00
     number of Kohn-Sham states=         1200
     kinetic-energy cutoff     =      67.0000  Ry
     charge density cutoff     =     268.0000  Ry
     Exchange-correlation= PBE
                           (   1   4   3   4   0   0   0)

     celldm(1)=   5.912174  celldm(2)=   0.000000  celldm(3)=   1.603584
     celldm(4)=   0.000000  celldm(5)=   0.000000  celldm(6)=   0.000000

     crystal axes: (cart. coord. in units of alat)
               a(1) = (   1.000000   0.000000   0.000000 )  
               a(2) = (  -0.500000   0.866025   0.000000 )  
               a(3) = (   0.000000   0.000000   1.603584 )  

     reciprocal axes: (cart. coord. in units 2 pi/alat)
               b(1) = (  1.000000  0.577350  0.000000 )  
               b(2) = (  0.000000  1.154701  0.000000 )  
               b(3) = (  0.000000  0.000000  0.623603 )  


     PseudoPot. # 1 for Al read from file:
     /usr/scratch4/magr4985/MG/HTDF/pseudo/SG15/Al.upf
     MD5 check sum: 2d9e7bc02555220d62fad08c3c4858e7
     Pseudo is Norm-conserving, Zval = 11.0
     Generated using ONCVPSP code by D. R. Hamann
     Using radial grid of  602 points,  4 beta functions with: 
                l(1) =   0
                l(2) =   0
                l(3) =   1
                l(4) =   1

     PseudoPot. # 2 for N  read from file:
     /usr/scratch4/magr4985/MG/HTDF/pseudo/SG15/N.upf
     MD5 check sum: c233fa8df51455e992258b7c3dee8a9f
     Pseudo is Norm-conserving, Zval =  5.0
     Generated using ONCVPSP code by D. R. Hamann
     Using radial grid of  602 points,  4 beta functions with: 
                l(1) =   0
                l(2) =   0
                l(3) =   1
                l(4) =   1

     atomic species   valence    mass     pseudopotential
        Al            11.00    26.98150     Al( 1.00)
        N              5.00    14.00670     N ( 1.00)

      6 Sym. Ops. (no inversion) found



   Cartesian axes

     site n.     atom                  positions (alat units)
         1           Al  tau(   1) = (   0.0000000   0.5773502   0.8006489  )
         2           Al  tau(   2) = (   0.5000000   0.2886752   1.6024411  )
         3           N   tau(   3) = (   0.0000000   0.5773502   1.4122977  )
         4           N   tau(   4) = (   0.5000000   0.2886752   0.6105055  )

     number of k points=     4  Gaussian smearing, width (Ry)=  0.0005
                       cart. coord. in units 2pi/alat
        k(    1) = (   0.0000000   0.0000000   0.0000000), wk =   0.2500000
        k(    2) = (   0.0000000   0.0000000  -0.3118015), wk =   0.2500000
        k(    3) = (   0.0000000  -0.5773503   0.0000000), wk =   0.7500000
        k(    4) = (   0.0000000  -0.5773503  -0.3118015), wk =   0.7500000

     Dense  grid:    21337 G-vectors     FFT dimensions: (  32,  32,  50)

     Estimated max dynamical RAM per process >     123.07 MB

     Estimated total dynamical RAM >     984.52 MB

     The potential is recalculated from file :
     out/mp-661.save/charge-density

     Starting wfcs are random

     Band Structure Calculation
     Davidson diagonalization with overlap

     ethr =  5.00E-06,  avg # of iterations =  5.8

     total cpu time spent up to now is      367.5 secs

     End of band structure calculation

          k = 0.0000 0.0000 0.0000 (  2683 PWs)   bands (ev):

   -91.4185 -91.4173 -52.9479 -52.9380 -52.9242 -52.9242 -52.9225 -52.9225
    -5.7772  -3.6814   3.3616   8.4315   8.4315   9.0774   9.0774   9.2758
    13.3381  15.8180  19.7270  20.3531  20.3531  22.2067  22.2940  22.2940
    23.7673  23.7673  23.9846  26.5675  26.5675  28.5347  31.3723  31.9497
    31.9497  33.1433  36.2154  36.2154  38.4588  40.3783  40.4330  40.4330
    43.3526  43.3526  45.6599  45.6599  46.2818  47.5742  47.6667  47.6667
    49.3360  51.3996  54.0473  54.0473  56.6246  56.6246  58.0789  61.1418
    61.5782  63.4350  63.4350  63.7908  64.7685  64.7685  65.3620  65.3620
    66.1983  66.1983  67.6358  69.2785  70.5234  70.9441  71.0507  71.0507
    72.3004  72.3004  72.4369  72.4369  74.3832  74.3832  74.8982  76.0274
    76.7083  76.7083  77.4652  77.4652  77.7043  80.5769  80.9606  80.9606
    81.4296  81.4296  81.5869  81.5869  82.4702  82.5837  83.1870  83.3069
    83.4298  83.4298  86.2876  86.2876  86.3807  87.0097  87.8251  90.0426
    90.1843  90.1843  90.8187  90.8187  93.4578  98.0193  98.0193  99.6657
    99.6657  99.7538 100.3445 100.3445 101.5261 101.5261 101.6301 103.1338
   103.3372 108.3481 108.7220 108.7220 109.1926 109.1926 109.5423 109.5423
   110.8637 110.9380 110.9380 111.3120 111.3529 111.3529 112.3171 112.7931
   112.8905 112.8905 113.3313 113.3313 116.3956 116.3956 118.3923 121.3407
   121.4535 121.4535 122.4791 126.9124 127.1166 127.1166 129.0751 129.0751
   129.4597 129.4597 129.8697 129.8697 132.0997 132.3451 132.7117 132.9020
   133.0075 133.0075 134.1941 134.1941 134.5397 135.1236 135.5544 138.1423
   138.1922 138.9738 138.9738 140.4558 140.4558 140.9306 140.9565 140.9565
   142.9806 143.4056 143.4056 143.8894 144.6561 144.6561 144.6925 145.3142
   145.3142 146.8600 146.9687 147.5954 147.5954 148.0322 148.0322 150.1312
   150.1312 150.2958 150.4710 150.4710 150.8766 151.2084 151.8357 151.8357
   152.3014 152.3014 153.7608 153.8768 153.8768 154.4193 154.4193 154.5493
   154.6126 158.6132 158.6132 159.0234 159.6942 161.0810 161.2570 161.2570
   161.8100 162.8751 162.8751 163.0042 163.1591 163.1591 163.1733 163.1733
   163.9307 164.3390 164.7418 164.7419 165.3124 165.3124 165.8193 165.8193
   166.1391 166.4118 167.4558 167.4558 168.0716 168.0716 168.6700 168.6700
   171.6728 171.9312 171.9312 172.1103 172.1103 172.1888 172.8198 173.0016
   173.0016 174.5098 174.5098 175.2070 176.1527 177.4896 177.9134 177.9134
   178.4889 179.4739 179.4739 179.5711 180.8662 181.7079 181.7079 183.1619
   183.1619 184.8163 186.2368 186.2368 187.5177 187.5177 187.6490 187.7529
   187.7529 188.3818 189.1563 189.6034 189.6034 190.0305 190.8174 190.8174
   191.5665 191.8357 191.8357 191.9560 194.1790 194.7567 194.7567 195.0001
   195.0001 195.6524 195.8601 196.0371 197.2882 197.4692 197.4692 198.2199
   198.3789 198.3789 199.9014 199.9014 201.0924 201.0924 201.5906 201.6487
   202.9421 202.9421 203.5430 205.4465 205.4465 205.4672 205.4672 207.1428
   207.7147 207.7147 208.3040 208.3253 213.0790 214.7606 214.7606 214.8709
   215.3958 215.3958 216.5664 219.3732 219.3732 220.6605 221.3285 221.3285
   221.4957 221.4957 221.9493 223.0964 224.5341 224.5341 224.9744 224.9744
   225.5043 225.5043 225.8452 225.9375 225.9375 228.6870 228.6870 228.9856
   229.1138 229.1138 229.2628 229.7327 230.2633 230.2633 230.3748 231.2602
   231.2602 231.2670 231.7913 231.8908 231.9347 231.9347 232.2152 232.2152
   232.8050 232.8050 232.9195 232.9195 233.1070 234.1018 234.4481 234.4846
   234.4846 234.6076 234.6076 235.7896 235.8870 235.8870 236.5041 236.5041
   236.6952 236.6952 236.8123 236.8123 237.3774 237.3835 237.7196 238.2150
   239.9895 240.7282 240.7282 242.4564 242.4564 246.6979 246.6979 247.3466
   248.1564 249.6710 250.2784 250.2784 252.0579 252.0579 252.7772 252.9796
   252.9796 254.2030 255.5367 255.6001 256.0323 257.9290 257.9290 258.0908
   258.3241 258.3241 260.0073 260.2486 260.2486 260.7220 260.7220 261.0175
   261.1587 261.2712 261.2712 261.9303 261.9303 263.0343 263.4007 263.4007
   263.4812 263.4812 263.8935 264.5152 265.8051 265.8051 265.9893 265.9893
   266.3649 266.3649 266.6254 266.6254 266.7316 266.9715 267.7898 267.7898
   268.0226 268.0526 268.5603 269.2261 269.7760 269.7760 270.2292 270.2292
   270.6569 270.6569 271.3086 271.3957 271.3957 271.6658 271.6658 272.1757
   272.1757 272.2724 272.5462 272.5462 273.3347 273.7473 273.7864 273.8580
   274.1444 275.0084 275.2613 275.2613 276.0085 276.0085 276.3800 278.6579
   278.6579 278.9611 278.9611 280.1780 280.4320 280.4320 280.5102 280.5102
   281.0710 281.3587 281.3587 281.3750 282.7526 282.7526 283.2854 283.6750
   283.7800 284.1185 284.1185 284.8122 284.8122 284.9304 284.9304 285.2890
   285.3968 285.9129 285.9129 286.2994 287.2766 287.2766 287.7737 287.7955
   287.9370 288.0130 288.0130 288.4253 289.1153 289.1153 289.1192 289.3900
   289.3900 289.8785 289.8785 290.5879 290.5879 290.7703 290.8165 291.0831
   291.7165 291.7165 292.1628 292.1870 292.1870 292.1950 292.8204 292.8204
   292.8537 292.8537 293.3014 293.3014 293.5986 293.5986 293.7593 293.9071
   294.2489 294.5812 298.6149 299.5536 299.5536 304.1861 304.1861 305.2958
   305.2958 305.5243 305.7237 305.7237 306.1089 306.1089 307.4730 308.8225
   308.8225 308.8568 310.6517 310.6517 310.7262 310.7262 311.0827 311.9313
   312.7193 313.7200 314.2303 314.5244 314.5244 315.6705 315.6705 316.1221
   316.1221 316.6670 316.6670 316.8073 316.8073 317.4163 317.4341 317.4341
   317.6280 318.5469 319.0122 319.0122 319.3052 319.4557 319.4557 320.1060
   322.3090 322.5444 322.5444 322.6379 323.0603 323.1382 323.1382 325.5269
   325.5269 325.9977 325.9977 326.5214 326.8555 327.2643 328.9813 328.9813
   329.4315 329.5536 329.5536 330.0645 330.0645 331.7757 331.9837 331.9960
   331.9960 332.1564 332.1564 332.8986 332.8986 333.1670 333.1834 333.1834
   333.4498 337.0885 337.0885 337.5162 337.6752 339.9753 341.1552 341.1552
   341.2612 341.2612 342.8686 342.8686 343.1328 343.2918 343.9682 343.9682
   344.4108 344.4109 345.0919 345.0919 345.1122 345.3621 346.1395 346.1395
   347.1675 347.1675 347.3453 348.2962 348.4076 348.6132 350.6657 350.8211
   350.8211 351.0150 351.0150 351.4049 351.4049 351.4188 351.4188 351.5875
   352.0012 352.0012 352.0110 352.0110 353.3339 353.3802 353.3810 354.1506
   354.1506 354.1684 354.2427 354.2427 356.1201 356.3168 356.3514 356.3514
   356.4056 356.4056 356.5283 356.9867 356.9867 357.0493 357.4221 357.4391
   357.4729 357.4729 358.5952 358.5952 358.7999 358.7999 359.1564 359.3553
   361.5368 361.5368 363.0433 364.6094 364.6094 365.2921 365.2921 366.7749
   366.7749 367.7561 369.1021 369.3660 369.3660 369.6094 369.6094 369.6250
   369.6250 370.1998 370.6938 370.7633 370.7633 371.1555 371.2334 371.2334
   371.5256 372.6910 372.8970 372.8970 372.9497 373.0237 374.0498 374.1971
   374.4924 374.4924 374.8518 374.8518 375.0292 378.4727 378.9315 378.9315
   379.5728 380.0624 380.0624 382.2194 382.2194 382.2213 384.1728 384.4890
   384.4890 384.9474 385.1528 385.1528 385.2731 385.3057 385.3057 385.9628
   386.2755 386.2755 386.6260 386.6559 386.6559 386.8864 387.1898 388.7502
   388.7502 389.0200 389.0773 389.0773 390.8741 390.8868 390.8868 391.0426
   391.0426 391.1169 391.5643 391.5643 391.7277 391.7277 392.3695 392.6074
   392.6405 394.7033 394.7033 394.8813 394.8813 394.9863 394.9863 395.0171
   395.0171 395.2420 395.2572 395.6360 395.6360 396.6164 397.6861 397.6862
   398.7207 398.7207 399.5577 400.2221 400.4667 400.4667 400.5281 400.5281
   401.8677 401.8677 402.0702 402.1513 402.1513 402.3909 403.6858 403.9529
   403.9529 404.3285 404.3285 404.5543 404.5687 404.5687 406.3478 406.5805
   406.8180 407.6553 407.8383 408.0643 408.0781 408.0781 408.9141 408.9141
   408.9258 408.9258 409.5015 409.5015 409.8105 410.8337 410.8337 411.3302
   411.5025 411.5025 411.5541 412.4077 412.4077 412.5308 412.5308 412.6293
   412.6293 413.2210 413.2450 413.6813 413.6813 413.8530 414.3930 415.0895
   415.0895 415.2602 415.2602 416.1345 416.1345 416.2272 416.5117 416.5117
   416.6255 416.9624 418.8106 418.8763 419.8132 419.8132 419.9815 420.2092
   420.2092 420.6022 420.6022 421.0064 421.0064 421.0522 422.1568 423.6386
   423.6386 423.7735 423.9210 423.9210 424.2981 424.2981 424.9354 424.9354
   425.2819 425.4517 426.3286 427.1459 427.6470 427.6470 427.6474 427.6474
   428.0408 428.0930 428.1554 428.6075 428.6075 428.9935 429.4071 429.4071
   430.4055 430.5673 430.5673 430.8082 430.8082 431.0281 431.0281 431.0293
   431.6025 431.6025 431.9266 431.9691 431.9691 432.2882 432.2931 432.2931
   432.4972 433.0677 433.0677 433.4006 433.4006 433.7601 433.9460 433.9460
   434.0200 434.0200 434.1352 434.8315 434.8315 434.9995 435.0474 435.5343
   435.5343 435.8643 435.8878 437.1004 438.1115 438.1115 438.3606 438.3606
   438.6232 438.6232 439.2515 439.2515 439.3198 439.3198 439.4483 439.4483
   439.4885 439.8460 439.8766 439.8766 439.8914 441.7487 441.7503 442.8185
   442.8185 443.6887 444.9108 445.4072 445.4072 445.6980 446.2212 446.2212
   446.8691 447.7072 449.2552 449.6033 449.6033 450.1279 450.1279 450.3351
   450.4693 450.6039 450.6039 451.0962 451.0962 451.1752 451.3944 451.4374
   451.6353 451.6354 451.8418 451.8418 452.0206 452.0206 452.4059 452.4059
   453.4572 453.5507 453.7505 453.7505 454.0658 454.0658 455.7571 456.8602
   458.7561 458.7561 458.7806 458.7806 459.5547 459.5547 460.4222 460.6488
   461.1170 461.1170 462.8180 463.9087 463.9087 464.0219 464.0219 464.3045
   464.3045 464.6758 465.5419 466.2535 467.5669 467.5669 468.0497 468.0497
   468.2604 468.2604 469.4508 469.7168 469.7746 469.8630 470.0571 470.1322
   471.3153 471.3153 471.3365 471.3526 471.3526 471.5223 471.5223 471.6045
   471.6045 472.5458 473.2468 473.5907 473.5907 473.6056 473.7335 473.7335
   473.9064 474.2851 474.5434 474.6894 474.6894 475.1423 475.1423 475.6758
   475.6961 475.6961 476.0277 476.0277 476.3846 476.3846 476.5089 476.5089
   477.0646 477.1341 477.4466 477.6213 477.6710 477.9903 477.9903 478.0401
   478.0401 478.1060 478.1060 478.1733 478.2861 478.4020 478.4020 479.2395
   479.2574 479.2574 479.4536 479.4536 479.5915 479.6670 479.6670 479.7021
   479.7861 479.7861 480.0381 480.4406 480.6836 481.0001 481.0001 481.5719
   481.5719 482.1236 482.1236 482.1811 482.2843 482.2843 482.4040 482.5320
   483.7575 496.0641 496.0642 496.3815 496.3815 498.1742 498.1742 499.1213
   500.5745 500.5909 500.5909 501.5096 501.5096 501.5875 501.5875 501.6705
   501.6705 502.0141 502.0303 502.0303 502.1818 502.8799 504.8222 504.9053
   508.1441 508.1441 508.9072 509.2502 509.2502 510.5634 510.5634 511.0292
   511.7185 511.7185 511.7784 511.7784 511.8673 512.0305 512.0305 512.3675
   513.1480 513.1480 514.0576 514.0576 515.2353 515.2353 515.3652 515.8788
   516.5503 516.8797 516.8797 517.2734 517.3085 517.3310 519.0088 519.3675
   519.4390 519.4390 519.5626 519.8940 519.8940 520.2166 520.2166 520.2690
   520.2690 520.9259 521.3136 521.3136 521.4441 521.4441 521.8389 521.9218
   522.1606 522.1606 523.1850 523.1850 523.4713 523.4713 524.3110 524.3110
   524.3905 524.3942 525.2945 525.9465 525.9465 526.5987 526.5988 527.1738
   527.1738 527.4235 527.4704 527.4704 527.7412 527.7682 527.7682 527.8761
   528.0215 528.3639 528.3639 528.6831 528.6831 528.8131 529.3032 529.3244
   529.3244 529.4408 529.4408 529.8242 529.9768 530.0571 530.1150 530.3100

          k = 0.0000 0.0000-0.3118 (  2652 PWs)   bands (ev):

   -91.4177 -91.4177 -52.9430 -52.9430 -52.9234 -52.9234 -52.9234 -52.9234
    -4.9077  -4.9077   5.9768   5.9768   8.7459   8.7459   8.7459   8.7459
    15.5992  15.5992  19.4587  19.4587  20.6708  20.6708  20.6708  20.6708
    27.0769  27.0769  27.0802  27.0802  27.0802  27.0802  31.1490  31.1490
    31.1490  31.1490  33.8523  33.8523  38.5202  38.5202  42.9119  42.9119
    42.9119  42.9119  42.9608  42.9608  50.3972  50.3972  50.3972  50.3972
    54.9229  54.9229  54.9229  54.9229  55.5617  55.5617  57.5023  57.5023
    57.5023  57.5023  59.3496  59.3496  63.4775  63.4776  66.3727  66.3727
    67.8408  67.8409  67.8409  67.8409  69.3168  69.3168  69.3168  69.3168
    72.2400  72.2400  72.8203  72.8203  75.0116  75.0116  75.0116  75.0116
    77.9086  77.9086  78.7809  78.7809  78.7809  78.7809  79.1293  79.1293
    84.5565  84.5565  84.5565  84.5565  85.3505  85.3505  87.1191  87.1191
    87.1191  87.1191  89.8908  89.8908  89.8908  89.8908  90.5382  90.5382
    91.1097  91.1097  91.1097  91.1097  92.3834  92.3834  94.5309  94.5309
    94.5309  94.5309  96.2557  96.2557  96.4960  96.4960  96.4960  96.4960
    97.4754  97.4754 104.9528 104.9528 107.9049 107.9049 107.9049 107.9049
   111.9346 111.9346 113.6043 113.6043 113.6043 113.6043 115.0987 115.0988
   119.7654 119.7654 119.7654 119.7654 121.3630 121.3630 123.3821 123.3821
   125.4735 125.4735 125.4735 125.4735 127.8586 127.8586 127.8586 127.8586
   129.4960 129.4960 130.9865 130.9865 131.4572 131.4572 131.4572 131.4572
   134.6263 134.6263 135.2352 135.2352 135.2352 135.2352 137.7147 137.7147
   137.7147 137.7147 138.2128 138.2128 139.5329 139.5329 139.5329 139.5329
   141.9908 141.9908 142.3984 142.3984 143.7967 143.7967 143.7967 143.7967
   146.6282 146.6282 146.6470 146.6470 146.6470 146.6470 149.1672 149.1672
   149.1672 149.1672 149.9735 149.9735 149.9735 149.9735 150.4113 150.4113
   150.9553 150.9553 151.6994 151.6994 151.6994 151.6994 152.6972 152.6972
   154.4029 154.4029 154.6510 154.6510 154.6510 154.6510 156.1118 156.1118
   156.7519 156.7519 156.7519 156.7519 164.8296 164.8296 165.2220 165.2220
   165.2220 165.2220 167.5059 167.5060 169.7488 169.7488 169.7488 169.7488
   172.6732 172.6732 172.8846 172.8846 172.8846 172.8846 173.3936 173.3936
   174.8938 174.8938 174.8938 174.8939 174.9365 174.9365 176.5803 176.5803
   176.5803 176.5803 177.3705 177.3705 178.6050 178.6050 179.0627 179.0627
   179.0627 179.0627 180.1118 180.1118 180.1118 180.1118 180.2585 180.2585
   180.8380 180.8380 184.2694 184.2694 184.2694 184.2694 186.9387 186.9387
   190.2759 190.2759 190.2759 190.2759 191.6897 191.6897 191.6897 191.6897
   192.2587 192.2587 193.0806 193.0806 193.0806 193.0806 194.0829 194.0829
   195.8266 195.8266 197.0305 197.0305 197.0305 197.0305 198.5738 198.5738
   198.5738 198.5738 198.8549 198.8549 199.9624 199.9624 199.9624 199.9624
   203.5791 203.5791 204.0371 204.0371 204.0371 204.0371 207.3440 207.3440
   207.3440 207.3440 207.4452 207.4452 208.7488 208.7488 212.1668 212.1668
   212.1668 212.1668 214.1964 214.1964 214.1964 214.1964 214.6474 214.6474
   215.1333 215.1333 215.2657 215.2657 215.2657 215.2657 217.3176 217.3176
   221.0417 221.0417 222.4881 222.4881 222.4881 222.4881 227.8041 227.8041
   227.8041 227.8041 229.3527 229.3527 232.0257 232.0257 232.0257 232.0257
   233.0269 233.0269 234.1058 234.1058 234.1411 234.1411 234.1411 234.1411
   236.3094 236.3094 236.3094 236.3094 239.5715 239.5715 239.7504 239.7504
   243.2627 243.2627 243.4693 243.4693 243.4693 243.4693 246.0797 246.0797
   246.0797 246.0797 247.2640 247.2640 249.6278 249.6278 249.6278 249.6278
   249.8656 249.8656 250.1005 250.1005 252.2636 252.2636 252.2636 252.2636
   252.6650 252.6650 252.6650 252.6650 253.2253 253.2253 253.9541 253.9541
   253.9541 253.9541 255.1204 255.1204 255.7295 255.7295 255.7295 255.7295
   257.0090 257.0090 257.3441 257.3441 257.5797 257.5797 257.5797 257.5797
   258.3732 258.3732 258.4387 258.4387 258.4387 258.4387 260.0274 260.0274
   260.0274 260.0274 260.5729 260.5729 260.8541 260.8541 261.6692 261.6692
   261.6692 261.6692 262.9593 262.9593 262.9593 262.9593 263.2168 263.2168
   263.9709 263.9709 263.9709 263.9709 264.3471 264.3471 264.4834 264.4834
   266.0478 266.0478 266.0478 266.0478 268.2523 268.2523 268.2523 268.2523
   269.2130 269.2130 270.1432 270.1432 270.1432 270.1432 270.3427 270.3427
   270.8175 270.8175 270.8175 270.8175 273.4076 273.4076 273.6396 273.6396
   273.8074 273.8074 273.8074 273.8074 274.9180 274.9180 274.9180 274.9180
   277.4260 277.4260 277.4260 277.4260 277.5847 277.5847 277.9838 277.9838
   277.9838 277.9838 278.3161 278.3161 278.7796 278.7796 286.3111 286.3111
   286.3111 286.3111 287.8748 287.8748 289.6017 289.6017 289.6017 289.6017
   289.9850 289.9850 294.7435 294.7435 294.7435 294.7435 295.7331 295.7331
   297.4316 297.4316 297.5454 297.5454 297.5454 297.5454 298.5659 298.5659
   298.8600 298.8600 298.8600 298.8600 299.8698 299.8698 300.5920 300.5920
   300.5920 300.5920 300.9225 300.9225 300.9225 300.9225 301.1195 301.1195
   304.6285 304.6285 304.7765 304.7765 304.7765 304.7765 307.4204 307.4204
   307.4204 307.4204 309.7491 309.7491 309.7491 309.7491 310.2048 310.2048
   310.2687 310.2687 310.2687 310.2687 310.5949 310.5949 311.2036 311.2036
   314.1757 314.1757 314.1757 314.1757 315.3736 315.3736 316.7667 316.7667
   316.7667 316.7667 317.1803 317.1803 317.1980 317.1980 317.4914 317.4914
   317.4914 317.4914 319.2276 319.2276 319.2536 319.2536 319.2536 319.2536
   322.1601 322.1601 322.1601 322.1601 323.0415 323.0415 323.2583 323.2583
   324.9539 324.9539 324.9539 324.9539 325.2616 325.2616 326.4390 326.4390
   326.4390 326.4390 328.8373 328.8373 328.9276 328.9276 328.9276 328.9276
   329.5988 329.5988 329.5988 329.5988 330.1517 330.1517 331.4077 331.4077
   333.4823 333.4823 333.5938 333.5938 334.7502 334.7502 334.7502 334.7502
   335.0314 335.0314 335.0314 335.0314 335.7705 335.7705 335.7705 335.7705
   335.7971 335.7971 336.4476 336.4476 336.4476 336.4476 336.9092 336.9092
   338.5537 338.5537 347.7929 347.7929 347.7929 347.7929 349.1772 349.1772
   349.1772 349.1772 350.1849 350.1849 353.0177 353.0177 353.0177 353.0177
   354.3324 354.3324 354.3324 354.3324 354.3623 354.3623 355.9310 355.9310
   355.9310 355.9310 356.2991 356.2991 357.1997 357.1997 357.4950 357.4950
   357.4950 357.4950 358.2638 358.2638 358.3833 358.3833 358.3833 358.3833
   359.6795 359.6795 359.6795 359.6795 359.9817 359.9817 360.7750 360.7750
   366.7192 366.7192 366.7192 366.7192 369.8169 369.8169 370.4846 370.4846
   370.4846 370.4846 371.5965 371.5965 371.5965 371.5965 372.0940 372.0940
   373.6464 373.6464 375.5682 375.5682 375.5682 375.5682 378.2628 378.2628
   378.2628 378.2628 378.6222 378.6222 379.5621 379.5622 379.7385 379.7385
   381.0414 381.0414 381.0414 381.0414 382.1485 382.1485 382.1485 382.1485
   382.7809 382.7809 383.1917 383.1917 383.1917 383.1917 383.8584 383.8584
   384.3330 384.3330 384.3330 384.3330 384.8888 384.8888 384.9027 384.9027
   384.9027 384.9027 384.9032 384.9032 388.0809 388.0809 388.0809 388.0809
   388.1569 388.1569 388.9264 388.9264 389.8494 389.8494 389.8494 389.8494
   391.1510 391.1510 391.1510 391.1510 392.0274 392.0274 392.0274 392.0274
   392.3168 392.3168 393.5318 393.5318 393.5318 393.5318 393.8014 393.8014
   393.8014 393.8014 394.0544 394.0544 394.3348 394.3348 394.8099 394.8099
   394.8099 394.8099 394.8537 394.8537 395.2181 395.2181 395.2181 395.2181
   395.7556 395.7556 397.3001 397.3001 399.2187 399.2187 399.2187 399.2187
   399.6760 399.6760 399.6760 399.6760 399.7642 399.7642 399.9085 399.9085
   403.8693 403.8693 406.3182 406.3182 406.3182 406.3182 408.9303 408.9303
   408.9303 408.9303 411.9881 411.9881 412.1065 412.1065 412.1065 412.1065
   412.8215 412.8215 412.8215 412.8215 413.5019 413.5019 413.9723 413.9723
   415.0624 415.0624 415.1030 415.1030 415.1030 415.1030 416.2303 416.2303
   416.2303 416.2303 416.6942 416.6942 419.2574 419.2575 419.5887 419.5887
   419.5887 419.5887 419.9719 419.9719 420.4378 420.4378 420.4378 420.4378
   421.4253 421.4253 421.7266 421.7266 421.7266 421.7266 422.0614 422.0614
   422.3453 422.3453 422.3453 422.3453 423.3119 423.3119 424.4537 424.4537
   425.5521 425.5521 425.5521 425.5521 426.6750 426.6750 426.8018 426.8018
   426.8018 426.8018 427.2409 427.2409 427.2409 427.2409 427.5160 427.5160
   427.9007 427.9007 428.2720 428.2720 428.2720 428.2720 429.4036 429.4036
   430.9874 430.9874 430.9874 430.9874 433.0507 433.0507 433.4060 433.4060
   433.4060 433.4060 434.6396 434.6396 434.9650 434.9650 434.9650 434.9650
   436.3489 436.3489 436.3489 436.3489 437.2925 437.2925 439.7582 439.7582
   440.0295 440.0295 440.0616 440.0616 440.0616 440.0616 440.2832 440.2832
   440.5125 440.5125 440.5125 440.5125 440.7985 440.7985 441.4580 441.4580
   441.4580 441.4580 442.4906 442.4906 442.4906 442.4906 443.2357 443.2357
   443.8620 443.8620 443.8620 443.8620 444.3547 444.3547 444.3547 444.3547
   444.4118 444.4118 444.4118 444.4118 444.5081 444.5081 445.0692 445.0692
   448.1947 448.1947 449.5219 449.5219 449.5219 449.5219 450.1264 450.1264
   450.1264 450.1264 451.0108 451.0108 451.0108 451.0108 451.2908 451.2908
   451.4188 451.4188 454.7628 454.7628 454.7628 454.7628 455.5305 455.5305
   456.4571 456.4571 456.4571 456.4571 458.3170 458.3170 458.3669 458.3669
   458.3669 458.3669 458.8831 458.8831 459.3738 459.3738 459.3738 459.3738
   460.4185 460.4185 462.6549 462.6549 463.2028 463.2028 463.2028 463.2028
   463.3783 463.3783 463.7037 463.7037 463.7037 463.7037 464.2659 464.2659
   464.2659 464.2659 464.5053 464.5053 467.0024 467.0025 467.0025 467.0025
   470.3336 470.3336 471.3450 471.3450 474.1270 474.1270 474.1270 474.1270
   476.0921 476.0922 477.1411 477.1411 477.1411 477.1411 478.2761 478.2761
   480.2754 480.2754 480.2754 480.2754 484.2400 484.2400 484.2400 484.2400
   487.3013 487.3013 487.3294 487.3294 487.3294 487.3294 488.6037 488.6037
   488.6037 488.6037 489.4553 489.4553 489.4675 489.4675 489.7903 489.7903
   489.7903 489.7903 491.1674 491.1674 491.1674 491.1674 491.7208 491.7208
   491.9723 491.9723 494.4022 494.4022 494.4022 494.4022 495.0284 495.0284
   495.7504 495.7504 495.7504 495.7504 496.5044 496.5044 498.2544 498.2544
   499.1168 499.1168 499.1168 499.1168 499.3306 499.3306 499.3754 499.3754
   499.3754 499.3754 500.2035 500.2035 500.2035 500.2035 500.5349 500.5349
   500.5349 500.5349 501.0851 501.0851 501.3791 501.3791 502.3410 502.3410
   502.7569 502.7569 502.7569 502.7569 503.3655 503.3655 503.3655 503.3655
   503.4867 503.4867 503.8473 503.8473 503.8473 503.8473 504.8925 504.8925
   506.3146 506.3146 506.3146 506.3146 506.3445 506.3445 506.8247 506.8247
   506.8247 506.8247 506.9592 506.9592 507.5111 507.5111 507.5111 507.5111
   507.6702 507.6702 508.0083 508.0083 508.0083 508.0083 509.5422 509.5422
   509.6258 509.6258 509.6258 509.6258 510.8149 510.8149 513.6683 513.6683
   514.1721 514.1721 514.5118 514.5118 514.5118 514.5118 514.9242 514.9242
   514.9242 514.9242 515.9743 515.9743 515.9743 515.9743 516.1376 516.1376
   516.1376 516.1376 516.2408 516.2408 516.5824 516.5824 518.1218 518.1218
   518.1218 518.1218 519.1064 519.1064 519.1064 519.1064 519.1484 519.1484
   520.1460 520.1460 524.9040 524.9040 532.2626 532.2626 533.5673 533.5673

          k = 0.0000-0.5774 0.0000 (  2662 PWs)   bands (ev):

   -91.4174 -91.4170 -52.9440 -52.9407 -52.9307 -52.9294 -52.9263 -52.9239
    -3.8501  -3.1702   3.8961   5.1513   5.9748   7.2155   7.5271   8.5918
    15.0655  15.0719  17.3232  19.4435  20.1411  21.2191  22.0079  24.2094
    24.5670  27.8670  28.0487  28.4816  31.9840  32.4472  33.1567  33.2094
    34.2290  35.1177  36.6869  36.6954  38.2620  39.7475  40.4693  40.5242
    42.4249  43.4168  43.8057  43.9905  44.3525  45.8021  49.4936  50.3568
    50.4534  50.5257  52.3676  53.0160  54.6512  54.8186  55.0524  56.1323
    56.5263  56.5946  56.9509  57.3333  61.5683  62.6096  63.3459  63.5570
    64.1664  64.3993  64.9154  66.3891  67.0842  67.4172  68.2255  69.0139
    69.3236  69.7441  71.8236  71.8943  72.0550  74.5879  74.8305  76.0027
    77.3251  78.0101  78.7224  79.2630  81.5882  83.5941  83.7808  84.2601
    85.0036  85.3245  85.6085  86.1979  86.4604  86.8860  87.4148  89.0537
    89.2869  90.1692  90.6065  91.3019  91.3714  91.6820  93.0234  93.2584
    94.4576  95.5044  96.4711  97.5324  98.2099  98.8132  99.0231  99.2792
   100.8957 101.4436 101.7122 102.8860 102.9934 103.0610 103.7214 103.7229
   104.4518 104.6894 106.6012 107.8872 108.1857 108.5254 109.4200 109.6726
   110.1113 110.7640 111.4912 111.8862 112.0069 112.8200 114.7343 114.8882
   114.9697 115.3682 116.2127 116.4267 116.5934 116.7188 117.7606 118.3994
   119.1466 120.2539 121.0687 121.9594 121.9697 122.2963 122.8679 123.1914
   123.5923 124.7463 125.0489 125.6933 126.6378 127.2052 127.2523 127.4408
   127.6348 128.0561 128.3158 128.6896 129.2409 129.4935 129.5972 130.9131
   131.9570 133.5927 133.9998 134.0759 134.6361 136.2904 138.9329 139.5394
   140.2886 140.5720 141.3254 142.2735 142.2981 142.8650 143.2313 144.1381
   144.7426 144.8228 145.5445 145.6108 146.6345 146.8691 147.3301 147.6192
   148.1503 148.5659 148.7096 149.0589 150.2875 150.6739 152.0900 152.2736
   152.3076 152.8294 153.5798 154.3659 154.8334 155.2162 155.6865 156.3370
   156.7653 157.6876 158.2907 158.4786 158.5786 159.0076 159.5666 159.7542
   160.1211 160.5220 160.7738 160.8843 161.0599 162.8243 163.0659 163.0662
   163.0678 164.7209 165.9921 167.7120 167.8640 168.2936 169.9736 170.6510
   170.8454 171.3758 172.3878 174.2078 174.2857 174.3808 174.7372 174.9576
   175.7215 176.0601 177.0523 177.1745 177.5984 178.0894 178.1575 178.2274
   179.0025 179.6224 180.4013 180.7558 180.8096 181.5222 182.4508 182.5504
   182.8960 183.3044 183.4883 184.6356 184.6787 185.6514 186.2080 186.6136
   186.9738 187.2597 187.6440 187.7762 188.3421 188.7632 188.8909 189.6888
   191.0262 191.0610 191.6548 193.0260 193.1554 193.3148 194.1003 194.3311
   194.7268 195.3190 196.4030 196.5641 196.8739 197.2740 197.6483 198.1669
   199.3131 199.3140 199.8799 200.0244 201.0477 201.5615 201.8993 201.9935
   202.9342 202.9742 203.7703 203.8091 204.5218 204.5841 204.8609 204.9408
   205.5885 206.2898 206.4094 206.6861 207.0230 207.0563 207.3765 207.5122
   207.6939 209.4621 209.6846 210.3129 210.3698 210.6702 210.8818 211.0767
   211.1947 211.6560 211.7292 211.9175 212.2473 212.6551 214.1603 214.4793
   215.0703 215.1627 215.7023 216.7290 218.2085 218.5923 219.0980 219.1058
   220.0532 220.3189 221.1688 221.2154 221.8477 222.0681 222.4840 222.6956
   223.1644 223.5577 223.8049 224.4484 225.2784 226.0516 226.1985 227.2112
   227.4233 227.7546 228.4646 228.6934 229.0969 229.5553 230.7905 231.6385
   232.0912 232.8658 233.2073 233.5690 233.7615 234.2014 234.8269 235.0485
   236.0571 236.1369 236.1840 236.5468 237.4673 238.0422 238.0819 238.4247
   238.7806 239.2379 239.2996 239.3678 239.6456 240.7075 240.9025 240.9444
   241.5784 242.1236 242.2465 242.3603 243.3124 243.4669 244.2188 245.1089
   245.1121 245.3080 246.0520 246.1422 246.3293 246.5115 246.7461 247.0560
   247.3698 247.4300 248.1843 248.5649 248.6433 248.8131 248.9014 249.5671
   249.7715 249.8854 250.0818 250.1131 250.7357 250.9388 251.3870 251.8002
   251.9877 252.5261 252.9686 253.1525 253.1735 253.4493 254.6288 255.0090
   256.1238 256.2139 256.7062 257.0858 258.7576 260.0245 261.1725 261.4749
   262.2996 262.3755 263.5113 263.8829 264.0746 265.1437 265.3247 265.5060
   265.6853 265.8333 266.8461 266.8510 268.1019 268.3233 268.6124 268.6565
   269.2204 269.2640 269.4688 269.6404 270.2430 270.3957 270.7511 271.0625
   272.6966 272.7222 272.9512 274.4920 275.0256 275.0469 275.4285 275.5413
   275.8415 276.5411 276.7165 276.9880 277.2909 278.3410 279.4184 279.4733
   279.8100 279.8213 280.6620 280.7090 281.1353 282.4059 282.6215 283.2111
   283.2930 283.5540 283.7611 284.3928 284.8008 284.8751 287.2408 287.7662
   287.9264 289.1996 289.4399 289.7631 289.9584 289.9942 290.1735 290.8579
   290.8882 291.2809 292.2522 294.5261 294.5475 294.6371 294.9446 295.9664
   296.0008 296.7928 297.0363 297.0410 297.2566 297.4246 297.4588 298.1167
   298.5501 298.5658 298.7832 298.7933 298.9299 299.5854 299.6095 299.8361
   299.8892 300.3973 300.7953 301.0609 301.2364 301.6624 302.1446 302.3535
   302.5952 302.6615 302.6875 302.8856 304.2174 304.3044 304.5215 305.3144
   305.4670 306.0487 306.5703 306.6097 307.7755 307.8029 308.0224 308.4330
   308.8476 309.1974 309.5772 309.7197 310.0032 310.1094 310.7446 311.1063
   311.1079 311.4470 311.5718 311.7628 311.8477 312.2685 313.6794 314.1746
   314.3446 314.5660 314.8002 315.1874 315.3065 315.7559 315.9572 316.5091
   316.6535 317.6881 317.7509 317.8871 318.0621 318.1513 319.6635 320.1405
   321.8238 322.1322 322.1598 322.5025 322.7461 323.3323 324.1948 324.7652
   325.2266 325.3070 325.6937 326.2582 326.3404 326.5398 327.1688 327.2540
   327.6186 328.3454 328.6432 328.8652 329.5636 329.7532 329.7600 330.7504
   331.4096 331.5398 331.9865 332.0674 332.2180 332.2526 332.3418 332.3951
   332.4594 332.8059 333.0162 333.3468 333.9183 334.1082 334.3006 334.3116
   334.8796 335.3462 335.8675 336.0288 336.0747 336.9828 337.3271 337.3850
   337.4431 337.5459 337.7713 338.6875 338.7417 338.9910 339.2247 339.3184
   339.8908 340.0054 340.1527 340.2838 340.6935 341.0513 341.1286 341.3645
   341.8138 341.8143 341.8314 342.3324 343.2961 343.7156 343.9492 344.4357
   344.7585 344.8668 344.9883 345.0404 345.0586 345.2216 345.3136 345.4772
   346.2790 346.6918 347.1428 348.2337 348.3249 348.8646 349.8333 351.4535
   351.8984 352.7893 352.8645 353.0385 353.7203 354.2038 354.6578 354.8481
   355.3416 355.4946 356.0347 356.4975 356.7326 357.4133 357.7737 358.6241
   359.3181 359.7173 360.1419 360.2390 360.4573 360.6805 361.2490 361.3482
   361.9259 361.9596 362.3742 362.6199 363.1242 363.2003 363.3487 363.3985
   363.4651 364.3279 364.3410 364.3444 364.8134 364.9925 365.8463 365.8761
   366.5637 367.5140 367.5601 368.2090 368.4726 368.7601 369.0198 369.4663
   369.6108 370.0379 370.0877 370.5462 370.6581 370.6854 370.9023 371.2823
   371.4082 372.4862 373.5355 374.2451 374.5140 375.3715 375.4034 375.8703
   376.0162 376.0510 376.4258 376.8366 377.2789 379.3290 379.3837 379.4748
   379.6127 380.4772 380.5740 380.6032 380.7774 381.1395 383.0343 383.0626
   383.3056 383.5202 383.5599 383.8195 385.0194 385.0269 386.1137 386.5073
   387.0648 387.3824 387.4278 388.3427 389.1527 389.3394 389.3871 389.5313
   389.6654 390.2187 390.3585 390.4855 390.9231 390.9357 391.1067 391.1589
   391.3389 391.6028 391.6596 391.7065 391.9654 391.9838 392.0913 392.1593
   392.2104 392.4995 392.6217 392.9833 393.4762 393.4938 393.6446 394.1746
   394.2823 394.3787 395.3005 395.3543 395.6348 395.6776 396.2564 396.4063
   396.7580 396.9440 396.9822 397.1194 397.1263 397.5046 397.5317 397.5546
   397.8226 397.8810 399.1399 399.2937 399.5055 399.5073 400.1175 400.8158
   401.1908 401.1929 401.9084 401.9166 403.6391 403.9694 404.1599 404.2571
   404.7702 405.2028 405.3468 405.3634 405.8674 406.1629 406.4063 406.5781
   407.4744 407.5635 408.4440 409.0465 409.5015 409.8734 409.9593 410.0978
   410.1456 410.3780 410.6176 410.9507 411.1284 411.6119 411.6939 411.7947
   411.8846 412.0503 412.0592 412.0633 413.0199 413.3196 413.7229 414.7799
   415.1675 415.1750 415.3602 416.3017 416.4099 416.6970 416.7335 417.4149
   418.0803 418.5803 418.8277 419.3333 419.3356 420.2388 420.5379 420.9542
   421.1173 421.1556 421.2827 421.5739 421.8445 422.2534 422.4869 422.6675
   423.0266 423.3245 423.9792 424.2127 424.8276 425.1328 425.8281 426.0065
   426.4010 426.5824 426.5939 426.7361 426.7986 427.1053 427.8995 428.5116
   429.5540 430.0251 430.1718 430.6663 431.7632 432.3548 432.7490 433.3039
   433.4858 433.5973 433.6999 433.7522 433.9437 434.1422 434.1702 434.1948
   434.4220 434.5517 434.7737 435.9638 437.8369 438.4152 438.4857 438.7249
   438.8356 439.0009 439.3126 439.3825 442.6904 443.0678 444.3366 445.1902
   445.2612 445.9337 446.0384 446.1442 446.3699 446.4572 447.2474 447.3687
   447.4345 447.6367 448.1028 448.9496 449.2571 449.2652 449.7759 450.3089
   450.6878 451.0822 451.1992 451.3867 451.9409 452.1084 452.5103 452.5465
   453.0366 453.0696 453.3858 453.4214 453.7196 453.9887 454.2484 454.4480
   454.7505 454.8749 455.0368 455.0960 455.7731 456.1911 456.7752 456.8668
   456.9475 457.1286 457.2802 458.2941 459.2504 459.5905 459.7015 459.9725
   460.0973 460.7329 460.8433 461.1804 461.7129 461.7245 461.7956 461.8207
   461.9576 462.0278 462.1385 462.4053 463.0322 463.2754 463.3733 463.3748
   463.8400 464.1488 464.7947 465.1976 465.2307 465.3903 465.7426 465.8300
   466.3066 466.9219 466.9919 467.3623 467.7742 468.0616 468.1308 468.1599
   468.5742 469.1315 469.3100 469.6305 469.7414 469.8184 470.5731 470.9586
   471.0651 471.0941 471.1041 471.2456 471.3137 471.3800 471.4294 471.5028
   471.7162 471.8248 473.5943 474.3510 474.5476 474.8959 475.2415 476.3809
   476.5007 476.5511 476.5960 476.6497 477.6901 478.8898 478.8971 479.4104
   479.6736 479.7006 479.7954 479.8390 480.2495 480.3712 480.5840 480.6071
   480.6877 480.8560 481.0686 481.3246 481.6613 481.7269 481.7488 481.7494
   481.8162 482.1112 482.2264 482.3094 482.9892 483.2563 483.3946 483.4209
   483.6268 483.6326 483.7858 483.9680 484.3399 484.8504 485.8110 485.8484
   487.0725 487.0991 487.2977 487.3410 488.2886 488.3537 488.5824 488.8625
   488.8753 489.0342 489.4262 489.4272 489.9213 490.2795 490.5782 490.8055
   491.0286 491.1545 491.4767 491.6624 491.7557 492.2735 493.0213 493.0681
   493.1866 493.5114 493.5185 493.5666 493.5866 493.9405 493.9632 494.5837
   494.6026 494.6218 495.4121 495.4464 496.6416 497.1111 497.4657 497.6385
   497.8118 497.8752 498.1247 498.3365 499.5239 499.8353 499.9052 500.0666
   500.9328 500.9743 502.0925 502.2272 502.3061 502.3800 502.9636 503.0354
   503.4577 503.5731 504.7116 504.9395 505.1561 505.2088 505.3317 505.6795
   506.4530 507.1020 507.8732 508.1827 508.4671 508.5216 508.5369 508.5726
   508.6137 508.6737 510.3418 510.5006 510.5573 510.5965 511.2322 511.2622
   511.2970 511.6359 511.8143 512.0036 512.0486 512.3583 512.5674 512.6097
   512.6541 512.9281 513.1059 513.1217 513.6320 513.7046 513.9651 514.0008
   514.4177 514.7718 514.8887 514.8898 515.6720 516.0208 516.4203 516.4327
   516.5460 516.7175 516.7911 516.9672 516.9894 517.0836 517.1142 517.2601
   518.7271 518.7376 519.2666 519.3528 519.4470 519.4940 519.5457 519.6200
   520.6354 520.8644 521.7961 522.1582 522.4414 522.5520 522.6596 522.8037
   523.1463 523.4735 523.4850 523.5329 523.6563 523.9271 524.2426 524.6579

          k = 0.0000-0.5774-0.3118 (  2672 PWs)   bands (ev):

   -91.4173 -91.4173 -52.9429 -52.9429 -52.9295 -52.9295 -52.9251 -52.9251
    -3.4855  -3.4855   3.7493   3.7493   7.8299   7.8299   7.9256   7.9256
    14.5445  14.5445  18.4741  18.4741  20.8733  20.8733  22.4244  22.4244
    25.5760  25.5760  29.5864  29.5864  31.7668  31.7668  33.3680  33.3680
    34.2294  34.2294  35.9051  35.9051  40.6051  40.6051  42.6048  42.6048
    44.3569  44.3569  44.8180  44.8180  45.2147  45.2148  46.7093  46.7093
    48.2602  48.2602  50.9192  50.9192  53.3110  53.3110  54.7103  54.7103
    55.8210  55.8210  58.7351  58.7351  62.7255  62.7255  64.6027  64.6027
    66.0127  66.0127  66.9832  66.9832  69.1010  69.1010  69.7674  69.7674
    70.5132  70.5132  73.4502  73.4502  73.5327  73.5327  75.1830  75.1830
    76.1475  76.1475  77.1761  77.1761  79.3306  79.3306  81.7866  81.7866
    82.7033  82.7033  84.1961  84.1961  86.7811  86.7811  87.9585  87.9585
    91.0704  91.0704  91.7763  91.7763  92.7474  92.7474  94.8787  94.8787
    95.7331  95.7331  96.2693  96.2693 100.5988 100.5988 100.6588 100.6589
   102.8670 102.8670 103.0866 103.0866 104.1768 104.1768 104.9647 104.9647
   105.2128 105.2128 105.7973 105.7973 107.1696 107.1696 107.7739 107.7739
   108.6809 108.6809 109.0021 109.0021 111.6581 111.6581 113.5176 113.5176
   115.1187 115.1187 115.4282 115.4282 116.4554 116.4554 116.9829 116.9829
   119.1681 119.1681 122.3387 122.3387 123.1572 123.1572 124.7377 124.7377
   125.4347 125.4347 126.3205 126.3205 127.9820 127.9820 128.1716 128.1716
   128.8604 128.8604 130.2727 130.2727 130.5995 130.5995 132.8217 132.8217
   133.0680 133.0680 134.7581 134.7581 135.7464 135.7464 136.0853 136.0853
   138.3442 138.3442 138.8512 138.8512 140.6086 140.6086 141.3660 141.3660
   142.7599 142.7599 143.8632 143.8632 145.8461 145.8461 146.5503 146.5503
   149.4671 149.4671 149.9179 149.9179 150.7598 150.7598 152.0204 152.0204
   153.1937 153.1937 153.3118 153.3118 154.7422 154.7422 156.6558 156.6558
   158.1590 158.1590 158.6346 158.6346 161.0247 161.0247 162.5391 162.5391
   162.7908 162.7908 163.8261 163.8261 164.0971 164.0971 164.5570 164.5570
   166.0406 166.0406 166.1259 166.1259 168.2106 168.2106 169.0853 169.0853
   170.4370 170.4370 170.7901 170.7901 172.9169 172.9169 173.4159 173.4159
   173.6832 173.6832 173.9263 173.9263 175.7961 175.7961 177.3659 177.3659
   178.1689 178.1689 178.4422 178.4422 180.4311 180.4311 182.1737 182.1737
   183.0595 183.0595 184.1291 184.1291 186.5055 186.5055 187.0153 187.0154
   187.4525 187.4525 189.1923 189.1923 190.5382 190.5382 190.8366 190.8366
   191.2088 191.2088 191.6150 191.6150 192.8198 192.8198 193.2296 193.2296
   195.5370 195.5370 196.8090 196.8090 197.7617 197.7617 198.4320 198.4320
   198.5655 198.5655 200.0864 200.0864 200.2154 200.2154 202.5350 202.5350
   202.7477 202.7477 203.1689 203.1689 204.1242 204.1242 207.0583 207.0583
   207.1164 207.1164 207.8339 207.8339 208.2034 208.2034 210.1284 210.1284
   210.5154 210.5154 210.6166 210.6166 210.8695 210.8695 211.6355 211.6355
   212.5032 212.5032 212.9084 212.9084 214.8207 214.8207 214.9436 214.9436
   216.5371 216.5371 217.7130 217.7130 217.9993 217.9993 218.7956 218.7956
   220.2980 220.2980 220.9275 220.9275 221.8321 221.8321 222.0185 222.0185
   223.1758 223.1758 223.5355 223.5355 225.1305 225.1305 226.0441 226.0441
   226.5815 226.5815 226.6758 226.6758 227.3330 227.3330 228.2906 228.2906
   228.5262 228.5262 229.8358 229.8358 231.2983 231.2983 231.7057 231.7057
   233.2808 233.2808 233.4159 233.4159 235.5654 235.5654 236.1832 236.1832
   236.2420 236.2420 238.1940 238.1940 239.3356 239.3356 239.6910 239.6910
   241.1401 241.1401 241.8166 241.8166 242.3717 242.3717 243.2215 243.2215
   244.3354 244.3354 245.8278 245.8278 247.3343 247.3343 248.3971 248.3971
   248.5409 248.5409 249.9553 249.9553 250.3130 250.3130 250.9912 250.9912
   251.7384 251.7384 253.7673 253.7673 253.9728 253.9728 254.6879 254.6879
   255.0249 255.0249 256.7788 256.7788 256.9739 256.9739 257.8730 257.8730
   258.8451 258.8451 259.3787 259.3787 260.1370 260.1370 261.4312 261.4312
   262.5353 262.5353 263.3548 263.3548 264.8283 264.8283 266.2076 266.2076
   266.6714 266.6714 266.6778 266.6778 267.6559 267.6559 269.1485 269.1485
   271.2879 271.2879 271.6193 271.6193 271.7407 271.7407 273.2801 273.2801
   273.3142 273.3142 274.1350 274.1350 275.9634 275.9634 277.5543 277.5543
   277.6123 277.6123 277.9982 277.9982 279.1824 279.1824 279.6080 279.6080
   280.1961 280.1961 280.6597 280.6597 280.8262 280.8262 281.7122 281.7122
   281.7493 281.7493 283.7697 283.7697 284.0271 284.0271 285.3320 285.3320
   285.7772 285.7772 285.8105 285.8105 286.8396 286.8396 287.1222 287.1222
   287.3737 287.3737 287.6442 287.6442 288.5334 288.5334 291.7635 291.7635
   293.3821 293.3821 294.2374 294.2374 295.3591 295.3591 296.5057 296.5057
   297.9883 297.9883 298.7573 298.7573 299.1425 299.1425 299.8120 299.8120
   299.8756 299.8756 300.9682 300.9682 301.4401 301.4401 302.4978 302.4978
   302.8610 302.8610 303.0421 303.0421 303.3202 303.3202 304.9183 304.9183
   305.5166 305.5166 308.0120 308.0120 308.6597 308.6597 309.6170 309.6170
   309.6259 309.6259 310.3065 310.3065 311.8797 311.8797 311.9139 311.9139
   312.5123 312.5123 313.9878 313.9878 314.0555 314.0555 315.8858 315.8858
   316.0714 316.0714 316.3518 316.3518 317.2324 317.2324 317.7388 317.7388
   318.2027 318.2027 318.5932 318.5932 319.2165 319.2165 320.3422 320.3422
   320.8199 320.8199 320.8810 320.8810 321.4826 321.4826 321.6602 321.6602
   322.6966 322.6966 323.1218 323.1218 323.1432 323.1432 326.8340 326.8340
   327.2244 327.2244 328.1422 328.1422 328.1613 328.1613 328.3997 328.3997
   329.9428 329.9428 330.1525 330.1525 330.9774 330.9774 331.5729 331.5729
   331.7778 331.7778 332.9722 332.9722 333.2327 333.2327 334.7338 334.7338
   335.6138 335.6138 336.5060 336.5060 337.3375 337.3375 337.8604 337.8604
   338.2177 338.2177 338.3462 338.3462 340.0129 340.0129 342.0261 342.0261
   342.0999 342.0999 342.2760 342.2760 343.5524 343.5524 343.9060 343.9060
   344.4469 344.4469 345.8622 345.8622 346.0209 346.0209 347.8260 347.8260
   348.1695 348.1695 348.8178 348.8178 350.5450 350.5450 351.0827 351.0827
   351.8278 351.8278 351.8702 351.8702 352.7398 352.7398 353.2893 353.2893
   353.4828 353.4828 353.6136 353.6136 354.0298 354.0298 354.0305 354.0305
   355.7625 355.7625 356.3366 356.3366 356.5035 356.5035 358.1534 358.1534
   358.9343 358.9343 359.4552 359.4552 361.3941 361.3941 362.0333 362.0333
   362.3501 362.3501 363.0070 363.0070 363.4900 363.4900 364.0768 364.0768
   364.7816 364.7816 365.1165 365.1165 365.1968 365.1968 365.8706 365.8706
   366.3905 366.3905 366.4252 366.4252 367.5276 367.5276 367.7402 367.7402
   368.7321 368.7321 369.1716 369.1716 370.0745 370.0745 370.7727 370.7727
   371.1858 371.1858 372.0050 372.0050 372.3627 372.3627 372.7517 372.7517
   372.8652 372.8652 375.0871 375.0871 376.6053 376.6053 377.3674 377.3674
   377.4909 377.4909 378.0364 378.0364 378.1148 378.1148 378.5388 378.5388
   378.9154 378.9154 378.9642 378.9642 379.4139 379.4139 379.8589 379.8589
   380.3805 380.3805 380.9038 380.9038 380.9920 380.9920 382.7158 382.7158
   384.9974 384.9974 386.7809 386.7809 387.5561 387.5561 387.9956 387.9956
   388.1727 388.1727 389.0237 389.0237 389.9296 389.9296 390.0705 390.0705
   391.3576 391.3576 392.5352 392.5352 394.2628 394.2628 394.3371 394.3371
   395.0930 395.0930 395.9361 395.9361 396.5902 396.5902 396.8897 396.8897
   398.5135 398.5135 398.7337 398.7337 399.1823 399.1823 400.3051 400.3051
   400.8172 400.8172 401.5334 401.5334 401.8652 401.8652 403.2987 403.2987
   403.7769 403.7769 404.8171 404.8171 405.4219 405.4219 405.7459 405.7459
   406.1465 406.1465 406.3476 406.3476 406.6773 406.6773 407.2026 407.2026
   407.8897 407.8897 408.5941 408.5941 410.9501 410.9501 411.1356 411.1356
   411.5835 411.5835 411.7229 411.7229 412.6142 412.6142 413.6244 413.6244
   414.2339 414.2339 414.3305 414.3305 415.1217 415.1217 416.5979 416.5979
   417.3892 417.3892 419.6190 419.6190 420.0481 420.0481 421.4404 421.4404
   421.9744 421.9744 422.5037 422.5037 422.9769 422.9769 423.1014 423.1014
   423.6215 423.6215 423.9576 423.9576 424.1496 424.1496 424.7497 424.7497
   425.3382 425.3382 425.8464 425.8464 426.3529 426.3529 427.8346 427.8346
   430.0827 430.0827 431.8153 431.8153 432.4802 432.4802 432.7397 432.7397
   433.2927 433.2927 433.3181 433.3181 434.2069 434.2069 434.8064 434.8064
   434.8738 434.8738 435.3913 435.3913 435.5601 435.5601 436.3169 436.3169
   436.8030 436.8030 436.8480 436.8480 437.2406 437.2406 437.8186 437.8186
   438.8942 438.8942 439.4192 439.4192 439.9496 439.9496 440.5701 440.5701
   441.0716 441.0716 441.3317 441.3317 441.8990 441.8990 442.8388 442.8388
   443.1663 443.1663 444.6437 444.6437 447.2005 447.2005 448.4522 448.4522
   448.4864 448.4864 448.8755 448.8755 450.2448 450.2448 450.4967 450.4967
   450.8045 450.8045 451.0889 451.0889 452.7329 452.7329 453.7934 453.7934
   454.4459 454.4459 454.8197 454.8197 455.8456 455.8456 456.4836 456.4836
   456.4970 456.4970 457.0939 457.0939 458.6034 458.6034 458.7136 458.7136
   458.9962 458.9962 459.4711 459.4711 459.5458 459.5458 460.6626 460.6626
   461.3766 461.3766 461.5000 461.5000 461.8066 461.8066 462.9736 462.9736
   463.5970 463.5970 464.1688 464.1688 464.4089 464.4089 465.6989 465.6989
   466.0343 466.0343 466.1424 466.1424 466.6954 466.6954 467.4122 467.4122
   467.6413 467.6413 468.2187 468.2187 468.5873 468.5873 469.6708 469.6708
   471.2819 471.2819 471.4319 471.4319 471.6063 471.6063 472.2843 472.2843
   473.1755 473.1755 473.1975 473.1975 473.5514 473.5514 473.7874 473.7874
   474.2812 474.2812 474.4545 474.4545 474.5141 474.5141 474.9426 474.9426
   476.6400 476.6400 478.3489 478.3489 480.8084 480.8084 480.8274 480.8274
   481.8053 481.8053 482.1734 482.1734 482.9881 482.9881 483.0655 483.0655
   483.9469 483.9469 483.9554 483.9554 484.2858 484.2858 485.0154 485.0154
   485.5234 485.5234 485.5886 485.5886 486.1166 486.1166 486.2936 486.2936
   486.4058 486.4058 487.3496 487.3496 488.4272 488.4272 488.5238 488.5238
   489.0171 489.0171 489.1307 489.1307 489.3945 489.3945 489.8460 489.8460
   492.6787 492.6787 492.6837 492.6837 493.2968 493.2968 493.8623 493.8623
   493.9134 493.9134 494.5260 494.5260 494.7388 494.7388 495.3496 495.3496
   495.3666 495.3666 495.6388 495.6388 495.8751 495.8751 496.0935 496.0935
   496.2965 496.2965 496.3608 496.3608 496.9779 496.9779 497.0789 497.0789
   497.4293 497.4293 497.4535 497.4535 497.5994 497.5994 498.3643 498.3643
   501.0243 501.0243 501.1440 501.1440 502.8026 502.8026 504.3851 504.3851
   504.5883 504.5883 504.7525 504.7525 505.0376 505.0376 505.8775 505.8775
   507.0787 507.0787 507.1472 507.1472 509.2960 509.2960 511.0115 511.0115
   513.5854 513.5854 514.6110 514.6110 514.8421 514.8421 515.1753 515.1753
   515.4071 515.4071 515.4170 515.4170 515.7694 515.7694 516.1272 516.1272
   517.3266 517.3266 519.4143 519.4143 519.7195 519.7195 519.8458 519.8458
   519.9021 519.9021 520.2210 520.2210 522.0472 522.0472 523.2090 523.2090
   523.3545 523.3545 523.4746 523.4746 523.6983 523.6983 524.1649 524.1649
   524.3186 524.3186 524.7970 524.7970 525.8011 525.8011 525.8480 525.8480
   526.1502 526.1502 526.9214 526.9214 527.5982 527.5982 527.6860 527.6860

     the Fermi energy is    11.0762 ev
     (compare with:    11.2492 eV, computed in scf)

     Writing all to output data dir out/mp-661.save/
 
     init_run     :      0.03s CPU      0.04s WALL (       1 calls)
     electrons    :    340.08s CPU    367.23s WALL (       1 calls)

     Called by init_run:
     wfcinit      :      0.00s CPU      0.00s WALL (       1 calls)
     potinit      :      0.01s CPU      0.01s WALL (       1 calls)
     hinit0       :      0.01s CPU      0.01s WALL (       1 calls)

     Called by electrons:
     c_bands      :    340.08s CPU    367.22s WALL (       1 calls)
     v_of_rho     :      0.01s CPU      0.01s WALL (       1 calls)

     Called by c_bands:
     init_us_2    :      0.00s CPU      0.00s WALL (       4 calls)
     init_us_2:cp :      0.00s CPU      0.00s WALL (       4 calls)
     cegterg      :    330.96s CPU    357.50s WALL (       4 calls)

     Called by *egterg:
     cdiaghg      :    317.81s CPU    344.10s WALL (      27 calls)
     h_psi        :      3.28s CPU      3.49s WALL (      31 calls)
     g_psi        :      0.03s CPU      0.03s WALL (      23 calls)

     Called by h_psi:
     h_psi:calbec :      0.10s CPU      0.11s WALL (      31 calls)
     vloc_psi     :      3.08s CPU      3.28s WALL (      31 calls)
     add_vuspsi   :      0.07s CPU      0.07s WALL (      31 calls)

     General routines
     calbec       :      0.10s CPU      0.11s WALL (      31 calls)
     fft          :      0.00s CPU      0.01s WALL (      10 calls)
     fftw         :      2.70s CPU      2.88s WALL (   51994 calls)
 
     Parallel routines
 
     PWSCF        :   5m40.53s CPU   6m 8.49s WALL

 
   This run was terminated on:   3:47:11   5Dec2023            

=------------------------------------------------------------------------------=
   JOB DONE.
=------------------------------------------------------------------------------=
