
     Program PWSCF v.7.1 starts on  5Apr2024 at 16:21:59 

     This program is part of the open-source Quantum ESPRESSO suite
     for quantum simulation of materials; please cite
         "P. Giannozzi et al., J. Phys.:Condens. Matter 21 395502 (2009);
         "P. Giannozzi et al., J. Phys.:Condens. Matter 29 465901 (2017);
         "P. Giannozzi et al., J. Chem. Phys. 152 154105 (2020);
          URL http://www.quantum-espresso.org", 
     in publications or presentations arising from this work. More details at
     http://www.quantum-espresso.org/quote

     Parallel version (MPI), running on     8 processors

     MPI processes distributed on     1 nodes
     239551 MiB available memory on the printing compute node when the environment starts
 
     Reading input from pw_Sb_nscf_k11_E45.in
Warning: card &IONS ignored
Warning: card / ignored
Warning: card &CELL ignored
Warning: card / ignored

     Current dimensions of program PWSCF are:
     Max number of different atomic species (ntypx) = 10
     Max number of k-points (npk) =  40000
     Max angular momentum in pseudopotentials (lmaxx) =  4

     Atomic positions and unit cell read from directory:
     out/Sb.save/
     Atomic positions from file used, from input discarded
 
 
     R & G space division:  proc/nbgrp/npool/nimage =       8
     Subspace diagonalization in iterative solution of the eigenvalue problem:
     one sub-group per band group will be used
     scalapack distributed-memory algorithm (size of sub-group:  2*  2 procs)

 
     Parallelization info
     --------------------
     sticks:   dense  smooth     PW     G-vecs:    dense   smooth      PW
     Min          93      93     26                10817    10817    1654
     Max          94      94     27                10844    10844    1665
     Sum         745     745    211                86573    86573   13263
 
     Using Slab Decomposition
 


     bravais-lattice index     =            4
     lattice parameter (alat)  =       7.7553  a.u.
     unit-cell volume          =    2121.0124 (a.u.)^3
     number of atoms/cell      =            2
     number of atomic types    =            1
     number of electrons       =        30.00
     number of Kohn-Sham states=         1200
     kinetic-energy cutoff     =      45.0000  Ry
     charge density cutoff     =     180.0000  Ry
     Exchange-correlation= PBE
                           (   1   4   3   4   0   0   0)

     celldm(1)=   7.755267  celldm(2)=   0.000000  celldm(3)=   5.250762
     celldm(4)=   0.000000  celldm(5)=   0.000000  celldm(6)=   0.000000

     crystal axes: (cart. coord. in units of alat)
               a(1) = (   1.000000   0.000000   0.000000 )  
               a(2) = (  -0.500000   0.866025   0.000000 )  
               a(3) = (   0.000000   0.000000   5.250762 )  

     reciprocal axes: (cart. coord. in units 2 pi/alat)
               b(1) = (  1.000000  0.577350  0.000000 )  
               b(2) = (  0.000000  1.154701  0.000000 )  
               b(3) = (  0.000000  0.000000  0.190449 )  


     PseudoPot. # 1 for Sb read from file:
     /usr/scratch4/magr4985/FGWC/FGWC/pseudo/SG15/Sb.upf
     MD5 check sum: 0417cd6c0fe8ce4611e2b23135f1abd9
     Pseudo is Norm-conserving, Zval = 15.0
     Generated using ONCVPSP code by D. R. Hamann
     Using radial grid of  602 points,  6 beta functions with: 
                l(1) =   0
                l(2) =   0
                l(3) =   1
                l(4) =   1
                l(5) =   2
                l(6) =   2

     atomic species   valence    mass     pseudopotential
        Sb            15.00   121.76000     Sb( 1.00)

     12 Sym. Ops., with inversion, found



   Cartesian axes

     site n.     atom                  positions (alat units)
         1           Sb  tau(   1) = (   0.5000000   0.2886752   2.4245708  )
         2           Sb  tau(   2) = (   0.0000000   0.5773502   2.8261916  )

     number of k points=     4  Gaussian smearing, width (Ry)=  0.0005
                       cart. coord. in units 2pi/alat
        k(    1) = (   0.0000000   0.0000000   0.0000000), wk =   0.1250000
        k(    2) = (   0.0000000   0.2886751   0.0000000), wk =   0.7500000
        k(    3) = (   0.0000000  -0.5773503   0.0000000), wk =   0.3750000
        k(    4) = (   0.2500000   0.4330127   0.0000000), wk =   0.7500000

     Dense  grid:    86573 G-vectors     FFT dimensions: (  36,  36, 180)

     Estimated max dynamical RAM per process >     294.55 MB

     Estimated total dynamical RAM >       2.30 GB

     The potential is recalculated from file :
     out/Sb.save/charge-density

     Starting wfcs are random

     Band Structure Calculation
     Davidson diagonalization with overlap

     ethr =  5.00E-06,  avg # of iterations = 11.0

     total cpu time spent up to now is      300.8 secs

     End of band structure calculation

          k = 0.0000 0.0000 0.0000 ( 10857 PWs)   bands (ev):

   -30.2840 -30.2840 -30.2114 -30.2114 -30.1493 -30.0998 -30.0998 -30.0477
   -30.0160 -30.0160 -12.9650  -7.9787  -2.2960  -1.6170  -1.6170  -0.0318
     1.1543   1.1543   2.6650   2.8841   3.5730   4.0602   5.1061   5.6878
     5.8833   6.5295   6.5295   7.3624   7.4994   8.3008   8.3008   8.8555
     8.9107  11.2962  11.2962  11.3494  11.7648  12.1801  12.1801  12.4712
    13.3674  13.9559  13.9559  14.4891  14.4891  14.5011  14.7012  14.9754
    14.9796  14.9796  15.0434  15.0434  15.1301  15.4935  15.6956  15.7008
    15.7008  15.7089  15.7089  15.8604  15.8604  15.9562  15.9562  16.0640
    16.1949  16.2434  16.2883  17.4306  17.4306  17.5381  17.5632  17.5632
    17.7736  17.7736  17.8539  17.8539  17.9209  18.1293  18.2839  19.8977
    19.9792  19.9792  20.1752  20.1752  20.3441  20.4874  20.4874  20.5194
    20.5194  20.7212  20.9981  21.1121  21.1283  22.4837  23.2127  23.2127
    23.4173  23.4173  23.5844  23.8155  23.8959  23.8959  23.9157  23.9157
    24.3614  24.5152  25.1679  25.1679  25.8481  25.8481  25.9431  26.2137
    27.3119  27.3119  27.4290  27.4965  27.4965  27.6228  27.9230  27.9663
    27.9663  28.0230  28.0230  28.3794  28.6223  29.6402  30.8341  30.8341
    30.8412  30.8875  30.8875  31.8837  31.8837  32.0626  32.2883  32.2883
    32.4399  32.4399  32.6828  32.6855  32.9110  32.9110  33.0811  33.5517
    33.7592  33.7592  33.8673  33.8806  34.6182  35.1496  35.2772  35.5893
    35.5893  36.5328  36.5328  37.6298  37.6298  37.6367  37.8067  37.9299
    37.9299  38.0470  38.0470  38.1682  38.1682  38.2474  38.2474  38.2584
    38.4225  38.4225  38.4998  38.4998  38.6205  38.6323  38.7790  38.8542
    38.8542  38.9115  38.9115  38.9446  39.0780  39.3543  39.4361  39.4361
    39.4587  39.5014  39.5056  39.5671  39.6437  39.6437  39.7337  39.7337
    39.8355  39.8355  40.1399  41.0154  41.0154  41.2537  41.3421  41.3981
    41.4665  41.4665  41.5405  41.5405  41.7308  41.7308  41.9152  42.7500
    42.7500  42.7838  42.7838  42.9763  43.2302  43.2302  43.6920  43.6920
    43.8582  43.9458  43.9718  44.0798  44.0798  44.2177  44.2177  44.2571
    44.2793  44.3923  44.3923  44.5242  44.5242  44.5252  44.5252  44.6522
    44.6522  44.6645  44.8884  45.5762  45.6345  45.9850  45.9850  46.2777
    46.6553  46.9321  46.9321  47.2130  47.2346  47.2923  47.4991  47.4991
    47.5100  47.7769  47.7769  47.9605  48.0209  48.0209  48.1153  48.1153
    48.7871  49.6861  49.6861  49.8454  50.1369  50.1369  50.1779  50.1779
    50.3517  50.3517  50.4443  50.5933  50.5933  50.6051  50.6254  50.6723
    50.6723  50.6891  50.6891  50.7840  50.8083  50.8083  51.1680  51.1680
    51.1865  51.2937  51.3006  51.3778  51.4253  51.4728  51.4728  51.6385
    51.6385  51.6441  51.7043  51.7043  51.7415  51.7415  51.7557  51.7976
    51.7976  51.8290  51.9413  52.0919  52.0919  52.1259  52.1259  52.4167
    52.8620  53.1399  53.1399  53.1796  53.2728  53.4735  53.4735  53.5842
    53.5842  53.7037  53.7037  53.8611  53.9674  54.3233  54.6087  55.0034
    55.0034  55.7687  55.7777  55.7777  55.8106  55.8150  55.8150  55.8987
    55.8987  55.9120  56.0208  56.1827  56.2241  56.2241  56.4204  56.4204
    56.4542  56.4542  56.6149  56.6149  56.6714  56.9719  57.1698  57.6502
    57.6502  57.8522  57.8522  58.0490  58.0490  58.1657  58.5327  58.5327
    58.6609  58.9807  58.9807  59.0911  59.1628  59.4415  59.4772  59.4772
    59.5187  59.6603  59.6603  59.6869  59.6869  60.2914  60.2930  60.8624
    61.0691  61.0691  61.1057  61.3380  61.3380  61.4854  61.4854  61.8748
    61.8748  62.1344  62.4834  62.6213  62.6275  62.6943  63.2717  63.2717
    63.3110  63.3160  63.3160  63.3279  63.6786  63.6786  63.7585  63.7585
    64.1576  64.3372  64.4742  64.8206  64.8206  64.8516  64.8516  65.6903
    66.0081  66.0081  66.2566  66.2566  66.7394  66.8317  66.8317  67.0630
    67.1639  67.1639  67.2790  67.5281  67.5281  67.6323  67.8422  67.8422
    67.9164  67.9839  68.2661  68.2800  68.2800  68.3018  68.3262  68.3262
    68.5053  68.5221  68.5221  68.6774  68.8366  68.9089  68.9089  70.1511
    70.1511  70.2695  70.3781  70.3781  70.9238  71.2901  71.2901  71.6014
    72.3252  72.5707  72.5707  72.6148  72.6148  73.2545  73.2545  73.3499
    73.8797  73.8797  73.8871  73.8871  73.9986  74.0382  74.0750  74.1544
    74.4692  74.4697  74.4697  74.5247  74.5247  74.5801  74.6052  74.6052
    75.1131  75.1131  75.1468  75.3056  75.3057  75.4108  75.5773  75.6875
    75.6875  75.7228  75.7228  75.8566  75.8566  76.2166  76.3346  76.4147
    76.4147  76.4952  77.4368  77.4368  77.4891  77.5623  77.5623  78.0911
    78.0911  78.3573  78.8591  79.0240  79.2162  79.2162  79.2891  79.2891
    79.7453  79.8347  80.4552  80.4552  80.5881  80.5881  80.8713  80.8713
    80.9232  81.1685  81.1750  81.1750  81.4307  81.5850  81.5850  81.8270
    81.9731  81.9731  82.0186  82.0186  82.3731  82.4406  82.5516  82.8995
    82.9852  83.0580  83.3081  83.3081  83.3791  83.3791  83.4272  83.4272
    83.8851  83.8851  83.9797  84.1442  84.1442  84.2496  84.7176  84.7176
    84.7447  84.7447  84.7557  85.0462  85.3763  85.4220  85.4220  85.4361
    85.5043  85.5299  85.5299  85.6184  85.6184  85.7549  85.9831  85.9831
    86.1540  86.1540  86.1871  86.1871  86.1982  86.2672  86.2865  86.3711
    86.3711  86.3975  86.3975  86.4246  86.4341  86.4411  86.4582  86.4582
    86.5406  86.5406  86.5714  86.5714  86.6853  86.7995  86.7995  86.8332
    86.9016  86.9108  86.9807  87.0849  87.0849  87.1178  87.1178  87.1413
    87.1692  87.1692  87.2234  87.2490  87.2490  87.2682  87.2747  87.2788
    87.2788  87.2821  87.2821  87.5013  87.5013  87.5873  87.5873  88.0559
    88.1964  88.4472  88.4799  88.5108  88.5108  88.5263  88.5548  88.6945
    88.6945  88.7561  88.7561  88.8904  88.8904  89.0356  89.0356  89.0487
    89.0487  89.1303  89.1536  89.1816  89.1816  89.4389  89.4389  89.4943
    89.4943  89.5989  89.7175  89.7175  89.8126  89.8635  89.8635  89.9609
    89.9671  90.3250  90.3719  90.4837  90.4837  90.5808  90.9975  90.9975
    91.2545  91.2971  91.2976  91.2976  91.4178  91.5170  91.5170  91.5309
    91.5309  91.7857  91.7857  91.7911  91.7911  91.7996  91.8208  91.8434
    92.0300  92.0737  92.0737  92.2192  92.2192  92.3869  92.3869  92.5016
    92.7191  92.7420  92.7939  92.7939  93.1398  93.2105  93.2105  93.2850
    93.5379  93.5379  93.6526  93.7042  93.9965  93.9965  94.0581  94.1388
    94.1388  94.3243  94.3368  94.4414  94.4414  94.4919  94.4919  94.6602
    94.6602  94.6914  94.7130  94.7130  94.9366  94.9366  94.9815  95.0051
    95.0051  95.0260  95.0260  95.2126  95.2126  95.2126  95.2377  95.2608
    95.2608  95.3380  95.4409  95.6645  95.6645  95.7040  95.7138  95.7138
    96.2081  96.5802  96.7418  96.7418  96.8046  97.3733  97.3733  97.5645
    97.5645  97.8853  97.8994  97.9139  98.0247  98.0247  98.1209  98.1209
    98.4070  98.7541  98.7541  98.8173  98.8429  98.8429  98.9880  98.9880
    99.0650  99.0650  99.1271  99.1271  99.1512  99.1712  99.1952  99.3274
    99.3376  99.4477  99.4477  99.5101  99.7680  99.7680  99.9461 100.0760
   100.0760 100.2904 100.2904 100.7543 100.8496 100.8972 101.0073 101.0073
   101.1656 101.1656 101.1664 101.5102 101.5102 101.5877 101.8771 101.9881
   101.9881 102.0724 102.4406 102.4406 102.4618 102.9134 102.9308 103.0110
   103.0164 103.1383 103.1383 103.3457 103.4730 103.4730 103.6376 103.6376
   103.7422 103.7792 103.7792 103.9540 103.9540 104.0905 104.1035 104.1286
   104.1286 104.2361 104.2361 104.5447 104.5447 104.6928 104.6928 104.9459
   104.9459 104.9852 105.2585 105.2585 105.2694 105.2694 105.4853 105.6499
   105.7885 105.8124 105.8124 106.1668 106.3306 106.4320 106.4707 106.4707
   106.5527 106.5527 107.1225 107.2202 107.2202 107.3895 107.4060 107.4060
   107.5600 107.6098 107.7678 107.8571 107.8571 108.3907 108.3907 108.7996
   108.7996 108.8447 108.8467 108.8695 108.9015 108.9015 108.9524 108.9711
   109.0901 109.0901 109.2850 109.2850 109.3474 109.3474 109.5115 109.5722
   109.5740 109.8209 109.8209 109.9130 109.9130 110.0289 110.0289 110.0685
   110.0685 110.0885 110.2278 110.2712 110.2712 110.3444 110.3444 110.4232
   110.5022 110.5315 110.5315 110.5692 110.6187 110.6187 110.7838 110.7838
   110.7877 110.8351 110.8351 110.9140 110.9140 110.9536 110.9865 111.0216
   111.0956 111.0956 111.2403 111.2781 111.2781 111.5303 111.5303 112.2358
   112.3188 112.3727 112.3727 112.4243 112.4493 112.7172 112.7172 112.7754
   112.8856 112.8856 112.9922 112.9922 113.1614 113.6286 113.6726 113.6972
   113.6972 114.0333 114.0730 114.0730 114.0803 114.0803 114.2705 114.3000
   114.3358 114.8143 114.8143 114.8664 115.0365 115.1454 115.1454 115.2038
   115.2038 115.2345 115.2345 115.2460 115.2460 115.4533 115.4533 115.4972
   115.5628 115.5628 115.6066 115.6305 115.6561 115.8438 115.8438 115.8765
   115.8765 115.9056 116.0655 116.0655 116.0880 116.0880 116.3834 116.6402
   116.6402 116.8939 116.8939 117.0579 117.3163 117.3163 117.5068 117.5511
   117.5511 117.7091 117.7760 117.7760 117.8103 117.8103 117.8219 118.0114
   118.0569 118.1690 118.2011 118.2035 118.3023 118.4058 118.4058 118.4398
   118.4398 118.6676 118.6676 118.7689 118.7689 119.2952 119.3567 119.3567
   119.6721 119.7360 119.7360 119.7366 119.7366 119.8173 120.0558 120.0622
   120.2440 120.2440 120.3457 120.3835 120.3835 120.7021 120.7021 120.9255
   121.0830 121.1464 121.2587 121.2587 121.3490 121.5558 121.7636 121.7636
   121.9297 121.9297 122.2848 122.2848 122.3789 122.3789 122.4034 122.4302
   122.5109 122.5109 122.5493 122.7317 122.7317 122.7386 122.7483 122.7483
   123.2499 123.2564 123.2564 123.2643 123.3017 123.3017 123.6379 123.6379
   123.8880 123.9710 124.0093 124.0093 124.1485 124.1555 125.1101 125.4411
   125.4411 125.4631 125.4631 125.6635 125.9505 126.1761 126.1761 126.4499
   126.4499 126.8045 126.8311 127.1342 127.1342 127.1418 127.1418 127.3700
   127.3700 127.5151 127.5151 127.8050 127.8222 127.9732 128.2523 128.2523
   128.2642 128.3103 128.3103 128.4122 128.4448 128.4448 128.5048 129.0159
   129.0159 129.0225 129.0225 129.2176 129.2176 129.3413 129.4152 129.4417
   129.4758 129.5090 129.5090 129.5927 129.5927 129.7014 129.7014 129.7298
   129.7298 129.7805 129.7850 129.9741 129.9900 130.2578 130.2578 130.2967
   130.2967 130.4004 130.4034 130.4218 130.4218 130.6171 130.6322 130.6861
   130.6861 130.7272 130.7272 131.1789 131.1789 131.4774 131.4774 131.7236
   132.0088 132.0088 132.0564 132.1912 132.3856 132.9803 132.9803 133.0875
   133.7114 133.7114 133.9239 134.2208 134.2208 134.6988 134.9433 134.9806
   134.9806 135.2514 135.2514 135.5445 135.5445 135.7588 135.9660 136.0515
   136.1101 136.1101 136.3359 136.3708 136.3708 136.3881 136.6227 136.7408
   136.9167 136.9167 137.0497 137.6320 137.6320 137.7170 137.7170 137.8432
   137.9090 138.0350 138.0350 138.0686 138.1186 138.1186 138.4045 138.4045
   138.5833 138.5833 138.6986 138.6986 138.8344 139.0453 139.0453 139.0527
   139.1776 139.1776 139.2540 139.2540 139.3676 139.3729 139.4785 139.5169
   139.5169 139.8243 139.8243 139.8766 139.8766 140.2668 140.2668 140.3397
   140.3448 140.5054 140.5320 140.6061 140.6061 140.6881 140.6881 140.7061
   140.7188 141.0010 141.0010 141.0710 141.1481 141.1481 141.2793 141.3497
   141.3497 141.3805 141.4014 141.4691 141.4691 141.5004 141.6239 141.6239

          k = 0.0000 0.2887 0.0000 ( 10808 PWs)   bands (ev):

   -30.2805 -30.2553 -30.2059 -30.1922 -30.1424 -30.1141 -30.1003 -30.0597
   -30.0459 -30.0173 -12.3092  -8.1498  -4.2665  -2.5712  -2.2176  -0.3040
     1.8071   1.8354   3.2583   3.6006   4.2062   4.6811   5.0272   5.8537
     6.2685   6.6820   7.0403   7.2968   8.1795   8.9859   9.1617   9.4039
     9.6027   9.8226  10.0621  10.6826  10.7784  11.0207  11.7255  12.0042
    12.1290  12.3163  12.5954  12.7159  12.8008  12.8441  12.8943  13.5239
    13.5376  13.5817  13.7081  14.1216  15.0129  15.0181  15.1634  15.4143
    15.5485  15.6662  15.7887  16.0833  16.6279  16.9387  17.0914  17.7542
    17.7859  17.9720  18.0405  18.2633  18.3210  18.4702  18.6249  18.7145
    18.7867  18.8630  18.9352  19.4481  19.5677  19.6445  19.8474  20.9227
    21.0390  21.0716  21.2878  21.3296  21.3938  21.5408  21.6878  21.6881
    21.7538  21.8376  22.0230  22.4075  22.4904  22.5686  22.6514  22.8536
    23.5303  23.8164  24.0410  24.1032  24.2189  24.4918  24.6348  24.6692
    25.3524  25.6451  25.6585  25.7522  26.0255  26.3996  26.5142  26.6561
    26.8219  26.9942  27.2867  27.4079  27.4309  27.4429  27.5637  27.8016
    27.9224  28.3222  29.2298  29.8766  30.1054  30.1407  30.1639  30.3034
    30.3660  30.4486  30.5283  30.6095  30.6685  30.8370  31.1709  31.3303
    31.4833  31.4877  31.5101  31.5432  31.6563  31.8311  32.0584  32.4578
    32.7324  32.9047  33.0461  33.0499  33.2460  33.4005  33.4070  33.4262
    33.6131  33.6424  34.2647  34.5229  34.8322  35.0456  35.3680  35.4896
    35.5985  35.6825  35.9611  35.9953  36.1678  36.2212  36.2681  36.3470
    36.4735  36.5259  36.8395  36.9646  37.8745  38.0653  38.3395  38.5412
    38.6403  38.9778  39.0622  39.0763  39.1089  39.1912  39.3852  39.4278
    39.4401  39.4951  39.6275  39.7587  39.8021  39.8778  40.0632  40.2232
    40.3489  40.3798  40.5383  40.5814  40.7069  40.8082  41.0468  41.2848
    41.3484  41.7314  41.8232  41.8481  42.0333  42.0940  42.1881  42.2518
    42.3537  42.3657  42.3994  42.5036  42.5455  42.8014  42.9894  43.1275
    43.4594  43.5120  43.5978  43.7707  44.1075  44.4855  44.5755  44.7292
    44.8199  44.8753  44.9867  45.0808  45.1548  45.1781  45.3053  45.4027
    45.5169  45.5905  45.6786  45.8899  46.1039  46.1954  46.4731  46.4812
    46.7585  46.9857  47.0398  47.0544  47.3544  47.4287  47.5526  47.6181
    47.8280  47.9728  48.0625  48.0918  48.1243  48.1387  48.1771  48.3384
    48.3682  48.4097  48.4755  48.5015  48.5568  48.6540  48.7294  48.7805
    48.9269  48.9287  48.9525  49.0009  49.1236  49.1519  49.2976  49.3126
    49.7154  49.7469  50.5332  50.6129  50.6708  50.9170  50.9461  50.9993
    51.0004  51.1658  51.1915  51.3450  51.6054  51.8900  52.0134  52.1743
    52.3068  52.4292  52.4848  52.6123  52.8803  53.0646  53.1539  53.2931
    53.4510  53.5135  53.5412  53.6662  53.9897  54.0065  54.0401  54.1330
    54.2404  54.2881  54.4062  54.5087  54.5584  54.5978  55.0284  55.0530
    55.3052  55.5092  55.5893  55.7502  55.9064  56.0798  56.3523  56.5788
    56.6396  56.8672  56.9070  56.9770  57.0515  57.0617  57.1987  57.2144
    57.3539  57.3783  57.4732  57.5083  57.6776  57.8718  57.9555  57.9993
    58.0963  58.1324  58.3401  58.4165  58.4450  58.4615  58.5996  58.9381
    59.0614  59.1722  59.2939  59.3279  59.5480  59.8892  59.9577  60.2048
    60.2992  60.3707  60.4956  60.7407  60.8168  60.9910  61.2019  61.3918
    61.3920  61.6493  61.7224  61.7799  61.9385  62.2231  62.2803  62.2961
    62.4815  62.5264  62.6994  62.7863  62.8071  62.9029  63.0017  63.0306
    63.1568  63.2541  63.2964  63.3781  63.4983  63.5341  63.7385  63.8702
    63.9198  64.0935  64.1047  64.1360  64.3617  64.4724  64.5575  64.8621
    65.1870  65.2855  65.4165  65.6594  65.7929  65.8134  65.9378  65.9848
    66.0956  66.1932  66.3517  66.4510  66.5555  66.5721  66.6992  66.7242
    67.1621  67.3039  67.3718  67.4596  67.7780  68.3125  68.3975  68.4633
    68.5521  68.6362  68.7349  68.8068  68.8941  69.0608  69.1813  69.2334
    69.5262  69.5347  69.6640  69.7679  69.9652  70.0536  70.1460  70.2173
    70.3752  70.6835  70.8711  70.9280  71.0033  71.3059  71.4408  71.5947
    71.6025  71.6503  71.6743  71.7690  72.0786  72.2337  72.2601  72.3558
    72.3945  72.6205  72.6279  72.7024  72.8112  73.0127  73.0186  73.1274
    73.2735  73.3119  73.3937  73.5279  73.5996  73.6881  73.8649  73.8927
    73.9284  74.1582  74.3040  74.3939  74.4155  74.5362  74.6324  74.8149
    74.9355  75.0172  75.0536  75.1170  75.1745  75.2646  75.2876  75.3514
    75.4007  75.4828  75.4884  75.6742  75.7295  75.7670  75.8861  75.9832
    75.9976  76.1280  76.2363  76.2954  76.5156  76.5293  76.8972  77.0074
    77.0425  77.1554  77.2037  77.3459  77.4033  77.4107  77.7786  77.8326
    77.9863  78.0574  78.1496  78.1755  78.3261  78.4367  78.4729  78.6102
    78.8075  78.8094  79.2741  79.4140  79.4515  79.8050  79.9720  80.0785
    80.1151  80.1406  80.2031  80.3359  80.5197  80.5880  80.7986  80.8605
    80.8651  80.9078  80.9374  81.1738  81.1929  81.2257  81.3093  81.3908
    81.5208  81.5880  81.6389  81.8104  81.9470  82.0300  82.2191  82.3254
    82.3975  82.4111  82.6000  82.6684  82.8186  82.9097  83.0310  83.2265
    83.2762  83.3370  83.4011  83.6062  83.6721  83.7129  83.7629  83.8458
    83.9765  84.0264  84.0462  84.0679  84.2219  84.2744  84.3605  84.5167
    84.6537  84.7734  84.8658  84.9336  85.0380  85.1172  85.1204  85.2846
    85.3218  85.4268  85.7133  85.7181  85.9928  86.1318  86.4270  86.5024
    86.5233  86.6239  86.8121  86.9007  87.0044  87.0704  87.3192  87.4223
    87.4509  87.5438  87.6297  87.6975  87.8141  87.9951  88.0364  88.0840
    88.2057  88.2849  88.4205  88.5997  88.7017  88.8281  88.9997  89.1366
    89.2171  89.3011  89.3519  89.4177  89.4675  89.5475  89.6208  89.7864
    89.8237  89.8321  89.9222  89.9258  89.9795  90.1457  90.3231  90.3681
    90.4426  90.5206  90.6287  90.7018  90.7413  90.8267  90.8290  90.8723
    90.9662  90.9720  91.1996  91.2286  91.2920  91.3928  91.4950  91.5331
    91.7643  91.8769  91.8996  91.9992  92.0165  92.1555  92.2399  92.2759
    92.3586  92.4066  92.4372  92.5451  92.5912  92.6226  92.6684  92.6908
    92.8380  92.9365  93.0701  93.0980  93.1297  93.1443  93.2222  93.2472
    93.2930  93.4221  93.5387  93.5985  93.7521  93.8528  94.0729  94.3531
    94.4842  94.5605  94.6414  94.8578  95.0048  95.0558  95.0945  95.2278
    95.4509  95.4976  95.5664  95.6482  95.8090  95.9121  96.2217  96.3271
    96.4195  96.4560  96.4883  96.8091  96.8486  96.9268  96.9302  96.9928
    97.1623  97.1792  97.3434  97.4940  97.5879  97.7580  97.9438  97.9651
    98.0868  98.1467  98.2916  98.3053  98.4122  98.5369  98.5527  98.5994
    98.6539  98.6779  98.8652  98.8929  98.8931  99.0812  99.1258  99.1879
    99.3257  99.3951  99.4025  99.4359  99.5639  99.6027  99.6454  99.6502
    99.8026  99.8273  99.8487  99.9559  99.9569 100.0200 100.1706 100.2543
   100.3619 100.4602 100.5565 100.7026 100.7176 100.8418 100.8619 100.8646
   100.8901 100.9906 101.0398 101.0508 101.1517 101.2030 101.2390 101.3049
   101.3174 101.3412 101.4415 101.5023 101.5197 101.6028 101.6317 101.7717
   101.9028 101.9644 102.0248 102.0322 102.0485 102.0892 102.2465 102.3033
   102.3210 102.4075 102.4852 102.5041 102.5950 102.6312 102.6522 102.7165
   102.7884 102.8069 102.8329 102.8685 102.9710 103.1028 103.1323 103.3348
   103.4544 103.5764 103.6336 103.9066 103.9354 104.0632 104.1408 104.1703
   104.1860 104.2361 104.4448 104.4766 104.5652 104.5821 104.6415 104.6870
   104.7008 104.7226 104.8802 104.9143 104.9637 105.1333 105.2459 105.3781
   105.4981 105.6515 105.9509 105.9737 106.1915 106.1975 106.2575 106.2992
   106.3972 106.4925 106.5637 106.6999 106.7077 106.8289 106.8616 106.8965
   107.1043 107.1394 107.1890 107.2366 107.3521 107.3862 107.5276 107.6110
   107.6929 107.7331 107.7850 107.8367 107.8402 107.9597 107.9664 108.1093
   108.2990 108.3347 108.3694 108.5117 108.5937 108.6639 108.6873 108.7216
   108.9114 109.0100 109.0677 109.1920 109.2501 109.3050 109.3402 109.3651
   109.5029 109.7320 109.7649 109.7775 110.0537 110.0991 110.1599 110.2701
   110.2755 110.3850 110.5807 110.6363 110.7224 110.8027 110.8762 111.0155
   111.1429 111.1669 111.1723 111.2699 111.3157 111.3477 111.5723 111.6092
   111.8498 111.8947 111.9298 112.1314 112.2926 112.3178 112.5718 112.6989
   112.8457 112.9497 113.1618 113.1686 113.3565 113.3885 113.4678 113.7367
   113.7909 113.9088 113.9211 114.0423 114.0509 114.1676 114.3605 114.4294
   114.5684 114.6006 114.6794 114.7008 114.9223 115.0404 115.1230 115.2598
   115.2652 115.2817 115.4089 115.5124 115.5272 115.6639 115.8102 116.0646
   116.1987 116.4067 116.4628 116.5209 116.6666 116.6960 116.8816 116.9237
   116.9755 117.1346 117.3595 117.3978 117.5800 117.6207 117.6449 117.9329
   117.9709 117.9873 118.0148 118.0294 118.1727 118.1821 118.3211 118.4258
   118.6453 118.7024 118.7782 118.9715 118.9783 119.1142 119.1551 119.2824
   119.3480 119.3756 119.4904 119.4974 119.5874 119.6504 119.7874 119.8464
   119.9036 119.9159 119.9201 120.0556 120.1015 120.2262 120.2286 120.2491
   120.3013 120.3790 120.4121 120.4846 120.4954 120.5891 120.7356 120.7474
   120.8764 121.0170 121.1158 121.3339 121.4397 121.5525 121.7661 121.8210
   121.9135 121.9221 121.9635 122.2197 122.2436 122.2615 122.5315 122.5845
   122.6081 122.7398 122.8727 123.0005 123.0712 123.1190 123.3160 123.3545
   123.3981 123.5473 123.7078 123.7982 123.9687 124.0123 124.0475 124.0896
   124.1866 124.2363 124.4550 124.5293 124.6092 124.6616 124.8312 124.9230
   124.9271 125.0683 125.2118 125.2605 125.2789 125.3475 125.4112 125.5339
   125.6460 125.6808 125.8192 125.8606 125.8642 126.1813 126.3121 126.3744
   126.3870 126.5909 126.5915 126.7224 126.7308 126.8395 126.9837 127.0399
   127.0893 127.1465 127.2322 127.2549 127.3572 127.5171 127.6215 127.7571
   127.8297 127.9041 127.9283 128.0587 128.1265 128.1307 128.3106 128.4727
   128.5087 128.5681 128.6804 128.7110 128.7384 128.7408 128.8287 128.8514
   128.9318 129.1139 129.1575 129.2037 129.3303 129.3472 129.3480 129.4672
   129.5947 129.6386 129.7250 129.7796 129.8314 129.9544 129.9633 130.2442
   130.3885 130.4022 130.4566 130.6236 130.7306 130.8726 130.9001 130.9518
   130.9593 131.1496 131.1695 131.2218 131.3860 131.3984 131.5214 131.5440
   131.6455 131.7089 131.7173 131.8147 131.8401 131.9355 132.1114 132.1355
   132.1702 132.2330 132.3233 132.5378 132.6104 132.7182 132.7444 132.8157
   132.8810 133.0869 133.1135 133.1967 133.2467 133.4124 133.4178 133.6452
   133.6621 133.8052 134.0055 134.0349 134.0616 134.0829 134.1256 134.3879
   134.3965 134.5880 134.6476 134.7263 134.7289 134.7673 134.9704 135.0472
   135.1943 135.3260 135.3323 135.4300 135.5338 135.6180 135.7153 135.7871
   135.7903 135.9154 136.0607 136.1304 136.2876 136.2951 136.3330 136.3430
   136.4330 136.4902 136.6462 136.8359 136.8874 136.9044 137.0565 137.1468
   137.1687 137.2603 137.2809 137.3485 137.4314 137.5698 137.6237 137.6891
   137.7178 137.8262 137.8668 137.8984 137.9936 138.0983 138.2258 138.2640
   138.2677 138.3131 138.3221 138.4249 138.4780 138.4994 138.5068 138.6456
   138.6730 138.9213 138.9501 139.0777 139.1810 139.2464 139.3622 139.4532
   139.5208 139.6144 139.7615 139.7828 139.8957 140.0161 140.1181 140.2107

          k = 0.0000-0.5774 0.0000 ( 10818 PWs)   bands (ev):

   -30.2768 -30.2259 -30.1703 -30.1535 -30.1511 -30.1479 -30.1025 -30.1003
   -30.0607 -30.0189 -11.0249  -9.4362  -4.6084  -3.1800  -3.1343  -0.0083
     0.7404   1.8689   3.4193   5.1912   5.3181   5.6296   6.0155   6.2283
     6.6266   6.8538   6.9318   7.0453   7.9107   8.5188   8.8319   8.8489
     8.8595   9.3830  10.3352  10.4556  10.5435  11.3375  11.3454  11.4796
    11.5405  11.5854  11.5866  11.8726  12.0320  12.0958  12.7872  12.8080
    12.8360  13.0840  14.3524  14.5773  14.5786  14.5807  14.7429  14.9824
    15.1685  15.2635  15.9356  16.0245  16.3515  17.1606  17.2857  17.4085
    17.4855  17.5428  17.6984  18.3515  18.6310  18.8743  19.0298  19.0694
    19.7478  20.0072  20.1500  20.5105  20.8765  20.9056  21.0700  21.2283
    22.1716  23.1034  23.1066  23.2816  23.2955  23.3285  23.6187  23.7208
    23.8424  23.8456  23.9151  23.9189  24.0313  24.0735  24.4269  24.4484
    24.6074  24.6908  24.7194  24.8152  24.9177  24.9277  24.9844  25.0515
    25.0760  25.2089  25.9099  25.9104  26.3800  26.5251  26.5307  26.5657
    26.6701  26.7302  26.8741  27.0803  27.2701  27.8838  28.3000  28.3601
    28.5634  28.7415  28.9793  29.0399  29.1674  29.1697  29.2153  29.4311
    29.5635  29.6350  29.6720  29.6885  29.7519  29.7718  29.7816  29.7926
    29.9496  30.0161  30.0696  30.3043  30.5984  30.7472  30.9648  31.0082
    32.1635  32.2114  32.4065  32.4071  32.4699  32.6267  32.6336  32.7100
    32.7473  32.8700  33.0892  33.1467  33.2898  33.6507  34.0522  34.5240
    34.5767  34.6503  34.8953  34.9700  35.0389  35.0626  35.1687  35.4361
    35.5747  35.7144  35.8671  35.9366  36.2028  36.3432  36.6261  36.7924
    36.8293  36.8532  37.0050  37.3311  37.3576  38.0539  38.5501  38.6645
    38.8693  38.9555  39.0623  39.0744  39.4847  40.3703  40.4557  40.5996
    40.7483  40.9514  40.9713  41.0297  41.2272  41.2589  41.3116  41.3802
    41.4654  41.6250  41.6692  41.6731  41.7951  41.8750  41.9011  41.9065
    42.1268  42.1622  42.1820  42.4079  42.4126  42.4173  42.5482  42.5525
    42.6114  42.6262  42.6951  42.7155  42.9408  42.9491  43.0502  43.1179
    43.1299  43.2771  44.0788  44.3847  44.4075  44.5277  44.5689  44.6058
    44.7945  44.8257  44.9608  45.4262  45.9140  46.0769  46.3318  46.4795
    46.8140  46.8461  46.8476  46.9484  47.0628  47.1007  47.1804  47.1844
    47.1933  47.3566  47.3824  47.5014  47.7268  47.7965  47.8887  48.0130
    48.0564  48.0863  48.3889  48.7984  48.9883  49.1152  49.1711  49.5843
    49.7132  49.7484  49.9923  50.2288  50.2759  50.5923  50.6809  50.7146
    50.7598  50.8554  51.0715  51.3055  51.7576  51.9345  52.0363  52.0603
    52.1930  52.2746  52.6442  52.8574  53.1397  53.1488  53.1679  53.3154
    53.6231  53.6660  53.8491  53.8625  54.0837  54.2048  54.2385  54.2618
    54.7102  54.8449  54.8499  54.9127  55.0625  55.1034  55.2901  55.2960
    55.3979  55.5711  55.7231  56.1487  56.4531  56.8976  57.0051  57.2654
    57.4350  57.4899  57.7830  58.0421  58.1265  58.5307  58.6298  58.6989
    58.7994  58.8130  58.9339  59.2010  59.3155  59.3215  59.3258  59.3925
    59.3941  59.4597  59.5673  59.5934  59.6126  59.6448  59.7101  59.7631
    59.8147  59.9630  59.9727  60.0722  60.1457  60.1552  60.2810  60.3205
    60.3792  60.3846  60.4227  60.4746  60.5990  60.6516  61.0214  61.0224
    61.1873  61.5932  61.6382  61.7757  61.7953  61.9978  62.2622  62.2825
    62.4722  62.4793  62.5025  62.6997  62.7036  62.9104  63.1185  63.2016
    63.2912  63.4798  63.8586  64.1470  64.2357  64.3610  64.3914  64.5298
    64.6840  64.6851  64.7141  64.8020  64.8295  64.9209  64.9512  65.0493
    65.0749  65.1753  65.2822  65.3151  65.3326  65.4866  65.5035  65.5274
    65.5408  65.6169  65.6873  65.7023  65.8330  65.9821  66.0473  66.1282
    66.2249  66.3201  66.3379  66.3713  66.4110  66.4258  66.4996  66.6366
    66.6524  66.6547  66.7563  66.8150  66.8877  66.9826  67.3745  67.4598
    67.4979  67.6745  67.7688  67.8526  67.9197  68.0364  68.0869  68.1014
    68.1944  68.2249  68.3211  68.3649  68.4778  68.5422  68.5477  68.7103
    68.7416  68.7876  68.9428  69.3079  69.5235  69.7510  70.1244  70.3730
    70.4650  70.5138  70.5811  70.7933  70.8221  70.8763  70.9388  71.0304
    71.0405  71.0566  71.1127  71.4376  71.4793  71.7459  71.7831  71.7942
    71.9062  72.1005  72.1006  72.1439  72.1674  72.3365  72.4754  72.4808
    72.5642  72.7252  72.8180  73.1145  73.1566  73.3491  73.6750  73.8123
    73.8160  74.0028  74.1131  74.1640  74.1928  74.2316  74.3413  74.3777
    74.4309  74.7462  75.0555  75.0596  75.0859  75.0909  75.2909  75.4173
    75.4499  75.6405  75.9292  76.1454  76.2052  76.2932  76.4115  76.4410
    76.4414  76.6092  76.9315  76.9528  76.9572  76.9699  77.1708  77.2442
    77.4003  77.4763  77.5057  77.5780  77.6409  77.6902  77.7653  77.8707
    77.9379  77.9736  77.9882  78.2935  78.3140  78.3190  78.3583  78.4284
    78.4876  78.5410  78.6512  78.6739  78.6944  78.8616  78.9719  79.0824
    79.7643  79.8079  79.9381  80.0952  80.2617  80.3275  80.4617  80.4658
    80.7822  80.8242  80.9833  81.0304  81.0765  81.2228  81.2348  81.4835
    81.6103  81.8671  82.0986  82.1284  82.1569  82.3868  82.5793  82.6375
    82.7897  82.8740  82.8845  82.9661  83.0230  83.0257  83.1062  83.2005
    83.2181  83.2740  83.3610  83.3958  83.4484  83.4524  83.4547  83.5357
    83.6012  83.6862  83.7654  83.7926  83.9686  83.9819  83.9873  84.1141
    84.3116  84.3677  84.4667  84.4823  84.4981  84.7453  84.8283  84.8758
    84.9612  85.0560  85.2562  85.5353  85.5497  85.5791  85.7333  85.7632
    85.8231  85.9673  86.0193  86.1548  86.1665  86.3180  86.3329  86.4760
    86.4960  86.7579  86.9904  87.4421  87.5730  87.6214  87.8871  87.9163
    88.2922  88.3595  88.3797  88.4288  88.4469  88.4845  88.5039  88.5244
    88.7923  88.8212  88.8959  88.9119  89.0956  89.1153  89.2036  89.5907
    89.7240  89.8978  89.9090  90.0506  90.0783  90.2403  90.2955  90.3371
    90.3542  90.5736  90.6201  90.6519  90.7216  91.0059  91.2426  91.2830
    91.3895  91.5914  91.9216  91.9901  92.1223  92.1972  92.4083  92.5517
    92.6298  92.6813  92.7777  92.8300  92.9653  93.1089  93.2241  93.2910
    93.3372  93.3456  93.5473  93.6038  93.7986  93.9207  93.9555  93.9834
    94.0857  94.1295  94.2791  94.3160  94.4283  94.5493  94.5634  94.5866
    94.6437  94.7764  94.8505  94.8861  94.8988  94.9374  95.0232  95.1577
    95.2001  95.2645  95.3589  95.4148  95.4424  95.5042  95.6518  95.6995
    95.7143  95.7229  95.7339  95.7540  95.9429  95.9455  95.9627  95.9883
    96.0733  96.1243  96.1495  96.1631  96.2433  96.3572  96.4554  96.5289
    96.5442  96.6096  97.2030  97.3964  97.6199  97.6242  97.7137  97.7729
    97.7869  97.9049  97.9158  98.2417  98.4038  98.4476  98.6779  98.8358
    98.9545  99.0409  99.1024  99.3126  99.4375  99.6826  99.7931  99.8005
    99.9210  99.9438 100.0411 100.1000 100.1615 100.2745 100.4229 100.4584
   100.6059 100.8492 100.8683 100.8906 100.8997 100.9290 100.9494 101.0709
   101.0756 101.1993 101.2676 101.3524 101.5123 101.5667 101.5984 101.6702
   101.7411 101.7774 101.8455 101.9686 102.0154 102.1310 102.3558 102.3724
   102.4249 102.4774 102.5057 102.6674 102.7397 102.9345 102.9435 103.0575
   103.1107 103.1518 103.3232 103.3243 103.4167 103.4734 103.5331 103.5679
   103.6827 103.6994 103.8945 103.9063 103.9517 104.0647 104.0882 104.3036
   104.4962 104.5552 105.2145 105.2481 105.3292 105.5141 105.5724 105.5870
   105.7067 105.7169 105.8421 106.0297 106.0661 106.2181 106.2544 106.5179
   106.6428 106.6754 107.1939 107.3764 107.4307 107.5060 107.5211 107.5601
   107.6244 107.8005 107.8678 108.1258 108.1313 108.1595 108.1797 108.3764
   108.3897 108.6350 108.6812 108.7542 108.8539 108.9144 109.1422 109.1436
   109.2176 109.3212 109.6269 109.7587 109.8394 109.8922 109.9176 110.0014
   110.0961 110.3602 110.3671 110.5021 110.6680 110.7056 110.7317 110.7382
   110.9264 110.9453 111.0957 111.3181 111.3377 111.5186 111.5843 111.6324
   111.6409 111.9158 111.9305 112.0609 112.2602 112.3638 112.4489 112.5263
   112.6048 112.6274 112.7752 112.7780 112.7825 112.9044 112.9218 112.9821
   113.0301 113.0804 113.0981 113.1561 113.2926 113.3268 113.4213 113.4278
   113.4745 113.4897 113.5263 113.5334 113.6447 113.6868 113.7114 113.8461
   113.9204 113.9681 113.9728 114.1124 114.1976 114.3059 114.3305 114.3772
   114.3779 114.5212 114.5377 114.6250 114.7029 114.8687 115.0431 115.1499
   115.2093 115.2490 115.6402 115.6567 115.6673 115.7067 115.8897 115.9288
   115.9336 115.9802 116.0985 116.2564 116.2890 116.4304 116.4433 116.8351
   116.8680 116.9474 117.0533 117.1506 117.2734 117.3892 117.4865 117.5568
   117.5748 117.6261 117.7142 117.7508 118.0294 118.0552 118.0877 118.1465
   118.2916 118.3733 118.4491 118.4851 118.5178 118.5281 118.6247 118.6279
   118.6894 118.7273 118.7858 118.8161 118.9400 118.9597 119.0439 119.0933
   119.1701 119.1844 119.1928 119.3187 119.4161 119.4717 119.5236 119.6044
   119.6053 119.6273 119.7831 119.8098 119.8728 119.9015 119.9356 119.9357
   119.9568 120.0383 120.0457 120.1161 120.1542 120.2482 120.3070 120.3505
   120.5173 120.5226 120.6734 120.7839 120.8131 120.8223 120.9257 120.9969
   121.1203 121.1313 121.1337 121.2339 121.2574 121.3400 121.3603 121.5298
   121.6732 121.6969 121.7513 121.7725 121.7987 121.9027 121.9912 122.0269
   122.1730 122.2205 122.2638 122.4069 122.6699 122.7226 123.0263 123.1232
   123.2798 123.4417 123.4776 123.5768 123.6018 123.6169 123.6406 123.9051
   124.0134 124.0350 124.1280 124.1541 124.1853 124.2345 124.3193 124.3839
   124.3924 124.5182 124.8118 124.9240 124.9353 125.1118 125.1186 125.2362
   125.2624 125.3662 125.3663 125.3922 125.4238 125.4665 125.5428 125.5589
   125.6531 125.6875 125.7862 125.9196 126.0953 126.1129 126.1414 126.1428
   126.1676 126.2980 126.3145 126.3606 126.4543 126.5077 126.6554 126.7625
   126.9676 127.0121 127.0146 127.1586 127.2252 127.4054 127.6922 127.7242
   127.7577 127.8976 127.9581 128.0031 128.2055 128.2730 128.3122 128.3720
   128.3798 128.4524 128.7174 128.7556 128.8039 128.9375 129.1256 129.3188
   129.5899 129.6711 129.6989 129.7092 129.7780 129.8501 129.9213 130.1035
   130.1565 130.1672 130.2360 130.2984 130.3376 130.3916 130.5286 130.5776
   130.5910 130.6088 130.6501 130.6538 130.7643 130.8210 130.8513 131.0000
   131.0606 131.0968 131.1774 131.1802 131.2429 131.4044 131.4494 131.4546
   131.5311 131.6278 131.6297 131.6472 131.6632 131.7418 131.8027 131.8107
   131.8159 131.8507 131.9044 131.9085 131.9487 131.9971 132.0353 132.1983
   132.2110 132.2926 132.4560 132.5233 132.7217 132.8497 132.9030 133.0248
   133.0386 133.1379 133.1792 133.2307 133.3151 133.3758 133.5223 133.5774
   133.7141 133.7204 133.7893 133.8474 134.0044 134.0132 134.0622 134.1275
   134.1595 134.4898 134.5009 134.5476 134.6555 134.8491 134.8806 135.2654
   135.3368 135.3442 135.3508 135.4258 135.4849 135.5237 135.6140 135.6216
   135.7115 135.8315 135.9240 135.9342 136.0153 136.0529 136.1479 136.2700
   136.2800 136.4230 136.4886 136.6083 136.6506 136.6913 136.7533 136.8062
   136.8108 136.8779 136.9474 137.0413 137.0555 137.0719 137.1391 137.1712
   137.2643 137.3370 137.4494 137.4495 137.5473 137.5965 137.6832 137.9859
   138.0013 138.1303 138.1612 138.2992 138.3205 138.5336 138.5608 138.5916

          k = 0.2500 0.4330 0.0000 ( 10796 PWs)   bands (ev):

   -30.2780 -30.2113 -30.1931 -30.1649 -30.1477 -30.1314 -30.1030 -30.0922
   -30.0658 -30.0204 -11.1326  -9.1619  -4.6707  -4.1627  -2.7256   0.3144
     1.0582   2.2137   4.5545   4.6878   5.1599   5.2524   5.6296   6.2298
     6.2807   7.4560   7.5633   7.6970   8.0825   8.2024   8.3905   8.8402
     8.9185   9.0310   9.1608   9.4594   9.7903  10.5588  10.6694  10.8752
    11.0016  11.0623  11.2674  11.2851  12.0992  13.1169  13.3273  13.6886
    13.6970  13.8547  14.0387  14.3909  14.4209  15.0026  15.9478  16.4031
    16.6141  16.8741  16.9181  17.1638  17.1709  17.2900  17.3341  17.6442
    17.8518  18.0489  18.0991  18.1398  18.2552  18.3792  18.4059  19.3900
    19.4096  19.5605  19.9020  19.9074  20.1165  20.2209  20.8714  21.2099
    21.2592  21.3713  21.9979  22.1436  22.3821  22.5053  22.5854  22.6845
    22.7375  22.9150  23.0300  23.1712  23.3577  23.5488  23.9605  24.0043
    24.3653  24.5706  25.2762  25.4538  25.5678  25.5791  25.7474  25.8970
    25.9121  26.0930  26.1069  26.1159  26.2093  26.2645  26.3687  26.3959
    26.7791  26.8512  26.9982  27.1181  27.2272  27.2508  28.0922  28.3050
    28.4718  28.4946  28.7908  28.8883  28.9195  29.0908  29.0991  29.3335
    29.7290  29.9246  30.2435  30.2640  30.8863  30.9720  31.0072  31.3828
    31.3991  31.4947  31.5122  31.5714  31.8253  31.8517  31.8835  31.9773
    31.9941  32.1395  32.2649  32.2978  32.8670  32.9785  33.0409  33.0732
    33.7781  33.9713  33.9992  34.2630  34.3248  34.5274  34.6144  34.6903
    34.8218  34.8418  34.9327  34.9526  35.0332  35.0455  35.1291  35.1481
    35.2822  35.4344  35.5870  35.7070  35.8014  35.8946  35.9861  36.0730
    36.3808  36.4572  36.7942  37.1175  37.1185  37.2171  37.4870  37.5133
    37.6723  37.7591  37.8458  37.8806  37.9435  38.0995  38.4688  38.7277
    38.9797  39.0550  39.3702  39.6813  39.8025  39.8142  40.0645  40.0646
    40.2313  40.3359  40.4214  40.5761  40.7984  40.8862  40.9831  41.0470
    41.0839  41.1566  41.5173  41.5921  41.8285  41.9699  42.2747  42.8829
    42.9742  43.3220  43.6065  43.6657  43.9427  43.9705  44.0291  44.2553
    44.3035  44.3648  44.4004  44.4655  44.8771  44.8982  45.1575  45.1860
    45.4531  45.6089  45.8691  46.1389  46.2645  46.3704  46.3717  46.5958
    47.0687  47.1337  47.5893  47.7908  47.9789  48.0769  48.2349  48.6594
    48.7351  48.8537  49.0688  49.1234  49.2027  49.3261  49.3949  49.4947
    49.6100  49.6138  49.7828  49.9119  49.9519  50.0998  50.1406  50.4982
    50.5876  50.6657  50.8823  51.0031  51.1727  51.3144  51.4945  51.6744
    51.9383  52.0185  52.1376  52.1952  52.2828  52.4054  52.4240  52.4309
    52.6143  52.6633  52.7670  52.8115  52.8640  52.8989  53.0027  53.1425
    53.1521  53.2252  53.3216  53.4100  53.5500  53.6566  53.8184  53.8410
    54.1393  54.3715  54.7244  54.8704  54.8799  54.9334  55.1424  55.1491
    55.2321  55.3071  55.4362  55.4725  55.5673  55.7204  55.7960  55.8184
    55.9516  56.1271  56.2662  56.4639  56.6129  56.9370  57.0963  57.4157
    57.4527  57.6675  58.0207  58.0715  58.1740  58.2432  58.3130  58.3219
    58.5578  58.6743  58.7534  58.7621  58.9415  58.9778  59.0340  59.1219
    59.2879  59.3986  59.4673  59.6203  59.7113  59.8082  60.0185  60.1877
    60.3931  60.5350  60.5480  60.7487  60.9423  60.9998  61.1987  61.2329
    61.2663  61.3882  61.5275  61.5870  61.6399  61.6934  61.7003  61.8532
    61.9186  61.9197  62.0920  62.2461  62.3647  62.3911  62.4161  62.5812
    62.6233  62.7318  62.7709  62.8039  62.9190  63.0560  63.0882  63.6653
    63.6876  63.8038  63.8710  63.9870  64.0589  64.1753  64.4475  64.5046
    64.5902  64.6556  64.7248  64.8006  65.1282  65.2021  65.3210  65.3954
    65.5217  65.7033  65.8582  66.1652  66.2519  66.3514  66.5036  66.6016
    66.8306  66.9870  67.0452  67.0663  67.1259  67.2442  67.4224  67.5828
    67.6006  67.7057  67.8110  67.9551  67.9883  68.1437  68.3043  68.3429
    68.4203  68.4733  68.6916  68.8661  68.9357  68.9785  69.0055  69.1588
    69.3003  69.3922  69.6661  69.8681  69.8994  70.1127  70.1390  70.1574
    70.2372  70.3278  70.3898  70.4561  70.5075  70.6178  70.6594  70.6899
    70.7605  70.8045  70.8272  70.9027  70.9918  71.0660  71.1347  71.3433
    71.3440  71.3723  71.3976  71.5539  71.6087  71.7017  71.7705  71.8831
    71.8849  71.9441  72.0178  72.4861  72.5091  72.7624  72.8998  73.0071
    73.1419  73.1534  73.2523  73.3157  73.3764  73.4763  73.4788  73.6802
    73.8190  74.0134  74.0374  74.2108  74.3196  74.4407  74.5828  74.7253
    74.8709  74.9832  75.0338  75.1570  75.2347  75.3120  75.4398  75.5119
    75.5790  75.7772  75.8920  75.9596  75.9927  76.0331  76.1312  76.2882
    76.3958  76.4152  76.4319  76.5496  76.6857  76.6875  76.9301  76.9573
    77.0886  77.1899  77.1984  77.4313  77.5128  77.6754  77.7526  77.7934
    78.0375  78.1468  78.1854  78.2647  78.4171  78.6405  78.6548  78.8564
    78.8796  78.9517  78.9706  79.1001  79.1704  79.2810  79.3591  79.4282
    79.4833  79.4865  79.5506  79.5857  79.7056  79.7574  79.7680  79.8150
    79.8664  80.1977  80.3973  80.4188  80.5160  80.5727  80.5970  80.9041
    81.1520  81.2832  81.4314  81.5969  81.7361  81.7709  81.9565  82.0806
    82.0862  82.2785  82.5104  82.5825  82.6763  82.7411  82.8901  82.9093
    82.9857  83.1640  83.1769  83.3889  83.4010  83.5378  83.6278  83.6504
    83.7533  83.9701  84.0915  84.2403  84.3273  84.4781  84.6198  84.6481
    84.6937  84.8470  84.8806  84.9374  85.0210  85.1167  85.1862  85.2812
    85.3081  85.6285  85.6766  85.7323  85.7587  85.8505  85.9329  85.9588
    86.1321  86.2510  86.3115  86.3601  86.4134  86.5160  86.5173  86.5727
    86.5960  86.6571  86.8425  86.8746  87.1843  87.2175  87.3268  87.4373
    87.4431  87.5728  87.6815  87.7180  87.9006  87.9407  88.0498  88.1572
    88.1632  88.2762  88.2796  88.3298  88.4154  88.5225  88.5259  88.6521
    88.7227  88.7264  88.8000  88.8618  88.9129  89.0087  89.2177  89.7289
    89.7472  90.1798  90.3991  90.4590  90.4678  90.6981  90.8585  91.0150
    91.0479  91.1046  91.1973  91.4271  91.5348  91.5868  91.7790  91.8084
    91.9261  92.2092  92.2384  92.2451  92.2702  92.5109  92.6634  92.7677
    92.8546  92.9500  93.1287  93.2221  93.2292  93.3677  93.3734  93.5287
    93.5948  93.6727  93.7681  93.8541  93.9669  94.0226  94.1973  94.4030
    94.4888  94.6075  94.6342  94.6999  94.7527  94.7754  94.9240  94.9475
    94.9829  95.2158  95.2826  95.3944  95.5065  95.7996  95.8099  95.8601
    96.0446  96.1983  96.3877  96.4290  96.5259  96.6658  96.6858  96.8481
    96.8613  97.0296  97.1039  97.1940  97.2453  97.3091  97.3658  97.5025
    97.5290  97.5944  97.6727  97.8273  97.9526  98.0101  98.1053  98.1078
    98.2035  98.3249  98.4468  98.4839  98.5400  98.6280  98.7790  99.0001
    99.0330  99.0660  99.1409  99.3456  99.3595  99.5076  99.5525  99.9031
    99.9122  99.9768 100.0441 100.1064 100.1769 100.3706 100.5762 100.6579
   100.8150 100.8479 100.8706 100.9027 100.9557 101.0327 101.4043 101.4098
   101.4382 101.6019 101.6354 101.6701 101.7632 101.9171 102.0748 102.3237
   102.3822 102.4503 102.5613 102.6774 102.7765 102.8330 102.9546 103.1612
   103.1766 103.2298 103.4208 103.4634 103.6031 103.7456 103.8944 103.9038
   103.9659 104.1093 104.1113 104.1497 104.2234 104.2546 104.3780 104.6277
   104.7828 104.8729 104.9466 105.0462 105.2790 105.3631 105.4963 105.5951
   105.6246 105.6923 105.8419 105.8654 105.9227 106.0568 106.0647 106.2137
   106.2215 106.2509 106.4362 106.4485 106.4852 106.6322 106.6352 106.7093
   106.8207 106.9486 107.0642 107.1912 107.2250 107.2654 107.3354 107.4369
   107.5357 107.5603 107.7099 107.9073 107.9218 108.0648 108.2300 108.2749
   108.4168 108.4909 108.5149 108.6034 108.6230 108.7535 108.8258 108.9591
   108.9667 109.0398 109.0624 109.1357 109.3537 109.3600 109.4706 109.4930
   109.6286 109.6483 109.9053 110.0085 110.0234 110.1484 110.2486 110.2605
   110.3410 110.5895 110.7483 110.7925 110.8207 111.0899 111.1202 111.1594
   111.3282 111.3375 111.4745 111.5322 111.6721 111.8797 111.9620 111.9671
   112.1627 112.2143 112.4106 112.4115 112.4888 112.5468 112.5615 112.7891
   112.7963 112.8532 112.8911 112.9702 113.0665 113.0971 113.1073 113.1868
   113.2116 113.2472 113.2956 113.3969 113.4997 113.5139 113.6615 113.7185
   113.7542 113.7779 113.9612 114.1536 114.1640 114.2430 114.2652 114.2836
   114.3250 114.5184 114.5526 114.6190 114.6845 114.7906 114.8170 114.8672
   114.8735 114.9007 115.0194 115.1100 115.1883 115.2085 115.2636 115.2804
   115.3083 115.3592 115.4328 115.4674 115.6139 115.6794 115.7051 115.7693
   115.8284 115.8565 116.0323 116.1500 116.1501 116.2579 116.3976 116.4081
   116.6110 116.7696 117.0466 117.0609 117.1494 117.2003 117.2181 117.3102
   117.5621 117.5983 117.7289 117.7682 117.8206 117.9085 118.1136 118.1781
   118.3344 118.3891 118.3980 118.4521 118.4734 118.6701 118.8228 118.8989
   118.9416 119.0549 119.1195 119.1636 119.2459 119.2941 119.4025 119.4900
   119.5520 119.6538 119.7534 119.8182 119.9685 120.0775 120.1112 120.1147
   120.2543 120.3248 120.3677 120.4079 120.5266 120.5732 120.6410 120.7339
   120.8844 120.9753 120.9866 121.1838 121.2190 121.2693 121.2867 121.3604
   121.4637 121.5429 121.5656 121.6568 121.7537 121.8264 121.8621 121.9567
   122.0435 122.0690 122.1065 122.2224 122.2655 122.3996 122.4859 122.5423
   122.6749 122.7273 122.8042 122.9924 123.0374 123.0852 123.1832 123.1968
   123.3792 123.4039 123.5259 123.5356 123.6497 123.7846 123.8828 123.8907
   124.0150 124.0173 124.1798 124.2327 124.2786 124.4347 124.4541 124.5341
   124.5717 124.5934 124.6538 124.6905 124.8319 124.8873 124.9094 124.9569
   125.1374 125.2171 125.3484 125.3586 125.3675 125.3957 125.4949 125.6520
   125.8619 125.9076 126.2099 126.2932 126.3527 126.5572 126.6067 126.6407
   126.7489 126.8488 126.8913 127.0113 127.0303 127.1598 127.2571 127.3389
   127.4698 127.6321 127.7476 127.8769 127.9788 128.1034 128.1261 128.2248
   128.3517 128.4416 128.4578 128.7065 128.7276 128.7289 128.8725 129.0387
   129.0396 129.0867 129.1777 129.1892 129.2090 129.3709 129.4568 129.5410
   129.5618 129.5771 129.6263 129.6778 129.8419 129.9382 129.9889 130.0814
   130.0974 130.1688 130.2554 130.3404 130.3837 130.3902 130.4303 130.5008
   130.5298 130.6586 130.7176 130.7389 130.8306 130.8980 130.9366 130.9992
   131.1036 131.1163 131.2097 131.2446 131.3478 131.4281 131.4450 131.6259
   131.6427 131.6953 131.8373 131.8460 131.8772 132.1618 132.1925 132.2186
   132.2830 132.3100 132.3748 132.4398 132.5110 132.5329 132.6110 132.6203
   132.7081 132.7232 132.8964 132.9211 133.0154 133.0421 133.2089 133.2940
   133.3279 133.3675 133.4064 133.4925 133.5496 133.6148 133.6941 133.6959
   133.9471 133.9567 134.0322 134.0587 134.0863 134.2105 134.2981 134.4167
   134.4285 134.4578 134.5383 134.6743 134.8588 134.8808 134.9435 135.0767
   135.1253 135.1727 135.1863 135.2674 135.3869 135.4119 135.4490 135.5148
   135.5578 135.7331 135.8064 135.8174 135.9379 135.9746 136.0128 136.0650
   136.1311 136.2565 136.4257 136.5879 136.6629 136.8400 136.8757 137.0178
   137.0554 137.1758 137.1778 137.3311 137.3459 137.4272 137.5293 137.6884
   137.7555 137.8879 137.9177 137.9922 138.0050 138.1275 138.3375 138.3482
   138.4722 138.5116 138.5314 138.5553 138.6854 138.7170 138.8128 138.8787

     the Fermi energy is    -0.7783 ev
     (compare with:    -0.7064 eV, computed in scf)

     Writing all to output data dir out/Sb.save/
 
     init_run     :      0.24s CPU      0.27s WALL (       1 calls)
     electrons    :    292.11s CPU    300.29s WALL (       1 calls)

     Called by init_run:
     wfcinit      :      0.00s CPU      0.00s WALL (       1 calls)
     potinit      :      0.03s CPU      0.04s WALL (       1 calls)
     hinit0       :      0.02s CPU      0.04s WALL (       1 calls)

     Called by electrons:
     c_bands      :    292.10s CPU    300.29s WALL (       1 calls)
     v_of_rho     :      0.02s CPU      0.03s WALL (       1 calls)

     Called by c_bands:
     init_us_2    :      0.00s CPU      0.00s WALL (       4 calls)
     init_us_2:cp :      0.00s CPU      0.00s WALL (       4 calls)
     cegterg      :    284.22s CPU    292.21s WALL (       4 calls)

     Called by *egterg:
     cdiaghg      :    241.72s CPU    249.13s WALL (      48 calls)
     h_psi        :      9.21s CPU      9.40s WALL (      52 calls)
     g_psi        :      0.07s CPU      0.07s WALL (      44 calls)

     Called by h_psi:
     h_psi:calbec :      0.20s CPU      0.21s WALL (      52 calls)
     vloc_psi     :      8.73s CPU      8.90s WALL (      52 calls)
     add_vuspsi   :      0.19s CPU      0.19s WALL (      52 calls)

     General routines
     calbec       :      0.20s CPU      0.21s WALL (      52 calls)
     fft          :      0.02s CPU      0.04s WALL (      10 calls)
     fftw         :      7.72s CPU      7.87s WALL (   70362 calls)
 
     Parallel routines
 
     PWSCF        :   4m53.26s CPU   5m 1.99s WALL

 
   This run was terminated on:  16:27: 1   5Apr2024            

=------------------------------------------------------------------------------=
   JOB DONE.
=------------------------------------------------------------------------------=
