
     Program PWSCF v.7.1 starts on  5Apr2024 at 17:15:53 

     This program is part of the open-source Quantum ESPRESSO suite
     for quantum simulation of materials; please cite
         "P. Giannozzi et al., J. Phys.:Condens. Matter 21 395502 (2009);
         "P. Giannozzi et al., J. Phys.:Condens. Matter 29 465901 (2017);
         "P. Giannozzi et al., J. Chem. Phys. 152 154105 (2020);
          URL http://www.quantum-espresso.org", 
     in publications or presentations arising from this work. More details at
     http://www.quantum-espresso.org/quote

     Parallel version (MPI), running on     8 processors

     MPI processes distributed on     1 nodes
     184375 MiB available memory on the printing compute node when the environment starts
 
     Reading input from pw_Sb_nscf_k48_E45.in
Warning: card &IONS ignored
Warning: card / ignored
Warning: card &CELL ignored
Warning: card / ignored

     Current dimensions of program PWSCF are:
     Max number of different atomic species (ntypx) = 10
     Max number of k-points (npk) =  40000
     Max angular momentum in pseudopotentials (lmaxx) =  4

     Atomic positions and unit cell read from directory:
     out/Sb.save/
     Atomic positions from file used, from input discarded
 
 
     R & G space division:  proc/nbgrp/npool/nimage =       8
     Subspace diagonalization in iterative solution of the eigenvalue problem:
     one sub-group per band group will be used
     scalapack distributed-memory algorithm (size of sub-group:  2*  2 procs)

 
     Parallelization info
     --------------------
     sticks:   dense  smooth     PW     G-vecs:    dense   smooth      PW
     Min          93      93     26                10817    10817    1694
     Max          94      94     27                10844    10844    1711
     Sum         745     745    211                86573    86573   13599
 
     Using Slab Decomposition
 


     bravais-lattice index     =            4
     lattice parameter (alat)  =       7.7553  a.u.
     unit-cell volume          =    2121.0124 (a.u.)^3
     number of atoms/cell      =            2
     number of atomic types    =            1
     number of electrons       =        30.00
     number of Kohn-Sham states=         1200
     kinetic-energy cutoff     =      45.0000  Ry
     charge density cutoff     =     180.0000  Ry
     Exchange-correlation= PBE
                           (   1   4   3   4   0   0   0)

     celldm(1)=   7.755267  celldm(2)=   0.000000  celldm(3)=   5.250762
     celldm(4)=   0.000000  celldm(5)=   0.000000  celldm(6)=   0.000000

     crystal axes: (cart. coord. in units of alat)
               a(1) = (   1.000000   0.000000   0.000000 )  
               a(2) = (  -0.500000   0.866025   0.000000 )  
               a(3) = (   0.000000   0.000000   5.250762 )  

     reciprocal axes: (cart. coord. in units 2 pi/alat)
               b(1) = (  1.000000  0.577350  0.000000 )  
               b(2) = (  0.000000  1.154701  0.000000 )  
               b(3) = (  0.000000  0.000000  0.190449 )  


     PseudoPot. # 1 for Sb read from file:
     /usr/scratch4/magr4985/FGWC/FGWC/pseudo/SG15/Sb.upf
     MD5 check sum: 0417cd6c0fe8ce4611e2b23135f1abd9
     Pseudo is Norm-conserving, Zval = 15.0
     Generated using ONCVPSP code by D. R. Hamann
     Using radial grid of  602 points,  6 beta functions with: 
                l(1) =   0
                l(2) =   0
                l(3) =   1
                l(4) =   1
                l(5) =   2
                l(6) =   2

     atomic species   valence    mass     pseudopotential
        Sb            15.00   121.76000     Sb( 1.00)

     12 Sym. Ops., with inversion, found



   Cartesian axes

     site n.     atom                  positions (alat units)
         1           Sb  tau(   1) = (   0.5000000   0.2886752   2.4245708  )
         2           Sb  tau(   2) = (   0.0000000   0.5773502   2.8261916  )

     number of k points=     7  Gaussian smearing, width (Ry)=  0.0005
                       cart. coord. in units 2pi/alat
        k(    1) = (   0.0000000   0.0000000   0.0000000), wk =   0.0555556
        k(    2) = (   0.0000000   0.1924501   0.0000000), wk =   0.3333333
        k(    3) = (   0.0000000   0.3849002   0.0000000), wk =   0.3333333
        k(    4) = (   0.0000000  -0.5773503   0.0000000), wk =   0.1666667
        k(    5) = (   0.1666667   0.2886751   0.0000000), wk =   0.3333333
        k(    6) = (   0.1666667   0.4811252   0.0000000), wk =   0.6666667
        k(    7) = (   0.3333333   0.5773503   0.0000000), wk =   0.1111111

     Dense  grid:    86573 G-vectors     FFT dimensions: (  36,  36, 180)

     Estimated max dynamical RAM per process >     368.76 MB

     Estimated total dynamical RAM >       2.88 GB

     The potential is recalculated from file :
     out/Sb.save/charge-density

     Starting wfcs are random

     Band Structure Calculation
     Davidson diagonalization with overlap

     ethr =  5.00E-06,  avg # of iterations = 10.9

     total cpu time spent up to now is      522.9 secs

     End of band structure calculation

          k = 0.0000 0.0000 0.0000 ( 10857 PWs)   bands (ev):

   -30.2840 -30.2840 -30.2114 -30.2114 -30.1493 -30.0998 -30.0998 -30.0477
   -30.0160 -30.0160 -12.9650  -7.9787  -2.2960  -1.6170  -1.6170  -0.0318
     1.1543   1.1543   2.6650   2.8841   3.5730   4.0602   5.1061   5.6878
     5.8833   6.5295   6.5295   7.3624   7.4994   8.3008   8.3008   8.8555
     8.9107  11.2962  11.2962  11.3494  11.7648  12.1801  12.1801  12.4712
    13.3674  13.9559  13.9559  14.4891  14.4891  14.5011  14.7012  14.9754
    14.9796  14.9796  15.0434  15.0434  15.1301  15.4935  15.6956  15.7008
    15.7008  15.7089  15.7089  15.8604  15.8604  15.9562  15.9562  16.0640
    16.1949  16.2434  16.2883  17.4306  17.4306  17.5381  17.5632  17.5632
    17.7736  17.7736  17.8539  17.8539  17.9209  18.1293  18.2839  19.8977
    19.9792  19.9792  20.1752  20.1752  20.3441  20.4874  20.4874  20.5194
    20.5194  20.7212  20.9981  21.1121  21.1283  22.4837  23.2127  23.2127
    23.4173  23.4173  23.5844  23.8155  23.8959  23.8959  23.9157  23.9157
    24.3614  24.5152  25.1679  25.1679  25.8481  25.8481  25.9431  26.2137
    27.3119  27.3119  27.4290  27.4965  27.4965  27.6228  27.9230  27.9663
    27.9663  28.0230  28.0230  28.3794  28.6223  29.6402  30.8341  30.8341
    30.8412  30.8875  30.8875  31.8837  31.8837  32.0626  32.2883  32.2883
    32.4399  32.4399  32.6828  32.6855  32.9110  32.9110  33.0811  33.5517
    33.7592  33.7592  33.8673  33.8806  34.6182  35.1496  35.2772  35.5893
    35.5893  36.5328  36.5328  37.6298  37.6298  37.6367  37.8067  37.9299
    37.9299  38.0470  38.0470  38.1682  38.1682  38.2474  38.2474  38.2584
    38.4225  38.4225  38.4998  38.4998  38.6205  38.6323  38.7790  38.8542
    38.8542  38.9115  38.9115  38.9446  39.0780  39.3543  39.4361  39.4361
    39.4587  39.5014  39.5056  39.5671  39.6437  39.6437  39.7337  39.7337
    39.8355  39.8355  40.1399  41.0154  41.0154  41.2537  41.3421  41.3981
    41.4665  41.4665  41.5405  41.5405  41.7308  41.7308  41.9152  42.7500
    42.7500  42.7838  42.7838  42.9763  43.2302  43.2302  43.6920  43.6920
    43.8582  43.9458  43.9718  44.0798  44.0798  44.2177  44.2177  44.2571
    44.2793  44.3923  44.3923  44.5242  44.5242  44.5252  44.5252  44.6522
    44.6522  44.6645  44.8884  45.5762  45.6345  45.9850  45.9850  46.2777
    46.6553  46.9321  46.9321  47.2130  47.2346  47.2923  47.4991  47.4991
    47.5100  47.7769  47.7769  47.9605  48.0209  48.0209  48.1153  48.1153
    48.7871  49.6861  49.6861  49.8454  50.1369  50.1369  50.1779  50.1779
    50.3517  50.3517  50.4443  50.5933  50.5933  50.6051  50.6254  50.6723
    50.6723  50.6891  50.6891  50.7840  50.8083  50.8083  51.1680  51.1680
    51.1865  51.2937  51.3006  51.3778  51.4253  51.4728  51.4728  51.6385
    51.6385  51.6441  51.7043  51.7043  51.7415  51.7415  51.7557  51.7976
    51.7976  51.8290  51.9413  52.0919  52.0919  52.1259  52.1259  52.4167
    52.8620  53.1399  53.1399  53.1796  53.2728  53.4735  53.4735  53.5842
    53.5842  53.7037  53.7037  53.8611  53.9674  54.3233  54.6087  55.0034
    55.0034  55.7687  55.7777  55.7777  55.8106  55.8150  55.8150  55.8987
    55.8987  55.9120  56.0208  56.1827  56.2241  56.2241  56.4204  56.4204
    56.4542  56.4542  56.6149  56.6149  56.6714  56.9719  57.1698  57.6502
    57.6502  57.8522  57.8522  58.0490  58.0490  58.1657  58.5327  58.5327
    58.6609  58.9807  58.9807  59.0911  59.1628  59.4415  59.4772  59.4772
    59.5187  59.6603  59.6603  59.6869  59.6869  60.2914  60.2930  60.8624
    61.0691  61.0691  61.1057  61.3380  61.3380  61.4854  61.4854  61.8748
    61.8748  62.1344  62.4834  62.6213  62.6275  62.6943  63.2717  63.2717
    63.3110  63.3160  63.3160  63.3279  63.6786  63.6786  63.7585  63.7585
    64.1576  64.3372  64.4742  64.8206  64.8206  64.8516  64.8516  65.6903
    66.0081  66.0081  66.2566  66.2566  66.7394  66.8317  66.8317  67.0630
    67.1639  67.1639  67.2790  67.5281  67.5281  67.6323  67.8422  67.8422
    67.9164  67.9839  68.2661  68.2800  68.2800  68.3018  68.3262  68.3262
    68.5053  68.5221  68.5221  68.6774  68.8366  68.9089  68.9089  70.1511
    70.1511  70.2695  70.3781  70.3781  70.9238  71.2901  71.2901  71.6014
    72.3252  72.5707  72.5707  72.6148  72.6148  73.2545  73.2545  73.3499
    73.8797  73.8797  73.8871  73.8871  73.9986  74.0382  74.0750  74.1544
    74.4692  74.4697  74.4697  74.5247  74.5247  74.5801  74.6052  74.6052
    75.1131  75.1131  75.1468  75.3056  75.3057  75.4108  75.5773  75.6875
    75.6875  75.7228  75.7228  75.8566  75.8566  76.2166  76.3346  76.4147
    76.4147  76.4952  77.4368  77.4368  77.4891  77.5623  77.5623  78.0911
    78.0911  78.3573  78.8591  79.0240  79.2162  79.2162  79.2891  79.2891
    79.7453  79.8347  80.4552  80.4552  80.5881  80.5881  80.8713  80.8713
    80.9232  81.1685  81.1750  81.1750  81.4307  81.5850  81.5850  81.8270
    81.9731  81.9731  82.0186  82.0186  82.3731  82.4406  82.5516  82.8995
    82.9852  83.0580  83.3081  83.3081  83.3791  83.3791  83.4272  83.4272
    83.8851  83.8851  83.9797  84.1442  84.1442  84.2496  84.7176  84.7176
    84.7447  84.7447  84.7557  85.0462  85.3763  85.4220  85.4220  85.4361
    85.5043  85.5299  85.5299  85.6184  85.6184  85.7549  85.9831  85.9831
    86.1540  86.1540  86.1871  86.1871  86.1982  86.2672  86.2865  86.3711
    86.3711  86.3975  86.3975  86.4246  86.4341  86.4411  86.4582  86.4582
    86.5406  86.5406  86.5714  86.5714  86.6853  86.7995  86.7995  86.8332
    86.9016  86.9108  86.9807  87.0849  87.0849  87.1178  87.1178  87.1413
    87.1692  87.1692  87.2234  87.2490  87.2490  87.2682  87.2747  87.2788
    87.2788  87.2821  87.2821  87.5013  87.5013  87.5873  87.5873  88.0559
    88.1964  88.4472  88.4799  88.5108  88.5108  88.5263  88.5548  88.6945
    88.6945  88.7561  88.7561  88.8904  88.8904  89.0356  89.0356  89.0487
    89.0487  89.1303  89.1536  89.1816  89.1816  89.4389  89.4389  89.4943
    89.4943  89.5989  89.7175  89.7175  89.8126  89.8635  89.8635  89.9609
    89.9671  90.3250  90.3719  90.4837  90.4837  90.5808  90.9975  90.9975
    91.2545  91.2971  91.2976  91.2976  91.4178  91.5170  91.5170  91.5309
    91.5309  91.7857  91.7857  91.7911  91.7911  91.7996  91.8208  91.8434
    92.0300  92.0737  92.0737  92.2192  92.2192  92.3869  92.3869  92.5016
    92.7191  92.7420  92.7939  92.7939  93.1398  93.2105  93.2105  93.2850
    93.5379  93.5379  93.6526  93.7042  93.9965  93.9965  94.0581  94.1388
    94.1388  94.3243  94.3368  94.4414  94.4414  94.4919  94.4919  94.6602
    94.6602  94.6914  94.7130  94.7130  94.9366  94.9366  94.9815  95.0051
    95.0051  95.0260  95.0260  95.2126  95.2126  95.2126  95.2377  95.2608
    95.2608  95.3380  95.4409  95.6645  95.6645  95.7040  95.7138  95.7138
    96.2081  96.5802  96.7418  96.7418  96.8046  97.3733  97.3733  97.5645
    97.5645  97.8853  97.8994  97.9139  98.0247  98.0247  98.1209  98.1209
    98.4070  98.7541  98.7541  98.8173  98.8429  98.8429  98.9880  98.9880
    99.0650  99.0650  99.1271  99.1271  99.1512  99.1712  99.1952  99.3274
    99.3376  99.4477  99.4477  99.5101  99.7680  99.7680  99.9461 100.0760
   100.0760 100.2904 100.2904 100.7543 100.8496 100.8972 101.0073 101.0073
   101.1656 101.1656 101.1664 101.5102 101.5102 101.5877 101.8771 101.9881
   101.9881 102.0724 102.4406 102.4406 102.4618 102.9134 102.9308 103.0110
   103.0164 103.1383 103.1383 103.3457 103.4730 103.4730 103.6376 103.6376
   103.7422 103.7792 103.7792 103.9540 103.9540 104.0905 104.1035 104.1286
   104.1286 104.2361 104.2361 104.5447 104.5447 104.6928 104.6928 104.9459
   104.9459 104.9852 105.2585 105.2585 105.2694 105.2694 105.4853 105.6499
   105.7885 105.8124 105.8124 106.1668 106.3306 106.4320 106.4707 106.4707
   106.5527 106.5527 107.1225 107.2202 107.2202 107.3895 107.4060 107.4060
   107.5600 107.6098 107.7678 107.8571 107.8571 108.3907 108.3907 108.7996
   108.7996 108.8447 108.8467 108.8695 108.9015 108.9015 108.9524 108.9711
   109.0901 109.0901 109.2850 109.2850 109.3474 109.3474 109.5115 109.5722
   109.5740 109.8209 109.8209 109.9130 109.9130 110.0289 110.0289 110.0685
   110.0685 110.0885 110.2278 110.2712 110.2712 110.3444 110.3444 110.4232
   110.5022 110.5315 110.5315 110.5692 110.6187 110.6187 110.7838 110.7838
   110.7877 110.8351 110.8351 110.9140 110.9140 110.9536 110.9865 111.0216
   111.0956 111.0956 111.2403 111.2781 111.2781 111.5303 111.5303 112.2358
   112.3188 112.3727 112.3727 112.4243 112.4493 112.7172 112.7172 112.7754
   112.8856 112.8856 112.9922 112.9922 113.1614 113.6286 113.6726 113.6972
   113.6972 114.0333 114.0730 114.0730 114.0803 114.0803 114.2705 114.3000
   114.3358 114.8143 114.8143 114.8664 115.0365 115.1454 115.1454 115.2038
   115.2038 115.2345 115.2345 115.2460 115.2460 115.4533 115.4533 115.4972
   115.5628 115.5628 115.6066 115.6305 115.6561 115.8438 115.8438 115.8765
   115.8765 115.9056 116.0655 116.0655 116.0880 116.0880 116.3834 116.6402
   116.6402 116.8939 116.8939 117.0579 117.3163 117.3163 117.5068 117.5511
   117.5511 117.7091 117.7760 117.7760 117.8103 117.8103 117.8219 118.0114
   118.0569 118.1690 118.2011 118.2035 118.3023 118.4058 118.4058 118.4398
   118.4398 118.6676 118.6676 118.7689 118.7689 119.2952 119.3567 119.3567
   119.6721 119.7360 119.7360 119.7366 119.7366 119.8173 120.0558 120.0622
   120.2440 120.2440 120.3457 120.3835 120.3835 120.7021 120.7021 120.9255
   121.0830 121.1464 121.2587 121.2587 121.3490 121.5558 121.7636 121.7636
   121.9297 121.9297 122.2848 122.2848 122.3789 122.3789 122.4034 122.4302
   122.5109 122.5109 122.5493 122.7317 122.7317 122.7386 122.7483 122.7483
   123.2499 123.2564 123.2564 123.2643 123.3017 123.3017 123.6379 123.6379
   123.8880 123.9710 124.0093 124.0093 124.1485 124.1555 125.1101 125.4411
   125.4411 125.4631 125.4631 125.6635 125.9505 126.1761 126.1761 126.4499
   126.4499 126.8045 126.8311 127.1342 127.1342 127.1418 127.1418 127.3700
   127.3700 127.5151 127.5151 127.8050 127.8222 127.9732 128.2523 128.2523
   128.2642 128.3103 128.3103 128.4122 128.4448 128.4448 128.5048 129.0159
   129.0159 129.0225 129.0225 129.2176 129.2176 129.3413 129.4152 129.4417
   129.4758 129.5090 129.5090 129.5927 129.5927 129.7014 129.7014 129.7298
   129.7298 129.7805 129.7850 129.9741 129.9900 130.2578 130.2578 130.2967
   130.2967 130.4004 130.4034 130.4218 130.4218 130.6171 130.6322 130.6861
   130.6861 130.7272 130.7272 131.1789 131.1789 131.4774 131.4774 131.7236
   132.0088 132.0088 132.0564 132.1912 132.3856 132.9803 132.9803 133.0875
   133.7114 133.7114 133.9239 134.2208 134.2208 134.6988 134.9433 134.9806
   134.9806 135.2514 135.2514 135.5445 135.5445 135.7588 135.9660 136.0515
   136.1101 136.1101 136.3359 136.3708 136.3708 136.3881 136.6227 136.7408
   136.9167 136.9167 137.0497 137.6320 137.6320 137.7170 137.7170 137.8432
   137.9090 138.0350 138.0350 138.0686 138.1186 138.1186 138.4045 138.4045
   138.5833 138.5833 138.6986 138.6986 138.8344 139.0453 139.0453 139.0527
   139.1776 139.1776 139.2540 139.2540 139.3676 139.3729 139.4785 139.5169
   139.5169 139.8243 139.8243 139.8766 139.8766 140.2668 140.2668 140.3397
   140.3448 140.5054 140.5320 140.6061 140.6061 140.6881 140.6881 140.7061
   140.7188 141.0010 141.0010 141.0710 141.1481 141.1481 141.2793 141.3497
   141.3497 141.3805 141.4014 141.4691 141.4691 141.5004 141.6239 141.6239

          k = 0.0000 0.1925 0.0000 ( 10835 PWs)   bands (ev):

   -30.2823 -30.2704 -30.2091 -30.2024 -30.1461 -30.1064 -30.0998 -30.0521
   -30.0313 -30.0167 -12.6687  -7.9963  -3.4272  -2.1944  -2.1684   0.1348
     1.6245   1.6534   3.0119   3.2219   3.8718   4.3744   4.9015   5.6484
     6.1181   6.4304   6.5372   7.2181   8.1316   8.6014   9.0253   9.3270
     9.8170  10.4757  10.5460  10.8634  11.4133  11.9033  12.0122  12.1657
    12.3823  12.4857  12.4988  13.0052  13.3503  13.3870  13.8142  13.9231
    14.0672  14.1268  14.2494  14.3408  14.3892  14.5911  15.8471  15.9006
    16.0035  16.0323  16.1676  16.3825  16.6101  16.6557  16.7880  16.8757
    17.0947  17.3109  17.4006  18.0238  18.1240  18.1363  18.2865  18.5535
    18.6140  18.7513  18.7795  19.0421  19.2908  19.3092  19.8781  19.8994
    19.9419  20.0001  20.0692  20.1641  20.2562  20.3744  20.9804  21.0707
    21.1486  21.8125  21.8977  22.0002  22.0023  22.2875  22.5808  22.6264
    22.6793  22.8435  23.0365  24.1073  24.2626  24.3821  24.4763  24.5618
    24.7514  25.5266  25.6292  25.8832  26.0080  26.1551  26.1864  26.3065
    26.4306  26.6661  26.7153  26.8090  27.1273  27.9219  28.1783  28.6586
    28.6832  28.8259  29.2556  29.4732  29.8527  29.8949  30.2082  30.2845
    30.3793  30.6218  30.7987  30.8903  31.1297  31.2476  31.2645  31.8379
    32.0360  32.3718  32.5602  32.5845  32.7572  32.9912  33.0555  33.0958
    33.4342  33.4853  33.7614  33.9046  34.0694  34.0795  34.1482  34.2724
    34.6350  34.7087  34.7672  35.1979  35.4733  35.4974  35.6386  35.7617
    35.9054  35.9331  36.0975  36.2099  36.4284  36.4670  36.6779  36.7163
    36.9737  37.3491  37.8710  38.0923  38.1454  38.4149  38.4911  38.5520
    38.6652  38.9537  39.0257  39.1035  39.3656  39.5087  39.5251  39.6588
    39.6660  39.7859  39.8395  40.0861  40.0903  40.1840  40.2605  40.3420
    40.4596  40.6573  41.0033  41.1554  41.3425  41.5622  41.7155  41.7703
    41.7878  42.0021  42.0523  42.0944  42.2014  42.2577  42.4266  42.5299
    42.5618  42.6485  42.8382  43.0357  43.1166  43.1741  43.4955  43.6221
    43.7505  44.0457  44.1766  44.1782  44.2980  44.5936  44.6331  44.6617
    44.9271  45.0016  45.0586  45.4927  45.5024  45.6210  45.6710  45.7453
    45.8290  45.9023  45.9926  46.0216  46.0289  46.3187  46.3989  46.4097
    46.4928  46.6129  46.6295  46.9593  46.9795  47.0381  47.0743  47.1852
    47.2732  47.4037  47.5060  47.5427  47.7377  47.7395  47.8400  47.9050
    47.9362  47.9777  48.0339  48.0391  48.2302  48.2347  48.3730  48.4354
    48.6296  48.7145  48.7773  49.1783  49.2124  49.4010  49.5033  49.6361
    49.9131  49.9802  49.9964  50.1509  50.2746  50.3082  50.5031  50.5320
    50.6258  50.8895  51.0331  51.1174  51.3871  51.6442  51.6945  51.8432
    51.9677  51.9747  52.0006  52.2755  52.4007  52.4379  52.6122  52.6381
    52.7662  52.9749  53.3830  53.4765  53.6003  53.6682  53.8397  54.0471
    54.1176  54.3167  54.4856  54.5207  54.7095  54.7569  54.8974  55.0091
    55.0444  55.1530  55.2858  55.3110  55.5038  55.7022  55.7257  55.7413
    55.8395  55.9092  55.9491  55.9637  56.0973  56.1034  56.2356  56.3075
    56.3971  56.4640  56.5663  56.7366  56.8330  56.9165  57.0941  57.1435
    57.2541  57.3762  57.5055  57.6186  57.6860  57.8429  58.0514  58.2753
    58.4610  58.6048  58.6706  58.9955  59.2840  59.2921  59.5300  59.6598
    59.7623  59.8436  59.8943  59.9443  60.1164  60.1910  60.2586  60.5358
    60.5425  60.6210  60.7937  60.9511  60.9949  61.3878  61.4127  61.5326
    61.6307  61.7493  61.8600  61.8977  62.0582  62.0949  62.1983  62.3215
    62.5004  62.5188  62.6925  62.8761  62.8933  63.0414  63.1807  63.3823
    63.6376  63.7038  63.7664  63.8201  63.8868  63.9861  64.1123  64.3365
    64.3922  64.4481  64.5732  64.6739  64.8113  64.8602  64.9511  65.3114
    65.5349  65.9524  66.0972  66.3863  66.5654  66.9890  67.0702  67.0947
    67.3177  67.4258  67.6048  67.6602  67.9269  67.9423  68.0035  68.0325
    68.2414  68.3319  68.4713  68.5205  68.5818  68.6990  68.8139  68.8741
    68.9725  68.9826  69.1518  69.4833  69.5965  69.7407  69.8712  70.2666
    70.3076  70.3843  70.6178  70.6426  70.8346  71.1549  71.2412  71.4042
    71.5029  71.8352  72.0031  72.2413  72.2749  72.3498  72.4478  72.6156
    72.8639  72.8713  73.0278  73.1118  73.1696  73.3800  73.6187  73.7535
    73.7573  74.0424  74.1144  74.1455  74.2387  74.7367  74.7671  74.8767
    74.8915  75.1086  75.1345  75.4605  75.4716  75.5762  75.7605  76.0366
    76.0482  76.2994  76.3227  76.4077  76.4263  76.5555  76.7529  76.7662
    76.8002  76.9121  76.9308  77.0556  77.0848  77.3263  77.4043  77.4083
    77.5892  77.6322  77.6926  77.7756  77.8217  77.9047  78.0522  78.1136
    78.2227  78.3638  78.5646  78.6834  78.7227  78.7533  79.0162  79.0998
    79.1350  79.1528  79.2333  79.3850  79.3913  79.4374  79.6065  79.6367
    79.8144  79.8821  80.0995  80.1569  80.2390  80.2871  80.5626  80.6457
    80.7616  80.9526  81.0148  81.1601  81.2397  81.3271  81.4787  81.6024
    81.6333  81.7512  81.8104  82.0139  82.0363  82.0792  82.2589  82.3043
    82.4151  82.5047  82.5385  82.6267  82.6529  82.8311  82.8847  83.1430
    83.1570  83.2493  83.3586  83.4574  83.5706  83.6744  83.7806  83.8621
    83.8846  83.9871  84.0182  84.0470  84.2307  84.2498  84.4045  84.5277
    84.5777  84.6179  84.7078  84.7661  84.8208  85.0202  85.0608  85.1659
    85.2648  85.3525  85.4358  85.5194  85.5368  85.5599  85.6118  85.7391
    85.9396  85.9544  86.0120  86.1075  86.4315  86.4446  86.4827  86.6108
    86.6697  86.9101  86.9971  87.1404  87.2728  87.5270  87.5306  87.5937
    87.6192  87.6742  87.8511  87.8767  88.0701  88.1997  88.2584  88.3874
    88.3947  88.5350  88.5509  88.6512  88.7284  88.8398  88.9746  89.0927
    89.1766  89.2262  89.3107  89.3921  89.4227  89.5052  89.6053  89.6422
    89.7229  89.7890  89.8252  89.8814  89.9010  90.1361  90.1514  90.2132
    90.2493  90.3793  90.4904  90.5847  90.7133  90.7203  90.7943  91.0322
    91.0530  91.0727  91.1307  91.2585  91.2754  91.3558  91.3898  91.4450
    91.6183  91.6302  91.8189  91.8200  92.1813  92.2938  92.3203  92.5711
    92.6605  92.6666  92.7104  92.7767  92.7867  93.0207  93.1432  93.2436
    93.2764  93.4385  93.5381  93.5721  93.6976  93.7372  93.8877  93.9837
    94.0193  94.0435  94.1304  94.1361  94.1688  94.3566  94.4657  94.5335
    94.5533  94.6613  94.8018  94.8336  94.9755  95.1161  95.1768  95.2406
    95.2596  95.3048  95.5054  95.5221  95.5764  95.7280  95.7398  95.8284
    96.0411  96.0430  96.1468  96.1871  96.2991  96.3710  96.4697  96.5024
    96.5781  96.6310  96.7576  96.7721  96.8839  96.9911  97.0739  97.0875
    97.1867  97.2021  97.2752  97.3220  97.3770  97.4209  97.4485  97.5683
    97.5947  97.6333  97.7114  97.8419  97.8488  97.9871  98.0008  98.1455
    98.1775  98.2281  98.3842  98.5657  98.6257  98.6806  98.7084  98.7783
    98.9196  98.9246  99.0144  99.0851  99.1713  99.2007  99.3328  99.3519
    99.4226  99.4932  99.4979  99.5613  99.6842  99.7147  99.8765  99.9164
   100.1086 100.1709 100.3582 100.3804 100.4271 100.7483 100.8379 100.8811
   100.8867 100.8924 100.9524 101.0281 101.1554 101.2578 101.2686 101.3436
   101.3949 101.4883 101.5164 101.5987 101.6358 101.7349 101.9290 102.0386
   102.0505 102.0739 102.1418 102.2558 102.4137 102.4286 102.5112 102.6747
   102.7175 102.8369 102.8402 102.9637 103.0794 103.0820 103.2356 103.3864
   103.4376 103.4452 103.4684 103.6178 103.7208 103.7422 103.8300 104.0097
   104.1531 104.3117 104.4026 104.4787 104.5520 104.6321 104.6383 104.6761
   104.7691 104.8875 104.9346 105.0129 105.0208 105.0678 105.2224 105.2322
   105.2805 105.3989 105.4751 105.5204 105.7187 105.8011 105.8319 105.9765
   106.0407 106.0743 106.1395 106.3358 106.3696 106.4323 106.4782 106.6655
   106.6946 106.7120 106.8152 106.9477 107.0068 107.0244 107.1333 107.2062
   107.2114 107.3485 107.3678 107.3713 107.4889 107.5813 107.6350 107.7075
   107.7090 107.7992 107.8523 107.8987 107.9426 108.1001 108.3242 108.3389
   108.4065 108.5689 108.6637 108.7086 108.7619 108.9601 109.0476 109.0611
   109.2417 109.4041 109.4921 109.6349 109.7064 109.7740 109.9717 110.1820
   110.4396 110.4918 110.7377 110.7627 110.8557 110.9270 111.0660 111.1069
   111.2239 111.4137 111.5024 111.5806 111.6877 111.7420 111.8355 111.9681
   112.0941 112.2235 112.2579 112.3538 112.3733 112.6003 112.6123 112.6889
   112.8212 112.8940 113.0708 113.0854 113.1265 113.1626 113.2853 113.3783
   113.4570 113.4641 113.5722 113.5768 113.6819 113.8062 113.8426 113.9090
   114.1047 114.1200 114.3381 114.4094 114.4810 114.4853 114.5458 114.6609
   114.6734 114.9045 115.0612 115.0662 115.2839 115.3415 115.3521 115.4588
   115.7087 115.7116 115.8726 115.9598 116.0284 116.1230 116.1589 116.3800
   116.4126 116.5621 116.6595 116.6668 116.7255 116.8135 116.9571 117.0055
   117.0573 117.1275 117.2103 117.2568 117.3420 117.3897 117.4780 117.5672
   117.5836 117.7868 117.8014 117.8703 117.9459 118.0681 118.3026 118.3324
   118.4165 118.4499 118.5020 118.5091 118.6997 118.7498 118.7865 118.8154
   119.0426 119.1081 119.1847 119.2080 119.3631 119.4262 119.6181 119.6709
   119.7520 119.7896 119.8731 120.0312 120.1693 120.2776 120.3129 120.4351
   120.5893 120.8321 120.8699 120.9358 121.0646 121.1293 121.2357 121.2924
   121.3573 121.4479 121.6000 121.6456 121.7339 121.7935 121.8275 122.0051
   122.1008 122.1724 122.4042 122.4055 122.5352 122.5906 122.6137 122.6788
   122.8302 122.9425 123.0794 123.0813 123.2025 123.2501 123.5131 123.6494
   123.7054 123.8849 123.9495 123.9778 124.0857 124.1027 124.2604 124.3243
   124.4591 124.5006 124.5751 124.6255 124.7439 124.7665 124.8458 124.8920
   124.9880 125.1268 125.2327 125.3263 125.3502 125.3551 125.3838 125.4348
   125.7282 125.7682 125.7687 125.9077 126.1937 126.2400 126.2931 126.3835
   126.5514 126.7474 126.7680 126.8014 126.8858 127.1823 127.1860 127.3213
   127.3828 127.4937 127.5409 127.5442 127.5961 127.7506 127.7888 127.9292
   127.9698 128.1804 128.2699 128.3866 128.3883 128.4998 128.5642 128.7614
   128.8216 128.8838 129.0014 129.1467 129.2742 129.3621 129.3682 129.4868
   129.4942 129.6697 129.6883 129.7331 129.8577 129.8582 130.0111 130.0537
   130.1459 130.2880 130.5469 130.6934 130.7314 130.8742 130.9029 131.0076
   131.1499 131.2025 131.3976 131.4772 131.5424 131.6267 131.8125 131.8210
   131.9052 132.0151 132.0948 132.2164 132.4504 132.5917 132.6726 132.7172
   132.8261 132.9019 133.1150 133.2560 133.3244 133.4148 133.4209 133.5578
   133.5939 133.7161 133.7664 133.9227 133.9767 134.0239 134.2005 134.2453
   134.3282 134.4443 134.4740 134.5344 134.5606 134.6252 134.6667 134.7579
   134.7621 134.9341 135.0591 135.0807 135.1240 135.2423 135.2929 135.3301
   135.5013 135.6137 135.6738 135.7937 135.8284 136.0194 136.1981 136.3199
   136.3899 136.4094 136.5891 136.6046 136.7183 136.7691 136.8878 136.9362
   137.0292 137.0505 137.0719 137.1457 137.2267 137.3506 137.5694 137.7434
   137.7674 137.8201 137.8715 137.8857 138.0476 138.1074 138.3356 138.3817
   138.4724 138.5325 138.6755 138.7901 138.8588 138.8890 138.9462 138.9911
   139.0571 139.1173 139.1725 139.2768 139.3555 139.3629 139.4100 139.4244
   139.6229 139.6564 139.6707 139.8454 139.9603 140.0120 140.0480 140.1505
   140.1752 140.4342 140.4955 140.5025 140.7109 140.7613 140.8886 140.9886

          k = 0.0000 0.3849 0.0000 ( 10800 PWs)   bands (ev):

   -30.2787 -30.2392 -30.1990 -30.1794 -30.1390 -30.1244 -30.1018 -30.0762
   -30.0548 -30.0181 -11.8350  -8.5490  -4.6670  -2.8991  -2.4978  -0.3862
     1.4073   1.8952   3.7289   3.8338   4.5085   5.1019   5.3198   6.3209
     6.7577   7.0335   7.3475   7.6843   7.9951   8.3158   8.6672   9.1404
     9.1722   9.3351   9.7944  10.0625  10.8982  11.1204  11.4092  11.5801
    11.9878  12.2456  12.3146  12.5674  12.8161  12.9954  13.1258  13.2826
    13.2989  13.4935  13.6898  13.8002  13.9747  14.8071  14.9910  15.0191
    15.1304  15.2437  15.8745  16.2283  16.6410  16.8916  17.0562  17.2993
    17.5864  17.5964  17.7278  17.9489  18.0735  18.2955  19.5401  19.8670
    19.9890  20.2556  20.2954  20.6357  20.7850  20.8167  20.9470  21.0508
    21.1163  21.1259  21.2482  21.4049  21.4060  21.5654  21.7488  22.0490
    22.2611  22.8544  22.9563  23.1055  23.2484  23.3209  23.7176  24.0459
    24.2739  24.5659  24.7169  24.9228  25.0948  25.0953  25.2376  25.4079
    25.4417  25.6547  25.6770  25.8222  25.8687  26.0557  26.2898  26.8198
    26.9403  27.4238  27.4389  27.5318  27.6861  27.8490  28.1423  28.1625
    28.4104  28.5197  28.8465  28.9687  28.9911  29.0346  29.0964  29.2511
    29.3482  29.5732  29.6327  29.7380  30.0044  30.1225  30.1735  30.3172
    30.7540  30.8094  30.8334  31.0677  31.0727  31.4749  31.5452  32.2963
    32.5442  32.7396  32.7642  32.8097  32.9994  33.2080  33.3061  33.3941
    33.4614  33.5695  33.6488  33.8528  34.0367  34.2694  34.3442  34.8740
    35.2583  35.3341  35.7695  35.8309  36.0164  36.1504  36.3123  36.3547
    36.4984  36.8045  36.8147  36.8540  37.0769  37.1336  37.3138  37.4221
    37.6164  37.6642  37.7229  37.7968  37.8155  38.0705  38.3750  38.8261
    39.0433  39.0509  39.4728  39.7124  39.9171  39.9727  40.0388  40.1764
    40.3098  40.4020  40.6557  40.7182  40.8176  40.8910  41.0025  41.0984
    41.1369  41.2974  41.4026  41.4649  41.4928  41.5663  41.7606  41.8694
    42.1517  42.1959  42.5558  42.7111  42.8138  42.8507  43.0097  43.0980
    43.2113  43.2398  43.4030  43.5741  43.9083  44.0223  44.0963  44.1084
    44.3596  44.5527  44.6863  44.7627  44.8059  44.9407  44.9499  45.1543
    45.1669  45.2613  45.3851  45.6261  45.6575  45.7551  45.7930  45.9733
    46.1459  46.2827  46.3249  46.6363  46.7546  46.9901  47.1282  47.3156
    47.4255  47.6635  47.6961  47.9433  47.9650  48.4443  48.5023  48.5897
    48.6006  48.7179  48.9446  48.9479  49.0436  49.0998  49.1703  49.2422
    49.2891  49.5415  49.6621  49.6982  49.8615  50.0592  50.3389  50.5963
    50.8427  51.0141  51.0213  51.0690  51.3808  51.6535  51.7038  51.8905
    51.9590  52.0830  52.2447  52.2853  52.5391  52.5407  52.6971  52.7097
    52.9155  53.0463  53.0626  53.1275  53.1883  53.1910  53.4426  53.4532
    53.5777  53.6324  53.7574  54.0392  54.1561  54.5365  54.5751  54.7128
    54.7310  55.0736  55.1075  55.2996  55.4543  55.7217  55.7584  55.9923
    55.9945  56.1708  56.2982  56.4753  56.5863  56.6927  56.8326  56.9158
    56.9488  56.9858  57.1420  57.1814  57.2919  57.3491  57.3630  57.5625
    57.6538  57.6987  57.8768  57.9416  58.0244  58.1899  58.6421  58.9501
    59.0291  59.2009  59.3977  59.5190  59.6857  59.8255  59.8851  59.9095
    60.0987  60.1594  60.1978  60.2599  60.3243  60.5082  60.7259  60.8011
    60.8743  60.8950  60.9659  61.0788  61.4303  61.5105  61.5899  61.6202
    61.7343  62.1121  62.1609  62.3809  62.5208  62.6342  62.6422  62.8515
    62.9143  63.0927  63.2266  63.3731  63.5266  63.5668  63.6839  63.7511
    63.7920  63.9970  64.0376  64.1304  64.3113  64.3453  64.3925  64.5751
    64.6313  64.6687  64.8793  64.9937  65.0287  65.1923  65.3199  65.4021
    65.4210  65.5378  65.6348  65.8243  66.0734  66.1302  66.5515  66.7390
    66.9508  67.0829  67.1152  67.2309  67.3464  67.5183  67.7324  67.8057
    67.8339  67.8597  67.9491  67.9757  68.1285  68.2512  68.3645  68.4323
    68.5299  68.5512  68.5588  68.7383  68.8281  68.8429  68.9600  69.0321
    69.0519  69.1688  69.2300  69.3442  69.4610  69.7487  69.7508  70.0198
    70.0938  70.2688  70.2805  70.2995  70.3926  70.5400  70.6765  70.6940
    70.9342  70.9709  71.1658  71.2376  71.2767  71.3928  71.4637  71.5146
    71.6683  71.8108  71.8315  72.0486  72.1757  72.2297  72.2403  72.3204
    72.3990  72.4680  72.5342  72.6043  72.6527  72.7032  72.7478  72.7662
    72.9282  73.0302  73.0686  73.1423  73.1478  73.3018  73.3401  73.3914
    73.4815  73.5768  73.6932  73.8179  74.0399  74.1568  74.2989  74.3709
    74.4170  74.6288  74.6835  74.8025  74.8535  75.0133  75.0951  75.5020
    75.5917  75.6874  75.7755  75.8268  75.9696  76.0921  76.2789  76.3316
    76.5046  76.5254  76.6345  76.7758  76.9844  76.9875  77.1489  77.2267
    77.2584  77.4436  77.5510  77.6207  77.6292  77.6887  77.8586  77.9332
    77.9716  78.5629  78.7473  78.7971  78.8325  79.1536  79.2904  79.3240
    79.5097  79.8642  79.8887  80.0213  80.0407  80.0775  80.1969  80.2432
    80.2449  80.3703  80.4070  80.6130  80.6666  80.6963  80.8461  80.9178
    80.9596  81.0029  81.0643  81.1508  81.3058  81.3660  81.4023  81.5103
    81.8207  82.0478  82.1088  82.2975  82.3778  82.5619  82.5773  82.6607
    82.8808  82.8976  82.9441  82.9607  83.3314  83.3858  83.5976  83.6228
    83.7113  83.7710  83.7997  83.9107  84.0331  84.0374  84.2461  84.2933
    84.4086  84.4189  84.5659  84.6272  84.7825  84.9139  85.0597  85.0712
    85.1836  85.2981  85.3079  85.4630  85.7830  85.8161  85.8971  86.1132
    86.1839  86.2255  86.3411  86.5286  86.7405  86.7818  86.7849  87.0867
    87.0983  87.2227  87.2377  87.2912  87.3769  87.5906  87.6734  87.6839
    87.9086  87.9379  88.0976  88.1162  88.2045  88.3625  88.4529  88.4563
    88.5046  88.5399  88.5650  88.8552  88.9177  88.9329  89.0613  89.1110
    89.1162  89.1912  89.3341  89.4390  89.5544  89.5722  89.6256  89.7919
    89.8064  89.8879  89.9479  90.0632  90.2483  90.3569  90.6109  90.7081
    90.7248  90.8778  91.0234  91.0994  91.1768  91.1847  91.2534  91.5258
    91.5394  91.5917  91.6003  91.7331  91.8570  91.9080  91.9607  92.0803
    92.1701  92.3098  92.3139  92.3356  92.4763  92.5251  92.6736  92.7087
    92.7323  92.7368  92.8876  92.9484  92.9824  93.4530  93.7095  93.8092
    93.8631  94.0153  94.1430  94.3177  94.3440  94.4112  94.5352  94.5554
    94.6395  94.6717  94.7230  94.8231  94.8941  95.0137  95.0806  95.1293
    95.2011  95.3945  95.4299  95.5392  95.7881  95.7942  95.8672  95.9792
    96.0543  96.1088  96.2286  96.2737  96.4335  96.4377  96.5911  96.6219
    96.7963  96.8596  96.9061  96.9195  97.0106  97.0675  97.0787  97.2197
    97.2603  97.4066  97.4178  97.4700  97.6523  97.8088  98.1133  98.1875
    98.3212  98.4159  98.7116  98.7549  98.7591  98.8982  99.0349  99.2342
    99.2590  99.4136  99.5058  99.5298  99.6419  99.6795  99.7134  99.8678
   100.0933 100.1877 100.1882 100.2105 100.2691 100.2755 100.3958 100.4083
   100.5099 100.6213 100.7816 100.8053 100.8453 100.8900 100.9820 100.9922
   101.0116 101.2678 101.3194 101.4109 101.4774 101.6384 101.7897 101.8502
   101.8937 102.0255 102.0625 102.0881 102.1487 102.2565 102.2642 102.4601
   102.5876 102.6299 102.7993 102.8080 102.8216 102.9361 103.1731 103.1834
   103.3156 103.3920 103.4583 103.4889 103.5722 103.6695 103.6756 103.7531
   103.8022 103.9756 103.9856 104.0231 104.0780 104.1038 104.1326 104.2103
   104.3318 104.4158 104.5129 104.5458 104.5982 104.6757 104.6788 104.7408
   104.9014 104.9132 105.0828 105.1936 105.2147 105.3970 105.4047 105.4676
   105.5596 105.7361 105.9159 106.0114 106.0691 106.2448 106.2546 106.3122
   106.3617 106.3790 106.5458 106.6648 106.7424 106.9104 106.9944 107.1732
   107.2048 107.3309 107.3774 107.4116 107.4991 107.5500 107.7213 107.8039
   107.9193 107.9354 107.9683 108.0692 108.0941 108.1530 108.2191 108.2540
   108.3019 108.3353 108.4531 108.6067 108.8422 108.8501 108.9716 109.0128
   109.0404 109.2906 109.3141 109.4077 109.4804 109.5272 109.5589 109.7125
   109.7531 109.7986 109.9577 109.9827 109.9888 110.2138 110.2742 110.3576
   110.6743 110.7478 110.7699 110.7764 110.8376 110.8806 111.1129 111.1508
   111.2503 111.2642 111.3291 111.4732 111.6140 111.6511 111.7423 111.8664
   111.9668 111.9788 112.1677 112.1927 112.2580 112.2791 112.3824 112.4424
   112.5179 112.5212 112.7636 112.7869 112.8127 112.8935 112.9554 113.0073
   113.0789 113.2359 113.3630 113.3705 113.7010 113.8422 113.9285 114.0447
   114.1064 114.1127 114.2618 114.3052 114.3225 114.4300 114.5133 114.5785
   114.7887 114.8676 114.9624 115.0242 115.2481 115.3756 115.3837 115.5670
   115.6984 115.9682 116.0336 116.2307 116.2901 116.3325 116.3381 116.5518
   116.5991 116.6428 116.7658 116.7975 117.0457 117.0743 117.2485 117.3470
   117.4107 117.5876 117.5980 117.7795 117.8250 117.8538 118.1205 118.1272
   118.2741 118.2871 118.3420 118.4909 118.6037 118.7150 118.8074 118.9065
   118.9721 119.0986 119.2289 119.3701 119.5005 119.5087 119.5845 119.6058
   119.7055 119.7870 119.9491 120.1674 120.1802 120.2678 120.4483 120.4649
   120.4846 120.5723 120.6950 120.7573 120.8339 120.9424 120.9451 121.0331
   121.0620 121.1194 121.1415 121.2144 121.3040 121.4581 121.4995 121.5986
   121.6906 121.8118 121.8320 122.0279 122.1643 122.2815 122.2933 122.3067
   122.3946 122.4707 122.6608 122.7366 122.8455 122.9268 122.9367 122.9869
   123.1682 123.1958 123.2625 123.3362 123.3795 123.4097 123.4421 123.5231
   123.5948 123.6416 123.7900 123.9173 123.9645 124.0264 124.0625 124.0657
   124.2071 124.2823 124.3286 124.4117 124.6356 124.6663 124.7587 124.8594
   124.8596 124.9868 125.0108 125.1710 125.2605 125.3514 125.4718 125.5518
   125.6242 125.6502 125.7023 125.7580 125.7719 125.8786 125.9429 126.0899
   126.1273 126.1695 126.2176 126.2376 126.3929 126.4457 126.4459 126.6139
   126.6855 126.8171 126.9037 126.9770 127.1044 127.2013 127.2190 127.4979
   127.6110 127.6251 127.6660 127.6924 127.7304 127.7767 128.0440 128.1409
   128.2633 128.3756 128.4672 128.4832 128.5664 128.5771 128.6132 128.7057
   128.8103 128.8351 128.8669 128.9995 129.1225 129.2029 129.2880 129.3015
   129.3726 129.4376 129.7099 129.7893 129.8889 129.9565 130.0471 130.0716
   130.1154 130.2293 130.3529 130.3857 130.5212 130.6139 130.6693 130.6743
   130.7104 131.0759 131.1481 131.1768 131.2164 131.3391 131.3723 131.4402
   131.4741 131.4875 131.5408 131.5926 131.7546 131.8091 131.9088 131.9368
   131.9519 132.0000 132.0969 132.2165 132.2876 132.3754 132.4298 132.4451
   132.5485 132.6537 132.6711 132.7769 132.7973 133.0111 133.0590 133.1659
   133.2064 133.3878 133.4749 133.5991 133.6491 133.6772 133.7561 133.7852
   133.8891 133.9760 134.0531 134.0651 134.1491 134.2281 134.3099 134.5569
   134.5640 134.7325 134.8470 134.9902 135.1004 135.1382 135.2338 135.3232
   135.3392 135.4785 135.5466 135.6114 135.6296 135.6949 135.7697 135.8435
   135.8726 135.9492 135.9916 136.0007 136.1394 136.1903 136.2197 136.3140
   136.4317 136.4689 136.6221 136.6822 136.6877 136.8012 136.8039 136.8794
   136.9102 137.0112 137.0443 137.1661 137.2160 137.3186 137.4508 137.6434
   137.6663 137.8308 137.8700 137.9023 138.0056 138.0687 138.1766 138.2528
   138.2688 138.3070 138.5337 138.5774 138.6665 138.7782 138.9113 138.9988
   139.0968 139.1135 139.1975 139.2938 139.3390 139.3399 139.3911 139.4294

          k = 0.0000-0.5774 0.0000 ( 10818 PWs)   bands (ev):

   -30.2768 -30.2259 -30.1703 -30.1535 -30.1511 -30.1479 -30.1025 -30.1003
   -30.0607 -30.0189 -11.0249  -9.4362  -4.6084  -3.1800  -3.1343  -0.0083
     0.7404   1.8689   3.4193   5.1912   5.3181   5.6296   6.0155   6.2283
     6.6266   6.8538   6.9318   7.0453   7.9107   8.5188   8.8319   8.8489
     8.8595   9.3830  10.3352  10.4556  10.5435  11.3375  11.3454  11.4796
    11.5405  11.5854  11.5866  11.8726  12.0320  12.0958  12.7872  12.8080
    12.8360  13.0840  14.3524  14.5773  14.5786  14.5807  14.7429  14.9824
    15.1685  15.2635  15.9356  16.0245  16.3515  17.1606  17.2857  17.4085
    17.4855  17.5428  17.6984  18.3515  18.6310  18.8743  19.0298  19.0694
    19.7478  20.0072  20.1500  20.5105  20.8765  20.9056  21.0700  21.2283
    22.1716  23.1034  23.1066  23.2816  23.2955  23.3285  23.6187  23.7208
    23.8424  23.8456  23.9151  23.9189  24.0313  24.0735  24.4269  24.4484
    24.6074  24.6908  24.7194  24.8152  24.9177  24.9277  24.9844  25.0515
    25.0760  25.2089  25.9099  25.9104  26.3800  26.5251  26.5307  26.5657
    26.6701  26.7302  26.8741  27.0803  27.2701  27.8838  28.3000  28.3601
    28.5634  28.7415  28.9793  29.0399  29.1674  29.1697  29.2153  29.4311
    29.5635  29.6350  29.6720  29.6885  29.7519  29.7718  29.7816  29.7926
    29.9496  30.0161  30.0696  30.3043  30.5984  30.7472  30.9648  31.0082
    32.1635  32.2114  32.4065  32.4071  32.4699  32.6267  32.6336  32.7100
    32.7473  32.8700  33.0892  33.1467  33.2898  33.6507  34.0522  34.5240
    34.5767  34.6503  34.8953  34.9700  35.0389  35.0626  35.1687  35.4361
    35.5747  35.7144  35.8671  35.9366  36.2028  36.3432  36.6261  36.7924
    36.8293  36.8532  37.0050  37.3311  37.3576  38.0539  38.5501  38.6645
    38.8693  38.9555  39.0623  39.0744  39.4847  40.3703  40.4557  40.5996
    40.7483  40.9514  40.9713  41.0297  41.2272  41.2589  41.3116  41.3802
    41.4654  41.6250  41.6692  41.6731  41.7951  41.8750  41.9011  41.9065
    42.1268  42.1622  42.1820  42.4079  42.4126  42.4173  42.5482  42.5525
    42.6114  42.6262  42.6951  42.7155  42.9408  42.9491  43.0502  43.1179
    43.1299  43.2771  44.0788  44.3847  44.4075  44.5277  44.5689  44.6058
    44.7945  44.8257  44.9608  45.4262  45.9140  46.0769  46.3318  46.4795
    46.8140  46.8461  46.8476  46.9484  47.0628  47.1007  47.1804  47.1844
    47.1933  47.3566  47.3824  47.5014  47.7268  47.7965  47.8887  48.0130
    48.0564  48.0863  48.3889  48.7984  48.9883  49.1152  49.1711  49.5843
    49.7132  49.7484  49.9923  50.2288  50.2759  50.5923  50.6809  50.7146
    50.7598  50.8554  51.0715  51.3055  51.7576  51.9345  52.0363  52.0603
    52.1930  52.2746  52.6442  52.8574  53.1397  53.1488  53.1679  53.3154
    53.6231  53.6660  53.8491  53.8625  54.0837  54.2048  54.2385  54.2618
    54.7102  54.8449  54.8499  54.9127  55.0625  55.1034  55.2901  55.2960
    55.3979  55.5711  55.7231  56.1487  56.4531  56.8976  57.0051  57.2654
    57.4350  57.4899  57.7830  58.0421  58.1265  58.5307  58.6298  58.6989
    58.7994  58.8130  58.9339  59.2010  59.3155  59.3215  59.3258  59.3925
    59.3941  59.4597  59.5673  59.5934  59.6126  59.6448  59.7101  59.7631
    59.8147  59.9630  59.9727  60.0722  60.1457  60.1552  60.2810  60.3205
    60.3792  60.3846  60.4227  60.4746  60.5990  60.6516  61.0214  61.0224
    61.1873  61.5932  61.6382  61.7757  61.7953  61.9978  62.2622  62.2825
    62.4722  62.4793  62.5025  62.6997  62.7036  62.9104  63.1185  63.2016
    63.2912  63.4798  63.8586  64.1470  64.2357  64.3610  64.3914  64.5298
    64.6840  64.6851  64.7141  64.8020  64.8295  64.9209  64.9512  65.0493
    65.0749  65.1753  65.2822  65.3151  65.3326  65.4866  65.5035  65.5274
    65.5408  65.6169  65.6873  65.7023  65.8330  65.9821  66.0473  66.1282
    66.2249  66.3201  66.3379  66.3713  66.4110  66.4258  66.4996  66.6366
    66.6524  66.6547  66.7563  66.8150  66.8877  66.9826  67.3745  67.4598
    67.4979  67.6745  67.7688  67.8526  67.9197  68.0364  68.0869  68.1014
    68.1944  68.2249  68.3211  68.3649  68.4778  68.5422  68.5477  68.7103
    68.7416  68.7876  68.9428  69.3079  69.5235  69.7510  70.1244  70.3730
    70.4650  70.5138  70.5811  70.7933  70.8221  70.8763  70.9388  71.0304
    71.0405  71.0566  71.1127  71.4376  71.4793  71.7459  71.7831  71.7942
    71.9062  72.1005  72.1006  72.1439  72.1674  72.3365  72.4754  72.4808
    72.5642  72.7252  72.8180  73.1145  73.1566  73.3491  73.6750  73.8123
    73.8160  74.0028  74.1131  74.1640  74.1928  74.2316  74.3413  74.3777
    74.4309  74.7462  75.0555  75.0596  75.0859  75.0909  75.2909  75.4173
    75.4499  75.6405  75.9292  76.1454  76.2052  76.2932  76.4115  76.4410
    76.4414  76.6092  76.9315  76.9528  76.9572  76.9699  77.1708  77.2442
    77.4003  77.4763  77.5057  77.5780  77.6409  77.6902  77.7653  77.8707
    77.9379  77.9736  77.9882  78.2935  78.3140  78.3190  78.3583  78.4284
    78.4876  78.5410  78.6512  78.6739  78.6944  78.8616  78.9719  79.0824
    79.7643  79.8079  79.9381  80.0952  80.2617  80.3275  80.4617  80.4658
    80.7822  80.8242  80.9833  81.0304  81.0765  81.2228  81.2348  81.4835
    81.6103  81.8671  82.0986  82.1284  82.1569  82.3868  82.5793  82.6375
    82.7897  82.8740  82.8845  82.9661  83.0230  83.0257  83.1062  83.2005
    83.2181  83.2740  83.3610  83.3958  83.4484  83.4524  83.4547  83.5357
    83.6012  83.6862  83.7654  83.7926  83.9686  83.9819  83.9873  84.1141
    84.3116  84.3677  84.4667  84.4823  84.4981  84.7453  84.8283  84.8758
    84.9612  85.0560  85.2562  85.5353  85.5497  85.5791  85.7333  85.7632
    85.8231  85.9673  86.0193  86.1548  86.1665  86.3180  86.3329  86.4760
    86.4960  86.7579  86.9904  87.4421  87.5730  87.6214  87.8871  87.9163
    88.2922  88.3595  88.3797  88.4288  88.4469  88.4845  88.5039  88.5244
    88.7923  88.8212  88.8959  88.9119  89.0956  89.1153  89.2036  89.5907
    89.7240  89.8978  89.9090  90.0506  90.0783  90.2403  90.2955  90.3371
    90.3542  90.5736  90.6201  90.6519  90.7216  91.0059  91.2426  91.2830
    91.3895  91.5914  91.9216  91.9901  92.1223  92.1972  92.4083  92.5517
    92.6298  92.6813  92.7777  92.8300  92.9653  93.1089  93.2241  93.2910
    93.3372  93.3456  93.5473  93.6038  93.7986  93.9207  93.9555  93.9834
    94.0857  94.1295  94.2791  94.3160  94.4283  94.5493  94.5634  94.5866
    94.6437  94.7764  94.8505  94.8861  94.8988  94.9374  95.0232  95.1577
    95.2001  95.2645  95.3589  95.4148  95.4424  95.5042  95.6518  95.6995
    95.7143  95.7229  95.7339  95.7540  95.9429  95.9455  95.9627  95.9883
    96.0733  96.1243  96.1495  96.1631  96.2433  96.3572  96.4554  96.5289
    96.5442  96.6096  97.2030  97.3964  97.6199  97.6242  97.7137  97.7729
    97.7869  97.9049  97.9158  98.2417  98.4038  98.4476  98.6779  98.8358
    98.9545  99.0409  99.1024  99.3126  99.4375  99.6826  99.7931  99.8005
    99.9210  99.9438 100.0411 100.1000 100.1615 100.2745 100.4229 100.4584
   100.6059 100.8492 100.8683 100.8906 100.8997 100.9290 100.9494 101.0709
   101.0756 101.1993 101.2676 101.3524 101.5123 101.5667 101.5984 101.6702
   101.7411 101.7774 101.8455 101.9686 102.0154 102.1310 102.3558 102.3724
   102.4249 102.4774 102.5057 102.6674 102.7397 102.9345 102.9435 103.0575
   103.1107 103.1518 103.3232 103.3243 103.4167 103.4734 103.5331 103.5679
   103.6827 103.6994 103.8945 103.9063 103.9517 104.0647 104.0882 104.3036
   104.4962 104.5552 105.2145 105.2481 105.3292 105.5141 105.5724 105.5870
   105.7067 105.7169 105.8421 106.0297 106.0661 106.2181 106.2544 106.5179
   106.6428 106.6754 107.1939 107.3764 107.4307 107.5060 107.5211 107.5601
   107.6244 107.8005 107.8678 108.1258 108.1313 108.1595 108.1797 108.3764
   108.3897 108.6350 108.6812 108.7542 108.8539 108.9144 109.1422 109.1436
   109.2176 109.3212 109.6269 109.7587 109.8394 109.8922 109.9176 110.0014
   110.0961 110.3602 110.3671 110.5021 110.6680 110.7056 110.7317 110.7382
   110.9264 110.9453 111.0957 111.3181 111.3377 111.5186 111.5843 111.6324
   111.6409 111.9158 111.9305 112.0609 112.2602 112.3638 112.4489 112.5263
   112.6048 112.6274 112.7752 112.7780 112.7825 112.9044 112.9218 112.9821
   113.0301 113.0804 113.0981 113.1561 113.2926 113.3268 113.4213 113.4278
   113.4745 113.4897 113.5263 113.5334 113.6447 113.6868 113.7114 113.8461
   113.9204 113.9681 113.9728 114.1124 114.1976 114.3059 114.3305 114.3772
   114.3779 114.5212 114.5377 114.6250 114.7029 114.8687 115.0431 115.1499
   115.2093 115.2490 115.6402 115.6567 115.6673 115.7067 115.8897 115.9288
   115.9336 115.9802 116.0985 116.2564 116.2890 116.4304 116.4433 116.8351
   116.8680 116.9474 117.0533 117.1506 117.2734 117.3892 117.4865 117.5568
   117.5748 117.6261 117.7142 117.7508 118.0294 118.0552 118.0877 118.1465
   118.2916 118.3733 118.4491 118.4851 118.5178 118.5281 118.6247 118.6279
   118.6894 118.7273 118.7858 118.8161 118.9400 118.9597 119.0439 119.0933
   119.1701 119.1844 119.1928 119.3187 119.4161 119.4717 119.5236 119.6044
   119.6053 119.6273 119.7831 119.8098 119.8728 119.9015 119.9356 119.9357
   119.9568 120.0383 120.0457 120.1161 120.1542 120.2482 120.3070 120.3505
   120.5173 120.5226 120.6734 120.7839 120.8131 120.8223 120.9257 120.9969
   121.1203 121.1313 121.1337 121.2339 121.2574 121.3400 121.3603 121.5298
   121.6732 121.6969 121.7513 121.7725 121.7987 121.9027 121.9912 122.0269
   122.1730 122.2205 122.2638 122.4069 122.6699 122.7226 123.0263 123.1232
   123.2798 123.4417 123.4776 123.5768 123.6018 123.6169 123.6406 123.9051
   124.0134 124.0350 124.1280 124.1541 124.1853 124.2345 124.3193 124.3839
   124.3924 124.5182 124.8118 124.9240 124.9353 125.1118 125.1186 125.2362
   125.2624 125.3662 125.3663 125.3922 125.4238 125.4665 125.5428 125.5589
   125.6531 125.6875 125.7862 125.9196 126.0953 126.1129 126.1414 126.1428
   126.1676 126.2980 126.3145 126.3606 126.4543 126.5077 126.6554 126.7625
   126.9676 127.0121 127.0146 127.1586 127.2252 127.4054 127.6922 127.7242
   127.7577 127.8976 127.9581 128.0031 128.2055 128.2730 128.3122 128.3720
   128.3798 128.4524 128.7174 128.7556 128.8039 128.9375 129.1256 129.3188
   129.5899 129.6711 129.6989 129.7092 129.7780 129.8501 129.9213 130.1035
   130.1565 130.1672 130.2360 130.2984 130.3376 130.3916 130.5286 130.5776
   130.5910 130.6088 130.6501 130.6538 130.7643 130.8210 130.8513 131.0000
   131.0606 131.0968 131.1774 131.1802 131.2429 131.4044 131.4494 131.4546
   131.5311 131.6278 131.6297 131.6472 131.6632 131.7418 131.8027 131.8107
   131.8159 131.8507 131.9044 131.9085 131.9487 131.9971 132.0353 132.1983
   132.2110 132.2926 132.4560 132.5233 132.7217 132.8497 132.9030 133.0248
   133.0386 133.1379 133.1792 133.2307 133.3151 133.3758 133.5223 133.5774
   133.7141 133.7204 133.7893 133.8474 134.0044 134.0132 134.0622 134.1275
   134.1595 134.4898 134.5009 134.5476 134.6555 134.8491 134.8806 135.2654
   135.3368 135.3442 135.3508 135.4258 135.4849 135.5237 135.6140 135.6216
   135.7115 135.8315 135.9240 135.9342 136.0153 136.0529 136.1479 136.2700
   136.2800 136.4230 136.4886 136.6083 136.6506 136.6913 136.7533 136.8062
   136.8108 136.8779 136.9474 137.0413 137.0555 137.0719 137.1391 137.1712
   137.2643 137.3370 137.4494 137.4495 137.5473 137.5965 137.6832 137.9859
   138.0013 138.1303 138.1612 138.2992 138.3205 138.5336 138.5608 138.5916

          k = 0.1667 0.2887 0.0000 ( 10826 PWs)   bands (ev):

   -30.2801 -30.2457 -30.2036 -30.1880 -30.1396 -30.1207 -30.0981 -30.0663
   -30.0518 -30.0181 -12.0975  -8.2783  -4.2840  -3.4810  -2.1939   0.5116
     1.0746   2.1087   3.5865   3.6793   4.2451   4.8109   5.0117   5.7703
     6.3159   6.8606   7.4267   7.6758   8.5405   8.8929   9.0512   9.5060
     9.6809   9.7033  10.0586  10.1141  10.5880  10.6969  10.9577  11.0444
    11.0796  11.9451  12.3323  12.6028  12.7077  12.8006  12.9839  13.2398
    13.2961  13.8391  14.8098  15.0288  15.2179  15.3054  15.4091  15.6527
    15.7401  15.8540  16.0138  16.0616  16.6972  16.7290  16.8613  16.9127
    17.0664  17.0989  18.1577  18.4703  18.4847  18.6440  18.6482  18.7342
    18.7989  19.0951  19.2147  19.5370  20.2363  20.3431  20.6677  21.1682
    21.2157  21.3090  21.4370  21.5494  21.6448  21.8059  21.8661  21.9648
    22.0252  22.6055  22.6316  22.7499  22.7893  22.9103  22.9717  23.1407
    23.2199  24.0351  24.4197  24.5456  24.5782  24.6697  24.7075  24.8759
    25.0078  25.1450  25.6650  25.8273  26.4991  26.6323  26.8105  27.0140
    27.0310  27.2464  27.4615  27.5268  27.5840  27.6845  27.7218  27.9035
    27.9786  28.0109  28.4833  28.7502  28.8108  28.8735  29.1213  29.1297
    29.2924  29.4132  30.3589  30.4275  30.4406  30.7984  30.9715  31.0557
    31.4326  31.8343  32.3527  32.4270  32.4446  32.7561  32.8912  32.9244
    33.1073  33.2110  33.3399  33.3650  33.5930  33.6294  33.6581  33.7568
    33.8441  33.9031  33.9590  33.9856  34.5410  34.5650  34.6521  34.7305
    34.7319  34.7761  35.1356  35.1542  35.9015  35.9674  36.1247  36.2480
    36.4422  36.5263  36.8344  36.9431  37.0012  37.3697  37.7303  38.0889
    38.1360  38.1810  38.6533  38.7338  38.8034  38.8487  38.9457  38.9687
    39.2511  39.3114  39.3877  39.4580  39.4999  39.6382  39.6433  39.6827
    39.8022  39.8294  39.9331  40.0904  40.3285  40.4063  40.4824  40.5879
    40.6486  40.7101  40.8612  40.9728  40.9837  41.2003  41.5742  42.0876
    42.1391  42.4738  42.5882  42.6800  42.7100  42.7808  42.9065  43.0452
    43.8053  44.1669  44.2524  44.3417  44.4142  44.5782  44.7817  44.9077
    45.0170  45.1025  45.1562  45.2366  45.3785  45.4520  45.5031  45.5323
    45.6841  45.7059  45.7490  45.8827  45.9264  46.0140  46.3108  46.3934
    46.4146  46.4400  46.6262  46.6967  46.7923  46.8968  46.9649  47.0188
    47.0521  47.2074  47.6209  47.6894  47.9814  48.3034  48.3936  48.5610
    48.6062  48.6361  48.7370  48.7449  48.9131  48.9373  48.9967  50.3246
    50.3264  50.3688  50.4811  50.5649  50.7724  50.8711  50.9415  51.1029
    51.2193  51.2688  51.3265  51.3832  51.3860  51.5072  51.5382  51.6573
    51.7057  51.7740  51.7812  51.8821  52.0533  52.2183  52.2610  52.3538
    52.3882  52.4435  52.4753  52.6351  52.6471  52.6547  52.7497  52.8624
    52.9836  53.1595  53.2020  53.4363  53.7105  53.7241  53.9043  53.9404
    54.1827  54.2151  54.3960  54.5201  54.5808  54.6733  54.6787  54.9759
    55.0155  55.0852  55.4706  55.6950  55.9589  56.1218  56.3726  56.4669
    56.5373  56.6304  56.8073  56.9019  57.1361  57.1735  57.2094  57.2337
    57.2345  57.3348  57.5083  57.6024  57.6935  57.8284  57.9581  57.9965
    58.2316  58.2620  58.5630  58.6083  58.6622  59.0059  59.0110  59.3165
    59.4188  59.4340  59.6023  59.6744  59.8544  60.3197  60.3441  60.4475
    60.5729  60.6850  60.8383  60.9348  61.0689  61.2233  61.2908  61.6992
    61.9769  62.0771  62.1729  62.4861  62.6616  62.8841  62.9378  62.9554
    63.1035  63.1062  63.2548  63.2790  63.2924  63.4688  63.5610  63.6527
    63.6930  63.8325  63.8484  63.9575  64.1552  64.2773  64.3731  64.4480
    64.4838  64.4891  64.6559  64.7010  64.7650  64.8679  64.9309  65.1015
    65.3045  65.4438  65.4623  65.7151  65.7460  66.0370  66.0575  66.1495
    66.4099  66.4637  66.6169  66.9203  67.0316  67.2149  67.3049  67.3565
    67.6485  67.7877  68.1058  68.1584  68.3479  68.4896  68.5378  68.7015
    68.7231  68.8430  68.9496  69.0339  69.1542  69.1795  69.2385  69.2432
    69.3734  69.4146  69.5107  69.5734  69.6052  69.6558  69.7070  69.7687
    69.7688  69.9431  69.9607  70.0263  70.1161  70.2899  70.3218  70.3474
    70.4252  70.4539  70.7315  71.0339  71.0793  71.2394  71.4221  71.7818
    71.9312  71.9600  72.1519  72.2597  72.3732  72.4653  72.4923  72.6510
    72.6728  72.6841  72.8011  72.9121  73.2704  73.5941  73.6451  73.8453
    74.0145  74.2663  74.2690  74.4109  74.4184  74.5376  74.5854  74.6936
    74.7076  74.8405  74.8850  75.0159  75.0460  75.1425  75.2324  75.3626
    75.4307  75.5629  75.5890  75.6328  75.6985  75.8249  75.9053  76.0355
    76.1134  76.1622  76.2086  76.2111  76.3170  76.3962  76.5009  76.5692
    76.6366  76.7536  76.9493  76.9680  77.0695  77.3011  77.4120  77.6664
    77.6930  77.8920  78.0453  78.0854  78.1378  78.1525  78.3566  78.4083
    78.4564  78.8369  79.0228  79.0882  79.2301  79.3491  79.4750  79.6574
    79.7733  79.7813  79.9383  80.1982  80.2405  80.2830  80.5197  80.5271
    80.5929  80.7264  80.8574  80.9075  80.9682  80.9882  81.0559  81.1244
    81.2558  81.4167  81.5287  81.6329  81.6879  81.7041  81.8114  81.8681
    81.9745  81.9856  82.0668  82.1221  82.1251  82.2138  82.3651  82.4269
    82.4312  82.6580  82.6921  82.7825  82.8993  82.9200  83.1031  83.1201
    83.2127  83.3594  83.4204  83.6565  83.8105  83.8634  83.9691  84.1086
    84.3183  84.4083  84.4736  84.4952  84.5970  84.7380  84.8463  84.9936
    85.1839  85.2201  85.4154  85.5390  85.7555  85.8036  85.8952  85.9509
    86.1248  86.2810  86.3614  86.5354  86.5720  86.6346  86.8231  86.9154
    86.9709  87.0984  87.1098  87.2234  87.3179  87.3522  87.4375  87.5280
    87.5612  87.7202  87.8322  87.8892  88.0313  88.1717  88.2501  88.5471
    88.6081  88.6876  88.7366  89.0644  89.0979  89.1999  89.2437  89.3992
    89.4671  89.5172  89.7841  89.9092  89.9887  90.0056  90.1772  90.2168
    90.4467  90.4557  90.6381  90.7510  90.8855  91.0771  91.2354  91.3729
    91.4393  91.5008  91.6346  91.9166  92.0233  92.0397  92.0843  92.3195
    92.3649  92.5387  92.6216  92.6456  92.8558  92.8783  92.9154  92.9173
    92.9501  93.0233  93.1174  93.1453  93.3030  93.3505  93.3952  93.4836
    93.5557  93.6500  93.6507  93.7366  93.8887  93.9085  93.9675  94.0139
    94.0857  94.1052  94.1636  94.1924  94.2022  94.2470  94.2870  94.4363
    94.4725  94.5163  94.5622  94.7061  94.7183  94.8339  94.9032  95.1043
    95.2743  95.3190  95.4133  95.4202  95.5896  95.6031  95.6551  95.6819
    95.7486  95.8255  95.9650  96.0063  96.0951  96.2988  96.3126  96.4466
    96.4812  96.7175  96.8037  97.0033  97.1481  97.3376  97.3387  97.5541
    97.6825  97.7656  97.7747  97.9195  97.9526  98.0807  98.0895  98.2438
    98.3111  98.5142  98.5521  98.5861  98.6889  98.7385  98.8295  98.8633
    98.9255  98.9595  98.9964  99.0071  99.1470  99.1691  99.2363  99.3256
    99.3485  99.4817  99.5340  99.5748  99.7612  99.8230  99.8674  99.8870
    99.9252 100.0399 100.0426 100.1822 100.2353 100.3059 100.3547 100.5779
   100.5844 100.8240 100.8677 100.8688 101.0489 101.1431 101.1439 101.2153
   101.2935 101.4201 101.4414 101.6076 101.6520 101.7844 101.8602 101.9026
   102.0277 102.0880 102.1242 102.2877 102.3842 102.4906 102.5019 102.5998
   102.6941 102.7357 102.8378 103.1309 103.2432 103.2569 103.4091 103.4318
   103.6665 103.7050 103.9176 104.0739 104.1268 104.2069 104.2746 104.3015
   104.3423 104.3705 104.5196 104.5321 104.6724 104.6901 104.7026 104.7800
   104.9071 105.0501 105.1907 105.2189 105.2804 105.3953 105.4258 105.5180
   105.5628 105.5940 105.6538 105.7876 105.8072 106.0025 106.0582 106.0925
   106.1287 106.1425 106.1709 106.2552 106.3003 106.3902 106.4637 106.4816
   106.5470 106.5499 106.6055 106.8384 106.8563 106.9774 107.0796 107.2863
   107.3071 107.4885 107.6773 107.7015 107.7037 107.7690 107.8679 107.9549
   108.0942 108.1999 108.4158 108.5437 108.6238 108.7397 109.0727 109.2246
   109.3008 109.3329 109.5180 109.5522 109.7578 109.8071 109.9985 110.0231
   110.0883 110.1493 110.1635 110.3793 110.4364 110.4876 110.5078 110.5932
   110.6650 110.6771 110.8690 110.8778 110.9193 110.9673 111.0779 111.0927
   111.1408 111.2134 111.3044 111.3297 111.3870 111.4483 111.4696 111.4946
   111.6432 111.7373 111.8302 111.8712 111.8721 111.9978 112.0207 112.0585
   112.0851 112.2308 112.2317 112.3912 112.4615 112.5829 112.5872 112.8090
   112.9039 113.0116 113.0932 113.1037 113.2019 113.2845 113.3282 113.4020
   113.5990 113.6242 113.7349 113.7351 113.9441 113.9483 114.0576 114.1402
   114.2806 114.3862 114.5712 114.7168 114.7869 114.7992 114.9037 114.9764
   115.1514 115.1562 115.5152 115.5573 115.7167 115.7657 115.8455 115.9671
   115.9965 116.0712 116.1454 116.3625 116.3745 116.3810 116.5494 116.6060
   116.6614 116.7370 116.7537 116.8857 116.9212 117.0337 117.0835 117.1265
   117.1793 117.3403 117.4103 117.4671 117.6752 117.7574 117.8723 117.8886
   117.9952 118.0313 118.2007 118.2821 118.2991 118.4254 118.6949 118.7723
   118.8110 118.9211 118.9751 119.1565 119.2580 119.3254 119.4726 119.5445
   119.7527 119.7765 119.9090 119.9590 120.3125 120.3577 120.6347 120.6550
   120.7913 120.8796 120.9644 121.1963 121.1979 121.2230 121.3195 121.4504
   121.5937 121.6872 121.9025 121.9668 122.0236 122.1171 122.1497 122.2545
   122.3146 122.4433 122.4791 122.6119 122.6586 122.7062 122.7480 122.8392
   122.8462 122.9294 123.0750 123.1227 123.1629 123.2558 123.4238 123.5132
   123.5639 123.6296 123.7325 123.8540 123.8921 123.9173 123.9592 124.0046
   124.1900 124.2206 124.3158 124.4399 124.4495 124.5640 124.6556 124.6832
   124.7900 124.7937 124.9733 125.0325 125.1366 125.1543 125.4506 125.4605
   125.6259 125.6416 125.8503 126.0738 126.2108 126.2519 126.3027 126.5106
   126.6363 126.7718 126.7950 127.0664 127.1427 127.3651 127.4851 127.4912
   127.5692 127.5870 127.7053 127.7861 127.8505 127.9015 128.0138 128.0492
   128.1588 128.2274 128.4105 128.4236 128.5116 128.6719 128.7983 128.8361
   128.8455 128.9605 128.9753 129.0445 129.0969 129.1685 129.2771 129.2813
   129.3993 129.4764 129.5562 129.5621 129.6832 129.7054 129.7466 129.7708
   129.8181 129.9300 129.9320 130.0117 130.0164 130.1659 130.2097 130.3686
   130.4187 130.4660 130.5061 130.5610 130.7030 130.7546 130.8456 130.9830
   131.0372 131.2552 131.3115 131.4518 131.5465 131.6390 131.6542 131.7205
   131.8806 131.9472 131.9703 132.1514 132.2178 132.4167 132.4702 132.6614
   132.6858 132.8081 132.8890 133.1754 133.2256 133.2584 133.4187 133.4314
   133.5193 133.5417 133.6650 133.7937 133.9235 133.9614 134.0898 134.1196
   134.1570 134.1811 134.3398 134.3660 134.4190 134.4934 134.5784 134.6205
   134.6865 134.7159 134.7756 134.7830 134.8704 134.9762 134.9929 135.0680
   135.1061 135.1713 135.1866 135.2386 135.2577 135.3308 135.4041 135.4648
   135.4874 135.5579 135.6191 135.6573 135.7054 135.7436 135.8151 135.8392
   135.8437 135.9074 135.9661 135.9902 136.0449 136.0577 136.2165 136.2490
   136.2755 136.3943 136.4518 136.5333 136.5791 136.5994 136.7676 136.7749
   136.9285 137.0162 137.0430 137.1514 137.2014 137.2894 137.3588 137.4401
   137.4464 137.5495 137.5981 137.6092 137.6971 137.7848 138.0385 138.0544
   138.2100 138.2555 138.3226 138.3920 138.6273 138.9788 139.0289 139.0563
   139.1184 139.2727 139.3557 139.4508 139.5444 139.7161 139.7480 139.8345

          k = 0.1667 0.4811 0.0000 ( 10811 PWs)   bands (ev):

   -30.2777 -30.2166 -30.1862 -30.1636 -30.1480 -30.1339 -30.1037 -30.0937
   -30.0643 -30.0200 -11.1079  -9.2307  -4.6720  -3.9386  -2.8329   0.3860
     1.1044   1.7813   4.0085   4.7495   5.2631   5.8192   5.9425   6.3171
     6.5808   6.7498   7.3862   7.7179   8.0489   8.2167   8.2259   8.2727
     8.9420   9.3294   9.7489   9.9049  10.1443  10.3284  10.3799  10.7780
    10.8608  11.5526  11.7783  12.0375  12.2001  12.3627  12.8120  12.9923
    14.0600  14.1435  14.5318  14.7361  14.9189  15.0676  15.3389  15.7220
    15.9799  16.1063  16.1289  16.2311  16.3347  16.4894  17.6065  17.8183
    17.9391  18.0846  18.2791  18.3281  18.6218  18.8504  19.2589  19.5040
    19.6068  20.0854  20.1457  20.2020  20.2997  20.6756  20.7600  20.9230
    21.5218  21.5901  21.7558  21.9945  22.1673  22.3382  22.5081  22.7777
    22.9400  23.1412  23.2615  23.7619  23.8692  24.0070  24.1261  24.2890
    24.3715  24.6800  24.6971  24.7443  25.0139  25.1203  25.3138  25.3386
    25.7681  26.0133  26.0980  26.1910  26.4539  26.8170  26.9408  27.0611
    27.1686  27.2862  27.6823  27.7584  27.8487  27.8934  28.0800  28.2078
    28.2867  28.3302  28.5735  28.6252  28.6902  28.7164  28.9090  29.0055
    29.1678  29.6258  29.8558  29.9800  30.1274  30.3108  30.3945  30.5128
    30.5981  30.7107  31.3800  31.5707  31.8213  31.9593  31.9913  32.1534
    32.2389  32.3203  32.4708  32.5706  32.6380  32.7623  32.7841  33.0712
    33.2501  33.4291  33.7961  33.8766  33.9368  34.0400  34.2558  34.4669
    34.5107  34.5694  34.7088  34.7711  35.1613  35.3975  35.6404  35.8593
    35.8826  35.9853  36.0690  36.1195  36.2310  36.2538  36.4333  36.5804
    36.7912  36.8180  37.0133  37.2008  37.4276  37.6065  37.6687  37.8049
    37.8895  38.0108  38.0865  38.1290  38.2546  38.3168  38.4316  38.5471
    38.6922  38.8303  38.9753  39.2525  39.7156  39.8314  40.0098  40.1529
    40.3104  40.3986  40.6469  40.7750  40.8275  41.0139  41.1813  41.4870
    41.7504  41.8948  41.9662  42.2123  42.3512  42.4221  42.4920  42.6544
    42.7549  42.9177  43.1269  43.1724  43.5845  43.9229  44.1020  44.1836
    44.4125  44.4556  44.5198  44.7753  45.0240  45.2009  45.3850  45.6194
    45.7935  45.8806  45.9722  46.0580  46.2557  46.3222  46.4749  46.5709
    46.7747  47.0755  47.1057  47.4418  47.6860  47.7139  47.9337  47.9685
    48.0369  48.1774  48.2994  48.4265  48.6576  48.9460  49.0210  49.1267
    49.2896  49.4626  49.5721  49.7044  49.7848  49.8645  49.9843  50.0739
    50.1648  50.3014  50.4665  50.5435  50.7396  50.9022  51.1572  51.2396
    51.3145  51.3977  51.4780  51.7079  51.9004  51.9349  52.1114  52.2880
    52.3094  52.5331  52.6214  52.6663  52.7493  52.8229  53.1105  53.1910
    53.2474  53.4481  53.5654  53.7890  53.9016  54.0254  54.1988  54.3159
    54.4878  54.5956  54.7148  54.7484  55.1628  55.3220  55.4542  55.5076
    55.5620  55.7107  55.8846  55.9260  56.0399  56.2291  56.4255  56.4980
    56.6442  56.7873  57.0243  57.0764  57.2167  57.5102  57.5353  57.7308
    57.8021  57.8263  57.9035  58.1108  58.1520  58.3036  58.3431  58.3861
    58.4956  58.5539  58.8257  58.8979  58.9762  59.1036  59.1496  59.3316
    59.5259  59.6087  59.6463  59.6652  59.8820  59.9717  60.0988  60.2065
    60.2390  60.3321  60.5364  60.6472  60.7326  60.9560  61.0445  61.0724
    61.2012  61.3508  61.4531  61.5360  61.6274  61.7382  61.8191  61.8886
    62.0905  62.1458  62.1865  62.3023  62.3610  62.4298  62.5386  62.6229
    62.8147  62.9059  62.9388  63.1675  63.3027  63.3819  63.6014  63.7024
    63.7312  63.8471  63.9840  64.1038  64.2560  64.3950  64.5503  64.7500
    64.8281  64.9273  65.0787  65.1967  65.3321  65.4778  65.5150  65.5888
    65.6635  65.7510  65.9398  66.0085  66.0766  66.1373  66.3337  66.3948
    66.4693  66.5529  66.7038  66.7386  66.8443  66.8668  67.0000  67.0317
    67.2469  67.4357  67.5112  67.5693  67.5870  67.7917  67.9719  68.1110
    68.1858  68.3485  68.4080  68.5349  68.5880  68.7165  68.8581  68.9034
    69.1336  69.2022  69.2972  69.4135  69.4374  69.4629  69.6360  69.7645
    69.7738  69.8466  69.9364  69.9862  70.1209  70.1927  70.2974  70.5712
    70.6303  70.7364  70.8385  70.8761  71.0383  71.1768  71.2332  71.3423
    71.4600  71.5593  71.7161  71.7654  71.8492  71.9679  72.0276  72.0636
    72.2431  72.2833  72.5218  72.6063  72.6709  72.8097  72.9096  72.9466
    73.3363  73.4257  73.4952  73.6464  73.8286  73.8776  73.9754  74.0828
    74.2106  74.2137  74.2972  74.4048  74.4247  74.5242  74.6237  74.7385
    74.8843  74.9360  75.0599  75.1196  75.2512  75.3261  75.4239  75.4883
    75.5054  75.5618  75.6865  75.7061  75.8151  75.8556  75.9953  76.0940
    76.0948  76.2182  76.2391  76.4899  76.5350  76.6204  76.7982  76.8216
    76.9335  77.0473  77.1224  77.2854  77.3117  77.5023  77.5399  77.5704
    77.5907  77.7479  77.8919  77.9405  78.0428  78.1701  78.3432  78.3852
    78.4366  78.5554  78.6451  78.7788  78.9109  79.0198  79.1633  79.3842
    79.4251  79.5164  79.7123  79.8672  79.8816  79.9747  80.0558  80.1535
    80.1935  80.3392  80.4615  80.5913  80.6396  80.7986  80.9354  80.9964
    81.1158  81.3242  81.4242  81.5129  81.6745  81.7855  81.9551  82.1271
    82.1596  82.2254  82.3474  82.6544  82.7149  82.8208  82.9294  83.0743
    83.2895  83.3488  83.4216  83.5104  83.6357  83.7024  83.7916  83.8544
    83.9051  83.9978  84.1248  84.2599  84.3150  84.5236  84.5538  84.5920
    84.7336  84.8741  84.8942  84.9911  85.1870  85.2307  85.2690  85.3299
    85.3535  85.4492  85.5346  85.5463  85.7327  85.8172  85.8748  85.9667
    86.1070  86.1981  86.2928  86.4352  86.4539  86.6893  86.7061  86.8017
    86.9916  87.0444  87.1737  87.2248  87.3009  87.3682  87.5242  87.6985
    87.7247  87.8236  87.9057  88.0466  88.0675  88.1037  88.2398  88.3796
    88.4587  88.5618  88.6682  88.6988  88.8421  88.9190  89.0457  89.0629
    89.2808  89.4034  89.4923  89.5464  89.6059  89.6334  89.7491  89.8933
    89.9637  90.1950  90.2004  90.2832  90.3680  90.6413  90.7172  90.9422
    91.0295  91.1858  91.2594  91.3584  91.5079  91.5985  91.6529  91.7815
    91.8485  91.9989  92.0403  92.1552  92.2589  92.3373  92.3456  92.4870
    92.5917  92.7563  92.8589  92.8938  93.0594  93.1127  93.1901  93.3489
    93.4465  93.4654  93.6297  93.7081  93.7765  93.8325  93.9052  94.0498
    94.1442  94.2162  94.3374  94.5992  94.7656  94.8059  94.8741  95.0292
    95.1820  95.2607  95.3607  95.4805  95.5027  95.5835  95.5996  95.7051
    95.8221  95.9382  95.9516  96.1998  96.2303  96.3965  96.5149  96.5492
    96.7299  96.8469  96.8602  96.9859  97.0115  97.1089  97.1859  97.2372
    97.4313  97.4421  97.5567  97.6315  97.7133  97.9475  97.9862  98.0270
    98.0752  98.1208  98.2219  98.3242  98.4476  98.6488  98.6946  98.7310
    98.9518  99.0544  99.2415  99.4128  99.5377  99.6404  99.7115  99.9297
   100.0591 100.1403 100.4072 100.5067 100.6619 100.7375 100.8212 100.8434
   100.9402 100.9887 101.0422 101.2472 101.2766 101.2933 101.5347 101.6380
   101.7914 101.9141 101.9708 102.0453 102.1847 102.3011 102.4108 102.4458
   102.5356 102.5816 102.6218 102.7771 102.8106 102.9261 103.0909 103.1230
   103.2479 103.3297 103.3798 103.4643 103.5027 103.6029 103.6999 103.7358
   103.8424 103.9358 104.0028 104.1240 104.2216 104.3455 104.4439 104.4916
   104.5646 104.6478 104.7428 104.8980 104.9218 105.1682 105.2077 105.2484
   105.3382 105.3830 105.5665 105.6263 105.7070 105.8013 105.8836 105.8961
   106.0068 106.1244 106.2159 106.2909 106.3928 106.5112 106.5247 106.6174
   106.6775 106.7663 106.8753 106.9029 107.0137 107.2117 107.2527 107.2560
   107.3510 107.4549 107.5085 107.7009 107.7700 107.8364 107.9158 108.0044
   108.0848 108.2741 108.3059 108.4906 108.6926 108.7128 108.8190 108.9704
   109.0525 109.0906 109.1588 109.1752 109.3579 109.4211 109.4694 109.6346
   109.6962 109.7860 109.9257 109.9438 109.9768 110.1585 110.2574 110.3605
   110.4352 110.4595 110.5743 110.6025 110.7814 110.7886 110.9310 110.9671
   110.9998 111.1316 111.2329 111.2982 111.3826 111.5664 111.6181 111.6567
   111.6673 111.8039 111.8933 111.9951 112.1422 112.2100 112.4009 112.4187
   112.4980 112.6362 112.6776 112.7922 112.8901 112.9600 112.9911 113.0975
   113.1922 113.2505 113.2807 113.3759 113.4610 113.5306 113.6367 113.7305
   113.9685 114.0548 114.0895 114.2012 114.3058 114.3294 114.3916 114.4433
   114.4833 114.6278 114.7259 114.7622 114.8103 114.9976 115.0940 115.1667
   115.2116 115.2607 115.3906 115.4843 115.5162 115.5698 115.7601 115.8158
   115.8985 115.9890 116.1031 116.1482 116.2087 116.2575 116.3819 116.4847
   116.5556 116.6116 116.6504 116.7115 116.8370 116.8662 116.9502 117.0746
   117.1309 117.2174 117.2592 117.3277 117.3617 117.3953 117.4581 117.5755
   117.6730 117.7674 117.8533 118.0123 118.0719 118.1146 118.1742 118.2816
   118.3776 118.4537 118.5527 118.5989 118.6726 118.7081 118.7804 118.9337
   118.9860 119.0474 119.0618 119.1132 119.1559 119.2257 119.2578 119.4264
   119.4596 119.5241 119.6042 119.6804 119.7209 119.8391 119.9345 119.9509
   120.0520 120.1236 120.2175 120.3048 120.4637 120.5024 120.5441 120.7169
   120.7486 120.8242 120.8948 120.9157 121.0984 121.2328 121.2954 121.3289
   121.4559 121.5334 121.6214 121.7413 121.8136 121.9479 122.0117 122.0652
   122.2469 122.2873 122.4064 122.4594 122.5600 122.6716 122.7739 122.8619
   122.9919 123.0089 123.0426 123.1100 123.1658 123.3025 123.4151 123.4743
   123.5458 123.6864 123.7289 123.8364 123.8624 123.8948 124.0051 124.1577
   124.2757 124.4586 124.4822 124.5077 124.5400 124.6359 124.6659 124.7840
   124.8721 124.9716 125.0032 125.0718 125.0969 125.1736 125.2242 125.2702
   125.3414 125.3546 125.4389 125.4975 125.5873 125.6110 125.7221 125.8702
   125.9299 125.9623 126.1082 126.1901 126.2691 126.3299 126.3764 126.4691
   126.5058 126.5273 126.7894 126.8406 126.8681 126.9264 126.9754 127.0384
   127.1271 127.1833 127.2303 127.2611 127.3954 127.4406 127.4575 127.5695
   127.6031 127.6652 127.7710 127.7834 127.8981 128.0086 128.0580 128.1315
   128.2069 128.2455 128.3954 128.4214 128.4761 128.5581 128.6783 128.7492
   128.8065 128.8889 129.0172 129.0868 129.1018 129.1812 129.2220 129.2524
   129.2942 129.4075 129.4713 129.6403 129.6715 129.8063 129.8972 129.9731
   130.0713 130.1573 130.1662 130.3250 130.4249 130.5019 130.6694 130.7689
   130.8144 130.8524 131.0158 131.0737 131.1429 131.1808 131.2453 131.3174
   131.4109 131.4865 131.6465 131.7341 131.8005 131.8455 131.9121 131.9701
   132.0930 132.1162 132.2310 132.3505 132.5107 132.6665 132.6857 132.7320
   132.8833 132.8894 132.9653 133.0883 133.2376 133.2764 133.3493 133.4669
   133.5451 133.5728 133.6193 133.7092 133.7580 133.8423 134.0286 134.0971
   134.1230 134.1697 134.3082 134.4137 134.5367 134.5812 134.7181 134.7496
   134.8197 134.9210 135.0567 135.1680 135.2282 135.3081 135.4270 135.4837
   135.5601 135.7657 135.7835 135.8217 135.9854 136.0252 136.0513 136.1163
   136.2140 136.2585 136.3009 136.3612 136.4078 136.4707 136.5273 136.5794
   136.6958 136.7249 136.7701 136.8181 136.8372 136.8473 136.9047 136.9810
   137.1016 137.1474 137.1963 137.2391 137.3161 137.4584 137.4936 137.6462
   137.7110 137.7657 137.8957 138.0587 138.1038 138.1206 138.1861 138.2583
   138.3342 138.4277 138.5235 138.5728 138.6669 138.6835 138.7133 138.8400

          k = 0.3333 0.5774 0.0000 ( 10794 PWs)   bands (ev):

   -30.2775 -30.1854 -30.1853 -30.1761 -30.1354 -30.1353 -30.1308 -30.0796
   -30.0795 -30.0216 -10.1338 -10.1337  -5.1668  -3.4539  -3.4538  -0.1940
     1.8912   1.8913   4.9879   5.7280   5.7281   6.2678   6.4076   6.4078
     6.4949   7.0788   7.0789   7.1682   7.7374   7.7374   7.9415   7.9415
     7.9591   8.0851   9.4876   9.4876   9.7006   9.7639   9.7639  10.0421
    11.0415  11.6277  11.6278  12.4051  12.4051  12.4875  12.4875  12.7656
    12.7698  15.0360  15.0360  15.3559  15.7076  15.7076  15.9629  16.1622
    16.1622  16.3022  16.3408  16.9421  16.9421  18.3348  18.3883  18.3883
    18.8815  18.9470  18.9470  19.2989  19.2989  19.3269  19.5020  19.5020
    19.6971  19.7435  19.7435  19.8146  20.0310  20.0310  20.2447  20.2749
    20.2749  20.2824  21.5435  21.5435  21.5776  21.7496  21.8074  21.8074
    22.3577  22.3578  22.9150  23.5593  23.5593  23.8395  24.0480  24.1268
    24.1268  24.2095  24.7026  24.7026  24.8139  24.8139  25.0253  25.0564
    25.0565  25.1396  26.2856  26.2857  26.9841  27.4475  27.6830  27.6830
    27.8469  27.9153  27.9153  28.4973  28.5782  28.5782  29.4605  29.6939
    29.6939  30.0980  30.0980  30.1851  30.1851  30.4106  30.4709  30.5374
    30.5523  30.5524  30.7754  30.7754  30.8473  30.9209  30.9530  30.9530
    31.4236  31.4315  31.4315  31.5918  31.5918  31.6666  31.6871  31.7468
    31.7468  31.7745  31.8355  31.8355  31.9556  31.9641  31.9641  32.0945
    32.1617  32.1617  33.3059  33.3059  33.3567  33.5024  33.5024  33.5358
    33.5989  33.7495  33.7495  33.8458  33.8458  33.8615  34.9807  35.3945
    35.3945  35.5473  35.5473  35.7743  35.7743  35.9907  36.0536  36.0951
    36.2600  36.2600  36.3866  36.3866  36.4548  36.5615  36.5615  36.6552
    36.8122  36.8122  36.9955  36.9955  37.0276  37.1617  38.3856  38.3856
    38.9591  39.2271  39.3828  39.3828  39.5568  39.5568  39.5698  39.6151
    39.7256  39.7256  40.2185  40.2185  40.2366  41.0180  41.3394  41.3394
    41.4665  41.8093  41.8093  42.1740  42.1740  42.3963  42.3963  42.4958
    42.9417  42.9954  42.9954  43.4255  43.6163  43.6163  43.7750  43.8146
    43.8146  43.8189  44.0980  44.0980  44.1048  44.1716  44.3352  44.3352
    45.0792  45.0792  46.0395  46.3951  46.6193  46.6194  47.2588  47.3153
    47.7127  47.7127  47.8091  47.8091  48.2060  48.2060  48.2414  48.4262
    48.4263  48.5538  48.6523  48.9074  48.9718  48.9718  49.1697  49.1697
    49.4106  49.4107  49.7979  50.2491  50.2491  50.4800  50.4800  50.5761
    51.0367  51.4617  51.4618  52.2190  52.2882  52.6169  52.6169  52.7126
    53.1397  53.1397  53.4117  53.4117  53.4788  53.6531  53.8755  53.8755
    54.0410  54.0410  54.1185  54.2578  54.2759  54.2760  54.4131  54.4131
    54.4398  54.5546  54.5546  54.6718  54.7342  54.7342  54.7619  54.9673
    54.9673  55.0137  55.1737  55.2661  55.2661  55.3082  55.3819  55.3819
    55.5033  55.5033  55.6003  55.6003  55.6059  55.6525  55.6590  55.9041
    55.9042  56.7645  56.7997  56.7997  56.8738  56.8738  57.0114  57.1249
    57.1249  57.4210  57.4210  57.4421  57.5579  57.6604  57.8637  57.8637
    58.3966  58.3967  58.6452  58.6452  58.6744  58.8314  58.8684  58.8684
    59.3878  59.5596  59.6421  59.6421  59.8677  59.8677  59.9098  59.9366
    59.9422  59.9422  60.0941  60.0941  60.2934  60.2934  60.3463  60.4616
    60.4751  60.5303  60.5303  60.6988  60.8863  60.8863  60.9605  61.4876
    61.4877  61.8189  61.8189  62.0034  62.0875  62.1611  62.1611  63.0803
    63.1085  63.1085  63.1898  63.1898  63.3046  63.3046  63.3878  63.5154
    63.5154  63.6934  63.7644  63.9945  63.9945  64.0459  64.8634  65.1452
    65.1453  65.5786  65.7191  65.7191  65.9299  65.9299  65.9442  66.2202
    66.2418  66.2419  66.4772  66.4772  66.5025  66.6352  66.8083  66.8589
    66.8589  66.9224  66.9224  67.0521  67.1126  67.1126  67.1995  67.1995
    67.3924  67.3924  67.4305  67.4305  67.5355  67.5785  67.6099  67.6099
    67.7382  67.7393  67.7394  67.8701  67.9345  68.0107  68.0163  68.0243
    68.0243  68.3985  68.3985  68.8913  69.1182  69.1182  69.2058  69.2058
    69.4006  69.4006  69.5119  69.7638  69.9151  70.3644  70.3801  70.3801
    70.6027  70.6027  70.6643  70.9778  70.9778  71.3992  71.3992  71.6435
    71.8113  71.8113  71.8638  71.9443  71.9443  72.0098  72.1329  72.3243
    72.3243  72.5488  72.5488  72.7735  72.7864  73.2726  73.3162  73.3162
    73.6737  73.7489  73.7489  73.8379  73.8379  74.0304  74.0546  74.0546
    74.4146  74.4147  74.4451  74.5200  74.7636  74.7636  74.9391  75.2737
    75.2737  75.3425  75.4757  75.4757  75.7156  75.7156  75.7538  76.0414
    76.0414  76.5705  76.5705  76.5837  76.8715  76.8715  76.9418  76.9564
    77.1092  77.3871  77.3871  77.5166  77.5166  77.8084  77.8449  77.8449
    78.0377  78.0581  78.0581  78.1067  78.2042  78.3406  78.3407  78.4165
    78.4590  78.4591  78.4939  78.6436  78.6436  78.6938  78.6938  78.7120
    78.7120  78.9603  78.9637  79.1593  79.1812  79.1812  79.1950  79.1950
    79.2344  79.3260  79.3343  79.3343  79.3773  79.5691  79.5691  79.5802
    79.6447  79.6447  79.7253  80.1303  80.1303  80.5387  80.6658  80.6658
    80.8832  81.0141  81.0218  81.0218  81.0837  81.0837  81.2267  81.2267
    81.2848  81.4409  81.5198  81.5198  81.6616  81.6616  81.8670  82.0267
    82.2056  82.5404  82.5404  82.7530  82.7530  82.9103  82.9103  82.9455
    83.1150  83.1150  83.1813  83.3699  83.3699  83.4209  83.4209  83.4650
    83.5734  83.5734  83.6950  83.8358  83.8417  83.8417  83.8698  83.9888
    83.9888  84.0195  84.2305  84.3645  84.3645  84.3844  84.3844  84.4595
    84.5071  84.5071  84.6972  85.5304  85.5304  85.8230  86.1157  86.1157
    86.3910  86.3910  86.4504  86.5078  86.5078  86.8657  86.9580  86.9589
    86.9589  87.1398  87.1398  87.2470  87.3104  87.4536  87.5672  87.5672
    87.8507  88.0256  88.2462  88.2462  88.4635  88.4635  88.8446  88.9011
    88.9011  89.1126  89.3321  89.3871  89.4437  89.4437  89.8783  89.8783
    89.9822  89.9856  89.9856  90.0874  90.1402  90.1402  90.2586  90.2586
    90.5886  90.6918  90.6918  90.8393  90.8393  91.0215  91.1781  91.1781
    91.2205  91.2205  91.2751  91.3436  91.3493  91.3886  91.3886  91.4737
    91.5730  91.5841  91.5841  91.6974  91.6974  91.9080  91.9289  91.9289
    92.3608  93.8504  93.8505  94.1594  94.1594  94.3228  94.6204  94.6973
    94.6973  94.8326  94.8326  95.0685  95.6525  95.6525  95.7186  95.8982
    95.8982  96.0712  96.0712  96.1067  96.1067  96.1116  96.2026  96.3145
    96.3145  96.4909  96.5056  96.5056  96.5630  96.9705  96.9705  96.9931
    97.1987  97.2849  97.4057  97.4057  97.4160  97.4393  97.4393  97.8787
    97.9553  97.9553  98.1620  98.1620  98.4637  98.4638  98.7188  98.8193
    98.8654  98.8654  98.8709  98.9214  99.3247  99.3247  99.3984  99.4338
    99.4338  99.5072  99.8940  99.8940 100.1376 100.1603 100.1604 100.4079
   100.4986 100.4987 100.7013 100.7013 100.8097 100.8564 100.8565 100.8832
   100.8833 101.3056 101.3350 101.3350 101.4553 101.4553 101.5574 101.5997
   101.7081 101.7081 101.7496 102.0534 102.2287 102.2288 102.2773 102.3816
   102.4170 102.4170 102.5460 102.6049 102.6582 102.6582 102.7363 102.7363
   102.9954 102.9954 103.1079 103.1588 103.1588 103.2338 103.6548 103.6548
   103.8633 104.0125 104.0125 104.1685 104.6918 104.6918 104.8448 104.8727
   104.8727 104.9485 105.2172 105.2172 105.4846 105.4846 105.5094 105.7562
   105.7562 105.8222 105.8222 106.1444 106.4057 106.4057 106.5907 106.6635
   106.6635 106.9909 107.0504 107.0506 107.0506 107.2010 107.2622 107.2622
   107.2915 107.2915 107.4413 107.4413 107.5523 107.6775 107.9466 107.9908
   107.9908 108.0830 108.2936 108.5098 108.5098 108.6705 108.9693 108.9693
   109.0599 109.0599 109.0997 109.2040 109.2137 109.2137 109.4056 109.5290
   109.6591 109.6591 109.8174 109.8174 109.9286 109.9286 109.9963 110.2314
   110.3674 110.4314 110.4314 110.5223 110.5441 110.5441 110.7765 110.7766
   110.8247 110.8247 110.8766 110.9170 110.9315 110.9315 111.4899 111.6150
   111.6357 111.6358 111.8885 111.8885 112.5900 112.6789 112.6789 112.8938
   113.0636 113.0636 113.1108 113.1108 113.4640 113.5049 113.5049 113.5250
   113.6653 113.6653 113.8570 113.9776 114.0180 114.0181 114.0560 114.0561
   114.1266 114.2122 114.2418 114.2419 114.3424 114.3896 114.3896 114.5483
   114.5483 114.5804 114.5859 114.5859 114.7050 114.7332 114.7332 114.7735
   114.7913 114.7913 114.8714 114.8802 114.9676 114.9676 115.0707 115.1700
   115.1700 115.2290 115.2293 115.2293 115.2447 115.3704 115.3704 115.5536
   115.7493 115.7493 115.8044 115.8672 115.8672 116.2810 116.4173 116.4173
   116.4724 116.4724 116.5513 116.5762 116.5762 116.8049 116.8049 116.8122
   116.8824 116.9704 116.9704 117.2481 117.4119 117.4119 117.4876 117.7777
   117.7777 117.8615 118.2158 118.2158 118.3287 118.5829 118.5830 118.7010
   118.7010 118.8560 119.0390 119.0390 119.0984 119.0984 119.1272 119.2458
   119.2485 119.2485 119.3348 119.5007 119.7661 119.7898 119.8271 119.8271
   119.9592 119.9592 119.9594 119.9944 120.0149 120.0149 120.1659 120.1659
   120.4327 120.4327 120.5892 120.7456 120.9773 120.9773 121.1231 121.1231
   121.2458 121.2458 121.3110 121.3186 121.5438 121.5438 121.6005 121.7181
   121.7568 121.7568 121.8629 121.8629 121.9872 122.1475 122.1475 122.1875
   122.2445 122.2445 122.3008 122.3580 122.4294 122.4294 122.5312 122.5312
   122.6464 122.7266 122.8756 122.8756 123.0352 123.0352 123.1140 123.2905
   123.3797 123.3797 123.4550 123.5795 123.9257 123.9257 124.0811 124.0811
   124.3579 124.3579 124.4293 124.6032 124.6747 124.6747 124.7559 124.7897
   124.7897 124.8811 124.9993 124.9993 125.2399 125.2399 125.3476 125.4440
   125.5156 125.5156 125.6134 125.6134 125.8268 125.9536 125.9536 126.0246
   126.0412 126.0412 126.0501 126.1293 126.1840 126.1840 126.5017 126.5017
   126.5719 126.5839 126.5854 126.6282 126.6282 126.6826 126.6826 126.8538
   126.8538 126.9035 126.9035 126.9197 126.9866 127.0451 127.0673 127.0673
   127.1144 127.1144 127.2846 127.6847 127.8002 127.8002 127.8423 128.1039
   128.1465 128.1465 128.1665 128.2677 128.2677 128.3898 128.3899 128.4528
   128.4528 128.5723 128.6802 128.6802 129.0170 129.0466 129.0466 129.1538
   129.2393 129.2393 129.5492 129.7271 129.7271 129.8531 129.8813 129.8813
   130.0523 130.2055 130.2055 130.3199 130.3235 130.3235 130.3408 130.3761
   130.3761 130.5263 130.5302 130.5302 130.7820 130.8530 130.9634 130.9634
   131.0020 131.1373 131.1373 131.2712 131.2951 131.2951 131.3980 131.3980
   131.5478 131.6950 131.6950 131.7278 131.8183 131.8183 131.9062 131.9521
   131.9521 131.9641 132.0638 132.1181 132.1499 132.1499 132.2389 132.2389
   132.5532 132.6435 132.6499 132.6499 132.7148 132.9841 133.0747 133.0747
   133.1464 133.1464 133.1861 133.2073 133.2073 133.3175 133.3175 133.4910
   133.4910 133.5448 133.5610 133.5610 133.7168 133.7168 133.7990 134.0788
   134.1693 134.1694 134.2651 134.2651 134.3513 134.3614 134.4384 134.4384
   134.5894 134.7830 134.7830 134.9663 134.9777 135.1140 135.1140 135.2232
   135.3098 135.3098 135.3438 135.3438 135.5054 135.6434 135.7890 135.7890
   135.8800 136.4654 136.5656 136.5656 136.5761 136.8142 136.8142 136.9905
   136.9905 137.0725 137.0725 137.1690 137.5930 137.5930 137.7677 137.8260
   137.8260 137.9063 137.9189 137.9189 137.9475 138.0384 138.0910 138.0910

     the Fermi energy is    -0.7783 ev
     (compare with:    -0.7064 eV, computed in scf)

     Writing all to output data dir out/Sb.save/
 
     init_run     :      0.24s CPU      0.32s WALL (       1 calls)
     electrons    :    506.31s CPU    522.03s WALL (       1 calls)

     Called by init_run:
     wfcinit      :      0.00s CPU      0.00s WALL (       1 calls)
     potinit      :      0.03s CPU      0.04s WALL (       1 calls)
     hinit0       :      0.02s CPU      0.08s WALL (       1 calls)

     Called by electrons:
     c_bands      :    506.31s CPU    522.03s WALL (       1 calls)
     v_of_rho     :      0.02s CPU      0.03s WALL (       1 calls)

     Called by c_bands:
     init_us_2    :      0.00s CPU      0.00s WALL (       7 calls)
     init_us_2:cp :      0.00s CPU      0.00s WALL (       7 calls)
     cegterg      :    492.85s CPU    508.16s WALL (       7 calls)

     Called by *egterg:
     cdiaghg      :    418.07s CPU    432.14s WALL (      83 calls)
     h_psi        :     16.21s CPU     16.56s WALL (      90 calls)
     g_psi        :      0.13s CPU      0.13s WALL (      76 calls)

     Called by h_psi:
     h_psi:calbec :      0.36s CPU      0.37s WALL (      90 calls)
     vloc_psi     :     15.37s CPU     15.67s WALL (      90 calls)
     add_vuspsi   :      0.32s CPU      0.33s WALL (      90 calls)

     General routines
     calbec       :      0.36s CPU      0.37s WALL (      90 calls)
     fft          :      0.02s CPU      0.08s WALL (      10 calls)
     fftw         :     13.64s CPU     13.91s WALL (  123820 calls)
 
     Parallel routines
 
     PWSCF        :   8m28.06s CPU   8m48.53s WALL

 
   This run was terminated on:  17:24:41   5Apr2024            

=------------------------------------------------------------------------------=
   JOB DONE.
=------------------------------------------------------------------------------=
