
     Program PWSCF v.7.1 starts on  5Apr2024 at 16: 4:57 

     This program is part of the open-source Quantum ESPRESSO suite
     for quantum simulation of materials; please cite
         "P. Giannozzi et al., J. Phys.:Condens. Matter 21 395502 (2009);
         "P. Giannozzi et al., J. Phys.:Condens. Matter 29 465901 (2017);
         "P. Giannozzi et al., J. Chem. Phys. 152 154105 (2020);
          URL http://www.quantum-espresso.org", 
     in publications or presentations arising from this work. More details at
     http://www.quantum-espresso.org/quote

     Parallel version (MPI), running on     8 processors

     MPI processes distributed on     1 nodes
     233112 MiB available memory on the printing compute node when the environment starts
 
     Reading input from pw_Sb_nscf_k1_E45.in
Warning: card &IONS ignored
Warning: card / ignored
Warning: card &CELL ignored
Warning: card / ignored

     Current dimensions of program PWSCF are:
     Max number of different atomic species (ntypx) = 10
     Max number of k-points (npk) =  40000
     Max angular momentum in pseudopotentials (lmaxx) =  4

     Atomic positions and unit cell read from directory:
     out/Sb.save/
     Atomic positions from file used, from input discarded
 
 
     R & G space division:  proc/nbgrp/npool/nimage =       8
     Subspace diagonalization in iterative solution of the eigenvalue problem:
     one sub-group per band group will be used
     scalapack distributed-memory algorithm (size of sub-group:  2*  2 procs)

 
     Parallelization info
     --------------------
     sticks:   dense  smooth     PW     G-vecs:    dense   smooth      PW
     Min          93      93     26                10817    10817    1654
     Max          94      94     27                10844    10844    1665
     Sum         745     745    211                86573    86573   13263
 
     Using Slab Decomposition
 


     bravais-lattice index     =            4
     lattice parameter (alat)  =       7.7553  a.u.
     unit-cell volume          =    2121.0124 (a.u.)^3
     number of atoms/cell      =            2
     number of atomic types    =            1
     number of electrons       =        30.00
     number of Kohn-Sham states=         1200
     kinetic-energy cutoff     =      45.0000  Ry
     charge density cutoff     =     180.0000  Ry
     Exchange-correlation= PBE
                           (   1   4   3   4   0   0   0)

     celldm(1)=   7.755267  celldm(2)=   0.000000  celldm(3)=   5.250762
     celldm(4)=   0.000000  celldm(5)=   0.000000  celldm(6)=   0.000000

     crystal axes: (cart. coord. in units of alat)
               a(1) = (   1.000000   0.000000   0.000000 )  
               a(2) = (  -0.500000   0.866025   0.000000 )  
               a(3) = (   0.000000   0.000000   5.250762 )  

     reciprocal axes: (cart. coord. in units 2 pi/alat)
               b(1) = (  1.000000  0.577350  0.000000 )  
               b(2) = (  0.000000  1.154701  0.000000 )  
               b(3) = (  0.000000  0.000000  0.190449 )  


     PseudoPot. # 1 for Sb read from file:
     /usr/scratch4/magr4985/FGWC/FGWC/pseudo/SG15/Sb.upf
     MD5 check sum: 0417cd6c0fe8ce4611e2b23135f1abd9
     Pseudo is Norm-conserving, Zval = 15.0
     Generated using ONCVPSP code by D. R. Hamann
     Using radial grid of  602 points,  6 beta functions with: 
                l(1) =   0
                l(2) =   0
                l(3) =   1
                l(4) =   1
                l(5) =   2
                l(6) =   2

     atomic species   valence    mass     pseudopotential
        Sb            15.00   121.76000     Sb( 1.00)

     12 Sym. Ops., with inversion, found



   Cartesian axes

     site n.     atom                  positions (alat units)
         1           Sb  tau(   1) = (   0.5000000   0.2886752   2.4245708  )
         2           Sb  tau(   2) = (   0.0000000   0.5773502   2.8261916  )

     number of k points=     2  Gaussian smearing, width (Ry)=  0.0005
                       cart. coord. in units 2pi/alat
        k(    1) = (   0.0000000   0.0000000   0.0000000), wk =   0.5000000
        k(    2) = (   0.0000000  -0.5773503   0.0000000), wk =   1.5000000

     Dense  grid:    86573 G-vectors     FFT dimensions: (  36,  36, 180)

     Estimated max dynamical RAM per process >     245.07 MB

     Estimated total dynamical RAM >       1.91 GB

     The potential is recalculated from file :
     out/Sb.save/charge-density

     Starting wfcs are random

     Band Structure Calculation
     Davidson diagonalization with overlap

     ethr =  5.00E-06,  avg # of iterations = 11.0

     total cpu time spent up to now is      148.0 secs

     End of band structure calculation

          k = 0.0000 0.0000 0.0000 ( 10857 PWs)   bands (ev):

   -30.2840 -30.2840 -30.2114 -30.2114 -30.1493 -30.0998 -30.0998 -30.0477
   -30.0160 -30.0160 -12.9650  -7.9787  -2.2960  -1.6170  -1.6170  -0.0318
     1.1543   1.1543   2.6650   2.8841   3.5730   4.0602   5.1061   5.6878
     5.8833   6.5295   6.5295   7.3624   7.4994   8.3008   8.3008   8.8555
     8.9107  11.2962  11.2962  11.3494  11.7648  12.1801  12.1801  12.4712
    13.3674  13.9559  13.9559  14.4891  14.4891  14.5011  14.7012  14.9754
    14.9796  14.9796  15.0434  15.0434  15.1301  15.4935  15.6956  15.7008
    15.7008  15.7089  15.7089  15.8604  15.8604  15.9562  15.9562  16.0640
    16.1949  16.2434  16.2883  17.4306  17.4306  17.5381  17.5632  17.5632
    17.7736  17.7736  17.8539  17.8539  17.9209  18.1293  18.2839  19.8977
    19.9792  19.9792  20.1752  20.1752  20.3441  20.4874  20.4874  20.5194
    20.5194  20.7212  20.9981  21.1121  21.1283  22.4837  23.2127  23.2127
    23.4173  23.4173  23.5844  23.8155  23.8959  23.8959  23.9157  23.9157
    24.3614  24.5152  25.1679  25.1679  25.8481  25.8481  25.9431  26.2137
    27.3119  27.3119  27.4290  27.4965  27.4965  27.6228  27.9230  27.9663
    27.9663  28.0230  28.0230  28.3794  28.6223  29.6402  30.8341  30.8341
    30.8412  30.8875  30.8875  31.8837  31.8837  32.0626  32.2883  32.2883
    32.4399  32.4399  32.6828  32.6855  32.9110  32.9110  33.0811  33.5517
    33.7592  33.7592  33.8673  33.8806  34.6182  35.1496  35.2772  35.5893
    35.5893  36.5328  36.5328  37.6298  37.6298  37.6367  37.8067  37.9299
    37.9299  38.0470  38.0470  38.1682  38.1682  38.2474  38.2474  38.2584
    38.4225  38.4225  38.4998  38.4998  38.6205  38.6323  38.7790  38.8542
    38.8542  38.9115  38.9115  38.9446  39.0780  39.3543  39.4361  39.4361
    39.4587  39.5014  39.5056  39.5671  39.6437  39.6437  39.7337  39.7337
    39.8355  39.8355  40.1399  41.0154  41.0154  41.2537  41.3421  41.3981
    41.4665  41.4665  41.5405  41.5405  41.7308  41.7308  41.9152  42.7500
    42.7500  42.7838  42.7838  42.9763  43.2302  43.2302  43.6920  43.6920
    43.8582  43.9458  43.9718  44.0798  44.0798  44.2177  44.2177  44.2571
    44.2793  44.3923  44.3923  44.5242  44.5242  44.5252  44.5252  44.6522
    44.6522  44.6645  44.8884  45.5762  45.6345  45.9850  45.9850  46.2777
    46.6553  46.9321  46.9321  47.2130  47.2346  47.2923  47.4991  47.4991
    47.5100  47.7769  47.7769  47.9605  48.0209  48.0209  48.1153  48.1153
    48.7871  49.6861  49.6861  49.8454  50.1369  50.1369  50.1779  50.1779
    50.3517  50.3517  50.4443  50.5933  50.5933  50.6051  50.6254  50.6723
    50.6723  50.6891  50.6891  50.7840  50.8083  50.8083  51.1680  51.1680
    51.1865  51.2937  51.3006  51.3778  51.4253  51.4728  51.4728  51.6385
    51.6385  51.6441  51.7043  51.7043  51.7415  51.7415  51.7557  51.7976
    51.7976  51.8290  51.9413  52.0919  52.0919  52.1259  52.1259  52.4167
    52.8620  53.1399  53.1399  53.1796  53.2728  53.4735  53.4735  53.5842
    53.5842  53.7037  53.7037  53.8611  53.9674  54.3233  54.6087  55.0034
    55.0034  55.7687  55.7777  55.7777  55.8106  55.8150  55.8150  55.8987
    55.8987  55.9120  56.0208  56.1827  56.2241  56.2241  56.4204  56.4204
    56.4542  56.4542  56.6149  56.6149  56.6714  56.9719  57.1698  57.6502
    57.6502  57.8522  57.8522  58.0490  58.0490  58.1657  58.5327  58.5327
    58.6609  58.9807  58.9807  59.0911  59.1628  59.4415  59.4772  59.4772
    59.5187  59.6603  59.6603  59.6869  59.6869  60.2914  60.2930  60.8624
    61.0691  61.0691  61.1057  61.3380  61.3380  61.4854  61.4854  61.8748
    61.8748  62.1344  62.4834  62.6213  62.6275  62.6943  63.2717  63.2717
    63.3110  63.3160  63.3160  63.3279  63.6786  63.6786  63.7585  63.7585
    64.1576  64.3372  64.4742  64.8206  64.8206  64.8516  64.8516  65.6903
    66.0081  66.0081  66.2566  66.2566  66.7394  66.8317  66.8317  67.0630
    67.1639  67.1639  67.2790  67.5281  67.5281  67.6323  67.8422  67.8422
    67.9164  67.9839  68.2661  68.2800  68.2800  68.3018  68.3262  68.3262
    68.5053  68.5221  68.5221  68.6774  68.8366  68.9089  68.9089  70.1511
    70.1511  70.2695  70.3781  70.3781  70.9238  71.2901  71.2901  71.6014
    72.3252  72.5707  72.5707  72.6148  72.6148  73.2545  73.2545  73.3499
    73.8797  73.8797  73.8871  73.8871  73.9986  74.0382  74.0750  74.1544
    74.4692  74.4697  74.4697  74.5247  74.5247  74.5801  74.6052  74.6052
    75.1131  75.1131  75.1468  75.3056  75.3057  75.4108  75.5773  75.6875
    75.6875  75.7228  75.7228  75.8566  75.8566  76.2166  76.3346  76.4147
    76.4147  76.4952  77.4368  77.4368  77.4891  77.5623  77.5623  78.0911
    78.0911  78.3573  78.8591  79.0240  79.2162  79.2162  79.2891  79.2891
    79.7453  79.8347  80.4552  80.4552  80.5881  80.5881  80.8713  80.8713
    80.9232  81.1685  81.1750  81.1750  81.4307  81.5850  81.5850  81.8270
    81.9731  81.9731  82.0186  82.0186  82.3731  82.4406  82.5516  82.8995
    82.9852  83.0580  83.3081  83.3081  83.3791  83.3791  83.4272  83.4272
    83.8851  83.8851  83.9797  84.1442  84.1442  84.2496  84.7176  84.7176
    84.7447  84.7447  84.7557  85.0462  85.3763  85.4220  85.4220  85.4361
    85.5043  85.5299  85.5299  85.6184  85.6184  85.7549  85.9831  85.9831
    86.1540  86.1540  86.1871  86.1871  86.1982  86.2672  86.2865  86.3711
    86.3711  86.3975  86.3975  86.4246  86.4341  86.4411  86.4582  86.4582
    86.5406  86.5406  86.5714  86.5714  86.6853  86.7995  86.7995  86.8332
    86.9016  86.9108  86.9807  87.0849  87.0849  87.1178  87.1178  87.1413
    87.1692  87.1692  87.2234  87.2490  87.2490  87.2682  87.2747  87.2788
    87.2788  87.2821  87.2821  87.5013  87.5013  87.5873  87.5873  88.0559
    88.1964  88.4472  88.4799  88.5108  88.5108  88.5263  88.5548  88.6945
    88.6945  88.7561  88.7561  88.8904  88.8904  89.0356  89.0356  89.0487
    89.0487  89.1303  89.1536  89.1816  89.1816  89.4389  89.4389  89.4943
    89.4943  89.5989  89.7175  89.7175  89.8126  89.8635  89.8635  89.9609
    89.9671  90.3250  90.3719  90.4837  90.4837  90.5808  90.9975  90.9975
    91.2545  91.2971  91.2976  91.2976  91.4178  91.5170  91.5170  91.5309
    91.5309  91.7857  91.7857  91.7911  91.7911  91.7996  91.8208  91.8434
    92.0300  92.0737  92.0737  92.2192  92.2192  92.3869  92.3869  92.5016
    92.7191  92.7420  92.7939  92.7939  93.1398  93.2105  93.2105  93.2850
    93.5379  93.5379  93.6526  93.7042  93.9965  93.9965  94.0581  94.1388
    94.1388  94.3243  94.3368  94.4414  94.4414  94.4919  94.4919  94.6602
    94.6602  94.6914  94.7130  94.7130  94.9366  94.9366  94.9815  95.0051
    95.0051  95.0260  95.0260  95.2126  95.2126  95.2126  95.2377  95.2608
    95.2608  95.3380  95.4409  95.6645  95.6645  95.7040  95.7138  95.7138
    96.2081  96.5802  96.7418  96.7418  96.8046  97.3733  97.3733  97.5645
    97.5645  97.8853  97.8994  97.9139  98.0247  98.0247  98.1209  98.1209
    98.4070  98.7541  98.7541  98.8173  98.8429  98.8429  98.9880  98.9880
    99.0650  99.0650  99.1271  99.1271  99.1512  99.1712  99.1952  99.3274
    99.3376  99.4477  99.4477  99.5101  99.7680  99.7680  99.9461 100.0760
   100.0760 100.2904 100.2904 100.7543 100.8496 100.8972 101.0073 101.0073
   101.1656 101.1656 101.1664 101.5102 101.5102 101.5877 101.8771 101.9881
   101.9881 102.0724 102.4406 102.4406 102.4618 102.9134 102.9308 103.0110
   103.0164 103.1383 103.1383 103.3457 103.4730 103.4730 103.6376 103.6376
   103.7422 103.7792 103.7792 103.9540 103.9540 104.0905 104.1035 104.1286
   104.1286 104.2361 104.2361 104.5447 104.5447 104.6928 104.6928 104.9459
   104.9459 104.9852 105.2585 105.2585 105.2694 105.2694 105.4853 105.6499
   105.7885 105.8124 105.8124 106.1668 106.3306 106.4320 106.4707 106.4707
   106.5527 106.5527 107.1225 107.2202 107.2202 107.3895 107.4060 107.4060
   107.5600 107.6098 107.7678 107.8571 107.8571 108.3907 108.3907 108.7996
   108.7996 108.8447 108.8467 108.8695 108.9015 108.9015 108.9524 108.9711
   109.0901 109.0901 109.2850 109.2850 109.3474 109.3474 109.5115 109.5722
   109.5740 109.8209 109.8209 109.9130 109.9130 110.0289 110.0289 110.0685
   110.0685 110.0885 110.2278 110.2712 110.2712 110.3444 110.3444 110.4232
   110.5022 110.5315 110.5315 110.5692 110.6187 110.6187 110.7838 110.7838
   110.7877 110.8351 110.8351 110.9140 110.9140 110.9536 110.9865 111.0216
   111.0956 111.0956 111.2403 111.2781 111.2781 111.5303 111.5303 112.2358
   112.3188 112.3727 112.3727 112.4243 112.4493 112.7172 112.7172 112.7754
   112.8856 112.8856 112.9922 112.9922 113.1614 113.6286 113.6726 113.6972
   113.6972 114.0333 114.0730 114.0730 114.0803 114.0803 114.2705 114.3000
   114.3358 114.8143 114.8143 114.8664 115.0365 115.1454 115.1454 115.2038
   115.2038 115.2345 115.2345 115.2460 115.2460 115.4533 115.4533 115.4972
   115.5628 115.5628 115.6066 115.6305 115.6561 115.8438 115.8438 115.8765
   115.8765 115.9056 116.0655 116.0655 116.0880 116.0880 116.3834 116.6402
   116.6402 116.8939 116.8939 117.0579 117.3163 117.3163 117.5068 117.5511
   117.5511 117.7091 117.7760 117.7760 117.8103 117.8103 117.8219 118.0114
   118.0569 118.1690 118.2011 118.2035 118.3023 118.4058 118.4058 118.4398
   118.4398 118.6676 118.6676 118.7689 118.7689 119.2952 119.3567 119.3567
   119.6721 119.7360 119.7360 119.7366 119.7366 119.8173 120.0558 120.0622
   120.2440 120.2440 120.3457 120.3835 120.3835 120.7021 120.7021 120.9255
   121.0830 121.1464 121.2587 121.2587 121.3490 121.5558 121.7636 121.7636
   121.9297 121.9297 122.2848 122.2848 122.3789 122.3789 122.4034 122.4302
   122.5109 122.5109 122.5493 122.7317 122.7317 122.7386 122.7483 122.7483
   123.2499 123.2564 123.2564 123.2643 123.3017 123.3017 123.6379 123.6379
   123.8880 123.9710 124.0093 124.0093 124.1485 124.1555 125.1101 125.4411
   125.4411 125.4631 125.4631 125.6635 125.9505 126.1761 126.1761 126.4499
   126.4499 126.8045 126.8311 127.1342 127.1342 127.1418 127.1418 127.3700
   127.3700 127.5151 127.5151 127.8050 127.8222 127.9732 128.2523 128.2523
   128.2642 128.3103 128.3103 128.4122 128.4448 128.4448 128.5048 129.0159
   129.0159 129.0225 129.0225 129.2176 129.2176 129.3413 129.4152 129.4417
   129.4758 129.5090 129.5090 129.5927 129.5927 129.7014 129.7014 129.7298
   129.7298 129.7805 129.7850 129.9741 129.9900 130.2578 130.2578 130.2967
   130.2967 130.4004 130.4034 130.4218 130.4218 130.6171 130.6322 130.6861
   130.6861 130.7272 130.7272 131.1789 131.1789 131.4774 131.4774 131.7236
   132.0088 132.0088 132.0564 132.1912 132.3856 132.9803 132.9803 133.0875
   133.7114 133.7114 133.9239 134.2208 134.2208 134.6988 134.9433 134.9806
   134.9806 135.2514 135.2514 135.5445 135.5445 135.7588 135.9660 136.0515
   136.1101 136.1101 136.3359 136.3708 136.3708 136.3881 136.6227 136.7408
   136.9167 136.9167 137.0497 137.6320 137.6320 137.7170 137.7170 137.8432
   137.9090 138.0350 138.0350 138.0686 138.1186 138.1186 138.4045 138.4045
   138.5833 138.5833 138.6986 138.6986 138.8344 139.0453 139.0453 139.0527
   139.1776 139.1776 139.2540 139.2540 139.3676 139.3729 139.4785 139.5169
   139.5169 139.8243 139.8243 139.8766 139.8766 140.2668 140.2668 140.3397
   140.3448 140.5054 140.5320 140.6061 140.6061 140.6881 140.6881 140.7061
   140.7188 141.0010 141.0010 141.0710 141.1481 141.1481 141.2793 141.3497
   141.3497 141.3805 141.4014 141.4691 141.4691 141.5004 141.6239 141.6239

          k = 0.0000-0.5774 0.0000 ( 10818 PWs)   bands (ev):

   -30.2768 -30.2259 -30.1703 -30.1535 -30.1511 -30.1479 -30.1025 -30.1003
   -30.0607 -30.0189 -11.0249  -9.4362  -4.6084  -3.1800  -3.1343  -0.0083
     0.7404   1.8689   3.4193   5.1912   5.3181   5.6296   6.0155   6.2283
     6.6266   6.8538   6.9318   7.0453   7.9107   8.5188   8.8319   8.8489
     8.8595   9.3830  10.3352  10.4556  10.5435  11.3375  11.3454  11.4796
    11.5405  11.5854  11.5866  11.8726  12.0320  12.0958  12.7872  12.8080
    12.8360  13.0840  14.3524  14.5773  14.5786  14.5807  14.7429  14.9824
    15.1685  15.2635  15.9356  16.0245  16.3515  17.1606  17.2857  17.4085
    17.4855  17.5428  17.6984  18.3515  18.6310  18.8743  19.0298  19.0694
    19.7478  20.0072  20.1500  20.5105  20.8765  20.9056  21.0700  21.2283
    22.1716  23.1034  23.1066  23.2816  23.2955  23.3285  23.6187  23.7208
    23.8424  23.8456  23.9151  23.9189  24.0313  24.0735  24.4269  24.4484
    24.6074  24.6908  24.7194  24.8152  24.9177  24.9277  24.9844  25.0515
    25.0760  25.2089  25.9099  25.9104  26.3800  26.5251  26.5307  26.5657
    26.6701  26.7302  26.8741  27.0803  27.2701  27.8838  28.3000  28.3601
    28.5634  28.7415  28.9793  29.0399  29.1674  29.1697  29.2153  29.4311
    29.5635  29.6350  29.6720  29.6885  29.7519  29.7718  29.7816  29.7926
    29.9496  30.0161  30.0696  30.3043  30.5984  30.7472  30.9648  31.0082
    32.1635  32.2114  32.4065  32.4071  32.4699  32.6267  32.6336  32.7100
    32.7473  32.8700  33.0892  33.1467  33.2898  33.6507  34.0522  34.5240
    34.5767  34.6503  34.8953  34.9700  35.0389  35.0626  35.1687  35.4361
    35.5747  35.7144  35.8671  35.9366  36.2028  36.3432  36.6261  36.7924
    36.8293  36.8532  37.0050  37.3311  37.3576  38.0539  38.5501  38.6645
    38.8693  38.9555  39.0623  39.0744  39.4847  40.3703  40.4557  40.5996
    40.7483  40.9514  40.9713  41.0297  41.2272  41.2589  41.3116  41.3802
    41.4654  41.6250  41.6692  41.6731  41.7951  41.8750  41.9011  41.9065
    42.1268  42.1622  42.1820  42.4079  42.4126  42.4173  42.5482  42.5525
    42.6114  42.6262  42.6951  42.7155  42.9408  42.9491  43.0502  43.1179
    43.1299  43.2771  44.0788  44.3847  44.4075  44.5277  44.5689  44.6058
    44.7945  44.8257  44.9608  45.4262  45.9140  46.0769  46.3318  46.4795
    46.8140  46.8461  46.8476  46.9484  47.0628  47.1007  47.1804  47.1844
    47.1933  47.3566  47.3824  47.5014  47.7268  47.7965  47.8887  48.0130
    48.0564  48.0863  48.3889  48.7984  48.9883  49.1152  49.1711  49.5843
    49.7132  49.7484  49.9923  50.2288  50.2759  50.5923  50.6809  50.7146
    50.7598  50.8554  51.0715  51.3055  51.7576  51.9345  52.0363  52.0603
    52.1930  52.2746  52.6442  52.8574  53.1397  53.1488  53.1679  53.3154
    53.6231  53.6660  53.8491  53.8625  54.0837  54.2048  54.2385  54.2618
    54.7102  54.8449  54.8499  54.9127  55.0625  55.1034  55.2901  55.2960
    55.3979  55.5711  55.7231  56.1487  56.4531  56.8976  57.0051  57.2654
    57.4350  57.4899  57.7830  58.0421  58.1265  58.5307  58.6298  58.6989
    58.7994  58.8130  58.9339  59.2010  59.3155  59.3215  59.3258  59.3925
    59.3941  59.4597  59.5673  59.5934  59.6126  59.6448  59.7101  59.7631
    59.8147  59.9630  59.9727  60.0722  60.1457  60.1552  60.2810  60.3205
    60.3792  60.3846  60.4227  60.4746  60.5990  60.6516  61.0214  61.0224
    61.1873  61.5932  61.6382  61.7757  61.7953  61.9978  62.2622  62.2825
    62.4722  62.4793  62.5025  62.6997  62.7036  62.9104  63.1185  63.2016
    63.2912  63.4798  63.8586  64.1470  64.2357  64.3610  64.3914  64.5298
    64.6840  64.6851  64.7141  64.8020  64.8295  64.9209  64.9512  65.0493
    65.0749  65.1753  65.2822  65.3151  65.3326  65.4866  65.5035  65.5274
    65.5408  65.6169  65.6873  65.7023  65.8330  65.9821  66.0473  66.1282
    66.2249  66.3201  66.3379  66.3713  66.4110  66.4258  66.4996  66.6366
    66.6524  66.6547  66.7563  66.8150  66.8877  66.9826  67.3745  67.4598
    67.4979  67.6745  67.7688  67.8526  67.9197  68.0364  68.0869  68.1014
    68.1944  68.2249  68.3211  68.3649  68.4778  68.5422  68.5477  68.7103
    68.7416  68.7876  68.9428  69.3079  69.5235  69.7510  70.1244  70.3730
    70.4650  70.5138  70.5811  70.7933  70.8221  70.8763  70.9388  71.0304
    71.0405  71.0566  71.1127  71.4376  71.4793  71.7459  71.7831  71.7942
    71.9062  72.1005  72.1006  72.1439  72.1674  72.3365  72.4754  72.4808
    72.5642  72.7252  72.8180  73.1145  73.1566  73.3491  73.6750  73.8123
    73.8160  74.0028  74.1131  74.1640  74.1928  74.2316  74.3413  74.3777
    74.4309  74.7462  75.0555  75.0596  75.0859  75.0909  75.2909  75.4173
    75.4499  75.6405  75.9292  76.1454  76.2052  76.2932  76.4115  76.4410
    76.4414  76.6092  76.9315  76.9528  76.9572  76.9699  77.1708  77.2442
    77.4003  77.4763  77.5057  77.5780  77.6409  77.6902  77.7653  77.8707
    77.9379  77.9736  77.9882  78.2935  78.3140  78.3190  78.3583  78.4284
    78.4876  78.5410  78.6512  78.6739  78.6944  78.8616  78.9719  79.0824
    79.7643  79.8079  79.9381  80.0952  80.2617  80.3275  80.4617  80.4658
    80.7822  80.8242  80.9833  81.0304  81.0765  81.2228  81.2348  81.4835
    81.6103  81.8671  82.0986  82.1284  82.1569  82.3868  82.5793  82.6375
    82.7897  82.8740  82.8845  82.9661  83.0230  83.0257  83.1062  83.2005
    83.2181  83.2740  83.3610  83.3958  83.4484  83.4524  83.4547  83.5357
    83.6012  83.6862  83.7654  83.7926  83.9686  83.9819  83.9873  84.1141
    84.3116  84.3677  84.4667  84.4823  84.4981  84.7453  84.8283  84.8758
    84.9612  85.0560  85.2562  85.5353  85.5497  85.5791  85.7333  85.7632
    85.8231  85.9673  86.0193  86.1548  86.1665  86.3180  86.3329  86.4760
    86.4960  86.7579  86.9904  87.4421  87.5730  87.6214  87.8871  87.9163
    88.2922  88.3595  88.3797  88.4288  88.4469  88.4845  88.5039  88.5244
    88.7923  88.8212  88.8959  88.9119  89.0956  89.1153  89.2036  89.5907
    89.7240  89.8978  89.9090  90.0506  90.0783  90.2403  90.2955  90.3371
    90.3542  90.5736  90.6201  90.6519  90.7216  91.0059  91.2426  91.2830
    91.3895  91.5914  91.9216  91.9901  92.1223  92.1972  92.4083  92.5517
    92.6298  92.6813  92.7777  92.8300  92.9653  93.1089  93.2241  93.2910
    93.3372  93.3456  93.5473  93.6038  93.7986  93.9207  93.9555  93.9834
    94.0857  94.1295  94.2791  94.3160  94.4283  94.5493  94.5634  94.5866
    94.6437  94.7764  94.8505  94.8861  94.8988  94.9374  95.0232  95.1577
    95.2001  95.2645  95.3589  95.4148  95.4424  95.5042  95.6518  95.6995
    95.7143  95.7229  95.7339  95.7540  95.9429  95.9455  95.9627  95.9883
    96.0733  96.1243  96.1495  96.1631  96.2433  96.3572  96.4554  96.5289
    96.5442  96.6096  97.2030  97.3964  97.6199  97.6242  97.7137  97.7729
    97.7869  97.9049  97.9158  98.2417  98.4038  98.4476  98.6779  98.8358
    98.9545  99.0409  99.1024  99.3126  99.4375  99.6826  99.7931  99.8005
    99.9210  99.9438 100.0411 100.1000 100.1615 100.2745 100.4229 100.4584
   100.6059 100.8492 100.8683 100.8906 100.8997 100.9290 100.9494 101.0709
   101.0756 101.1993 101.2676 101.3524 101.5123 101.5667 101.5984 101.6702
   101.7411 101.7774 101.8455 101.9686 102.0154 102.1310 102.3558 102.3724
   102.4249 102.4774 102.5057 102.6674 102.7397 102.9345 102.9435 103.0575
   103.1107 103.1518 103.3232 103.3243 103.4167 103.4734 103.5331 103.5679
   103.6827 103.6994 103.8945 103.9063 103.9517 104.0647 104.0882 104.3036
   104.4962 104.5552 105.2145 105.2481 105.3292 105.5141 105.5724 105.5870
   105.7067 105.7169 105.8421 106.0297 106.0661 106.2181 106.2544 106.5179
   106.6428 106.6754 107.1939 107.3764 107.4307 107.5060 107.5211 107.5601
   107.6244 107.8005 107.8678 108.1258 108.1313 108.1595 108.1797 108.3764
   108.3897 108.6350 108.6812 108.7542 108.8539 108.9144 109.1422 109.1436
   109.2176 109.3212 109.6269 109.7587 109.8394 109.8922 109.9176 110.0014
   110.0961 110.3602 110.3671 110.5021 110.6680 110.7056 110.7317 110.7382
   110.9264 110.9453 111.0957 111.3181 111.3377 111.5186 111.5843 111.6324
   111.6409 111.9158 111.9305 112.0609 112.2602 112.3638 112.4489 112.5263
   112.6048 112.6274 112.7752 112.7780 112.7825 112.9044 112.9218 112.9821
   113.0301 113.0804 113.0981 113.1561 113.2926 113.3268 113.4213 113.4278
   113.4745 113.4897 113.5263 113.5334 113.6447 113.6868 113.7114 113.8461
   113.9204 113.9681 113.9728 114.1124 114.1976 114.3059 114.3305 114.3772
   114.3779 114.5212 114.5377 114.6250 114.7029 114.8687 115.0431 115.1499
   115.2093 115.2490 115.6402 115.6567 115.6673 115.7067 115.8897 115.9288
   115.9336 115.9802 116.0985 116.2564 116.2890 116.4304 116.4433 116.8351
   116.8680 116.9474 117.0533 117.1506 117.2734 117.3892 117.4865 117.5568
   117.5748 117.6261 117.7142 117.7508 118.0294 118.0552 118.0877 118.1465
   118.2916 118.3733 118.4491 118.4851 118.5178 118.5281 118.6247 118.6279
   118.6894 118.7273 118.7858 118.8161 118.9400 118.9597 119.0439 119.0933
   119.1701 119.1844 119.1928 119.3187 119.4161 119.4717 119.5236 119.6044
   119.6053 119.6273 119.7831 119.8098 119.8728 119.9015 119.9356 119.9357
   119.9568 120.0383 120.0457 120.1161 120.1542 120.2482 120.3070 120.3505
   120.5173 120.5226 120.6734 120.7839 120.8131 120.8223 120.9257 120.9969
   121.1203 121.1313 121.1337 121.2339 121.2574 121.3400 121.3603 121.5298
   121.6732 121.6969 121.7513 121.7725 121.7987 121.9027 121.9912 122.0269
   122.1730 122.2205 122.2638 122.4069 122.6699 122.7226 123.0263 123.1232
   123.2798 123.4417 123.4776 123.5768 123.6018 123.6169 123.6406 123.9051
   124.0134 124.0350 124.1280 124.1541 124.1853 124.2345 124.3193 124.3839
   124.3924 124.5182 124.8118 124.9240 124.9353 125.1118 125.1186 125.2362
   125.2624 125.3662 125.3663 125.3922 125.4238 125.4665 125.5428 125.5589
   125.6531 125.6875 125.7862 125.9196 126.0953 126.1129 126.1414 126.1428
   126.1676 126.2980 126.3145 126.3606 126.4543 126.5077 126.6554 126.7625
   126.9676 127.0121 127.0146 127.1586 127.2252 127.4054 127.6922 127.7242
   127.7577 127.8976 127.9581 128.0031 128.2055 128.2730 128.3122 128.3720
   128.3798 128.4524 128.7174 128.7556 128.8039 128.9375 129.1256 129.3188
   129.5899 129.6711 129.6989 129.7092 129.7780 129.8501 129.9213 130.1035
   130.1565 130.1672 130.2360 130.2984 130.3376 130.3916 130.5286 130.5776
   130.5910 130.6088 130.6501 130.6538 130.7643 130.8210 130.8513 131.0000
   131.0606 131.0968 131.1774 131.1802 131.2429 131.4044 131.4494 131.4546
   131.5311 131.6278 131.6297 131.6472 131.6632 131.7418 131.8027 131.8107
   131.8159 131.8507 131.9044 131.9085 131.9487 131.9971 132.0353 132.1983
   132.2110 132.2926 132.4560 132.5233 132.7217 132.8497 132.9030 133.0248
   133.0386 133.1379 133.1792 133.2307 133.3151 133.3758 133.5223 133.5774
   133.7141 133.7204 133.7893 133.8474 134.0044 134.0132 134.0622 134.1275
   134.1595 134.4898 134.5009 134.5476 134.6555 134.8491 134.8806 135.2654
   135.3368 135.3442 135.3508 135.4258 135.4849 135.5237 135.6140 135.6216
   135.7115 135.8315 135.9240 135.9342 136.0153 136.0529 136.1479 136.2700
   136.2800 136.4230 136.4886 136.6083 136.6506 136.6913 136.7533 136.8062
   136.8108 136.8779 136.9474 137.0413 137.0555 137.0719 137.1391 137.1712
   137.2643 137.3370 137.4494 137.4495 137.5473 137.5965 137.6832 137.9859
   138.0013 138.1303 138.1612 138.2992 138.3205 138.5336 138.5608 138.5916

     the Fermi energy is    -0.7783 ev
     (compare with:    -0.7064 eV, computed in scf)

     Writing all to output data dir out/Sb.save/
 
     init_run     :      0.23s CPU      0.27s WALL (       1 calls)
     electrons    :    143.36s CPU    147.54s WALL (       1 calls)

     Called by init_run:
     wfcinit      :      0.00s CPU      0.00s WALL (       1 calls)
     potinit      :      0.03s CPU      0.04s WALL (       1 calls)
     hinit0       :      0.04s CPU      0.06s WALL (       1 calls)

     Called by electrons:
     c_bands      :    143.36s CPU    147.53s WALL (       1 calls)
     v_of_rho     :      0.02s CPU      0.03s WALL (       1 calls)

     Called by c_bands:
     init_us_2    :      0.00s CPU      0.00s WALL (       2 calls)
     init_us_2:cp :      0.00s CPU      0.00s WALL (       2 calls)
     cegterg      :    139.24s CPU    143.31s WALL (       2 calls)

     Called by *egterg:
     cdiaghg      :    117.94s CPU    121.75s WALL (      24 calls)
     h_psi        :      4.75s CPU      4.84s WALL (      26 calls)
     g_psi        :      0.04s CPU      0.04s WALL (      22 calls)

     Called by h_psi:
     h_psi:calbec :      0.11s CPU      0.11s WALL (      26 calls)
     vloc_psi     :      4.51s CPU      4.59s WALL (      26 calls)
     add_vuspsi   :      0.09s CPU      0.09s WALL (      26 calls)

     General routines
     calbec       :      0.11s CPU      0.11s WALL (      26 calls)
     fft          :      0.02s CPU      0.04s WALL (      10 calls)
     fftw         :      4.01s CPU      4.08s WALL (   35078 calls)
 
     Parallel routines
 
     PWSCF        :   2m24.15s CPU   2m28.62s WALL

 
   This run was terminated on:  16: 7:26   5Apr2024            

=------------------------------------------------------------------------------=
   JOB DONE.
=------------------------------------------------------------------------------=
