
     Program PWSCF v.7.1 starts on 18Dec2023 at 15: 6:41 

     This program is part of the open-source Quantum ESPRESSO suite
     for quantum simulation of materials; please cite
         "P. Giannozzi et al., J. Phys.:Condens. Matter 21 395502 (2009);
         "P. Giannozzi et al., J. Phys.:Condens. Matter 29 465901 (2017);
         "P. Giannozzi et al., J. Chem. Phys. 152 154105 (2020);
          URL http://www.quantum-espresso.org", 
     in publications or presentations arising from this work. More details at
     http://www.quantum-espresso.org/quote

     Parallel version (MPI), running on    24 processors

     MPI processes distributed on     1 nodes
     123158 MiB available memory on the printing compute node when the environment starts
 
     Reading input from pw_mp-22905_scf_k3000_E100.in
Warning: card &CELL ignored
Warning: card / ignored

     Current dimensions of program PWSCF are:
     Max number of different atomic species (ntypx) = 10
     Max number of k-points (npk) =  40000
     Max angular momentum in pseudopotentials (lmaxx) =  4
 
     K-points division:     npool     =       2
     R & G space division:  proc/nbgrp/npool/nimage =      12
     Subspace diagonalization in iterative solution of the eigenvalue problem:
     a serial algorithm will be used

 
     Parallelization info
     --------------------
     sticks:   dense  smooth     PW     G-vecs:    dense   smooth      PW
     Min         106     106     31                 2494     2494     400
     Max         107     107     33                 2497     2497     402
     Sum        1273    1273    379                29939    29939    4813
 
     Using Slab Decomposition
 


     bravais-lattice index     =            2
     lattice parameter (alat)  =       9.6078  a.u.
     unit-cell volume          =     221.7256 (a.u.)^3
     number of atoms/cell      =            2
     number of atomic types    =            2
     number of electrons       =        10.00
     number of Kohn-Sham states=           10
     kinetic-energy cutoff     =     100.0000  Ry
     charge density cutoff     =     400.0000  Ry
     scf convergence threshold =      1.0E-10
     mixing beta               =       0.7000
     number of iterations used =            8  plain     mixing
     Exchange-correlation= PBE
                           (   1   4   3   4   0   0   0)

     celldm(1)=   9.607829  celldm(2)=   0.000000  celldm(3)=   0.000000
     celldm(4)=   0.000000  celldm(5)=   0.000000  celldm(6)=   0.000000

     crystal axes: (cart. coord. in units of alat)
               a(1) = (  -0.500000   0.000000   0.500000 )  
               a(2) = (   0.000000   0.500000   0.500000 )  
               a(3) = (  -0.500000   0.500000   0.000000 )  

     reciprocal axes: (cart. coord. in units 2 pi/alat)
               b(1) = ( -1.000000 -1.000000  1.000000 )  
               b(2) = (  1.000000  1.000000  1.000000 )  
               b(3) = ( -1.000000  1.000000 -1.000000 )  


     PseudoPot. # 1 for Cl read from file:
     /usr/scratch4/magr4985/MG/HTDF/pseudo/SG15/Cl.upf
     MD5 check sum: 0f993535b366f580ecbcdacce103c843
     Pseudo is Norm-conserving, Zval =  7.0
     Generated using ONCVPSP code by D. R. Hamann
     Using radial grid of  602 points,  4 beta functions with: 
                l(1) =   0
                l(2) =   0
                l(3) =   1
                l(4) =   1

     PseudoPot. # 2 for Li read from file:
     /usr/scratch4/magr4985/MG/HTDF/pseudo/SG15/Li.upf
     MD5 check sum: c91dd4cee9943b136ac3b62641658f95
     Pseudo is Norm-conserving, Zval =  3.0
     Generated using ONCVPSP code by D. R. Hamann
     Using radial grid of  602 points,  4 beta functions with: 
                l(1) =   0
                l(2) =   0
                l(3) =   1
                l(4) =   1

     atomic species   valence    mass     pseudopotential
        Cl             7.00    35.45300     Cl( 1.00)
        Li             3.00     6.94100     Li( 1.00)

     48 Sym. Ops., with inversion, found



   Cartesian axes

     site n.     atom                  positions (alat units)
         1           Li  tau(   1) = (   0.0000000   0.0000000   0.0000000  )
         2           Cl  tau(   2) = (  -0.5000000   0.5000000   0.5000000  )

     number of k points=    72  Gaussian smearing, width (Ry)=  0.0005
                       cart. coord. in units 2pi/alat
        k(    1) = (   0.0000000   0.0000000   0.0000000), wk =   0.0011574
        k(    2) = (  -0.0833333   0.0833333  -0.0833333), wk =   0.0092593
        k(    3) = (  -0.1666667   0.1666667  -0.1666667), wk =   0.0092593
        k(    4) = (  -0.2500000   0.2500000  -0.2500000), wk =   0.0092593
        k(    5) = (  -0.3333333   0.3333333  -0.3333333), wk =   0.0092593
        k(    6) = (  -0.4166667   0.4166667  -0.4166667), wk =   0.0092593
        k(    7) = (   0.5000000  -0.5000000   0.5000000), wk =   0.0046296
        k(    8) = (   0.0000000   0.1666667   0.0000000), wk =   0.0069444
        k(    9) = (  -0.0833333   0.2500000  -0.0833333), wk =   0.0277778
        k(   10) = (  -0.1666667   0.3333333  -0.1666667), wk =   0.0277778
        k(   11) = (  -0.2500000   0.4166667  -0.2500000), wk =   0.0277778
        k(   12) = (  -0.3333333   0.5000000  -0.3333333), wk =   0.0277778
        k(   13) = (   0.5833333  -0.4166667   0.5833333), wk =   0.0277778
        k(   14) = (   0.5000000  -0.3333333   0.5000000), wk =   0.0277778
        k(   15) = (   0.4166667  -0.2500000   0.4166667), wk =   0.0277778
        k(   16) = (   0.3333333  -0.1666667   0.3333333), wk =   0.0277778
        k(   17) = (   0.2500000  -0.0833333   0.2500000), wk =   0.0277778
        k(   18) = (   0.1666667  -0.0000000   0.1666667), wk =   0.0138889
        k(   19) = (   0.0000000   0.3333333   0.0000000), wk =   0.0069444
        k(   20) = (  -0.0833333   0.4166667  -0.0833333), wk =   0.0277778
        k(   21) = (  -0.1666667   0.5000000  -0.1666667), wk =   0.0277778
        k(   22) = (  -0.2500000   0.5833333  -0.2500000), wk =   0.0277778
        k(   23) = (   0.6666667  -0.3333333   0.6666667), wk =   0.0277778
        k(   24) = (   0.5833333  -0.2500000   0.5833333), wk =   0.0277778
        k(   25) = (   0.5000000  -0.1666667   0.5000000), wk =   0.0277778
        k(   26) = (   0.4166667  -0.0833333   0.4166667), wk =   0.0277778
        k(   27) = (   0.3333333   0.0000000   0.3333333), wk =   0.0138889
        k(   28) = (   0.0000000   0.5000000   0.0000000), wk =   0.0069444
        k(   29) = (  -0.0833333   0.5833333  -0.0833333), wk =   0.0277778
        k(   30) = (  -0.1666667   0.6666667  -0.1666667), wk =   0.0277778
        k(   31) = (   0.7500000  -0.2500000   0.7500000), wk =   0.0277778
        k(   32) = (   0.6666667  -0.1666667   0.6666667), wk =   0.0277778
        k(   33) = (   0.5833333  -0.0833333   0.5833333), wk =   0.0277778
        k(   34) = (   0.5000000   0.0000000   0.5000000), wk =   0.0138889
        k(   35) = (   0.0000000   0.6666667   0.0000000), wk =   0.0069444
        k(   36) = (  -0.0833333   0.7500000  -0.0833333), wk =   0.0277778
        k(   37) = (   0.8333333  -0.1666667   0.8333333), wk =   0.0277778
        k(   38) = (   0.7500000  -0.0833333   0.7500000), wk =   0.0277778
        k(   39) = (   0.6666667  -0.0000000   0.6666667), wk =   0.0138889
        k(   40) = (   0.0000000   0.8333333   0.0000000), wk =   0.0069444
        k(   41) = (   0.9166667  -0.0833333   0.9166667), wk =   0.0277778
        k(   42) = (   0.8333333   0.0000000   0.8333333), wk =   0.0138889
        k(   43) = (   0.0000000  -1.0000000   0.0000000), wk =   0.0034722
        k(   44) = (  -0.1666667   0.3333333   0.0000000), wk =   0.0277778
        k(   45) = (  -0.2500000   0.4166667  -0.0833333), wk =   0.0555556
        k(   46) = (  -0.3333333   0.5000000  -0.1666667), wk =   0.0555556
        k(   47) = (   0.5833333  -0.4166667   0.7500000), wk =   0.0555556
        k(   48) = (   0.5000000  -0.3333333   0.6666667), wk =   0.0277778
        k(   49) = (  -0.1666667   0.5000000   0.0000000), wk =   0.0277778
        k(   50) = (  -0.2500000   0.5833333  -0.0833333), wk =   0.0555556
        k(   51) = (   0.6666667  -0.3333333   0.8333333), wk =   0.0555556
        k(   52) = (   0.5833333  -0.2500000   0.7500000), wk =   0.0555556
        k(   53) = (   0.5000000  -0.1666667   0.6666667), wk =   0.0555556
        k(   54) = (   0.4166667  -0.0833333   0.5833333), wk =   0.0555556
        k(   55) = (   0.3333333   0.0000000   0.5000000), wk =   0.0277778
        k(   56) = (  -0.1666667   0.6666667  -0.0000000), wk =   0.0277778
        k(   57) = (   0.7500000  -0.2500000   0.9166667), wk =   0.0555556
        k(   58) = (   0.6666667  -0.1666667   0.8333333), wk =   0.0555556
        k(   59) = (   0.5833333  -0.0833333   0.7500000), wk =   0.0555556
        k(   60) = (   0.5000000   0.0000000   0.6666667), wk =   0.0277778
        k(   61) = (   0.8333333  -0.1666667   1.0000000), wk =   0.0277778
        k(   62) = (   0.7500000  -0.0833333   0.9166667), wk =   0.0555556
        k(   63) = (   0.6666667   0.0000000   0.8333333), wk =   0.0277778
        k(   64) = (  -0.1666667  -1.0000000  -0.0000000), wk =   0.0138889
        k(   65) = (   0.6666667  -0.3333333   1.0000000), wk =   0.0277778
        k(   66) = (   0.5833333  -0.2500000   0.9166667), wk =   0.0555556
        k(   67) = (   0.5000000  -0.1666667   0.8333333), wk =   0.0277778
        k(   68) = (   0.6666667  -0.1666667   1.0000000), wk =   0.0277778
        k(   69) = (   0.5833333  -0.0833333   0.9166667), wk =   0.0555556
        k(   70) = (   0.5000000   0.0000000   0.8333333), wk =   0.0277778
        k(   71) = (  -0.3333333  -1.0000000   0.0000000), wk =   0.0138889
        k(   72) = (  -0.5000000  -1.0000000   0.0000000), wk =   0.0069444

     Dense  grid:    29939 G-vectors     FFT dimensions: (  45,  45,  45)

     Estimated max dynamical RAM per process >       2.92 MB

     Estimated total dynamical RAM >      62.82 MB

     Initial potential from superposition of free atoms

     starting charge       9.8826, renormalised to      10.0000
     Starting wfcs are random

     total cpu time spent up to now is        0.4 secs

     Self-consistent Calculation

     iteration #  1     ecut=   100.00 Ry     beta= 0.70
     Davidson diagonalization with overlap
     ethr =  1.00E-02,  avg # of iterations =  7.7

     Threshold (ethr) on eigenvalues was too large:
     Diagonalizing with lowered threshold

     Davidson diagonalization with overlap
     ethr =  1.05E-04,  avg # of iterations =  3.8

     total cpu time spent up to now is        1.5 secs

     total energy              =     -44.70172493 Ry
     estimated scf accuracy    <       0.01083444 Ry

     iteration #  2     ecut=   100.00 Ry     beta= 0.70
     Davidson diagonalization with overlap
     ethr =  1.08E-04,  avg # of iterations =  2.0

     total cpu time spent up to now is        1.8 secs

     total energy              =     -44.70358729 Ry
     estimated scf accuracy    <       0.00124588 Ry

     iteration #  3     ecut=   100.00 Ry     beta= 0.70
     Davidson diagonalization with overlap
     ethr =  1.25E-05,  avg # of iterations =  2.4

     total cpu time spent up to now is        2.1 secs

     total energy              =     -44.70389332 Ry
     estimated scf accuracy    <       0.00010307 Ry

     iteration #  4     ecut=   100.00 Ry     beta= 0.70
     Davidson diagonalization with overlap
     ethr =  1.03E-06,  avg # of iterations =  3.0

     total cpu time spent up to now is        2.5 secs

     total energy              =     -44.70390790 Ry
     estimated scf accuracy    <       0.00000134 Ry

     iteration #  5     ecut=   100.00 Ry     beta= 0.70
     Davidson diagonalization with overlap
     ethr =  1.34E-08,  avg # of iterations =  2.0

     total cpu time spent up to now is        2.8 secs

     total energy              =     -44.70390844 Ry
     estimated scf accuracy    <       0.00000004 Ry

     iteration #  6     ecut=   100.00 Ry     beta= 0.70
     Davidson diagonalization with overlap
     ethr =  4.21E-10,  avg # of iterations =  2.1

     total cpu time spent up to now is        3.1 secs

     total energy              =     -44.70390846 Ry
     estimated scf accuracy    <          5.5E-10 Ry

     iteration #  7     ecut=   100.00 Ry     beta= 0.70
     Davidson diagonalization with overlap
     ethr =  5.53E-12,  avg # of iterations =  3.3

     total cpu time spent up to now is        3.4 secs

     End of self-consistent calculation

          k = 0.0000 0.0000 0.0000 (  3719 PWs)   bands (ev):

   -41.5864 -11.6196   1.8398   1.8398   1.8398   8.3352  13.9323  13.9323
    13.9323  16.5466

          k =-0.0833 0.0833-0.0833 (  3755 PWs)   bands (ev):

   -41.5862 -11.5834   1.5813   1.8200   1.8200   8.5683  13.4707  13.9592
    13.9592  15.3819

          k =-0.1667 0.1667-0.1667 (  3737 PWs)   bands (ev):

   -41.5856 -11.4816   0.9510   1.7674   1.7674   9.0207  12.8952  13.4916
    13.4916  15.2155

          k =-0.2500 0.2500-0.2500 (  3744 PWs)   bands (ev):

   -41.5848 -11.3355   0.2047   1.6990   1.6990   9.1930  12.6660  12.6660
    12.9981  15.9899

          k =-0.3333 0.3333-0.3333 (  3753 PWs)   bands (ev):

   -41.5840 -11.1800  -0.4616   1.6341   1.6341   9.0035  12.0018  12.0018
    13.7780  17.1440

          k =-0.4167 0.4167-0.4167 (  3750 PWs)   bands (ev):

   -41.5834 -11.0594  -0.9167   1.5888   1.5888   8.7712  11.5890  11.5890
    14.6767  18.4536

          k = 0.5000-0.5000 0.5000 (  3750 PWs)   bands (ev):

   -41.5832 -11.0137  -1.0782   1.5726   1.5726   8.6791  11.4495  11.4495
    15.0848  18.9661

          k = 0.0000 0.1667 0.0000 (  3735 PWs)   bands (ev):

   -41.5861 -11.5711   1.6127   1.7515   1.7515   8.6663  13.4020  13.9577
    13.9577  14.4122

          k =-0.0833 0.2500-0.0833 (  3742 PWs)   bands (ev):

   -41.5856 -11.4906   1.1306   1.6581   1.7242   9.1092  12.8015  13.3568
    13.8490  14.3472

          k =-0.1667 0.3333-0.1667 (  3740 PWs)   bands (ev):

   -41.5849 -11.3581   0.4322   1.5670   1.6658   9.4563  12.4392  12.6461
    13.2697  15.0791

          k =-0.2500 0.4167-0.2500 (  3735 PWs)   bands (ev):

   -41.5841 -11.2039  -0.2482   1.5026   1.5683   9.3793  11.8539  12.5658
    13.1639  16.0927

          k =-0.3333 0.5000-0.3333 (  3753 PWs)   bands (ev):

   -41.5835 -11.0695  -0.7640   1.4604   1.4799   9.1358  11.4876  12.0066
    14.1003  17.2151

          k = 0.5833-0.4167 0.5833 (  3743 PWs)   bands (ev):

   -41.5832 -10.9973  -1.0179   1.3711   1.5032   8.9860  11.3837  11.6751
    14.7867  18.2504

          k = 0.5000-0.3333 0.5000 (  3747 PWs)   bands (ev):

   -41.5832 -11.0129  -0.9628   1.3225   1.5661   9.0105  11.5338  11.6031
    14.6596  18.2920

          k = 0.4167-0.2500 0.4167 (  3748 PWs)   bands (ev):

   -41.5837 -11.1105  -0.6096   1.3273   1.6536   9.1955  11.8060  11.9083
    13.8599  16.9200

          k = 0.3333-0.1667 0.3333 (  3745 PWs)   bands (ev):

   -41.5844 -11.2567  -0.0267   1.3883   1.7442   9.4098  12.2899  12.3961
    13.0808  15.7110

          k = 0.2500-0.0833 0.2500 (  3735 PWs)   bands (ev):

   -41.5852 -11.4076   0.6648   1.4990   1.8143   9.3357  12.5441  13.0531
    13.2767  14.7916

          k = 0.1667-0.0000 0.1667 (  3745 PWs)   bands (ev):

   -41.5858 -11.5251   1.2744   1.6560   1.8429   8.9013  12.9917  13.7318
    14.0777  14.2184

          k = 0.0000 0.3333 0.0000 (  3731 PWs)   bands (ev):

   -41.5853 -11.4327   1.0293   1.5201   1.5201   9.5470  12.4068  12.6945
    14.1340  14.1340

          k =-0.0833 0.4167-0.0833 (  3725 PWs)   bands (ev):

   -41.5847 -11.3197   0.5180   1.3922   1.4178  10.0573  11.9711  12.0435
    14.0039  14.5796

          k =-0.1667 0.5000-0.1667 (  3740 PWs)   bands (ev):

   -41.5840 -11.1767  -0.0814   1.2767   1.3063  10.1678  11.5742  12.1660
    13.4345  15.4433

          k =-0.2500 0.5833-0.2500 (  3750 PWs)   bands (ev):

   -41.5834 -11.0405  -0.5779   1.0893   1.2816   9.9086  11.3386  12.8071
    13.0086  16.4261

          k = 0.6667-0.3333 0.6667 (  3730 PWs)   bands (ev):

   -41.5830 -10.9518  -0.8652   0.9085   1.3229   9.6841  11.3200  12.3147
    13.9314  17.2674

          k = 0.5833-0.2500 0.5833 (  3744 PWs)   bands (ev):

   -41.5829 -10.9407  -0.8856   0.7849   1.4209   9.6227  11.4911  12.0248
    14.2279  18.1878

          k = 0.5000-0.1667 0.5000 (  3736 PWs)   bands (ev):

   -41.5832 -11.0113  -0.6408   0.7561   1.5532   9.7288  11.7965  11.9649
    13.6470  16.9896

          k = 0.4167-0.0833 0.4167 (  3744 PWs)   bands (ev):

   -41.5838 -11.1389  -0.2033   0.8542   1.6866   9.8914  12.0689  12.1424
    12.9756  15.8457

          k = 0.3333 0.0000 0.3333 (  3733 PWs)   bands (ev):

   -41.5845 -11.2839   0.2789   1.1156   1.7838   9.7833  12.1376  12.5370
    13.0135  15.0646

          k = 0.0000 0.5000 0.0000 (  3727 PWs)   bands (ev):

   -41.5843 -11.2283   0.2806   1.2247   1.2247  10.5746  11.4778  11.7084
    14.5528  14.5528

          k =-0.0833 0.5833-0.0833 (  3738 PWs)   bands (ev):

   -41.5837 -11.1040  -0.1484   1.0541   1.1053  10.6195  11.2275  11.8230
    14.4469  15.1048

          k =-0.1667 0.6667-0.1667 (  3746 PWs)   bands (ev):

   -41.5831 -10.9783  -0.5291   0.7966   1.0592  10.3512  11.3584  12.2364
    13.8856  15.9511

          k = 0.7500-0.2500 0.7500 (  3747 PWs)   bands (ev):

   -41.5828 -10.8873  -0.7412   0.4948   1.0955  10.1180  11.5915  12.9431
    13.2744  16.5698

          k = 0.6667-0.1667 0.6667 (  3740 PWs)   bands (ev):

   -41.5826 -10.8605  -0.7337   0.2375   1.2070  10.0261  11.8568  12.7642
    13.5138  16.9135

          k = 0.5833-0.0833 0.5833 (  3734 PWs)   bands (ev):

   -41.5828 -10.9068  -0.5365   0.1271   1.3705  10.0733  12.1411  12.3983
    13.2576  17.4016

          k = 0.5000 0.0000 0.5000 (  3759 PWs)   bands (ev):

   -41.5833 -11.0105  -0.3351   0.3384   1.5468  10.1365  12.1878  12.1904
    12.8335  16.4235

          k = 0.0000 0.6667 0.0000 (  3735 PWs)   bands (ev):

   -41.5833 -11.0024  -0.4455   0.9496   0.9496  10.3641  10.7719  12.5974
    15.1793  15.1793

          k =-0.0833 0.7500-0.0833 (  3744 PWs)   bands (ev):

   -41.5828 -10.8978  -0.7310   0.7609   0.8718  10.2001  10.6961  13.0786
    15.0596  15.7240

          k = 0.8333-0.1667 0.8333 (  3745 PWs)   bands (ev):

   -41.5825 -10.8201  -0.8535   0.4366   0.8862  10.0844  11.1471  13.2982
    14.4256  16.1733

          k = 0.7500-0.0833 0.7500 (  3753 PWs)   bands (ev):

   -41.5824 -10.7933  -0.7514   0.0563   0.9904  10.0397  11.9115  13.3539
    13.6981  16.1671

          k = 0.6667-0.0000 0.6667 (  3765 PWs)   bands (ev):

   -41.5825 -10.8259  -0.4321  -0.2687   1.1646  10.0772  12.6224  12.9640
    13.0027  16.5831

          k = 0.0000 0.8333 0.0000 (  3760 PWs)   bands (ev):

   -41.5825 -10.8205  -0.9749   0.7594   0.7594   9.9760  10.3374  13.9034
    15.8455  15.8455

          k = 0.9167-0.0833 0.9167 (  3754 PWs)   bands (ev):

   -41.5823 -10.7689  -1.0749   0.6024   0.7426   9.9481  10.4241  14.1779
    15.5686  16.0853

          k = 0.8333 0.0000 0.8333 (  3754 PWs)   bands (ev):

   -41.5823 -10.7590  -0.9759   0.3080   0.8244   9.9787  11.0511  13.9857
    14.6933  16.0075

          k = 0.0000-1.0000 0.0000 (  3740 PWs)   bands (ev):

   -41.5823 -10.7498  -1.1696   0.6918   0.6918   9.8464  10.1911  14.5051
    16.1707  16.1707

          k =-0.1667 0.3333 0.0000 (  3736 PWs)   bands (ev):

   -41.5851 -11.3939   0.7322   1.4071   1.7035   9.5838  12.3163  12.6377
    13.7871  14.4562

          k =-0.2500 0.4167-0.0833 (  3740 PWs)   bands (ev):

   -41.5844 -11.2556   0.1568   1.1942   1.6458   9.8934  11.9880  12.2312
    13.3315  15.1408

          k =-0.3333 0.5000-0.1667 (  3749 PWs)   bands (ev):

   -41.5837 -11.1090  -0.4071   1.0644   1.5473   9.7720  11.5935  12.4195
    13.2100  16.1582

          k = 0.5833-0.4167 0.7500 (  3747 PWs)   bands (ev):

   -41.5832 -10.9958  -0.8064   1.0005   1.4544   9.5563  11.3882  12.1224
    13.9831  17.2761

          k = 0.5000-0.3333 0.6667 (  3740 PWs)   bands (ev):

   -41.5830 -10.9529  -0.9499   0.9830   1.4158   9.4686  11.3362  11.9701
    14.4303  18.3673

          k =-0.1667 0.5000 0.0000 (  3738 PWs)   bands (ev):

   -41.5842 -11.2008   0.1236   1.0912   1.3764  10.5429  11.6091  11.6155
    14.1139  14.8174

          k =-0.2500 0.5833-0.0833 (  3745 PWs)   bands (ev):

   -41.5835 -11.0650  -0.3074   0.8378   1.2903  10.5748  11.3910  11.8375
    13.7445  15.6071

          k = 0.6667-0.3333 0.8333 (  3737 PWs)   bands (ev):

   -41.5830 -10.9495  -0.6443   0.6368   1.2156  10.2997  11.3260  12.5085
    13.4069  16.5407

          k = 0.5833-0.2500 0.7500 (  3742 PWs)   bands (ev):

   -41.5827 -10.8900  -0.7935   0.4828   1.2181  10.1325  11.3730  12.5996
    13.6976  17.2316

          k = 0.5000-0.1667 0.6667 (  3740 PWs)   bands (ev):

   -41.5828 -10.9069  -0.7188   0.4106   1.3045  10.1401  11.4695  12.4711
    13.6603  17.4663

          k = 0.4167-0.0833 0.5833 (  3744 PWs)   bands (ev):

   -41.5832 -10.9942  -0.4608   0.4789   1.4399  10.2793  11.5919  12.2525
    13.2860  16.4225

          k = 0.3333 0.0000 0.5000 (  3753 PWs)   bands (ev):

   -41.5838 -11.1231  -0.1387   0.7523   1.5719  10.3011  11.7825  11.9050
    13.3059  15.5460

          k =-0.1667 0.6667-0.0000 (  3748 PWs)   bands (ev):

   -41.5832 -10.9884  -0.4646   0.7989   1.0301  10.5461  11.0209  12.1816
    14.6597  15.4016

          k = 0.7500-0.2500 0.9167 (  3747 PWs)   bands (ev):

   -41.5828 -10.8847  -0.6808   0.5059   0.9657  10.4414  11.2941  12.3857
    14.2606  16.1250

          k = 0.6667-0.1667 0.8333 (  3748 PWs)   bands (ev):

   -41.5825 -10.8240  -0.7175   0.1811   0.9857  10.3383  11.7926  12.6855
    13.6770  16.5804

          k = 0.5833-0.0833 0.7500 (  3754 PWs)   bands (ev):

   -41.5825 -10.8259  -0.5546  -0.0920   1.0981  10.3419  12.0561  12.9689
    13.1222  16.9326

          k = 0.5000 0.0000 0.6667 (  3744 PWs)   bands (ev):

   -41.5827 -10.8896  -0.4203  -0.0321   1.2680  10.4123  11.9936  12.3617
    13.2545  17.1051

          k = 0.8333-0.1667 1.0000 (  3747 PWs)   bands (ev):

   -41.5825 -10.8181  -0.9065   0.5976   0.7883  10.1864  10.6427  13.4581
    15.0835  16.0506

          k = 0.7500-0.0833 0.9167 (  3754 PWs)   bands (ev):

   -41.5823 -10.7729  -0.8998   0.3024   0.7934  10.2398  11.1199  13.5011
    14.3473  16.4105

          k = 0.6667 0.0000 0.8333 (  3757 PWs)   bands (ev):

   -41.5823 -10.7760  -0.6989  -0.0420   0.9094  10.2866  11.9598  13.3395
    13.3820  16.4790

          k =-0.1667-1.0000-0.0000 (  3762 PWs)   bands (ev):

   -41.5823 -10.7522  -1.0722   0.5263   0.7035  10.0652  10.5131  14.2205
    15.0519  16.3734

          k = 0.6667-0.3333 1.0000 (  3736 PWs)   bands (ev):

   -41.5830 -10.9483  -0.4775   0.4212   1.1886  11.0135  11.3422  11.6404
    13.8913  16.0700

          k = 0.5833-0.2500 0.9167 (  3744 PWs)   bands (ev):

   -41.5826 -10.8593  -0.5825   0.1357   1.0721  10.9559  11.3234  12.2719
    13.6236  16.8848

          k = 0.5000-0.1667 0.8333 (  3754 PWs)   bands (ev):

   -41.5825 -10.8259  -0.6189   0.0359   1.0223  10.8756  11.3304  12.9471
    13.1850  17.2672

          k = 0.6667-0.1667 1.0000 (  3746 PWs)   bands (ev):

   -41.5825 -10.8101  -0.7079   0.1958   0.8545  10.8126  11.4313  12.3098
    14.0804  16.6742

          k = 0.5833-0.0833 0.9167 (  3749 PWs)   bands (ev):

   -41.5823 -10.7768  -0.5811  -0.1149   0.8218  10.9922  11.9415  12.4097
    13.2697  17.2200

          k = 0.5000 0.0000 0.8333 (  3746 PWs)   bands (ev):

   -41.5824 -10.7953  -0.4036  -0.2814   0.9105  11.1076  11.8080  12.4216
    13.1743  17.6682

          k =-0.3333-1.0000 0.0000 (  3760 PWs)   bands (ev):

   -41.5823 -10.7570  -0.7919   0.1164   0.7267  10.7155  11.3530  13.3535
    13.4635  16.9909

          k =-0.5000-1.0000 0.0000 (  3736 PWs)   bands (ev):

   -41.5822 -10.7594  -0.3687  -0.3687   0.7383  11.5623  12.1210  12.4308
    12.4308  18.0198

     the Fermi energy is     3.8592 ev

!    total energy              =     -44.70390846 Ry
     estimated scf accuracy    <          1.1E-11 Ry
     smearing contrib. (-TS)   =      -0.00000000 Ry
     internal energy E=F+TS    =     -44.70390846 Ry

     The total energy is F=E-TS. E is the sum of the following terms:
     one-electron contribution =     -10.53332119 Ry
     hartree contribution      =       7.46875682 Ry
     xc contribution           =      -9.19801196 Ry
     ewald contribution        =     -32.44133214 Ry

     convergence has been achieved in   7 iterations

     Writing all to output data dir out/mp-22905.save/
 
     init_run     :      0.15s CPU      0.23s WALL (       1 calls)
     electrons    :      2.73s CPU      3.06s WALL (       1 calls)

     Called by init_run:
     wfcinit      :      0.12s CPU      0.15s WALL (       1 calls)
     potinit      :      0.01s CPU      0.01s WALL (       1 calls)
     hinit0       :      0.01s CPU      0.03s WALL (       1 calls)

     Called by electrons:
     c_bands      :      2.32s CPU      2.54s WALL (       8 calls)
     sum_band     :      0.37s CPU      0.43s WALL (       8 calls)
     v_of_rho     :      0.03s CPU      0.04s WALL (       8 calls)
     mix_rho      :      0.01s CPU      0.01s WALL (       8 calls)

     Called by c_bands:
     init_us_2    :      0.04s CPU      0.04s WALL (     612 calls)
     init_us_2:cp :      0.04s CPU      0.04s WALL (     612 calls)
     cegterg      :      2.09s CPU      2.20s WALL (     288 calls)

     Called by *egterg:
     cdiaghg      :      0.16s CPU      0.17s WALL (    1219 calls)
     h_psi        :      1.88s CPU      1.98s WALL (    1291 calls)
     g_psi        :      0.01s CPU      0.01s WALL (     967 calls)

     Called by h_psi:
     h_psi:calbec :      0.04s CPU      0.04s WALL (    1291 calls)
     vloc_psi     :      1.80s CPU      1.89s WALL (    1291 calls)
     add_vuspsi   :      0.02s CPU      0.03s WALL (    1291 calls)

     General routines
     calbec       :      0.04s CPU      0.04s WALL (    1291 calls)
     fft          :      0.02s CPU      0.04s WALL (      80 calls)
     ffts         :      0.00s CPU      0.00s WALL (       8 calls)
     fftw         :      1.95s CPU      2.04s WALL (   21148 calls)
     davcio       :      0.04s CPU      0.18s WALL (     988 calls)
 
     Parallel routines
 
     PWSCF        :      2.97s CPU      4.08s WALL

 
   This run was terminated on:  15: 6:45  18Dec2023            

=------------------------------------------------------------------------------=
   JOB DONE.
=------------------------------------------------------------------------------=
