
     Program PWSCF v.7.1 starts on 18Nov2023 at 20: 7:14 

     This program is part of the open-source Quantum ESPRESSO suite
     for quantum simulation of materials; please cite
         "P. Giannozzi et al., J. Phys.:Condens. Matter 21 395502 (2009);
         "P. Giannozzi et al., J. Phys.:Condens. Matter 29 465901 (2017);
         "P. Giannozzi et al., J. Chem. Phys. 152 154105 (2020);
          URL http://www.quantum-espresso.org", 
     in publications or presentations arising from this work. More details at
     http://www.quantum-espresso.org/quote

     Parallel version (MPI), running on     8 processors

     MPI processes distributed on     1 nodes
     123715 MiB available memory on the printing compute node when the environment starts
 
     Reading input from pw_mp-1550_nscf_k0_E79.in
Warning: card &IONS ignored
Warning: card / ignored
Warning: card &CELL ignored
Warning: card / ignored

     Current dimensions of program PWSCF are:
     Max number of different atomic species (ntypx) = 10
     Max number of k-points (npk) =  40000
     Max angular momentum in pseudopotentials (lmaxx) =  4

     Atomic positions and unit cell read from directory:
     out/mp-1550.save/
     Atomic positions from file used, from input discarded
 
 
     R & G space division:  proc/nbgrp/npool/nimage =       8
     Subspace diagonalization in iterative solution of the eigenvalue problem:
     one sub-group per band group will be used
     scalapack distributed-memory algorithm (size of sub-group:  2*  2 procs)

 
     Parallelization info
     --------------------
     sticks:   dense  smooth     PW     G-vecs:    dense   smooth      PW
     Min         144     144     36                 3285     3285     410
     Max         145     145     37                 3289     3289     412
     Sum        1159    1159    295                26301    26301    3287
 
     Using Slab Decomposition
 


     bravais-lattice index     =            2
     lattice parameter (alat)  =      10.3424  a.u.
     unit-cell volume          =     276.5700 (a.u.)^3
     number of atoms/cell      =            2
     number of atomic types    =            2
     number of electrons       =        16.00
     number of Kohn-Sham states=         1200
     kinetic-energy cutoff     =      79.0000  Ry
     charge density cutoff     =     316.0000  Ry
     Exchange-correlation= PBE
                           (   1   4   3   4   0   0   0)

     celldm(1)=  10.342409  celldm(2)=   0.000000  celldm(3)=   0.000000
     celldm(4)=   0.000000  celldm(5)=   0.000000  celldm(6)=   0.000000

     crystal axes: (cart. coord. in units of alat)
               a(1) = (  -0.500000   0.000000   0.500000 )  
               a(2) = (   0.000000   0.500000   0.500000 )  
               a(3) = (  -0.500000   0.500000   0.000000 )  

     reciprocal axes: (cart. coord. in units 2 pi/alat)
               b(1) = ( -1.000000 -1.000000  1.000000 )  
               b(2) = (  1.000000  1.000000  1.000000 )  
               b(3) = ( -1.000000  1.000000 -1.000000 )  


     PseudoPot. # 1 for Al read from file:
     /usr/scratch4/magr4985/MG/HTDF/pseudo/SG15/Al.upf
     MD5 check sum: 2d9e7bc02555220d62fad08c3c4858e7
     Pseudo is Norm-conserving, Zval = 11.0
     Generated using ONCVPSP code by D. R. Hamann
     Using radial grid of  602 points,  4 beta functions with: 
                l(1) =   0
                l(2) =   0
                l(3) =   1
                l(4) =   1

     PseudoPot. # 2 for P  read from file:
     /usr/scratch4/magr4985/MG/HTDF/pseudo/SG15/P.upf
     MD5 check sum: 0688a67b2b263c6b42d3d97c42745426
     Pseudo is Norm-conserving, Zval =  5.0
     Generated using ONCVPSP code by D. R. Hamann
     Using radial grid of  602 points,  4 beta functions with: 
                l(1) =   0
                l(2) =   0
                l(3) =   1
                l(4) =   1

     atomic species   valence    mass     pseudopotential
        Al            11.00    26.98150     Al( 1.00)
        P              5.00    30.97380     P ( 1.00)

     24 Sym. Ops. (no inversion) found



   Cartesian axes

     site n.     atom                  positions (alat units)
         1           Al  tau(   1) = (   0.0000000   0.0000000   0.0000000  )
         2           P   tau(   2) = (  -0.7500000   0.7500000   0.7500000  )

     number of k points=     1  Gaussian smearing, width (Ry)=  0.0005
                       cart. coord. in units 2pi/alat
        k(    1) = (   0.0000000   0.0000000   0.0000000), wk =   2.0000000

     Dense  grid:    26301 G-vectors     FFT dimensions: (  45,  45,  45)

     Estimated max dynamical RAM per process >     105.93 MB

     Estimated total dynamical RAM >     847.42 MB

     The potential is recalculated from file :
     out/mp-1550.save/charge-density

     Starting wfcs are random

     Band Structure Calculation
     Davidson diagonalization with overlap

     ethr =  5.00E-06,  avg # of iterations =  9.0

     total cpu time spent up to now is      143.6 secs

     End of band structure calculation

          k = 0.0000 0.0000 0.0000 (  3287 PWs)   bands (ev):

   -96.2793 -57.7723 -57.7723 -57.7723  -5.2917   6.1828   6.1828   6.1828
     9.4034  10.7285  10.7285  10.7285  15.0374  15.0374  16.4297  18.4355
    18.4355  18.4355  22.3737  30.0037  30.0037  30.0037  31.2914  31.2914
    32.4564  32.4564  32.4564  36.2545  36.2545  36.2545  41.8770  41.8770
    41.8770  44.7793  44.7952  44.7952  48.0743  48.0743  48.6855  48.6855
    48.6855  50.7161  50.7161  50.7161  51.2663  51.7978  51.7978  51.7978
    52.5442  52.5442  52.5442  53.0760  53.0760  53.0760  56.8343  57.9097
    57.9097  57.9097  58.8928  58.8928  58.8928  61.4537  66.7654  71.6388
    71.6388  75.0183  75.0183  75.0183  77.0438  77.0438  77.0438  77.5154
    77.5154  79.0342  79.5034  79.5034  79.5034  83.7263  83.7263  83.7263
    88.8955  88.8955  89.5745  89.5745  89.5745  89.6599  89.6599  89.6599
    92.1312  92.3925  92.3925  92.9395  92.9395  92.9395  94.4036  94.4036
    94.4036  96.3042  96.3042  96.3042  96.3971  97.4303  97.4303  97.4303
    98.2290  98.2290  98.2290  98.8170  99.7930  99.7930  99.7930  99.8623
    99.8623 100.4506 100.4506 100.4506 100.4739 106.1050 106.1050 106.1050
   107.0971 107.0971 108.3697 111.9419 111.9419 111.9419 114.5236 114.5236
   114.5236 115.4061 115.4061 115.4061 116.0147 116.0147 116.0147 116.7344
   116.7344 117.9113 120.2005 120.2005 120.2005 123.4447 123.4447 125.5277
   125.5277 125.5277 125.8597 127.4246 127.4246 128.4346 128.4346 128.4346
   129.4128 130.5535 130.5535 130.5536 131.1131 131.8965 131.8965 131.8965
   132.0092 132.0092 132.0092 132.1191 132.1191 132.1191 133.0728 133.0728
   133.0728 137.1056 137.1056 137.1056 141.8274 144.3835 144.3835 144.3835
   146.7102 146.7102 146.9499 148.0276 148.0276 148.0276 149.9288 149.9288
   149.9288 155.5781 155.5781 157.0846 157.0846 157.0846 160.0294 160.0294
   160.0294 161.0024 163.8183 163.8183 164.8000 164.8000 164.8000 165.8826
   165.8826 165.8826 167.2341 167.2341 167.2341 168.1783 169.3574 169.3574
   169.5422 169.5422 169.5422 170.0076 170.0076 170.0076 170.3476 170.3476
   170.3476 170.8805 170.8805 170.8805 171.3062 171.3062 171.6375 171.6375
   171.6375 172.3818 172.6235 172.6235 172.6235 172.9983 172.9983 172.9983
   173.1922 173.3424 173.3918 173.3918 173.3918 174.8381 175.0852 175.0852
   175.5758 175.5758 175.5758 177.6334 177.6334 178.0586 178.0586 178.0586
   178.4805 178.4805 178.4805 178.7517 178.7517 178.7517 179.0723 179.0723
   179.0723 179.0887 179.0887 185.2124 185.2124 185.2124 186.1256 186.1256
   186.8075 191.7181 191.7181 191.7181 193.6137 193.6137 193.6137 195.1014
   195.1014 195.1014 195.5097 195.5097 195.5097 196.1632 197.0324 197.0324
   197.0324 198.4134 198.4134 198.4696 198.4696 198.4696 198.5639 199.7891
   199.9388 199.9388 199.9388 202.2715 202.2715 203.6287 203.6287 203.6287
   207.1727 207.1727 207.1727 207.8612 207.8612 207.8612 207.9509 207.9509
   207.9509 209.0210 209.0210 210.3154 210.9342 210.9342 210.9342 213.9561
   213.9561 213.9561 214.8073 214.8073 215.6977 215.6977 215.6977 215.9937
   216.7050 216.7050 216.7050 216.7913 216.7913 216.7913 217.5197 217.5197
   217.5197 217.7992 217.7992 225.0499 225.0499 225.0499 228.9544 229.8274
   229.8274 229.8274 232.4611 232.6455 232.6455 232.6455 234.6461 234.6461
   235.9401 235.9533 235.9533 235.9533 237.1515 237.1515 237.1515 238.0456
   238.0456 238.0456 239.6277 239.6277 241.4441 242.6748 242.6748 242.6748
   243.7205 243.7205 243.7205 244.2680 244.2680 244.2680 244.3347 244.3347
   246.4693 247.0816 247.0816 247.0816 247.3135 247.3135 248.2688 251.2796
   251.2796 251.2796 251.4167 251.4167 251.4167 251.4476 251.4476 251.4476
   251.5274 251.5274 251.5274 256.0015 256.0015 256.0015 256.0366 256.0366
   256.0366 256.0473 256.0473 256.1698 256.1698 256.1698 256.3413 256.8183
   256.8183 256.8183 256.9004 257.6718 257.6718 257.6718 258.6655 258.6655
   258.6655 258.6719 258.6719 260.4890 260.4890 260.4890 261.5749 262.2797
   262.2797 262.2797 264.2421 265.7162 265.7162 267.4562 267.4562 267.4562
   267.9473 267.9473 267.9473 269.9294 269.9294 269.9294 269.9978 269.9978
   269.9978 271.8307 271.8307 274.5403 274.5403 275.2497 275.2497 275.2497
   275.5933 275.5933 275.5933 275.6681 275.6681 275.6681 275.9499 275.9499
   275.9499 276.8510 276.8510 276.9560 276.9560 276.9560 277.2761 277.9725
   277.9725 277.9725 278.3491 278.3491 278.3491 278.6232 279.3192 279.3192
   279.3192 279.9022 280.8991 283.2648 283.2648 285.1443 285.1443 285.1443
   286.8017 286.8017 286.8017 287.0517 287.0517 287.0517 287.1558 287.1558
   287.8193 287.8193 287.8193 288.5237 289.2502 289.2502 289.2502 289.5366
   289.6434 289.6434 289.6434 291.5075 291.5075 291.5525 291.5525 291.5525
   291.6095 291.6095 291.6095 291.9424 291.9424 291.9424 292.1390 292.1390
   292.1390 292.2627 292.2627 292.4630 292.5209 292.5209 292.5209 292.8396
   292.8396 292.8396 293.2535 293.3471 293.3471 293.3471 293.3678 293.3678
   293.3678 293.3715 293.3715 293.5500 293.5500 293.5500 293.7633 293.7633
   293.7685 293.7685 293.7685 311.8314 311.8314 311.8314 312.0528 312.0528
   312.5006 313.2457 313.2457 313.2457 316.9653 316.9653 316.9653 317.5166
   319.1048 319.1048 319.2201 321.6809 321.6809 321.6809 324.2703 324.2703
   324.2703 324.8063 324.8063 324.8063 325.1687 325.1687 325.1687 325.5657
   325.5657 327.5321 328.1806 328.1806 328.1806 328.8411 328.8411 328.8411
   330.4162 330.4162 330.5674 331.0807 331.0807 331.0807 332.5078 335.6026
   335.6026 335.6026 335.6955 335.6955 335.6955 335.7126 335.7126 335.7126
   335.8611 335.8611 335.8611 337.6034 337.6034 337.8277 337.8277 337.8277
   337.9904 337.9904 337.9904 338.1675 338.1675 338.1675 338.1885 338.1885
   338.2752 338.2752 338.2752 338.7473 338.7473 338.7500 338.7500 338.7500
   338.8175 342.5012 342.5012 342.5012 343.8134 343.8134 343.8134 344.1315
   344.1315 344.4628 344.7167 344.7167 344.7167 350.4168 350.4168 350.5151
   350.5151 350.5151 352.9323 354.1927 354.1927 354.1927 354.2032 354.2032
   354.2032 354.9077 354.9077 354.9077 355.0554 355.0554 355.0554 355.2379
   355.2379 355.2379 355.5050 355.5050 355.5050 356.2174 356.2174 356.2174
   356.2780 356.2780 356.3512 356.6902 356.6902 356.6902 356.8139 356.8139
   357.5299 364.9853 365.6172 365.6172 365.6172 366.2900 366.2900 366.2900
   366.7351 367.9076 367.9076 367.9076 368.0465 368.0465 368.0465 368.3076
   368.3076 368.3076 368.3495 368.3495 368.6115 370.0622 370.0622 370.0862
   370.0862 370.0862 370.2883 370.2883 370.2883 370.4915 370.4915 370.4915
   370.6701 371.3250 371.3250 371.3328 371.3328 371.3328 371.6947 371.6947
   371.6947 371.9601 371.9601 371.9601 372.2318 376.3190 376.3190 376.3190
   376.4112 376.4112 376.4112 376.4157 376.4157 376.4157 376.4253 376.4253
   376.6254 378.3758 378.3813 378.3813 378.3813 378.4234 378.4234 378.4234
   378.4896 378.4896 378.4903 378.4903 378.4903 390.5406 390.5406 390.7054
   390.7360 390.7360 390.7360 391.9791 391.9791 391.9791 393.0493 393.0493
   393.0493 393.9736 393.9736 393.9736 394.6655 394.6655 394.6655 394.6841
   394.6841 394.6841 394.9497 395.2864 395.2864 395.6255 395.6255 395.8743
   395.8743 395.8743 396.0997 397.5950 397.5950 397.5950 398.6150 398.6189
   398.6189 398.6189 401.1501 401.1501 401.1501 402.1452 402.1452 402.1452
   402.7782 402.7782 402.7782 402.8486 403.8071 403.8071 405.5551 405.5551
   405.5551 405.7905 405.7905 406.6862 406.6862 406.6862 407.0777 407.1666
   407.1666 408.5577 408.5577 408.5577 409.3955 409.3955 409.3955 409.8843
   409.8843 409.8843 410.1238 410.1238 410.1238 410.1887 410.1887 410.5708
   410.5708 410.7741 410.7741 410.7741 411.5602 411.5602 411.5602 412.0315
   412.1359 412.1359 412.1359 412.3728 412.4445 412.4445 412.4445 412.6046
   412.6046 412.6046 412.7442 412.7894 412.7894 412.7894 413.0833 413.0833
   413.0833 413.3949 413.3949 413.3949 413.4731 415.0688 415.0688 415.0688
   415.0875 415.0875 415.4853 415.4853 415.4853 415.6571 415.6571 415.6571
   415.7936 415.7936 415.7936 416.2297 416.2297 418.1042 418.1042 418.3078
   418.3078 418.3078 418.7679 418.7781 418.7781 418.7781 418.9324 418.9324
   418.9324 419.0173 419.0173 419.0173 419.2904 419.2904 419.2904 419.3656
   419.3656 419.5902 419.5902 419.5902 419.7273 427.5389 427.5389 427.5389
   427.8568 428.1736 428.1736 428.1736 428.5500 437.4022 437.4022 437.4581
   437.4581 437.4581 437.6077 437.6077 437.6077 437.6996 437.6996 437.6996
   437.8170 437.8170 437.8170 437.8433 437.8433 443.0829 443.0829 443.6838
   443.9855 443.9855 443.9855 445.4389 445.4389 445.4389 445.7779 445.7779
   446.3216 446.3216 446.3216 446.5207 446.5207 446.5207 446.7125 446.7125
   446.7125 446.7920 446.7920 446.7920 447.2440 452.1624 452.1624 452.1624
   452.2060 452.2060 452.2060 452.2303 452.2303 452.2775 452.2775 452.2775
   452.3799 452.3799 452.3799 452.4927 452.4927 452.4927 452.5195 453.1851
   453.1851 453.2289 453.2289 453.2289 453.3064 465.9908 465.9908 465.9908
   466.0249 467.1900 467.1900 467.1900 467.7600 469.8240 469.8240 470.0514
   470.0514 470.0514 470.9742 470.9742 470.9742 471.2894 471.2894 471.2894
   471.5599 471.5599 471.5599 472.0203 472.0203 473.5383 473.5383 473.5383
   474.8620 474.8620 474.8620 475.5101 475.6357 475.6357 475.6357 475.6897
   475.6897 480.3127 482.1354 482.1354 482.1354 483.1117 483.1117 483.1117
   483.5843 483.5843 483.5843 483.6588 483.6588 484.2802 484.2802 484.2802
   484.8217 484.9382 484.9382 484.9382 485.8123 486.8344 486.8344 487.7414
   487.7414 487.7414 488.9415 488.9415 488.9601 488.9601 488.9601 489.1737
   489.1737 489.1737 489.3457 489.3457 489.3457 489.4065 490.8434 490.8434
   490.8434 491.0838 491.1629 491.1629 491.1629 493.2669 493.2669 493.3645
   493.3645 493.3645 493.4385 493.4385 493.4720 493.4720 493.4721 493.4800
   493.4800 493.4800 493.5618 493.5618 493.5618 494.5975 494.6546 494.6546
   494.6765 494.6765 494.6765 496.6354 496.6508 496.6508 496.6508 496.6587
   496.6587 496.6587 496.7645 496.7645 496.7645 496.8148 496.8148 499.1491
   499.1491 499.1491 499.1899 499.1899 499.1899 499.2067 499.2067 499.2067
   499.2167 499.2167 499.2356 504.4817 504.4817 505.1335 505.1335 505.1335
   505.4967 507.2305 507.2305 507.2305 507.4611 507.4611 507.4611 508.3678
   508.3678 508.3678 508.3955 508.3955 509.3568 510.9645 511.4988 511.4988
   511.4988 511.8332 511.8332 511.8332 511.9441 511.9441 511.9441 512.1824
   512.1824 513.4586 513.4586 513.4586 514.0844 514.0844 514.0844 514.2696
   514.2696 514.2696 515.0194 515.0976 515.0976 516.2841 516.2841 516.2841
   516.8131 516.8131 516.8131 516.8361 516.8361 516.8361 517.1378 517.1378
   517.1378 517.4277 517.4277 517.4436 517.4436 517.4436 517.5910 517.5910
   517.5910 517.6915 517.6915 517.6915 517.7760 519.4946 519.4946 519.5221
   519.5221 519.5221 519.5721 523.5926 523.5926 523.5926 523.9600 524.1003
   524.1003 524.5148 524.5148 524.5148 525.0015 525.9678 525.9678 525.9678
   526.6510 526.6510 526.6510 528.2395 528.2395 528.2395 528.5112 528.5112
   528.5112 528.9955 528.9955 529.3926 529.8478 529.8478 529.8478 529.9337
   529.9337 530.3637 530.3637 530.3637 530.3890 530.3890 530.3890 531.1232
   531.1400 531.1400 531.1400 531.6633 531.6633 531.6633 531.6787 531.6787
   531.9059 531.9059 531.9059 531.9162 531.9162 531.9162 532.1023 532.1023
   532.1023 532.2166 532.2732 532.7967 532.7967 532.7967 532.8319 532.8319

     the Fermi energy is     6.8922 ev
     (compare with:     7.1184 eV, computed in scf)

     Writing all to output data dir out/mp-1550.save/
 
     init_run     :      0.05s CPU      0.09s WALL (       1 calls)
     electrons    :    132.70s CPU    143.28s WALL (       1 calls)

     Called by init_run:
     wfcinit      :      0.00s CPU      0.00s WALL (       1 calls)
     potinit      :      0.01s CPU      0.02s WALL (       1 calls)
     hinit0       :      0.01s CPU      0.04s WALL (       1 calls)

     Called by electrons:
     c_bands      :    132.70s CPU    143.28s WALL (       1 calls)
     v_of_rho     :      0.01s CPU      0.01s WALL (       1 calls)

     Called by c_bands:
     init_us_2    :      0.00s CPU      0.00s WALL (       1 calls)
     init_us_2:cp :      0.00s CPU      0.00s WALL (       1 calls)
     cegterg      :    130.05s CPU    140.38s WALL (       1 calls)

     Called by *egterg:
     cdiaghg      :    124.61s CPU    134.91s WALL (      10 calls)
     h_psi        :      1.94s CPU      2.02s WALL (      11 calls)
     g_psi        :      0.01s CPU      0.01s WALL (       9 calls)

     Called by h_psi:
     h_psi:calbec :      0.02s CPU      0.03s WALL (      11 calls)
     vloc_psi     :      1.90s CPU      1.96s WALL (      11 calls)
     add_vuspsi   :      0.01s CPU      0.01s WALL (      11 calls)

     General routines
     calbec       :      0.02s CPU      0.03s WALL (      11 calls)
     fft          :      0.01s CPU      0.03s WALL (      10 calls)
     fftw         :      1.73s CPU      1.79s WALL (   13582 calls)
 
     Parallel routines
 
     PWSCF        :   2m13.05s CPU   2m24.43s WALL

 
   This run was terminated on:  20: 9:39  18Nov2023            

=------------------------------------------------------------------------------=
   JOB DONE.
=------------------------------------------------------------------------------=
