
     Program PWSCF v.7.1 starts on 19Nov2023 at 11:19:37 

     This program is part of the open-source Quantum ESPRESSO suite
     for quantum simulation of materials; please cite
         "P. Giannozzi et al., J. Phys.:Condens. Matter 21 395502 (2009);
         "P. Giannozzi et al., J. Phys.:Condens. Matter 29 465901 (2017);
         "P. Giannozzi et al., J. Chem. Phys. 152 154105 (2020);
          URL http://www.quantum-espresso.org", 
     in publications or presentations arising from this work. More details at
     http://www.quantum-espresso.org/quote

     Parallel version (MPI), running on    24 processors

     MPI processes distributed on     1 nodes
     123413 MiB available memory on the printing compute node when the environment starts
 
     Reading input from pw_mp-1550_scf_k3000_E79.in
Warning: card &CELL ignored
Warning: card / ignored

     Current dimensions of program PWSCF are:
     Max number of different atomic species (ntypx) = 10
     Max number of k-points (npk) =  40000
     Max angular momentum in pseudopotentials (lmaxx) =  4
 
     K-points division:     npool     =       2
     R & G space division:  proc/nbgrp/npool/nimage =      12
     Subspace diagonalization in iterative solution of the eigenvalue problem:
     a serial algorithm will be used

 
     Parallelization info
     --------------------
     sticks:   dense  smooth     PW     G-vecs:    dense   smooth      PW
     Min          96      96     29                 2190     2190     356
     Max          97      97     30                 2194     2194     359
     Sum        1159    1159    349                26301    26301    4279
 
     Using Slab Decomposition
 


     bravais-lattice index     =            2
     lattice parameter (alat)  =      10.3424  a.u.
     unit-cell volume          =     276.5700 (a.u.)^3
     number of atoms/cell      =            2
     number of atomic types    =            2
     number of electrons       =        16.00
     number of Kohn-Sham states=           16
     kinetic-energy cutoff     =      79.0000  Ry
     charge density cutoff     =     316.0000  Ry
     scf convergence threshold =      1.0E-10
     mixing beta               =       0.7000
     number of iterations used =            8  plain     mixing
     Exchange-correlation= PBE
                           (   1   4   3   4   0   0   0)

     celldm(1)=  10.342409  celldm(2)=   0.000000  celldm(3)=   0.000000
     celldm(4)=   0.000000  celldm(5)=   0.000000  celldm(6)=   0.000000

     crystal axes: (cart. coord. in units of alat)
               a(1) = (  -0.500000   0.000000   0.500000 )  
               a(2) = (   0.000000   0.500000   0.500000 )  
               a(3) = (  -0.500000   0.500000   0.000000 )  

     reciprocal axes: (cart. coord. in units 2 pi/alat)
               b(1) = ( -1.000000 -1.000000  1.000000 )  
               b(2) = (  1.000000  1.000000  1.000000 )  
               b(3) = ( -1.000000  1.000000 -1.000000 )  


     PseudoPot. # 1 for Al read from file:
     /usr/scratch4/magr4985/MG/HTDF/pseudo/SG15/Al.upf
     MD5 check sum: 2d9e7bc02555220d62fad08c3c4858e7
     Pseudo is Norm-conserving, Zval = 11.0
     Generated using ONCVPSP code by D. R. Hamann
     Using radial grid of  602 points,  4 beta functions with: 
                l(1) =   0
                l(2) =   0
                l(3) =   1
                l(4) =   1

     PseudoPot. # 2 for P  read from file:
     /usr/scratch4/magr4985/MG/HTDF/pseudo/SG15/P.upf
     MD5 check sum: 0688a67b2b263c6b42d3d97c42745426
     Pseudo is Norm-conserving, Zval =  5.0
     Generated using ONCVPSP code by D. R. Hamann
     Using radial grid of  602 points,  4 beta functions with: 
                l(1) =   0
                l(2) =   0
                l(3) =   1
                l(4) =   1

     atomic species   valence    mass     pseudopotential
        Al            11.00    26.98150     Al( 1.00)
        P              5.00    30.97380     P ( 1.00)

     24 Sym. Ops. (no inversion) found



   Cartesian axes

     site n.     atom                  positions (alat units)
         1           Al  tau(   1) = (   0.0000000   0.0000000   0.0000000  )
         2           P   tau(   2) = (  -0.7500000   0.7500000   0.7500000  )

     number of k points=    72  Gaussian smearing, width (Ry)=  0.0005
                       cart. coord. in units 2pi/alat
        k(    1) = (   0.0000000   0.0000000   0.0000000), wk =   0.0011574
        k(    2) = (  -0.0833333   0.0833333  -0.0833333), wk =   0.0092593
        k(    3) = (  -0.1666667   0.1666667  -0.1666667), wk =   0.0092593
        k(    4) = (  -0.2500000   0.2500000  -0.2500000), wk =   0.0092593
        k(    5) = (  -0.3333333   0.3333333  -0.3333333), wk =   0.0092593
        k(    6) = (  -0.4166667   0.4166667  -0.4166667), wk =   0.0092593
        k(    7) = (   0.5000000  -0.5000000   0.5000000), wk =   0.0046296
        k(    8) = (   0.0000000   0.1666667   0.0000000), wk =   0.0069444
        k(    9) = (  -0.0833333   0.2500000  -0.0833333), wk =   0.0277778
        k(   10) = (  -0.1666667   0.3333333  -0.1666667), wk =   0.0277778
        k(   11) = (  -0.2500000   0.4166667  -0.2500000), wk =   0.0277778
        k(   12) = (  -0.3333333   0.5000000  -0.3333333), wk =   0.0277778
        k(   13) = (   0.5833333  -0.4166667   0.5833333), wk =   0.0277778
        k(   14) = (   0.5000000  -0.3333333   0.5000000), wk =   0.0277778
        k(   15) = (   0.4166667  -0.2500000   0.4166667), wk =   0.0277778
        k(   16) = (   0.3333333  -0.1666667   0.3333333), wk =   0.0277778
        k(   17) = (   0.2500000  -0.0833333   0.2500000), wk =   0.0277778
        k(   18) = (   0.1666667  -0.0000000   0.1666667), wk =   0.0138889
        k(   19) = (   0.0000000   0.3333333   0.0000000), wk =   0.0069444
        k(   20) = (  -0.0833333   0.4166667  -0.0833333), wk =   0.0277778
        k(   21) = (  -0.1666667   0.5000000  -0.1666667), wk =   0.0277778
        k(   22) = (  -0.2500000   0.5833333  -0.2500000), wk =   0.0277778
        k(   23) = (   0.6666667  -0.3333333   0.6666667), wk =   0.0277778
        k(   24) = (   0.5833333  -0.2500000   0.5833333), wk =   0.0277778
        k(   25) = (   0.5000000  -0.1666667   0.5000000), wk =   0.0277778
        k(   26) = (   0.4166667  -0.0833333   0.4166667), wk =   0.0277778
        k(   27) = (   0.3333333   0.0000000   0.3333333), wk =   0.0138889
        k(   28) = (   0.0000000   0.5000000   0.0000000), wk =   0.0069444
        k(   29) = (  -0.0833333   0.5833333  -0.0833333), wk =   0.0277778
        k(   30) = (  -0.1666667   0.6666667  -0.1666667), wk =   0.0277778
        k(   31) = (   0.7500000  -0.2500000   0.7500000), wk =   0.0277778
        k(   32) = (   0.6666667  -0.1666667   0.6666667), wk =   0.0277778
        k(   33) = (   0.5833333  -0.0833333   0.5833333), wk =   0.0277778
        k(   34) = (   0.5000000   0.0000000   0.5000000), wk =   0.0138889
        k(   35) = (   0.0000000   0.6666667   0.0000000), wk =   0.0069444
        k(   36) = (  -0.0833333   0.7500000  -0.0833333), wk =   0.0277778
        k(   37) = (   0.8333333  -0.1666667   0.8333333), wk =   0.0277778
        k(   38) = (   0.7500000  -0.0833333   0.7500000), wk =   0.0277778
        k(   39) = (   0.6666667  -0.0000000   0.6666667), wk =   0.0138889
        k(   40) = (   0.0000000   0.8333333   0.0000000), wk =   0.0069444
        k(   41) = (   0.9166667  -0.0833333   0.9166667), wk =   0.0277778
        k(   42) = (   0.8333333   0.0000000   0.8333333), wk =   0.0138889
        k(   43) = (   0.0000000  -1.0000000   0.0000000), wk =   0.0034722
        k(   44) = (  -0.1666667   0.3333333   0.0000000), wk =   0.0277778
        k(   45) = (  -0.2500000   0.4166667  -0.0833333), wk =   0.0555556
        k(   46) = (  -0.3333333   0.5000000  -0.1666667), wk =   0.0555556
        k(   47) = (   0.5833333  -0.4166667   0.7500000), wk =   0.0555556
        k(   48) = (   0.5000000  -0.3333333   0.6666667), wk =   0.0277778
        k(   49) = (  -0.1666667   0.5000000   0.0000000), wk =   0.0277778
        k(   50) = (  -0.2500000   0.5833333  -0.0833333), wk =   0.0555556
        k(   51) = (   0.6666667  -0.3333333   0.8333333), wk =   0.0555556
        k(   52) = (   0.5833333  -0.2500000   0.7500000), wk =   0.0555556
        k(   53) = (   0.5000000  -0.1666667   0.6666667), wk =   0.0555556
        k(   54) = (   0.4166667  -0.0833333   0.5833333), wk =   0.0555556
        k(   55) = (   0.3333333   0.0000000   0.5000000), wk =   0.0277778
        k(   56) = (  -0.1666667   0.6666667  -0.0000000), wk =   0.0277778
        k(   57) = (   0.7500000  -0.2500000   0.9166667), wk =   0.0555556
        k(   58) = (   0.6666667  -0.1666667   0.8333333), wk =   0.0555556
        k(   59) = (   0.5833333  -0.0833333   0.7500000), wk =   0.0555556
        k(   60) = (   0.5000000   0.0000000   0.6666667), wk =   0.0277778
        k(   61) = (   0.8333333  -0.1666667   1.0000000), wk =   0.0277778
        k(   62) = (   0.7500000  -0.0833333   0.9166667), wk =   0.0555556
        k(   63) = (   0.6666667   0.0000000   0.8333333), wk =   0.0277778
        k(   64) = (  -0.1666667  -1.0000000  -0.0000000), wk =   0.0138889
        k(   65) = (   0.6666667  -0.3333333   1.0000000), wk =   0.0277778
        k(   66) = (   0.5833333  -0.2500000   0.9166667), wk =   0.0555556
        k(   67) = (   0.5000000  -0.1666667   0.8333333), wk =   0.0277778
        k(   68) = (   0.6666667  -0.1666667   1.0000000), wk =   0.0277778
        k(   69) = (   0.5833333  -0.0833333   0.9166667), wk =   0.0555556
        k(   70) = (   0.5000000   0.0000000   0.8333333), wk =   0.0277778
        k(   71) = (  -0.3333333  -1.0000000   0.0000000), wk =   0.0138889
        k(   72) = (  -0.5000000  -1.0000000   0.0000000), wk =   0.0069444

     Dense  grid:    26301 G-vectors     FFT dimensions: (  45,  45,  45)

     Estimated max dynamical RAM per process >       2.80 MB

     Estimated total dynamical RAM >      60.80 MB

     Initial potential from superposition of free atoms

     starting charge      15.8961, renormalised to      16.0000
     Starting wfcs are random

     total cpu time spent up to now is        0.5 secs

     Self-consistent Calculation

     iteration #  1     ecut=    79.00 Ry     beta= 0.70
     Davidson diagonalization with overlap
     ethr =  1.00E-02,  avg # of iterations =  8.3

     Threshold (ethr) on eigenvalues was too large:
     Diagonalizing with lowered threshold

     Davidson diagonalization with overlap
     ethr =  6.93E-04,  avg # of iterations =  1.6

     total cpu time spent up to now is        2.2 secs

     total energy              =    -151.66982841 Ry
     estimated scf accuracy    <       0.10798360 Ry

     iteration #  2     ecut=    79.00 Ry     beta= 0.70
     Davidson diagonalization with overlap
     ethr =  6.75E-04,  avg # of iterations =  2.0

     total cpu time spent up to now is        2.7 secs

     total energy              =    -151.69419078 Ry
     estimated scf accuracy    <       0.01947213 Ry

     iteration #  3     ecut=    79.00 Ry     beta= 0.70
     Davidson diagonalization with overlap
     ethr =  1.22E-04,  avg # of iterations =  2.8

     total cpu time spent up to now is        3.2 secs

     total energy              =    -151.69764204 Ry
     estimated scf accuracy    <       0.00055192 Ry

     iteration #  4     ecut=    79.00 Ry     beta= 0.70
     Davidson diagonalization with overlap
     ethr =  3.45E-06,  avg # of iterations =  4.9

     total cpu time spent up to now is        3.9 secs

     total energy              =    -151.69766842 Ry
     estimated scf accuracy    <       0.00000822 Ry

     iteration #  5     ecut=    79.00 Ry     beta= 0.70
     Davidson diagonalization with overlap
     ethr =  5.13E-08,  avg # of iterations =  2.0

     total cpu time spent up to now is        4.3 secs

     total energy              =    -151.69767106 Ry
     estimated scf accuracy    <       0.00000010 Ry

     iteration #  6     ecut=    79.00 Ry     beta= 0.70
     Davidson diagonalization with overlap
     ethr =  6.01E-10,  avg # of iterations =  2.9

     total cpu time spent up to now is        4.8 secs

     total energy              =    -151.69767111 Ry
     estimated scf accuracy    <          3.3E-09 Ry

     iteration #  7     ecut=    79.00 Ry     beta= 0.70
     Davidson diagonalization with overlap
     ethr =  2.09E-11,  avg # of iterations =  2.8

     total cpu time spent up to now is        5.3 secs

     total energy              =    -151.69767111 Ry
     estimated scf accuracy    <          1.6E-10 Ry

     iteration #  8     ecut=    79.00 Ry     beta= 0.70
     Davidson diagonalization with overlap
     ethr =  9.89E-13,  avg # of iterations =  2.0

     total cpu time spent up to now is        5.8 secs

     End of self-consistent calculation

          k = 0.0000 0.0000 0.0000 (  3287 PWs)   bands (ev):

   -96.2793 -57.7723 -57.7723 -57.7723  -5.2917   6.1828   6.1828   6.1828
     9.4034  10.7285  10.7285  10.7285  15.0374  15.0374  16.4297  18.4355

          k =-0.0833 0.0833-0.0833 (  3293 PWs)   bands (ev):

   -96.2793 -57.7724 -57.7723 -57.7723  -5.2151   5.5497   6.1126   6.1126
     9.7561  10.8664  10.8664  10.8719  14.7642  14.7642  16.7889  18.1166

          k =-0.1667 0.1667-0.1667 (  3290 PWs)   bands (ev):

   -96.2793 -57.7724 -57.7723 -57.7723  -4.9911   4.3121   5.9403   5.9403
     9.7639  11.1619  11.1619  11.7976  14.3976  14.3976  17.0169  18.3115

          k =-0.2500 0.2500-0.2500 (  3299 PWs)   bands (ev):

   -96.2793 -57.7725 -57.7724 -57.7724  -4.6398   3.0158   5.7400   5.7400
     9.4741  11.3215  11.3215  13.0611  14.5225  14.5225  16.5355  19.8225

          k =-0.3333 0.3333-0.3333 (  3293 PWs)   bands (ev):

   -96.2793 -57.7726 -57.7724 -57.7724  -4.2095   1.8607   5.5687   5.5687
     9.2036  11.2270  11.2270  14.0709  15.3152  15.3152  16.4759  21.4127

          k =-0.4167 0.4167-0.4167 (  3275 PWs)   bands (ev):

   -96.2793 -57.7727 -57.7724 -57.7724  -3.8082   1.0094   5.4571   5.4571
     9.0275  11.0711  11.0711  14.4134  16.5624  16.5624  17.2418  20.1290

          k = 0.5000-0.5000 0.5000 (  3274 PWs)   bands (ev):

   -96.2793 -57.7727 -57.7724 -57.7724  -3.6305   0.6796   5.4187   5.4187
     8.9672  11.0052  11.0052  14.4384  17.6974  17.6974  17.9493  18.7899

          k = 0.0000 0.1667 0.0000 (  3287 PWs)   bands (ev):

   -96.2793 -57.7724 -57.7723 -57.7723  -5.1895   5.6019   5.9520   5.9520
    10.0103  10.4303  11.0993  11.0993  14.2373  15.1678  16.9363  18.6470

          k =-0.0833 0.2500-0.0833 (  3287 PWs)   bands (ev):

   -96.2793 -57.7724 -57.7724 -57.7723  -5.0143   4.6500   5.7209   5.8363
    10.1500  10.5454  11.4937  11.6839  13.7536  15.1058  17.5218  18.3583

          k =-0.1667 0.3333-0.1667 (  3290 PWs)   bands (ev):

   -96.2793 -57.7725 -57.7724 -57.7724  -4.7043   3.4186   5.5003   5.6386
     9.8902  10.9409  11.7654  12.2759  14.0707  15.1692  17.1891  19.4153

          k =-0.2500 0.4167-0.2500 (  3287 PWs)   bands (ev):

   -96.2793 -57.7726 -57.7724 -57.7724  -4.2959   2.2412   5.3421   5.3894
     9.6341  11.0082  11.7150  12.9560  15.0638  15.8240  16.8830  20.9364

          k =-0.3333 0.5000-0.3333 (  3282 PWs)   bands (ev):

   -96.2793 -57.7726 -57.7724 -57.7724  -3.8725   1.2919   5.1616   5.2705
     9.4520  10.8809  11.4943  13.9244  15.7272  16.9676  17.4530  19.9235

          k = 0.5833-0.4167 0.5833 (  3279 PWs)   bands (ev):

   -96.2793 -57.7727 -57.7724 -57.7724  -3.6007   0.7753   4.9980   5.2916
     9.3739  10.8296  11.3027  14.5657  16.4151  17.6813  18.3513  18.9145

          k = 0.5000-0.3333 0.5000 (  3275 PWs)   bands (ev):

   -96.2793 -57.7727 -57.7724 -57.7724  -3.6616   0.8864   4.9226   5.3989
     9.4078  10.9255  11.2258  14.5768  16.2681  16.8876  18.4230  18.8081

          k = 0.4167-0.2500 0.4167 (  3281 PWs)   bands (ev):

   -96.2793 -57.7726 -57.7724 -57.7724  -4.0082   1.5747   4.9493   5.5757
     9.5502  11.1464  11.2634  14.0120  14.9241  16.4514  17.4940  19.9317

          k = 0.3333-0.1667 0.3333 (  3286 PWs)   bands (ev):

   -96.2793 -57.7725 -57.7724 -57.7724  -4.4403   2.6168   5.0846   5.7923
     9.7872  11.3114  11.3529  13.0651  14.0002  15.8275  17.0068  20.2392

          k = 0.2500-0.0833 0.2500 (  3291 PWs)   bands (ev):

   -96.2793 -57.7725 -57.7724 -57.7723  -4.8218   3.8137   5.3303   6.0004
    10.0718  11.1593  11.1726  12.2731  13.7512  15.0226  17.4330  18.8034

          k = 0.1667-0.0000 0.1667 (  3279 PWs)   bands (ev):

   -96.2793 -57.7724 -57.7723 -57.7723  -5.0892   4.9210   5.7032   6.1291
    10.1156  10.7405  10.9233  11.5798  14.1318  14.8407  17.3165  18.2519

          k = 0.0000 0.3333 0.0000 (  3287 PWs)   bands (ev):

   -96.2793 -57.7724 -57.7724 -57.7724  -4.8896   4.4812   5.4400   5.4400
     9.7664  10.8151  12.0246  12.0246  13.3052  15.5579  18.2211  19.2671

          k =-0.0833 0.4167-0.0833 (  3285 PWs)   bands (ev):

   -96.2793 -57.7725 -57.7724 -57.7724  -4.6273   3.6218   5.1864   5.1892
     9.6083  10.8193  12.1664  12.4860  13.9742  15.7795  18.5248  19.5133

          k =-0.1667 0.5000-0.1667 (  3288 PWs)   bands (ev):

   -96.2793 -57.7725 -57.7724 -57.7724  -4.2557   2.5856   4.8520   5.0130
     9.5782  11.1208  11.9538  12.5862  15.3325  16.3525  18.0603  20.7528

          k =-0.2500 0.5833-0.2500 (  3283 PWs)   bands (ev):

   -96.2793 -57.7726 -57.7724 -57.7724  -3.8393   1.6503   4.4890   4.9443
     9.4967  11.3497  12.3810  12.4092  16.3510  17.4154  18.1325  19.8124

          k = 0.6667-0.3333 0.6667 (  3279 PWs)   bands (ev):

   -96.2793 -57.7726 -57.7724 -57.7724  -3.5116   1.0292   4.1899   4.9865
     9.4982  11.2509  12.1152  13.5695  16.4070  17.6841  18.8797  19.2040

          k = 0.5833-0.2500 0.5833 (  3272 PWs)   bands (ev):

   -96.2793 -57.7726 -57.7725 -57.7724  -3.4591   0.9406   4.0045   5.1324
     9.6401  11.2148  11.9212  14.4636  16.1183  16.2767  18.3238  20.4568

          k = 0.5000-0.1667 0.5000 (  3291 PWs)   bands (ev):

   -96.2793 -57.7726 -57.7725 -57.7724  -3.7205   1.4215   3.9669   5.3605
     9.9102  11.2946  11.8266  13.8730  14.7031  17.0407  18.5656  19.4740

          k = 0.4167-0.0833 0.4167 (  3293 PWs)   bands (ev):

   -96.2793 -57.7726 -57.7724 -57.7724  -4.1273   2.2549   4.1221   5.6302
    10.2494  11.4334  11.7450  12.8035  13.7065  17.3532  18.2864  19.4620

          k = 0.3333 0.0000 0.3333 (  3293 PWs)   bands (ev):

   -96.2793 -57.7725 -57.7724 -57.7724  -4.5215   3.1387   4.5668   5.8742
    10.4891  11.2100  11.4761  12.3262  13.4144  16.1256  18.5687  18.6512

          k = 0.0000 0.5000 0.0000 (  3263 PWs)   bands (ev):

   -96.2793 -57.7725 -57.7724 -57.7724  -4.4154   3.2911   4.8990   4.8990
     9.0453  10.2669  13.2393  13.2393  14.1237  16.2035  19.8550  20.1814

          k =-0.0833 0.5833-0.0833 (  3287 PWs)   bands (ev):

   -96.2793 -57.7726 -57.7724 -57.7724  -4.0914   2.5927   4.5485   4.6965
     8.9292  10.0320  13.3091  13.6529  15.4459  16.7513  19.5904  20.6682

          k =-0.1667 0.6667-0.1667 (  3270 PWs)   bands (ev):

   -96.2793 -57.7726 -57.7724 -57.7724  -3.7074   1.8581   4.0299   4.6068
     8.9471  10.5094  13.1165  13.5775  16.8500  17.7808  19.1269  19.7684

          k = 0.7500-0.2500 0.7500 (  3279 PWs)   bands (ev):

   -96.2793 -57.7726 -57.7725 -57.7724  -3.3691   1.2976   3.5349   4.6392
     8.9842  11.4865  13.0465  13.2953  16.9664  17.7676  19.4864  19.6417

          k = 0.6667-0.1667 0.6667 (  3269 PWs)   bands (ev):

   -96.2793 -57.7726 -57.7725 -57.7724  -3.2382   1.1135   3.1938   4.7889
     9.1625  12.2050  13.0120  13.5124  15.9327  16.1324  19.7095  21.0869

          k = 0.5833-0.0833 0.5833 (  3271 PWs)   bands (ev):

   -96.2793 -57.7726 -57.7725 -57.7724  -3.4005   1.3748   3.0932   5.0367
     9.5014  12.3678  12.7608  13.6602  14.7114  15.8146  19.7453  21.2451

          k = 0.5000 0.0000 0.5000 (  3294 PWs)   bands (ev):

   -96.2793 -57.7726 -57.7725 -57.7724  -3.7486   1.8501   3.3717   5.3418
     9.9494  12.2700  12.3700  12.7450  13.8375  17.2285  19.4144  19.8629

          k = 0.0000 0.6667 0.0000 (  3302 PWs)   bands (ev):

   -96.2793 -57.7726 -57.7724 -57.7724  -3.8224   2.1715   4.4607   4.4607
     8.4081   9.3833  14.6037  14.6037  15.7410  17.0927  20.5914  20.5914

          k =-0.0833 0.7500-0.0833 (  3285 PWs)   bands (ev):

   -96.2793 -57.7726 -57.7725 -57.7724  -3.4943   1.6556   4.0754   4.3392
     8.3621   9.3457  14.7443  14.9257  17.0256  17.9435  19.6893  19.7483

          k = 0.8333-0.1667 0.8333 (  3267 PWs)   bands (ev):

   -96.2793 -57.7726 -57.7725 -57.7725  -3.1951   1.2817   3.4414   4.3447
     8.4730  10.0877  14.5654  14.7166  17.3185  17.9415  19.5732  19.5838

          k = 0.7500-0.0833 0.7500 (  3262 PWs)   bands (ev):

   -96.2793 -57.7726 -57.7725 -57.7724  -3.0510   1.1792   2.8824   4.4763
     8.6700  11.3188  14.3380  14.3923  15.9756  16.3417  20.8651  21.3016

          k = 0.6667-0.0000 0.6667 (  3236 PWs)   bands (ev):

   -96.2793 -57.7726 -57.7726 -57.7724  -3.1385   1.2999   2.6801   4.7188
     9.0208  12.5709  13.7405  13.9558  15.0614  15.1518  21.4008  21.8360

          k = 0.0000 0.8333 0.0000 (  3302 PWs)   bands (ev):

   -96.2793 -57.7726 -57.7725 -57.7725  -3.2451   1.2715   4.1821   4.1821
     7.9482   8.8376  16.0513  16.0513  17.3231  18.1764  19.4242  19.4242

          k = 0.9167-0.0833 0.9167 (  3288 PWs)   bands (ev):

   -96.2793 -57.7727 -57.7725 -57.7725  -3.0397   1.0238   3.8295   4.1531
     8.0345   9.0151  16.2275  16.2365  17.5632  18.1535  19.1738  19.3521

          k = 0.8333 0.0000 0.8333 (  3270 PWs)   bands (ev):

   -96.2793 -57.7726 -57.7725 -57.7725  -2.9668   1.0366   3.2325   4.2547
     8.3035   9.9497  15.5986  15.9173  16.2337  16.9165  20.2980  20.8433

          k = 0.0000-1.0000 0.0000 (  3306 PWs)   bands (ev):

   -96.2794 -57.7727 -57.7725 -57.7725  -2.9748   0.8920   4.0870   4.0870
     7.7778   8.6638  17.1897  17.1897  18.1402  18.2493  18.2493  18.9875

          k =-0.1667 0.3333 0.0000 (  3281 PWs)   bands (ev):

   -96.2793 -57.7724 -57.7724 -57.7724  -4.7955   3.9527   5.1598   5.7680
    10.2025  10.6972  11.8288  12.0091  13.6682  15.3612  18.2582  18.5745

          k =-0.2500 0.4167-0.0833 (  3286 PWs)   bands (ev):

   -96.2793 -57.7725 -57.7724 -57.7724  -4.4534   2.9535   4.7310   5.5918
    10.1594  10.9801  11.9400  12.1770  14.1650  16.1432  17.9580  19.6402

          k =-0.3333 0.5000-0.1667 (  3284 PWs)   bands (ev):

   -96.2793 -57.7726 -57.7724 -57.7724  -4.0369   1.9368   4.4882   5.3577
    10.0035  10.9239  12.0815  12.6770  15.0454  17.0779  17.9346  19.7884

          k = 0.5833-0.4167 0.7500 (  3273 PWs)   bands (ev):

   -96.2793 -57.7726 -57.7724 -57.7724  -3.6521   1.1557   4.3696   5.1689
     9.8903  10.7075  11.9722  13.7761  15.8859  17.2540  18.4383  19.1756

          k = 0.5000-0.3333 0.6667 (  3272 PWs)   bands (ev):

   -96.2793 -57.7727 -57.7724 -57.7724  -3.4834   0.8501   4.3358   5.0966
     9.8531  10.6177  11.9169  14.5185  16.0227  17.1138  18.6531  19.0168

          k =-0.1667 0.5000 0.0000 (  3284 PWs)   bands (ev):

   -96.2793 -57.7725 -57.7724 -57.7724  -4.3331   2.9766   4.5956   5.1101
     9.5242  10.6225  12.2082  13.1171  14.6526  16.4356  19.2934  19.4119

          k =-0.2500 0.5833-0.0833 (  3281 PWs)   bands (ev):

   -96.2793 -57.7726 -57.7724 -57.7724  -3.9515   2.1875   4.1427   4.8933
     9.6170  10.9008  11.9668  13.4032  15.5028  17.6401  18.7863  19.8373

          k = 0.6667-0.3333 0.8333 (  3280 PWs)   bands (ev):

   -96.2793 -57.7726 -57.7725 -57.7724  -3.5655   1.4676   3.8139   4.7247
     9.6266  11.3350  12.1812  13.3397  16.3120  17.8853  18.7766  19.6585

          k = 0.5833-0.2500 0.7500 (  3268 PWs)   bands (ev):

   -96.2793 -57.7726 -57.7725 -57.7724  -3.3273   1.0670   3.5839   4.7103
     9.7214  11.1960  12.9675  13.5568  15.6015  17.6212  18.9634  19.6252

          k = 0.5000-0.1667 0.6667 (  3263 PWs)   bands (ev):

   -96.2793 -57.7726 -57.7725 -57.7724  -3.3868   1.1718   3.4814   4.8519
     9.9506  11.0767  12.9695  13.6743  15.3098  16.6982  19.0168  20.5885

          k = 0.4167-0.0833 0.5833 (  3283 PWs)   bands (ev):

   -96.2793 -57.7726 -57.7725 -57.7724  -3.7007   1.7097   3.5727   5.1044
    10.2746  11.0695  12.3665  13.1173  14.8653  17.3232  19.1533  19.7498

          k = 0.3333 0.0000 0.5000 (  3286 PWs)   bands (ev):

   -96.2793 -57.7726 -57.7724 -57.7724  -4.0980   2.3877   3.9720   5.3913
    10.5045  11.0116  11.7264  12.7874  14.1903  17.6003  18.7972  19.2919

          k =-0.1667 0.6667-0.0000 (  3285 PWs)   bands (ev):

   -96.2793 -57.7726 -57.7724 -57.7724  -3.7607   2.0524   4.1485   4.4832
     8.9038   9.8390  13.3224  14.5526  16.0478  17.7942  19.4119  20.4025

          k = 0.7500-0.2500 0.9167 (  3284 PWs)   bands (ev):

   -96.2793 -57.7726 -57.7725 -57.7724  -3.4090   1.5478   3.6357   4.3060
     9.0661  10.3550  13.0386  14.8073  16.6493  18.2469  19.1593  20.0714

          k = 0.6667-0.1667 0.8333 (  3274 PWs)   bands (ev):

   -96.2793 -57.7726 -57.7725 -57.7724  -3.1572   1.2401   3.1403   4.3141
     9.2085  11.4131  12.8319  14.6078  15.7338  17.9401  19.2813  20.9073

          k = 0.5833-0.0833 0.7500 (  3267 PWs)   bands (ev):

   -96.2793 -57.7726 -57.7725 -57.7724  -3.1381   1.2512   2.8562   4.4834
     9.4703  12.0914  13.1523  13.9195  14.9496  16.5610  20.4894  21.1175

          k = 0.5000 0.0000 0.6667 (  3281 PWs)   bands (ev):

   -96.2793 -57.7726 -57.7725 -57.7724  -3.3604   1.4848   2.9630   4.7704
     9.8631  11.9184  12.5622  13.9533  14.8498  16.0683  20.6381  20.9620

          k = 0.8333-0.1667 1.0000 (  3282 PWs)   bands (ev):

   -96.2793 -57.7726 -57.7725 -57.7725  -3.2135   1.2923   3.8807   4.0462
     8.4567   9.3496  14.6162  16.0567  17.0193  18.5506  19.1746  19.5822

          k = 0.7500-0.0833 0.9167 (  3279 PWs)   bands (ev):

   -96.2793 -57.7726 -57.7725 -57.7725  -3.0154   1.1304   3.3159   4.0123
     8.7552  10.0812  14.2956  15.6462  16.4614  18.0914  19.3588  20.6484

          k = 0.6667 0.0000 0.8333 (  3267 PWs)   bands (ev):

   -96.2793 -57.7726 -57.7725 -57.7725  -2.9893   1.1951   2.8290   4.1837
     9.0573  11.3408  13.8558  14.2782  16.0163  16.8823  20.4911  21.6389

          k =-0.1667-1.0000-0.0000 (  3284 PWs)   bands (ev):

   -96.2793 -57.7727 -57.7725 -57.7725  -2.9630   0.9686   3.8088   3.8752
     8.2938   9.1936  15.8274  16.1810  17.3511  18.1057  19.2109  19.7364

          k = 0.6667-0.3333 1.0000 (  3283 PWs)   bands (ev):

   -96.2793 -57.7726 -57.7725 -57.7724  -3.5912   1.7695   3.5242   4.6000
    10.0419  11.0144  11.6663  14.3782  15.5028  17.6519  19.4966  20.2939

          k = 0.5833-0.2500 0.9167 (  3274 PWs)   bands (ev):

   -96.2793 -57.7726 -57.7725 -57.7724  -3.2720   1.3797   3.1758   4.3215
    10.2119  11.2417  12.0537  14.5362  15.3733  17.2336  19.8803  20.8969

          k = 0.5000-0.1667 0.8333 (  3274 PWs)   bands (ev):

   -96.2793 -57.7726 -57.7725 -57.7724  -3.1377   1.2082   3.0736   4.2119
    10.2412  11.1401  13.0471  13.8311  15.0342  18.0945  19.0444  20.6904

          k = 0.6667-0.1667 1.0000 (  3272 PWs)   bands (ev):

   -96.2793 -57.7726 -57.7725 -57.7725  -3.1346   1.3274   3.2989   3.8786
     9.6491  10.6219  12.6979  15.3344  16.0603  17.8886  19.8156  20.6901

          k = 0.5833-0.0833 0.9167 (  3278 PWs)   bands (ev):

   -96.2793 -57.7726 -57.7725 -57.7725  -2.9904   1.2573   2.9703   3.7485
    10.0183  11.5206  12.5257  13.7681  16.4191  18.2279  19.2634  21.2098

          k = 0.5000 0.0000 0.8333 (  3269 PWs)   bands (ev):

   -96.2793 -57.7726 -57.7725 -57.7725  -3.0476   1.3140   2.8586   3.9421
    10.2708  11.7933  12.2882  13.5804  16.0420  17.3397  20.1921  21.4302

          k =-0.3333-1.0000 0.0000 (  3282 PWs)   bands (ev):

   -96.2793 -57.7726 -57.7725 -57.7725  -2.9389   1.1545   3.2938   3.5320
     9.5082  10.4943  13.8104  14.1625  17.3918  18.0908  19.4302  20.1711

          k =-0.5000-1.0000 0.0000 (  3268 PWs)   bands (ev):

   -96.2793 -57.7726 -57.7726 -57.7725  -2.9266   1.2745   3.0341   3.3861
    10.5171  12.0919  12.3373  12.5348  17.4227  18.0910  19.4692  20.3292

     the Fermi energy is     7.1185 ev

!    total energy              =    -151.69767111 Ry
     estimated scf accuracy    <          3.6E-12 Ry
     smearing contrib. (-TS)   =      -0.00000000 Ry
     internal energy E=F+TS    =    -151.69767111 Ry

     The total energy is F=E-TS. E is the sum of the following terms:
     one-electron contribution =    -104.96687724 Ry
     hartree contribution      =      45.56915485 Ry
     xc contribution           =     -19.04788186 Ry
     ewald contribution        =     -73.25206687 Ry

     convergence has been achieved in   8 iterations

     Writing all to output data dir out/mp-1550.save/
 
     init_run     :      0.22s CPU      0.28s WALL (       1 calls)
     electrons    :      4.73s CPU      5.33s WALL (       1 calls)

     Called by init_run:
     wfcinit      :      0.19s CPU      0.23s WALL (       1 calls)
     potinit      :      0.01s CPU      0.01s WALL (       1 calls)
     hinit0       :      0.01s CPU      0.03s WALL (       1 calls)

     Called by electrons:
     c_bands      :      4.02s CPU      4.47s WALL (       9 calls)
     sum_band     :      0.60s CPU      0.71s WALL (       9 calls)
     v_of_rho     :      0.04s CPU      0.04s WALL (       9 calls)
     mix_rho      :      0.07s CPU      0.07s WALL (       9 calls)

     Called by c_bands:
     init_us_2    :      0.04s CPU      0.04s WALL (     684 calls)
     init_us_2:cp :      0.03s CPU      0.04s WALL (     684 calls)
     cegterg      :      3.55s CPU      3.70s WALL (     324 calls)

     Called by *egterg:
     cdiaghg      :      0.38s CPU      0.40s WALL (    1360 calls)
     h_psi        :      3.08s CPU      3.23s WALL (    1432 calls)
     g_psi        :      0.02s CPU      0.02s WALL (    1072 calls)

     Called by h_psi:
     h_psi:calbec :      0.05s CPU      0.06s WALL (    1432 calls)
     vloc_psi     :      2.99s CPU      3.13s WALL (    1432 calls)
     add_vuspsi   :      0.03s CPU      0.03s WALL (    1432 calls)

     General routines
     calbec       :      0.05s CPU      0.05s WALL (    1432 calls)
     fft          :      0.02s CPU      0.05s WALL (      90 calls)
     ffts         :      0.00s CPU      0.00s WALL (       9 calls)
     fftw         :      3.23s CPU      3.39s WALL (   35202 calls)
     davcio       :      0.06s CPU      0.35s WALL (    1112 calls)
 
     Parallel routines
 
     PWSCF        :      5.18s CPU      6.85s WALL

 
   This run was terminated on:  11:19:44  19Nov2023            

=------------------------------------------------------------------------------=
   JOB DONE.
=------------------------------------------------------------------------------=
