
     Program PWSCF v.7.1 starts on  9Nov2023 at 19:39:56 

     This program is part of the open-source Quantum ESPRESSO suite
     for quantum simulation of materials; please cite
         "P. Giannozzi et al., J. Phys.:Condens. Matter 21 395502 (2009);
         "P. Giannozzi et al., J. Phys.:Condens. Matter 29 465901 (2017);
         "P. Giannozzi et al., J. Chem. Phys. 152 154105 (2020);
          URL http://www.quantum-espresso.org", 
     in publications or presentations arising from this work. More details at
     http://www.quantum-espresso.org/quote

     Parallel version (MPI), running on    24 processors

     MPI processes distributed on     1 nodes
     123791 MiB available memory on the printing compute node when the environment starts
 
     Reading input from aiida_nscf.in

     Current dimensions of program PWSCF are:
     Max number of different atomic species (ntypx) = 10
     Max number of k-points (npk) =  40000
     Max angular momentum in pseudopotentials (lmaxx) =  4

     Atomic positions and unit cell read from directory:
     ./out/aiida.save/
     Atomic positions from file used, from input discarded
 
     Message from routine setup:
     using ibrav=0 with symmetry is DISCOURAGED, use correct ibrav instead
 
     R & G space division:  proc/nbgrp/npool/nimage =      24
     Subspace diagonalization in iterative solution of the eigenvalue problem:
     one sub-group per band group will be used
     scalapack distributed-memory algorithm (size of sub-group:  4*  4 procs)

 
     Parallelization info
     --------------------
     sticks:   dense  smooth     PW     G-vecs:    dense   smooth      PW
     Min          24      24      6                 1454     1454     225
     Max          25      25      8                 1469     1469     241
     Sum         583     583    169                35075    35075    5677
 
     Using Slab Decomposition
 


     bravais-lattice index     =            0
     lattice parameter (alat)  =       4.7478  a.u.
     unit-cell volume          =     284.3249 (a.u.)^3
     number of atoms/cell      =            4
     number of atomic types    =            2
     number of electrons       =        16.00
     number of Kohn-Sham states=         1000
     kinetic-energy cutoff     =      94.0000  Ry
     charge density cutoff     =     376.0000  Ry
     Exchange-correlation= PBE
                           (   1   4   3   4   0   0   0)

     celldm(1)=   4.747801  celldm(2)=   0.000000  celldm(3)=   0.000000
     celldm(4)=   0.000000  celldm(5)=   0.000000  celldm(6)=   0.000000

     crystal axes: (cart. coord. in units of alat)
               a(1) = (   1.000000   0.000000   0.000000 )  
               a(2) = (  -0.500000   0.866025   0.000000 )  
               a(3) = (   0.000000   0.000000   3.067656 )  

     reciprocal axes: (cart. coord. in units 2 pi/alat)
               b(1) = (  1.000000  0.577350  0.000000 )  
               b(2) = (  0.000000  1.154701  0.000000 )  
               b(3) = (  0.000000  0.000000  0.325982 )  


     PseudoPot. # 1 for B  read from file:
     /usr/scratch4/magr4985/MG/HTDF/pseudo/SG15/B.upf
     MD5 check sum: eb3cbeacc2d324d57d903df00f564d27
     Pseudo is Norm-conserving, Zval =  3.0
     Generated using ONCVPSP code by D. R. Hamann
     Using radial grid of  602 points,  4 beta functions with: 
                l(1) =   0
                l(2) =   0
                l(3) =   1
                l(4) =   1

     PseudoPot. # 2 for N  read from file:
     /usr/scratch4/magr4985/MG/HTDF/pseudo/SG15/N.upf
     MD5 check sum: c233fa8df51455e992258b7c3dee8a9f
     Pseudo is Norm-conserving, Zval =  5.0
     Generated using ONCVPSP code by D. R. Hamann
     Using radial grid of  602 points,  4 beta functions with: 
                l(1) =   0
                l(2) =   0
                l(3) =   1
                l(4) =   1

     atomic species   valence    mass     pseudopotential
        B              3.00    10.81000     B ( 1.00)
        N              5.00    14.00700     N ( 1.00)

     12 Sym. Ops., with inversion, found


                                    s                        frac. trans.

      isym =  1     identity                                     

 cryst.   s( 1) = (     1          0          0      )
                  (     0          1          0      )
                  (     0          0          1      )

 cart.    s( 1) = (  1.0000000  0.0000000  0.0000000 )
                  (  0.0000000  1.0000000  0.0000000 )
                  (  0.0000000  0.0000000  1.0000000 )


      isym =  2     180 deg rotation - cart. axis [1,0,0]        

 cryst.   s( 2) = (     1          0          0      )
                  (    -1         -1          0      )
                  (     0          0         -1      )

 cart.    s( 2) = (  1.0000000 -0.0000000  0.0000000 )
                  (  0.0000000 -1.0000000  0.0000000 )
                  (  0.0000000  0.0000000 -1.0000000 )


      isym =  3     120 deg rotation - cryst. axis [0,0,1]       

 cryst.   s( 3) = (     0          1          0      )
                  (    -1         -1          0      )
                  (     0          0          1      )

 cart.    s( 3) = ( -0.5000000 -0.8660254  0.0000000 )
                  (  0.8660254 -0.5000000  0.0000000 )
                  (  0.0000000  0.0000000  1.0000000 )


      isym =  4     120 deg rotation - cryst. axis [0,0,-1]      

 cryst.   s( 4) = (    -1         -1          0      )
                  (     1          0          0      )
                  (     0          0          1      )

 cart.    s( 4) = ( -0.5000000  0.8660254  0.0000000 )
                  ( -0.8660254 -0.5000000  0.0000000 )
                  (  0.0000000  0.0000000  1.0000000 )


      isym =  5     180 deg rotation - cryst. axis [0,1,0]       

 cryst.   s( 5) = (    -1         -1          0      )
                  (     0          1          0      )
                  (     0          0         -1      )

 cart.    s( 5) = ( -0.5000000 -0.8660254  0.0000000 )
                  ( -0.8660254  0.5000000  0.0000000 )
                  (  0.0000000  0.0000000 -1.0000000 )


      isym =  6     180 deg rotation - cryst. axis [1,1,0]       

 cryst.   s( 6) = (     0          1          0      )
                  (     1          0          0      )
                  (     0          0         -1      )

 cart.    s( 6) = ( -0.5000000  0.8660254  0.0000000 )
                  (  0.8660254  0.5000000  0.0000000 )
                  (  0.0000000  0.0000000 -1.0000000 )


      isym =  7     inversion                                    

 cryst.   s( 7) = (    -1          0          0      )
                  (     0         -1          0      )
                  (     0          0         -1      )

 cart.    s( 7) = ( -1.0000000  0.0000000  0.0000000 )
                  (  0.0000000 -1.0000000  0.0000000 )
                  (  0.0000000  0.0000000 -1.0000000 )


      isym =  8     inv. 180 deg rotation - cart. axis [1,0,0]   

 cryst.   s( 8) = (    -1          0          0      )
                  (     1          1          0      )
                  (     0          0          1      )

 cart.    s( 8) = ( -1.0000000  0.0000000  0.0000000 )
                  (  0.0000000  1.0000000  0.0000000 )
                  (  0.0000000  0.0000000  1.0000000 )


      isym =  9     inv. 120 deg rotation - cryst. axis [0,0,1]  

 cryst.   s( 9) = (     0         -1          0      )
                  (     1          1          0      )
                  (     0          0         -1      )

 cart.    s( 9) = (  0.5000000  0.8660254  0.0000000 )
                  ( -0.8660254  0.5000000  0.0000000 )
                  (  0.0000000  0.0000000 -1.0000000 )


      isym = 10     inv. 120 deg rotation - cryst. axis [0,0,-1] 

 cryst.   s(10) = (     1          1          0      )
                  (    -1          0          0      )
                  (     0          0         -1      )

 cart.    s(10) = (  0.5000000 -0.8660254  0.0000000 )
                  (  0.8660254  0.5000000  0.0000000 )
                  (  0.0000000  0.0000000 -1.0000000 )


      isym = 11     inv. 180 deg rotation - cryst. axis [0,1,0]  

 cryst.   s(11) = (     1          1          0      )
                  (     0         -1          0      )
                  (     0          0          1      )

 cart.    s(11) = (  0.5000000  0.8660254  0.0000000 )
                  (  0.8660254 -0.5000000  0.0000000 )
                  (  0.0000000  0.0000000  1.0000000 )


      isym = 12     inv. 180 deg rotation - cryst. axis [1,1,0]  

 cryst.   s(12) = (     0         -1          0      )
                  (    -1          0          0      )
                  (     0          0          1      )

 cart.    s(12) = (  0.5000000 -0.8660254  0.0000000 )
                  ( -0.8660254 -0.5000000  0.0000000 )
                  (  0.0000000  0.0000000  1.0000000 )


   Cartesian axes

     site n.     atom                  positions (alat units)
         1           B   tau(   1) = (   0.5000000   0.2886751   2.3007418  )
         2           B   tau(   2) = (  -0.0000000   0.5773503   0.7669139  )
         3           N   tau(   3) = (   0.5000000   0.2886751   0.7669139  )
         4           N   tau(   4) = (  -0.0000000   0.5773503   2.3007418  )

   Crystallographic axes

     site n.     atom                  positions (cryst. coord.)
         1           B   tau(   1) = (  0.6666667  0.3333333  0.7500000  )
         2           B   tau(   2) = (  0.3333333  0.6666667  0.2500000  )
         3           N   tau(   3) = (  0.6666667  0.3333333  0.2500000  )
         4           N   tau(   4) = (  0.3333333  0.6666667  0.7500000  )

     number of k points=    69
                       cart. coord. in units 2pi/alat
        k(    1) = (   0.0000000   0.0000000   0.0000000), wk =   0.0034722
        k(    2) = (   0.0000000   0.0000000   0.0814955), wk =   0.0069444
        k(    3) = (   0.0000000   0.0000000  -0.1629909), wk =   0.0034722
        k(    4) = (   0.0000000   0.0962250   0.0000000), wk =   0.0208333
        k(    5) = (   0.0000000   0.0962250   0.0814955), wk =   0.0208333
        k(    6) = (   0.0000000   0.0962250  -0.1629909), wk =   0.0208333
        k(    7) = (   0.0000000   0.1924501   0.0000000), wk =   0.0208333
        k(    8) = (   0.0000000   0.1924501   0.0814955), wk =   0.0208333
        k(    9) = (   0.0000000   0.1924501  -0.1629909), wk =   0.0208333
        k(   10) = (   0.0000000   0.2886751   0.0000000), wk =   0.0208333
        k(   11) = (   0.0000000   0.2886751   0.0814955), wk =   0.0208333
        k(   12) = (   0.0000000   0.2886751  -0.1629909), wk =   0.0208333
        k(   13) = (   0.0000000   0.3849002   0.0000000), wk =   0.0208333
        k(   14) = (   0.0000000   0.3849002   0.0814955), wk =   0.0208333
        k(   15) = (   0.0000000   0.3849002  -0.1629909), wk =   0.0208333
        k(   16) = (   0.0000000   0.4811252   0.0000000), wk =   0.0208333
        k(   17) = (   0.0000000   0.4811252   0.0814955), wk =   0.0208333
        k(   18) = (   0.0000000   0.4811252  -0.1629909), wk =   0.0208333
        k(   19) = (   0.0000000  -0.5773503   0.0000000), wk =   0.0104167
        k(   20) = (   0.0000000  -0.5773503   0.0814955), wk =   0.0208333
        k(   21) = (   0.0000000  -0.5773503  -0.1629909), wk =   0.0104167
        k(   22) = (   0.0833333   0.1443376   0.0000000), wk =   0.0208333
        k(   23) = (   0.0833333   0.1443376   0.0814955), wk =   0.0416667
        k(   24) = (   0.0833333   0.1443376  -0.1629909), wk =   0.0208333
        k(   25) = (   0.0833333   0.2405626   0.0000000), wk =   0.0416667
        k(   26) = (   0.0833333   0.2405626   0.0814955), wk =   0.0416667
        k(   27) = (   0.0833333   0.2405626  -0.1629909), wk =   0.0416667
        k(   28) = (   0.0833333   0.3367877   0.0000000), wk =   0.0416667
        k(   29) = (   0.0833333   0.3367877   0.0814955), wk =   0.0416667
        k(   30) = (   0.0833333   0.3367877  -0.1629909), wk =   0.0416667
        k(   31) = (   0.0833333   0.4330127   0.0000000), wk =   0.0416667
        k(   32) = (   0.0833333   0.4330127   0.0814955), wk =   0.0416667
        k(   33) = (   0.0833333   0.4330127  -0.1629909), wk =   0.0416667
        k(   34) = (   0.0833333   0.5292377   0.0000000), wk =   0.0416667
        k(   35) = (   0.0833333   0.5292377   0.0814955), wk =   0.0416667
        k(   36) = (   0.0833333   0.5292377  -0.1629909), wk =   0.0416667
        k(   37) = (   0.1666667   0.2886751   0.0000000), wk =   0.0208333
        k(   38) = (   0.1666667   0.2886751   0.0814955), wk =   0.0416667
        k(   39) = (   0.1666667   0.2886751  -0.1629909), wk =   0.0208333
        k(   40) = (   0.1666667   0.3849002   0.0000000), wk =   0.0416667
        k(   41) = (   0.1666667   0.3849002   0.0814955), wk =   0.0416667
        k(   42) = (   0.1666667   0.3849002  -0.1629909), wk =   0.0416667
        k(   43) = (   0.1666667   0.4811252   0.0000000), wk =   0.0416667
        k(   44) = (   0.1666667   0.4811252   0.0814955), wk =   0.0416667
        k(   45) = (   0.1666667   0.4811252  -0.1629909), wk =   0.0416667
        k(   46) = (   0.1666667   0.5773503   0.0000000), wk =   0.0208333
        k(   47) = (   0.1666667   0.5773503   0.0814955), wk =   0.0416667
        k(   48) = (   0.1666667   0.5773503  -0.1629909), wk =   0.0208333
        k(   49) = (   0.2500000   0.4330127   0.0000000), wk =   0.0208333
        k(   50) = (   0.2500000   0.4330127   0.0814955), wk =   0.0416667
        k(   51) = (   0.2500000   0.4330127  -0.1629909), wk =   0.0208333
        k(   52) = (   0.2500000   0.5292377   0.0000000), wk =   0.0416667
        k(   53) = (   0.2500000   0.5292377   0.0814955), wk =   0.0416667
        k(   54) = (   0.2500000   0.5292377  -0.1629909), wk =   0.0416667
        k(   55) = (   0.3333333   0.5773503   0.0000000), wk =   0.0069444
        k(   56) = (   0.3333333   0.5773503   0.0814955), wk =   0.0138889
        k(   57) = (   0.3333333   0.5773503  -0.1629909), wk =   0.0069444
        k(   58) = (   0.0000000   0.0962250  -0.0814955), wk =   0.0208333
        k(   59) = (   0.0000000   0.1924501  -0.0814955), wk =   0.0208333
        k(   60) = (   0.0000000   0.2886751  -0.0814955), wk =   0.0208333
        k(   61) = (   0.0000000   0.3849002  -0.0814955), wk =   0.0208333
        k(   62) = (   0.0000000   0.4811252  -0.0814955), wk =   0.0208333
        k(   63) = (  -0.0833333   0.2405626  -0.0814955), wk =   0.0416667
        k(   64) = (  -0.0833333   0.3367877  -0.0814955), wk =   0.0416667
        k(   65) = (  -0.0833333   0.4330127  -0.0814955), wk =   0.0416667
        k(   66) = (  -0.0833333   0.5292377  -0.0814955), wk =   0.0416667
        k(   67) = (  -0.1666667   0.3849002  -0.0814955), wk =   0.0416667
        k(   68) = (  -0.1666667   0.4811252  -0.0814955), wk =   0.0416667
        k(   69) = (  -0.2500000   0.5292377  -0.0814955), wk =   0.0416667

                       cryst. coord.
        k(    1) = (   0.0000000   0.0000000   0.0000000), wk =   0.0034722
        k(    2) = (   0.0000000   0.0000000   0.2500000), wk =   0.0069444
        k(    3) = (   0.0000000   0.0000000  -0.5000000), wk =   0.0034722
        k(    4) = (   0.0000000   0.0833333   0.0000000), wk =   0.0208333
        k(    5) = (   0.0000000   0.0833333   0.2500000), wk =   0.0208333
        k(    6) = (   0.0000000   0.0833333  -0.5000000), wk =   0.0208333
        k(    7) = (   0.0000000   0.1666667   0.0000000), wk =   0.0208333
        k(    8) = (   0.0000000   0.1666667   0.2500000), wk =   0.0208333
        k(    9) = (   0.0000000   0.1666667  -0.5000000), wk =   0.0208333
        k(   10) = (   0.0000000   0.2500000   0.0000000), wk =   0.0208333
        k(   11) = (   0.0000000   0.2500000   0.2500000), wk =   0.0208333
        k(   12) = (   0.0000000   0.2500000  -0.5000000), wk =   0.0208333
        k(   13) = (   0.0000000   0.3333333   0.0000000), wk =   0.0208333
        k(   14) = (   0.0000000   0.3333333   0.2500000), wk =   0.0208333
        k(   15) = (   0.0000000   0.3333333  -0.5000000), wk =   0.0208333
        k(   16) = (   0.0000000   0.4166667   0.0000000), wk =   0.0208333
        k(   17) = (   0.0000000   0.4166667   0.2500000), wk =   0.0208333
        k(   18) = (   0.0000000   0.4166667  -0.5000000), wk =   0.0208333
        k(   19) = (   0.0000000  -0.5000000   0.0000000), wk =   0.0104167
        k(   20) = (   0.0000000  -0.5000000   0.2500000), wk =   0.0208333
        k(   21) = (   0.0000000  -0.5000000  -0.5000000), wk =   0.0104167
        k(   22) = (   0.0833333   0.0833333   0.0000000), wk =   0.0208333
        k(   23) = (   0.0833333   0.0833333   0.2500000), wk =   0.0416667
        k(   24) = (   0.0833333   0.0833333  -0.5000000), wk =   0.0208333
        k(   25) = (   0.0833333   0.1666667   0.0000000), wk =   0.0416667
        k(   26) = (   0.0833333   0.1666667   0.2500000), wk =   0.0416667
        k(   27) = (   0.0833333   0.1666667  -0.5000000), wk =   0.0416667
        k(   28) = (   0.0833333   0.2500000   0.0000000), wk =   0.0416667
        k(   29) = (   0.0833333   0.2500000   0.2500000), wk =   0.0416667
        k(   30) = (   0.0833333   0.2500000  -0.5000000), wk =   0.0416667
        k(   31) = (   0.0833333   0.3333333   0.0000000), wk =   0.0416667
        k(   32) = (   0.0833333   0.3333333   0.2500000), wk =   0.0416667
        k(   33) = (   0.0833333   0.3333333  -0.5000000), wk =   0.0416667
        k(   34) = (   0.0833333   0.4166667   0.0000000), wk =   0.0416667
        k(   35) = (   0.0833333   0.4166667   0.2500000), wk =   0.0416667
        k(   36) = (   0.0833333   0.4166667  -0.5000000), wk =   0.0416667
        k(   37) = (   0.1666667   0.1666667   0.0000000), wk =   0.0208333
        k(   38) = (   0.1666667   0.1666667   0.2500000), wk =   0.0416667
        k(   39) = (   0.1666667   0.1666667  -0.5000000), wk =   0.0208333
        k(   40) = (   0.1666667   0.2500000   0.0000000), wk =   0.0416667
        k(   41) = (   0.1666667   0.2500000   0.2500000), wk =   0.0416667
        k(   42) = (   0.1666667   0.2500000  -0.5000000), wk =   0.0416667
        k(   43) = (   0.1666667   0.3333333   0.0000000), wk =   0.0416667
        k(   44) = (   0.1666667   0.3333333   0.2500000), wk =   0.0416667
        k(   45) = (   0.1666667   0.3333333  -0.5000000), wk =   0.0416667
        k(   46) = (   0.1666667   0.4166667   0.0000000), wk =   0.0208333
        k(   47) = (   0.1666667   0.4166667   0.2500000), wk =   0.0416667
        k(   48) = (   0.1666667   0.4166667  -0.5000000), wk =   0.0208333
        k(   49) = (   0.2500000   0.2500000   0.0000000), wk =   0.0208333
        k(   50) = (   0.2500000   0.2500000   0.2500000), wk =   0.0416667
        k(   51) = (   0.2500000   0.2500000  -0.5000000), wk =   0.0208333
        k(   52) = (   0.2500000   0.3333333   0.0000000), wk =   0.0416667
        k(   53) = (   0.2500000   0.3333333   0.2500000), wk =   0.0416667
        k(   54) = (   0.2500000   0.3333333  -0.5000000), wk =   0.0416667
        k(   55) = (   0.3333333   0.3333333   0.0000000), wk =   0.0069444
        k(   56) = (   0.3333333   0.3333333   0.2500000), wk =   0.0138889
        k(   57) = (   0.3333333   0.3333333  -0.5000000), wk =   0.0069444
        k(   58) = (   0.0000000   0.0833333  -0.2500000), wk =   0.0208333
        k(   59) = (   0.0000000   0.1666667  -0.2500000), wk =   0.0208333
        k(   60) = (   0.0000000   0.2500000  -0.2500000), wk =   0.0208333
        k(   61) = (   0.0000000   0.3333333  -0.2500000), wk =   0.0208333
        k(   62) = (   0.0000000   0.4166667  -0.2500000), wk =   0.0208333
        k(   63) = (  -0.0833333   0.2500000  -0.2500000), wk =   0.0416667
        k(   64) = (  -0.0833333   0.3333333  -0.2500000), wk =   0.0416667
        k(   65) = (  -0.0833333   0.4166667  -0.2500000), wk =   0.0416667
        k(   66) = (  -0.0833333   0.5000000  -0.2500000), wk =   0.0416667
        k(   67) = (  -0.1666667   0.4166667  -0.2500000), wk =   0.0416667
        k(   68) = (  -0.1666667   0.5000000  -0.2500000), wk =   0.0416667
        k(   69) = (  -0.2500000   0.5833333  -0.2500000), wk =   0.0416667

     Dense  grid:    35075 G-vectors     FFT dimensions: (  30,  30,  90)

     Dynamical RAM for                 wfc:       2.78 MB

     Dynamical RAM for     wfc (w. buffer):       2.78 MB

     Dynamical RAM for           str. fact:       0.04 MB

     Dynamical RAM for           local pot:       0.00 MB

     Dynamical RAM for          nlocal pot:       0.09 MB

     Dynamical RAM for                qrad:       0.89 MB

     Dynamical RAM for          rho,v,vnew:       0.15 MB

     Dynamical RAM for           G-vectors:       0.09 MB

     Dynamical RAM for          h,s,v(r/c):      11.44 MB

     Dynamical RAM for          <psi|beta>:       0.49 MB

     Dynamical RAM for                 psi:       5.55 MB

     Dynamical RAM for                hpsi:       5.55 MB

     Dynamical RAM for      wfcinit/wfcrot:      28.45 MB

     Estimated static dynamical RAM per process >       4.25 MB

     Estimated max dynamical RAM per process >      32.70 MB

     Estimated total dynamical RAM >     784.74 MB

     The potential is recalculated from file :
     ./out/aiida.save/charge-density

     Starting wfcs are random

     Band Structure Calculation
     Davidson diagonalization with overlap

     Computing kpt #:     1  of    69
     total cpu time spent up to now is       35.0 secs

     Computing kpt #:     2  of    69
     total cpu time spent up to now is       68.0 secs

     Computing kpt #:     3  of    69
     total cpu time spent up to now is       99.0 secs

     Computing kpt #:     4  of    69
     total cpu time spent up to now is      127.1 secs

     Computing kpt #:     5  of    69
     total cpu time spent up to now is      156.3 secs

     Computing kpt #:     6  of    69
     total cpu time spent up to now is      183.7 secs

     Computing kpt #:     7  of    69
     total cpu time spent up to now is      212.6 secs

     Computing kpt #:     8  of    69
     total cpu time spent up to now is      240.4 secs

     Computing kpt #:     9  of    69
     total cpu time spent up to now is      269.3 secs

     Computing kpt #:    10  of    69
     total cpu time spent up to now is      296.6 secs

     Computing kpt #:    11  of    69
     total cpu time spent up to now is      325.7 secs

     Computing kpt #:    12  of    69
     total cpu time spent up to now is      354.4 secs

     Computing kpt #:    13  of    69
     total cpu time spent up to now is      382.7 secs

     Computing kpt #:    14  of    69
     total cpu time spent up to now is      410.5 secs

     Computing kpt #:    15  of    69
     total cpu time spent up to now is      438.8 secs

     Computing kpt #:    16  of    69
     total cpu time spent up to now is      467.6 secs

     Computing kpt #:    17  of    69
     total cpu time spent up to now is      496.9 secs

     Computing kpt #:    18  of    69
     total cpu time spent up to now is      525.7 secs

     Computing kpt #:    19  of    69
     total cpu time spent up to now is      552.6 secs

     Computing kpt #:    20  of    69
     total cpu time spent up to now is      581.0 secs

     Computing kpt #:    21  of    69
     total cpu time spent up to now is      611.4 secs

     Computing kpt #:    22  of    69
     total cpu time spent up to now is      638.8 secs

     Computing kpt #:    23  of    69
     total cpu time spent up to now is      666.0 secs

     Computing kpt #:    24  of    69
     total cpu time spent up to now is      695.1 secs

     Computing kpt #:    25  of    69
     total cpu time spent up to now is      724.0 secs

     Computing kpt #:    26  of    69
     total cpu time spent up to now is      753.1 secs

     Computing kpt #:    27  of    69
     total cpu time spent up to now is      781.9 secs

     Computing kpt #:    28  of    69
     total cpu time spent up to now is      811.1 secs

     Computing kpt #:    29  of    69
     total cpu time spent up to now is      838.6 secs

     Computing kpt #:    30  of    69
     total cpu time spent up to now is      867.3 secs

     Computing kpt #:    31  of    69
     total cpu time spent up to now is      894.7 secs

     Computing kpt #:    32  of    69
     total cpu time spent up to now is      923.5 secs

     Computing kpt #:    33  of    69
     total cpu time spent up to now is      950.9 secs

     Computing kpt #:    34  of    69
     total cpu time spent up to now is      979.6 secs

     Computing kpt #:    35  of    69
     total cpu time spent up to now is     1008.4 secs

     Computing kpt #:    36  of    69
     total cpu time spent up to now is     1037.5 secs

     Computing kpt #:    37  of    69
     total cpu time spent up to now is     1065.8 secs

     Computing kpt #:    38  of    69
     total cpu time spent up to now is     1093.0 secs

     Computing kpt #:    39  of    69
     total cpu time spent up to now is     1120.5 secs

     Computing kpt #:    40  of    69
     total cpu time spent up to now is     1149.3 secs

     Computing kpt #:    41  of    69
     total cpu time spent up to now is     1176.6 secs

     Computing kpt #:    42  of    69
     total cpu time spent up to now is     1205.3 secs

     Computing kpt #:    43  of    69
     total cpu time spent up to now is     1234.3 secs

     Computing kpt #:    44  of    69
     total cpu time spent up to now is     1263.1 secs

     Computing kpt #:    45  of    69
     total cpu time spent up to now is     1291.7 secs

     Computing kpt #:    46  of    69
     total cpu time spent up to now is     1320.3 secs

     Computing kpt #:    47  of    69
     total cpu time spent up to now is     1347.6 secs

     Computing kpt #:    48  of    69
     total cpu time spent up to now is     1375.1 secs

     Computing kpt #:    49  of    69
     total cpu time spent up to now is     1403.3 secs

     Computing kpt #:    50  of    69
     total cpu time spent up to now is     1432.0 secs

     Computing kpt #:    51  of    69
     total cpu time spent up to now is     1459.3 secs

     Computing kpt #:    52  of    69
     total cpu time spent up to now is     1486.4 secs

     Computing kpt #:    53  of    69
     total cpu time spent up to now is     1515.4 secs

     Computing kpt #:    54  of    69
     total cpu time spent up to now is     1544.0 secs

     Computing kpt #:    55  of    69
     total cpu time spent up to now is     1572.4 secs

     Computing kpt #:    56  of    69
     total cpu time spent up to now is     1600.8 secs

     Computing kpt #:    57  of    69
     total cpu time spent up to now is     1628.3 secs

     Computing kpt #:    58  of    69
     total cpu time spent up to now is     1657.1 secs

     Computing kpt #:    59  of    69
     total cpu time spent up to now is     1684.9 secs

     Computing kpt #:    60  of    69
     total cpu time spent up to now is     1714.0 secs

     Computing kpt #:    61  of    69
     total cpu time spent up to now is     1742.9 secs

     Computing kpt #:    62  of    69
     total cpu time spent up to now is     1772.1 secs

     Computing kpt #:    63  of    69
     total cpu time spent up to now is     1801.6 secs

     Computing kpt #:    64  of    69
     total cpu time spent up to now is     1829.1 secs

     Computing kpt #:    65  of    69
     total cpu time spent up to now is     1857.7 secs

     Computing kpt #:    66  of    69
     total cpu time spent up to now is     1886.2 secs

     Computing kpt #:    67  of    69
     total cpu time spent up to now is     1913.2 secs

     Computing kpt #:    68  of    69
     total cpu time spent up to now is     1940.5 secs

     Computing kpt #:    69  of    69
     total cpu time spent up to now is     1969.0 secs

     ethr =  5.00E-06,  avg # of iterations =  9.7

     total cpu time spent up to now is     1969.0 secs

     End of band structure calculation

          k = 0.0000 0.0000 0.0000 (  4395 PWs)   bands (ev):

   -14.3899 -14.3039  -2.4315  -1.4653   1.8399   1.8399   1.8473   1.8473
     7.8587  11.7843  14.1997  14.7241  14.7241  14.7573  14.7573  15.8004
    17.1694  17.9291  21.0648  26.7667  28.4195  28.8635  32.1981  32.1981
    34.3226  34.3226  34.4717  34.8505  34.8505  36.1108  38.0958  38.0958
    38.1046  38.1046  38.9676  38.9676  40.4173  40.6209  41.3360  42.5836
    43.9524  45.6498  45.6498  45.7040  45.7040  48.3155  48.3155  51.1325
    51.1366  51.1366  53.1813  53.1813  53.6456  53.7888  57.2322  57.2322
    57.2604  57.8910  60.8292  63.2207  63.2207  64.8288  64.8288  67.3739
    68.0154  68.0154  70.1502  70.1502  70.6355  73.4878  76.8739  76.8739
    77.3884  77.3884  79.9600  80.8275  82.5299  82.8888  82.8944  82.8944
    83.0009  86.7445  87.1677  87.1677  87.2204  89.8494  89.8494  90.7905
    90.7905  92.9341  92.9341  93.2238  93.4753  95.9078  96.2200  96.2200
    96.4812  97.0658  97.0658  97.1876  97.1876  97.3722  97.3722  97.8658
    98.3705  99.9417  99.9417 100.9079 100.9079 100.9771 103.4575 103.4575
   103.8655 106.1750 106.1750 106.2399 107.0020 109.2689 110.9332 110.9332
   111.1883 111.1883 111.7788 113.2969 113.2969 113.4770 113.4770 113.9349
   114.2167 114.2167 114.3066 114.3102 114.3718 114.7260 114.7260 115.3122
   115.3122 115.6615 116.1208 117.2885 117.2885 118.0127 118.0127 119.4838
   120.2994 122.6774 123.8525 125.8614 126.5301 126.5301 126.6996 126.6996
   128.3337 128.3337 128.6918 128.6918 128.7245 128.8140 129.0496 129.0496
   129.4038 130.2213 130.2213 131.3257 131.3838 132.1392 132.1392 132.2621
   133.1837 133.1837 133.5481 133.5481 133.5704 135.5381 135.5381 135.8916
   137.4278 137.8733 138.4407 138.5738 138.5738 141.0027 141.0027 143.3116
   143.3116 143.8832 143.8832 144.1835 144.9052 145.9722 146.6142 146.9113
   146.9113 147.6795 147.6795 147.9513 147.9513 148.6647 148.6647 149.3704
   152.9938 153.1171 153.1171 153.3208 153.3208 153.6726 153.6726 153.8433
   153.9794 154.2706 154.2706 154.3902 154.4032 154.8372 154.8372 154.9956
   157.4631 159.9729 159.9729 160.0276 160.4612 160.4612 161.0365 161.3602
   161.3602 163.8845 166.4230 168.9416 168.9416 170.2828 170.7828 173.9387
   173.9387 176.1391 176.1391 177.2656 177.2656 178.3558 180.3336 180.3336
   180.7196 180.7196 181.6240 181.6251 181.7717 182.1305 183.0556 183.0556
   183.1782 183.1782 183.9758 183.9758 184.5915 185.6121 185.7436 185.7436
   186.7847 186.7847 187.2043 188.4068 188.4068 189.9399 189.9399 190.1290
   190.1290 190.1698 190.2128 190.2128 191.0212 191.0919 193.1883 193.1884
   197.6939 201.0411 201.0960 202.6129 202.6129 203.3113 203.3113 203.8690
   206.4238 206.4410 207.7651 208.4377 209.0535 209.0535 209.3797 210.1995
   210.1995 210.9697 210.9697 210.9754 211.0332 211.0332 211.3060 211.3060
   211.4092 211.4367 211.4367 211.4532 211.4532 211.7497 211.7497 212.3267
   212.3976 213.2664 213.2664 213.6411 213.6411 214.4475 214.6944 217.7504
   221.0877 221.0877 221.2307 221.3819 221.8942 222.1777 222.1777 222.6477
   222.8601 223.2349 223.2349 224.1693 224.1693 224.5581 225.0169 225.1222
   225.1609 225.1609 225.6278 225.6278 225.8061 226.4670 226.4670 227.8549
   227.8549 228.0866 228.0866 228.4042 228.4042 228.6081 228.6081 228.8526
   228.9388 228.9388 229.2740 229.7001 229.9328 229.9328 231.2940 231.2940
   231.5131 231.7098 231.8712 232.6588 232.6588 232.7650 232.7872 232.7872
   233.0270 234.0198 234.0199 234.1159 235.3321 236.2446 236.2446 237.0919
   237.0919 238.1359 238.1359 238.5448 238.5448 238.6074 239.0184 239.8950
   241.2643 241.2643 241.5672 241.5672 241.9220 241.9873 242.0622 242.0622
   242.0959 242.1252 242.1252 242.3845 243.1001 243.7874 243.9355 243.9355
   244.0063 244.0063 244.1493 244.1493 244.7822 244.7822 245.9027 246.7091
   247.5083 248.2163 248.2436 248.2436 249.6698 249.6698 251.0165 251.0165
   251.1705 251.1705 251.3291 252.2712 252.3099 252.3438 253.2313 253.2313
   253.6670 253.6670 254.7351 254.7351 255.6118 255.7227 255.7637 255.7637
   257.0075 257.0075 257.2829 258.1664 258.3334 258.3334 259.0064 259.0064
   259.2322 259.2322 259.5837 259.6055 259.8989 260.5220 263.4472 263.4472
   267.0637 267.0637 267.1934 267.1934 267.3729 267.5887 271.1658 271.8605
   272.2748 272.2748 272.5546 273.8073 273.8073 275.1448 275.1448 275.6246
   275.8531 275.8531 276.6959 276.9728 276.9728 277.1520 277.1520 277.9792
   278.0911 278.5986 279.9819 279.9819 280.1607 280.1607 280.4078 280.4078
   280.4648 280.4648 280.9729 281.2007 281.5365 281.5365 281.6308 281.6308
   281.8398 281.8398 281.9572 282.0962 282.2118 282.5362 282.5362 282.5754
   282.6464 282.6464 282.7428 282.9292 282.9292 283.5131 285.7606 286.1999
   287.4438 287.5890 287.5890 287.7068 287.7068 287.7824 288.9729 289.7650
   289.7650 289.8497 289.8497 289.8963 290.1738 290.1738 291.5392 291.5392
   292.1046 292.1046 293.6944 293.6944 293.7213 294.2619 294.2619 294.3122
   294.3122 295.4516 295.4687 295.4812 295.5181 299.0155 299.2816 299.5137
   299.5137 300.7491 301.4622 301.4622 301.6659 302.6117 302.6117 303.0068
   303.0068 303.1399 303.1907 303.3570 303.3570 303.6724 303.8411 303.8411
   304.2370 304.2370 304.7752 304.7752 305.3576 305.6322 305.6669 305.8626
   306.4681 306.4681 308.1322 308.1322 309.3291 309.3291 309.3408 309.3408
   309.8074 309.8120 309.9514 311.5025 316.5683 316.5683 318.9313 318.9313
   319.1160 320.1470 320.1470 320.2495 320.2720 320.2720 320.3298 320.3298
   320.5497 321.0609 322.3469 322.3469 324.5907 324.6737 324.6737 325.1651
   325.1651 326.4053 326.7262 327.0661 327.5856 328.9408 330.1253 330.1253
   330.7380 331.1230 331.1230 331.1871 331.1871 333.4180 333.4180 333.8831
   333.8831 334.5411 334.5411 334.6648 335.0561 336.3139 336.3139 336.6207
   337.1244 337.1244 337.3136 337.3136 338.2589 338.3627 338.3627 338.3754
   338.4034 339.6399 339.6399 339.9178 339.9178 341.0369 341.0369 341.4723
   341.4988 341.4988 342.2737 342.2737 342.3313 342.3616 342.3616 342.6151
   342.6772 343.0373 343.4810 343.5683 343.5688 343.5688 343.8265 343.8265
   343.9860 343.9860 344.2751 344.4731 344.4731 344.5221 345.5548 348.4726
   348.4726 351.5756 351.9972 351.9972 355.8436 356.8229 358.0118 358.0118
   359.8361 359.8361 359.9993 360.0779 360.8658 360.8658 363.8147 365.1658
   366.4530 368.6012 368.6012 368.7836 368.7836 368.8922 368.8922 369.5375
   369.5375 369.5411 369.5860 369.5860 369.6415 372.0324 372.0324 372.1296
   372.1296 372.8292 372.8292 373.2641 373.9840 374.1437 374.4963 375.2063
   375.2063 376.2715 376.2771 376.8283 376.9449 376.9449 376.9965 376.9965
   377.2632 377.2632 377.5971 377.7377 378.6043 379.6362 379.6362 379.9202
   379.9202 380.2393 380.2393 380.3343 380.3343 380.3391 380.4909 380.6244
   381.0136 381.0136 381.2512 382.3683 382.3683 382.3910 382.3910 382.4048
   382.9862 383.5864 384.5771 384.8311 384.8311 384.8346 384.8346 384.8357
   387.1059 387.1059 387.1684 387.1684 388.6133 388.6133 388.6239 388.7099
   388.7099 388.8295 388.8295 388.9008 390.6482 390.7571 391.4984 391.4984
   391.8286 391.9483 391.9483 392.1266 392.1290 392.1290 392.2440 392.2440
   392.2905 392.2905 393.4710 395.2006 395.2006 395.2974 395.2974 395.3880
   395.8323 395.8323 396.2876 396.5525 396.5843 396.5843 396.6878 397.0858
   397.5447 397.7979 397.7979 398.1044 398.1044 398.1489 398.1489 398.2685
   398.7543 398.7901 399.6710 399.6710 399.7657 400.0526 400.0526 400.7126
   401.5138 401.5176 401.5176 402.1124 402.2143 402.2267 402.2267 402.6529
   402.7615 402.7615 402.8935 402.8935 402.9030 402.9030 402.9832 409.4483
   411.3729 411.3729 412.0617 412.4152 412.4152 413.2580 413.2580 413.5954
   413.5954 413.7933 413.8875 413.8875 413.9270 414.1248 414.1248 414.1338
   414.3238 414.9110 415.0842 415.0842 415.1413 415.1413 415.1534 415.4309
   415.4309 415.5388 415.6508 415.7641 415.7641 415.8073 415.8073 416.7606
   416.7606 417.4825 417.7788 417.7788 417.8053 417.8053 418.1094 418.2609
   418.7554 418.7554 419.0620 419.0620 419.2574 419.2724 419.2724 419.3341
   419.4770 419.9406 420.6033 420.6033 420.9331 421.0141 421.1293 421.1818
   421.4066 421.4066 421.7235 421.7235 421.7445 421.8432 422.0281 422.0281
   422.4978 422.4978 423.1323 423.3218 423.3218 423.3892 423.3892 423.6052
   423.6783 425.0210 426.6258 426.6539 426.6539 426.7357 426.7627 426.7627
   426.9118 426.9118 427.2766 427.2766 427.4351 427.4351 428.4856 428.6668
   428.6668 428.9446 429.3339 429.3339 429.4532 429.4775 429.4775 430.4031
   430.5872 430.5872 430.5878 430.8603 430.8603 430.9663 430.9921 431.0678
   431.0678 431.1899 431.1899 431.2420 431.5782 432.0800 436.5919 436.5919
   436.6227 436.6227 437.5280 438.2027 438.2027 438.2164 438.2823 438.2823
   438.2975 438.2975 438.3068 439.5657 439.9663 439.9663 440.0253 440.0253
   440.3506 440.3506 440.4178 440.6508 441.8978 442.1250 442.1250 442.3654
   443.2265 445.9945 445.9945 446.2883 446.3395 446.3395 446.3823 446.3823
   446.5033 446.6795 447.5136 447.7491 447.8255 448.0031 448.0031 448.0599
   448.0599 448.4320 448.4320 448.5152 448.5152 448.5662 448.5667 448.6794
   450.0091 450.0091 450.5413 450.5413 451.8827 451.9020 451.9020 452.0416
   452.0416 452.7795 453.5064 453.5064 453.5911 453.5911 454.7110 454.8069
   455.3500 455.3500 455.3827 455.3827 456.2064 456.3899 461.1173 461.1173
   461.5696 461.5696 463.7931 464.1572 464.1572 464.6580 464.6580 465.0254
   465.0254 465.1578 465.2047 465.2047 465.2227 465.2309 465.2309 466.0585

     occupation numbers 
     1.0000   1.0000   1.0000   1.0000   1.0000   1.0000   1.0000   1.0000
     0.0000   0.0000   0.0000   0.0000   0.0000   0.0000   0.0000   0.0000
     0.0000   0.0000   0.0000   0.0000   0.0000   0.0000   0.0000   0.0000
     0.0000   0.0000   0.0000   0.0000   0.0000   0.0000   0.0000   0.0000
     0.0000   0.0000   0.0000   0.0000   0.0000   0.0000   0.0000   0.0000
     0.0000   0.0000   0.0000   0.0000   0.0000   0.0000   0.0000   0.0000
     0.0000   0.0000   0.0000   0.0000   0.0000   0.0000   0.0000   0.0000
     0.0000   0.0000   0.0000   0.0000   0.0000   0.0000   0.0000   0.0000
     0.0000   0.0000   0.0000   0.0000   0.0000   0.0000   0.0000   0.0000
     0.0000   0.0000   0.0000   0.0000   0.0000   0.0000   0.0000   0.0000
     0.0000   0.0000   0.0000   0.0000   0.0000   0.0000   0.0000   0.0000
     0.0000   0.0000   0.0000   0.0000   0.0000   0.0000   0.0000   0.0000
     0.0000   0.0000   0.0000   0.0000   0.0000   0.0000   0.0000   0.0000
     0.0000   0.0000   0.0000   0.0000   0.0000   0.0000   0.0000   0.0000
     0.0000   0.0000   0.0000   0.0000   0.0000   0.0000   0.0000   0.0000
     0.0000   0.0000   0.0000   0.0000   0.0000   0.0000   0.0000   0.0000
     0.0000   0.0000   0.0000   0.0000   0.0000   0.0000   0.0000   0.0000
     0.0000   0.0000   0.0000   0.0000   0.0000   0.0000   0.0000   0.0000
     0.0000   0.0000   0.0000   0.0000   0.0000   0.0000   0.0000   0.0000
     0.0000   0.0000   0.0000   0.0000   0.0000   0.0000   0.0000   0.0000
     0.0000   0.0000   0.0000   0.0000   0.0000   0.0000   0.0000   0.0000
     0.0000   0.0000   0.0000   0.0000   0.0000   0.0000   0.0000   0.0000
     0.0000   0.0000   0.0000   0.0000   0.0000   0.0000   0.0000   0.0000
     0.0000   0.0000   0.0000   0.0000   0.0000   0.0000   0.0000   0.0000
     0.0000   0.0000   0.0000   0.0000   0.0000   0.0000   0.0000   0.0000
     0.0000   0.0000   0.0000   0.0000   0.0000   0.0000   0.0000   0.0000
     0.0000   0.0000   0.0000   0.0000   0.0000   0.0000   0.0000   0.0000
     0.0000   0.0000   0.0000   0.0000   0.0000   0.0000   0.0000   0.0000
     0.0000   0.0000   0.0000   0.0000   0.0000   0.0000   0.0000   0.0000
     0.0000   0.0000   0.0000   0.0000   0.0000   0.0000   0.0000   0.0000
     0.0000   0.0000   0.0000   0.0000   0.0000   0.0000   0.0000   0.0000
     0.0000   0.0000   0.0000   0.0000   0.0000   0.0000   0.0000   0.0000
     0.0000   0.0000   0.0000   0.0000   0.0000   0.0000   0.0000   0.0000
     0.0000   0.0000   0.0000   0.0000   0.0000   0.0000   0.0000   0.0000
     0.0000   0.0000   0.0000   0.0000   0.0000   0.0000   0.0000   0.0000
     0.0000   0.0000   0.0000   0.0000   0.0000   0.0000   0.0000   0.0000
     0.0000   0.0000   0.0000   0.0000   0.0000   0.0000   0.0000   0.0000
     0.0000   0.0000   0.0000   0.0000   0.0000   0.0000   0.0000   0.0000
     0.0000   0.0000   0.0000   0.0000   0.0000   0.0000   0.0000   0.0000
     0.0000   0.0000   0.0000   0.0000   0.0000   0.0000   0.0000   0.0000
     0.0000   0.0000   0.0000   0.0000   0.0000   0.0000   0.0000   0.0000
     0.0000   0.0000   0.0000   0.0000   0.0000   0.0000   0.0000   0.0000
     0.0000   0.0000   0.0000   0.0000   0.0000   0.0000   0.0000   0.0000
     0.0000   0.0000   0.0000   0.0000   0.0000   0.0000   0.0000   0.0000
     0.0000   0.0000   0.0000   0.0000   0.0000   0.0000   0.0000   0.0000
     0.0000   0.0000   0.0000   0.0000   0.0000   0.0000   0.0000   0.0000
     0.0000   0.0000   0.0000   0.0000   0.0000   0.0000   0.0000   0.0000
     0.0000   0.0000   0.0000   0.0000   0.0000   0.0000   0.0000   0.0000
     0.0000   0.0000   0.0000   0.0000   0.0000   0.0000   0.0000   0.0000
     0.0000   0.0000   0.0000   0.0000   0.0000   0.0000   0.0000   0.0000
     0.0000   0.0000   0.0000   0.0000   0.0000   0.0000   0.0000   0.0000
     0.0000   0.0000   0.0000   0.0000   0.0000   0.0000   0.0000   0.0000
     0.0000   0.0000   0.0000   0.0000   0.0000   0.0000   0.0000   0.0000
     0.0000   0.0000   0.0000   0.0000   0.0000   0.0000   0.0000   0.0000
     0.0000   0.0000   0.0000   0.0000   0.0000   0.0000   0.0000   0.0000
     0.0000   0.0000   0.0000   0.0000   0.0000   0.0000   0.0000   0.0000
     0.0000   0.0000   0.0000   0.0000   0.0000   0.0000   0.0000   0.0000
     0.0000   0.0000   0.0000   0.0000   0.0000   0.0000   0.0000   0.0000
     0.0000   0.0000   0.0000   0.0000   0.0000   0.0000   0.0000   0.0000
     0.0000   0.0000   0.0000   0.0000   0.0000   0.0000   0.0000   0.0000
     0.0000   0.0000   0.0000   0.0000   0.0000   0.0000   0.0000   0.0000
     0.0000   0.0000   0.0000   0.0000   0.0000   0.0000   0.0000   0.0000
     0.0000   0.0000   0.0000   0.0000   0.0000   0.0000   0.0000   0.0000
     0.0000   0.0000   0.0000   0.0000   0.0000   0.0000   0.0000   0.0000
     0.0000   0.0000   0.0000   0.0000   0.0000   0.0000   0.0000   0.0000
     0.0000   0.0000   0.0000   0.0000   0.0000   0.0000   0.0000   0.0000
     0.0000   0.0000   0.0000   0.0000   0.0000   0.0000   0.0000   0.0000
     0.0000   0.0000   0.0000   0.0000   0.0000   0.0000   0.0000   0.0000
     0.0000   0.0000   0.0000   0.0000   0.0000   0.0000   0.0000   0.0000
     0.0000   0.0000   0.0000   0.0000   0.0000   0.0000   0.0000   0.0000
     0.0000   0.0000   0.0000   0.0000   0.0000   0.0000   0.0000   0.0000
     0.0000   0.0000   0.0000   0.0000   0.0000   0.0000   0.0000   0.0000
     0.0000   0.0000   0.0000   0.0000   0.0000   0.0000   0.0000   0.0000
     0.0000   0.0000   0.0000   0.0000   0.0000   0.0000   0.0000   0.0000
     0.0000   0.0000   0.0000   0.0000   0.0000   0.0000   0.0000   0.0000
     0.0000   0.0000   0.0000   0.0000   0.0000   0.0000   0.0000   0.0000
     0.0000   0.0000   0.0000   0.0000   0.0000   0.0000   0.0000   0.0000
     0.0000   0.0000   0.0000   0.0000   0.0000   0.0000   0.0000   0.0000
     0.0000   0.0000   0.0000   0.0000   0.0000   0.0000   0.0000   0.0000
     0.0000   0.0000   0.0000   0.0000   0.0000   0.0000   0.0000   0.0000
     0.0000   0.0000   0.0000   0.0000   0.0000   0.0000   0.0000   0.0000
     0.0000   0.0000   0.0000   0.0000   0.0000   0.0000   0.0000   0.0000
     0.0000   0.0000   0.0000   0.0000   0.0000   0.0000   0.0000   0.0000
     0.0000   0.0000   0.0000   0.0000   0.0000   0.0000   0.0000   0.0000
     0.0000   0.0000   0.0000   0.0000   0.0000   0.0000   0.0000   0.0000
     0.0000   0.0000   0.0000   0.0000   0.0000   0.0000   0.0000   0.0000
     0.0000   0.0000   0.0000   0.0000   0.0000   0.0000   0.0000   0.0000
     0.0000   0.0000   0.0000   0.0000   0.0000   0.0000   0.0000   0.0000
     0.0000   0.0000   0.0000   0.0000   0.0000   0.0000   0.0000   0.0000
     0.0000   0.0000   0.0000   0.0000   0.0000   0.0000   0.0000   0.0000
     0.0000   0.0000   0.0000   0.0000   0.0000   0.0000   0.0000   0.0000
     0.0000   0.0000   0.0000   0.0000   0.0000   0.0000   0.0000   0.0000
     0.0000   0.0000   0.0000   0.0000   0.0000   0.0000   0.0000   0.0000
     0.0000   0.0000   0.0000   0.0000   0.0000   0.0000   0.0000   0.0000
     0.0000   0.0000   0.0000   0.0000   0.0000   0.0000   0.0000   0.0000
     0.0000   0.0000   0.0000   0.0000   0.0000   0.0000   0.0000   0.0000
     0.0000   0.0000   0.0000   0.0000   0.0000   0.0000   0.0000   0.0000
     0.0000   0.0000   0.0000   0.0000   0.0000   0.0000   0.0000   0.0000
     0.0000   0.0000   0.0000   0.0000   0.0000   0.0000   0.0000   0.0000
     0.0000   0.0000   0.0000   0.0000   0.0000   0.0000   0.0000   0.0000
     0.0000   0.0000   0.0000   0.0000   0.0000   0.0000   0.0000   0.0000
     0.0000   0.0000   0.0000   0.0000   0.0000   0.0000   0.0000   0.0000
     0.0000   0.0000   0.0000   0.0000   0.0000   0.0000   0.0000   0.0000
     0.0000   0.0000   0.0000   0.0000   0.0000   0.0000   0.0000   0.0000
     0.0000   0.0000   0.0000   0.0000   0.0000   0.0000   0.0000   0.0000
     0.0000   0.0000   0.0000   0.0000   0.0000   0.0000   0.0000   0.0000
     0.0000   0.0000   0.0000   0.0000   0.0000   0.0000   0.0000   0.0000
     0.0000   0.0000   0.0000   0.0000   0.0000   0.0000   0.0000   0.0000
     0.0000   0.0000   0.0000   0.0000   0.0000   0.0000   0.0000   0.0000
     0.0000   0.0000   0.0000   0.0000   0.0000   0.0000   0.0000   0.0000
     0.0000   0.0000   0.0000   0.0000   0.0000   0.0000   0.0000   0.0000
     0.0000   0.0000   0.0000   0.0000   0.0000   0.0000   0.0000   0.0000
     0.0000   0.0000   0.0000   0.0000   0.0000   0.0000   0.0000   0.0000
     0.0000   0.0000   0.0000   0.0000   0.0000   0.0000   0.0000   0.0000
     0.0000   0.0000   0.0000   0.0000   0.0000   0.0000   0.0000   0.0000
     0.0000   0.0000   0.0000   0.0000   0.0000   0.0000   0.0000   0.0000
     0.0000   0.0000   0.0000   0.0000   0.0000   0.0000   0.0000   0.0000
     0.0000   0.0000   0.0000   0.0000   0.0000   0.0000   0.0000   0.0000
     0.0000   0.0000   0.0000   0.0000   0.0000   0.0000   0.0000   0.0000
     0.0000   0.0000   0.0000   0.0000   0.0000   0.0000   0.0000   0.0000
     0.0000   0.0000   0.0000   0.0000   0.0000   0.0000   0.0000   0.0000
     0.0000   0.0000   0.0000   0.0000   0.0000   0.0000   0.0000   0.0000
     0.0000   0.0000   0.0000   0.0000   0.0000   0.0000   0.0000   0.0000
     0.0000   0.0000   0.0000   0.0000   0.0000   0.0000   0.0000   0.0000
     0.0000   0.0000   0.0000   0.0000   0.0000   0.0000   0.0000   0.0000

          k = 0.0000 0.0000 0.0815 (  4437 PWs)   bands (ev):

   -14.3775 -14.3167  -2.3065  -1.6269   1.8410   1.8410   1.8462   1.8462
     8.2996  10.9106  14.7101  14.7289  14.7289  14.7524  14.7524  15.6830
    17.2496  17.7509  21.8629  25.7476  28.5553  28.8181  32.4019  32.4019
    33.8108  33.8108  34.7484  35.0865  35.0865  36.0837  36.9244  36.9244
    39.0112  39.0112  40.1931  40.4219  40.4219  40.6866  41.2652  43.1579
    43.7589  43.7589  44.4125  44.7186  44.7186  50.3350  50.3350  51.4832
    51.5441  51.5441  52.1422  53.3927  53.3978  53.3978  55.1053  57.5760
    57.5760  59.6435  60.1723  60.1723  62.8577  64.6852  64.6852  68.2192
    68.7445  68.7445  70.7904  73.0609  73.9749  73.9749  76.3370  76.5312
    76.5312  77.4256  77.4256  78.7714  79.7463  79.7463  82.9049  82.9841
    84.6408  84.6408  86.9095  87.6246  87.6367  89.8666  89.8666  92.0247
    92.6765  92.6765  93.5450  94.7625  94.7625  96.3172  96.5762  96.6618
    96.6618  97.3912  97.3912  98.0628  98.0628  98.1380  98.4865  98.4865
    99.0501  99.2432  99.2432 100.1052 101.6540 101.6540 104.3570 104.3570
   105.1764 105.1909 105.4125 105.4125 106.8715 108.2422 108.2422 108.9914
   109.8389 109.8389 110.6800 110.6800 110.6953 111.2133 111.2467 111.2467
   111.2532 111.2532 111.6717 114.7602 115.3597 115.6075 115.6075 117.0098
   117.0098 117.9148 117.9842 118.4722 120.5415 122.1276 122.1276 122.3130
   122.3130 123.9706 123.9851 124.8737 124.8737 125.2857 125.2857 126.5362
   127.5307 128.4194 128.4194 129.3028 129.3028 129.3798 129.7760 130.0960
   130.0960 130.1642 130.4177 130.4177 131.7910 132.6691 132.8594 132.8594
   133.7197 133.7197 135.9022 135.9022 136.3214 136.3214 136.5045 136.5694
   137.4241 137.4241 137.6543 137.6543 137.6554 137.8438 139.0799 140.5983
   140.7428 140.7428 141.7050 141.7050 142.1932 145.2831 145.2831 145.5724
   146.4151 146.4151 147.1793 147.1793 147.3582 147.4207 147.4207 147.7846
   149.9064 150.2775 152.3396 152.3396 154.2866 154.3065 154.3065 154.3563
   155.7251 155.7251 156.0962 156.0962 156.2990 159.7569 159.7569 159.7831
   160.3601 161.4720 162.1633 162.1633 162.7014 162.7014 162.9238 163.3262
   164.9538 164.9538 166.9640 167.3603 167.3603 170.5168 170.5168 171.5185
   171.6598 172.3235 172.3235 174.2177 174.7413 174.7413 176.8057 177.2787
   177.2787 178.6432 179.8668 179.8668 180.1741 180.1741 180.4799 180.4799
   180.6801 183.1308 183.1308 183.6418 184.9862 186.5527 187.8728 187.8728
   189.0423 189.0423 189.3045 189.3465 190.5527 190.5527 190.9078 191.4619
   191.4619 193.5665 193.5665 195.9182 195.9182 197.3081 200.2163 200.3551
   200.3551 200.7407 200.7407 201.0330 201.0935 201.2271 201.3293 202.3084
   202.3084 203.3323 203.3323 204.5340 204.6180 204.6180 205.3045 205.3045
   205.4200 205.4200 205.7660 206.1650 211.3087 211.3087 211.4099 211.4099
   212.1626 212.4196 212.5380 212.5533 214.5631 215.2022 216.6426 216.6426
   216.7980 216.7980 218.7790 218.8913 218.8913 218.9925 218.9925 219.0806
   220.3360 220.6416 221.3274 221.3274 221.5825 221.5825 222.3114 222.3114
   222.4553 222.4553 222.9557 222.9557 223.0756 223.4243 223.8531 223.8531
   224.5360 224.6597 224.9191 225.1768 225.2477 225.4521 225.4521 225.9448
   225.9448 226.1296 226.8826 226.8826 227.9260 227.9260 228.0436 228.2069
   228.8082 229.0224 229.0224 229.2877 229.2877 230.5064 230.5064 230.6294
   231.2620 231.2620 232.3060 232.7393 232.7393 233.0149 234.0333 234.1570
   234.1570 234.7465 234.7465 235.5485 236.1769 236.3118 236.3345 236.3345
   236.8821 236.8821 237.0507 237.0507 237.6407 237.6687 237.6687 238.2533
   238.2879 238.3833 238.3833 238.7142 241.0512 241.0512 241.1945 241.1945
   241.2329 241.2329 242.4241 242.4834 243.4836 243.4836 244.2036 244.4186
   244.4186 245.1270 245.6345 245.6345 246.0181 246.6983 246.6983 247.1664
   247.4206 247.9091 247.9091 250.2081 250.6901 250.6901 250.9184 252.0113
   252.4354 252.4354 252.5132 252.5132 253.9565 253.9722 254.2803 254.2803
   254.7134 255.3276 255.3276 256.1226 256.6202 256.6202 257.7734 257.7734
   260.0223 260.0223 260.5171 260.7582 261.0966 261.0966 261.1320 261.1320
   262.3596 262.8495 262.8495 263.1376 263.4325 264.3677 264.3677 264.9953
   265.1839 265.1839 267.1191 267.1779 267.1779 267.2997 267.2997 267.7067
   268.0478 268.0711 268.0711 268.2167 268.2167 268.5103 270.7238 271.1007
   271.1007 271.2182 271.9446 271.9446 271.9455 272.7634 272.7634 272.8233
   274.3776 274.4726 274.4726 275.5020 275.5020 275.8544 276.2614 278.3912
   280.1107 280.1107 280.5360 280.5360 282.5419 282.9748 282.9748 283.1490
   283.1490 283.6727 284.2982 284.4521 285.3711 285.3711 285.8196 286.5801
   286.5801 287.2935 287.2935 287.4705 287.5247 287.8759 288.4362 288.4362
   288.5005 288.5247 288.5247 288.8992 288.8992 289.1721 289.1721 289.1854
   289.2606 291.8324 291.8324 291.9347 292.6726 292.9455 292.9455 292.9583
   292.9583 293.5791 294.4827 294.4827 294.5854 294.5854 294.8243 294.9390
   294.9390 295.2927 296.9100 297.0988 297.0988 298.2604 298.3170 298.3170
   299.0612 299.9000 299.9000 299.9594 300.1305 300.1305 300.4937 301.9547
   301.9547 302.1450 302.1450 302.2201 302.3900 303.8420 305.6429 305.6429
   306.2401 306.2401 306.9741 306.9741 307.0065 307.1397 308.3199 308.7337
   308.7337 309.8785 309.8785 311.3531 311.3531 312.1901 312.2667 312.7859
   313.3617 313.5203 313.5203 313.8287 313.8287 314.9652 315.1435 315.5316
   315.5316 315.6702 315.6702 316.1884 317.0200 317.0200 317.4826 317.5464
   317.8901 317.8901 320.1009 320.1009 320.5339 321.3923 323.7126 323.7126
   324.4272 325.3870 325.3870 325.4905 325.5737 325.5737 326.5288 326.5288
   326.8347 326.8347 327.3924 329.6496 329.6496 329.6961 330.2987 330.2987
   330.3130 331.0663 332.0390 332.0390 333.2268 333.2268 333.9673 334.6448
   335.9537 335.9537 336.8300 336.8300 337.0142 337.0142 337.0360 337.4057
   338.4082 339.9357 341.1443 341.6723 341.6723 343.2610 343.2610 343.9166
   345.0655 345.0655 345.4499 346.3170 346.3170 346.8779 347.2786 347.2786
   347.3730 348.0670 348.2252 348.2252 348.8234 348.8234 349.8452 350.0088
   351.1333 351.1333 351.6155 351.8818 351.8818 352.1792 352.1792 352.2606
   352.8495 352.8495 355.0713 355.0713 355.2354 355.2354 356.3185 359.4156
   359.4156 359.6881 359.6881 359.9957 360.0785 360.4091 360.4091 360.4114
   361.8248 361.9472 361.9472 362.0743 362.1869 362.1869 365.1238 365.1238
   365.3693 366.3687 366.3752 366.6186 366.6698 366.6698 367.8138 369.5193
   370.0450 370.0450 370.4274 370.4274 370.6930 371.8465 372.1545 372.1545
   372.1729 372.5669 372.5669 373.8124 373.8124 375.4739 376.0784 376.0784
   377.1692 377.1692 377.1987 377.1987 377.2807 377.9676 377.9676 378.6926
   379.8640 381.5679 381.5679 382.2809 382.5188 382.5188 382.5417 382.5417
   382.5623 382.9106 383.1540 383.1540 383.7324 383.7324 384.1176 384.1362
   384.1383 384.1383 384.1824 384.1824 386.5321 386.5813 387.8025 387.8025
   387.9002 387.9002 388.2207 388.2402 388.2402 388.7004 388.7004 389.2473
   389.3462 389.5645 389.5645 389.6229 390.0793 390.0793 390.8018 390.9265
   390.9265 391.1591 391.6603 391.6603 391.9319 392.4345 393.1749 393.1749
   393.7480 393.7480 394.0459 394.0919 394.5706 394.9240 394.9240 394.9306
   395.4592 395.4592 396.2792 396.3522 396.4853 397.9406 397.9406 397.9879
   397.9879 398.3041 399.5717 399.5717 400.0142 400.0142 400.0178 400.7026
   401.3841 401.3841 401.5183 402.2845 402.6347 402.6347 402.8022 402.8022
   402.8741 403.0755 403.8132 403.8132 405.7148 405.7148 406.2087 406.2087
   406.7528 407.4650 407.4650 407.6150 407.9580 409.1103 409.1103 409.1400
   409.1400 410.0355 410.2224 410.2224 410.3293 410.5938 410.7000 410.9641
   410.9641 411.5144 411.5144 411.5563 411.8248 411.8248 411.9380 412.1439
   412.1439 412.3084 412.4374 413.3576 413.3576 413.8032 413.8032 413.8375
   413.8375 413.8852 414.1153 414.1780 414.1780 414.5524 414.9651 414.9651
   415.0689 415.4079 415.4079 415.4105 415.4105 415.7388 415.7388 415.8214
   415.9905 416.0110 416.8072 416.9171 416.9171 417.5066 417.5066 417.6475
   418.5775 418.5775 419.5228 419.5369 419.5369 419.8715 420.3342 420.3342
   421.5314 421.7841 421.7841 422.1468 422.1736 422.7874 422.9665 422.9665
   423.3353 423.3353 423.4954 423.4954 423.6436 425.3319 425.3319 425.9205
   426.3941 426.4052 426.4052 427.3250 427.3250 427.4052 427.4052 427.4059
   427.4200 428.1205 428.4858 428.4858 429.1920 429.1920 430.4760 430.4760
   430.7128 430.7380 431.4738 431.4738 431.5871 431.6820 432.3021 432.3021
   432.4363 432.4875 432.4875 432.8484 432.9214 432.9214 433.7089 433.8651
   433.8651 434.0630 434.6143 434.6542 434.6542 434.6947 434.6947 434.7940
   435.0663 435.0663 435.1596 435.1868 435.1868 435.3670 435.6619 436.2267
   436.2267 438.4255 438.4255 438.6152 438.6152 438.9515 439.1611 439.1611
   439.7592 439.9118 440.3809 440.5119 440.5119 441.1973 441.1973 441.3428
   441.3428 441.8408 442.3558 442.9815 443.1680 443.1680 443.6130 443.6130
   443.7730 443.9138 443.9138 444.5881 444.5881 444.5906 445.0132 446.4881
   447.8099 447.8099 448.0298 448.0298 449.3245 450.6383 450.6383 450.8379
   451.9319 451.9319 452.1280 452.1280 452.2826 452.9209 453.2826 453.2826
   453.4486 453.4486 453.6767 453.6767 453.8037 454.3058 454.8773 455.8631
   455.8631 456.1961 457.2458 457.2458 457.3075 458.6593 459.1764 459.1764
   459.4849 459.7072 459.7072 459.9099 459.9099 460.1527 461.7832 461.7832
   462.3716 463.0272 463.9683 464.1807 464.3773 464.3773 464.9234 464.9234

     occupation numbers 
     1.0000   1.0000   1.0000   1.0000   1.0000   1.0000   1.0000   1.0000
     0.0000   0.0000   0.0000   0.0000   0.0000   0.0000   0.0000   0.0000
     0.0000   0.0000   0.0000   0.0000   0.0000   0.0000   0.0000   0.0000
     0.0000   0.0000   0.0000   0.0000   0.0000   0.0000   0.0000   0.0000
     0.0000   0.0000   0.0000   0.0000   0.0000   0.0000   0.0000   0.0000
     0.0000   0.0000   0.0000   0.0000   0.0000   0.0000   0.0000   0.0000
     0.0000   0.0000   0.0000   0.0000   0.0000   0.0000   0.0000   0.0000
     0.0000   0.0000   0.0000   0.0000   0.0000   0.0000   0.0000   0.0000
     0.0000   0.0000   0.0000   0.0000   0.0000   0.0000   0.0000   0.0000
     0.0000   0.0000   0.0000   0.0000   0.0000   0.0000   0.0000   0.0000
     0.0000   0.0000   0.0000   0.0000   0.0000   0.0000   0.0000   0.0000
     0.0000   0.0000   0.0000   0.0000   0.0000   0.0000   0.0000   0.0000
     0.0000   0.0000   0.0000   0.0000   0.0000   0.0000   0.0000   0.0000
     0.0000   0.0000   0.0000   0.0000   0.0000   0.0000   0.0000   0.0000
     0.0000   0.0000   0.0000   0.0000   0.0000   0.0000   0.0000   0.0000
     0.0000   0.0000   0.0000   0.0000   0.0000   0.0000   0.0000   0.0000
     0.0000   0.0000   0.0000   0.0000   0.0000   0.0000   0.0000   0.0000
     0.0000   0.0000   0.0000   0.0000   0.0000   0.0000   0.0000   0.0000
     0.0000   0.0000   0.0000   0.0000   0.0000   0.0000   0.0000   0.0000
     0.0000   0.0000   0.0000   0.0000   0.0000   0.0000   0.0000   0.0000
     0.0000   0.0000   0.0000   0.0000   0.0000   0.0000   0.0000   0.0000
     0.0000   0.0000   0.0000   0.0000   0.0000   0.0000   0.0000   0.0000
     0.0000   0.0000   0.0000   0.0000   0.0000   0.0000   0.0000   0.0000
     0.0000   0.0000   0.0000   0.0000   0.0000   0.0000   0.0000   0.0000
     0.0000   0.0000   0.0000   0.0000   0.0000   0.0000   0.0000   0.0000
     0.0000   0.0000   0.0000   0.0000   0.0000   0.0000   0.0000   0.0000
     0.0000   0.0000   0.0000   0.0000   0.0000   0.0000   0.0000   0.0000
     0.0000   0.0000   0.0000   0.0000   0.0000   0.0000   0.0000   0.0000
     0.0000   0.0000   0.0000   0.0000   0.0000   0.0000   0.0000   0.0000
     0.0000   0.0000   0.0000   0.0000   0.0000   0.0000   0.0000   0.0000
     0.0000   0.0000   0.0000   0.0000   0.0000   0.0000   0.0000   0.0000
     0.0000   0.0000   0.0000   0.0000   0.0000   0.0000   0.0000   0.0000
     0.0000   0.0000   0.0000   0.0000   0.0000   0.0000   0.0000   0.0000
     0.0000   0.0000   0.0000   0.0000   0.0000   0.0000   0.0000   0.0000
     0.0000   0.0000   0.0000   0.0000   0.0000   0.0000   0.0000   0.0000
     0.0000   0.0000   0.0000   0.0000   0.0000   0.0000   0.0000   0.0000
     0.0000   0.0000   0.0000   0.0000   0.0000   0.0000   0.0000   0.0000
     0.0000   0.0000   0.0000   0.0000   0.0000   0.0000   0.0000   0.0000
     0.0000   0.0000   0.0000   0.0000   0.0000   0.0000   0.0000   0.0000
     0.0000   0.0000   0.0000   0.0000   0.0000   0.0000   0.0000   0.0000
     0.0000   0.0000   0.0000   0.0000   0.0000   0.0000   0.0000   0.0000
     0.0000   0.0000   0.0000   0.0000   0.0000   0.0000   0.0000   0.0000
     0.0000   0.0000   0.0000   0.0000   0.0000   0.0000   0.0000   0.0000
     0.0000   0.0000   0.0000   0.0000   0.0000   0.0000   0.0000   0.0000
     0.0000   0.0000   0.0000   0.0000   0.0000   0.0000   0.0000   0.0000
     0.0000   0.0000   0.0000   0.0000   0.0000   0.0000   0.0000   0.0000
     0.0000   0.0000   0.0000   0.0000   0.0000   0.0000   0.0000   0.0000
     0.0000   0.0000   0.0000   0.0000   0.0000   0.0000   0.0000   0.0000
     0.0000   0.0000   0.0000   0.0000   0.0000   0.0000   0.0000   0.0000
     0.0000   0.0000   0.0000   0.0000   0.0000   0.0000   0.0000   0.0000
     0.0000   0.0000   0.0000   0.0000   0.0000   0.0000   0.0000   0.0000
     0.0000   0.0000   0.0000   0.0000   0.0000   0.0000   0.0000   0.0000
     0.0000   0.0000   0.0000   0.0000   0.0000   0.0000   0.0000   0.0000
     0.0000   0.0000   0.0000   0.0000   0.0000   0.0000   0.0000   0.0000
     0.0000   0.0000   0.0000   0.0000   0.0000   0.0000   0.0000   0.0000
     0.0000   0.0000   0.0000   0.0000   0.0000   0.0000   0.0000   0.0000
     0.0000   0.0000   0.0000   0.0000   0.0000   0.0000   0.0000   0.0000
     0.0000   0.0000   0.0000   0.0000   0.0000   0.0000   0.0000   0.0000
     0.0000   0.0000   0.0000   0.0000   0.0000   0.0000   0.0000   0.0000
     0.0000   0.0000   0.0000   0.0000   0.0000   0.0000   0.0000   0.0000
     0.0000   0.0000   0.0000   0.0000   0.0000   0.0000   0.0000   0.0000
     0.0000   0.0000   0.0000   0.0000   0.0000   0.0000   0.0000   0.0000
     0.0000   0.0000   0.0000   0.0000   0.0000   0.0000   0.0000   0.0000
     0.0000   0.0000   0.0000   0.0000   0.0000   0.0000   0.0000   0.0000
     0.0000   0.0000   0.0000   0.0000   0.0000   0.0000   0.0000   0.0000
     0.0000   0.0000   0.0000   0.0000   0.0000   0.0000   0.0000   0.0000
     0.0000   0.0000   0.0000   0.0000   0.0000   0.0000   0.0000   0.0000
     0.0000   0.0000   0.0000   0.0000   0.0000   0.0000   0.0000   0.0000
     0.0000   0.0000   0.0000   0.0000   0.0000   0.0000   0.0000   0.0000
     0.0000   0.0000   0.0000   0.0000   0.0000   0.0000   0.0000   0.0000
     0.0000   0.0000   0.0000   0.0000   0.0000   0.0000   0.0000   0.0000
     0.0000   0.0000   0.0000   0.0000   0.0000   0.0000   0.0000   0.0000
     0.0000   0.0000   0.0000   0.0000   0.0000   0.0000   0.0000   0.0000
     0.0000   0.0000   0.0000   0.0000   0.0000   0.0000   0.0000   0.0000
     0.0000   0.0000   0.0000   0.0000   0.0000   0.0000   0.0000   0.0000
     0.0000   0.0000   0.0000   0.0000   0.0000   0.0000   0.0000   0.0000
     0.0000   0.0000   0.0000   0.0000   0.0000   0.0000   0.0000   0.0000
     0.0000   0.0000   0.0000   0.0000   0.0000   0.0000   0.0000   0.0000
     0.0000   0.0000   0.0000   0.0000   0.0000   0.0000   0.0000   0.0000
     0.0000   0.0000   0.0000   0.0000   0.0000   0.0000   0.0000   0.0000
     0.0000   0.0000   0.0000   0.0000   0.0000   0.0000   0.0000   0.0000
     0.0000   0.0000   0.0000   0.0000   0.0000   0.0000   0.0000   0.0000
     0.0000   0.0000   0.0000   0.0000   0.0000   0.0000   0.0000   0.0000
     0.0000   0.0000   0.0000   0.0000   0.0000   0.0000   0.0000   0.0000
     0.0000   0.0000   0.0000   0.0000   0.0000   0.0000   0.0000   0.0000
     0.0000   0.0000   0.0000   0.0000   0.0000   0.0000   0.0000   0.0000
     0.0000   0.0000   0.0000   0.0000   0.0000   0.0000   0.0000   0.0000
     0.0000   0.0000   0.0000   0.0000   0.0000   0.0000   0.0000   0.0000
     0.0000   0.0000   0.0000   0.0000   0.0000   0.0000   0.0000   0.0000
     0.0000   0.0000   0.0000   0.0000   0.0000   0.0000   0.0000   0.0000
     0.0000   0.0000   0.0000   0.0000   0.0000   0.0000   0.0000   0.0000
     0.0000   0.0000   0.0000   0.0000   0.0000   0.0000   0.0000   0.0000
     0.0000   0.0000   0.0000   0.0000   0.0000   0.0000   0.0000   0.0000
     0.0000   0.0000   0.0000   0.0000   0.0000   0.0000   0.0000   0.0000
     0.0000   0.0000   0.0000   0.0000   0.0000   0.0000   0.0000   0.0000
     0.0000   0.0000   0.0000   0.0000   0.0000   0.0000   0.0000   0.0000
     0.0000   0.0000   0.0000   0.0000   0.0000   0.0000   0.0000   0.0000
     0.0000   0.0000   0.0000   0.0000   0.0000   0.0000   0.0000   0.0000
     0.0000   0.0000   0.0000   0.0000   0.0000   0.0000   0.0000   0.0000
     0.0000   0.0000   0.0000   0.0000   0.0000   0.0000   0.0000   0.0000
     0.0000   0.0000   0.0000   0.0000   0.0000   0.0000   0.0000   0.0000
     0.0000   0.0000   0.0000   0.0000   0.0000   0.0000   0.0000   0.0000
     0.0000   0.0000   0.0000   0.0000   0.0000   0.0000   0.0000   0.0000
     0.0000   0.0000   0.0000   0.0000   0.0000   0.0000   0.0000   0.0000
     0.0000   0.0000   0.0000   0.0000   0.0000   0.0000   0.0000   0.0000
     0.0000   0.0000   0.0000   0.0000   0.0000   0.0000   0.0000   0.0000
     0.0000   0.0000   0.0000   0.0000   0.0000   0.0000   0.0000   0.0000
     0.0000   0.0000   0.0000   0.0000   0.0000   0.0000   0.0000   0.0000
     0.0000   0.0000   0.0000   0.0000   0.0000   0.0000   0.0000   0.0000
     0.0000   0.0000   0.0000   0.0000   0.0000   0.0000   0.0000   0.0000
     0.0000   0.0000   0.0000   0.0000   0.0000   0.0000   0.0000   0.0000
     0.0000   0.0000   0.0000   0.0000   0.0000   0.0000   0.0000   0.0000
     0.0000   0.0000   0.0000   0.0000   0.0000   0.0000   0.0000   0.0000
     0.0000   0.0000   0.0000   0.0000   0.0000   0.0000   0.0000   0.0000
     0.0000   0.0000   0.0000   0.0000   0.0000   0.0000   0.0000   0.0000
     0.0000   0.0000   0.0000   0.0000   0.0000   0.0000   0.0000   0.0000
     0.0000   0.0000   0.0000   0.0000   0.0000   0.0000   0.0000   0.0000
     0.0000   0.0000   0.0000   0.0000   0.0000   0.0000   0.0000   0.0000
     0.0000   0.0000   0.0000   0.0000   0.0000   0.0000   0.0000   0.0000
     0.0000   0.0000   0.0000   0.0000   0.0000   0.0000   0.0000   0.0000
     0.0000   0.0000   0.0000   0.0000   0.0000   0.0000   0.0000   0.0000
     0.0000   0.0000   0.0000   0.0000   0.0000   0.0000   0.0000   0.0000
     0.0000   0.0000   0.0000   0.0000   0.0000   0.0000   0.0000   0.0000
     0.0000   0.0000   0.0000   0.0000   0.0000   0.0000   0.0000   0.0000
     0.0000   0.0000   0.0000   0.0000   0.0000   0.0000   0.0000   0.0000

          k = 0.0000 0.0000-0.1630 (  4376 PWs)   bands (ev):

   -14.3473 -14.3473  -1.9846  -1.9846   1.8436   1.8436   1.8436   1.8436
     9.4549   9.4550  14.7406  14.7406  14.7406  14.7406  15.3266  15.3267
    17.4624  17.4624  23.7227  23.7227  28.7068  28.7068  32.9855  32.9855
    32.9856  32.9856  35.4562  35.4563  35.7919  35.7919  35.7920  35.7920
    40.7626  40.7627  40.8924  40.8924  40.8924  40.8924  41.6218  41.6218
    42.8632  42.8632  42.8632  42.8632  47.9263  47.9263  51.7955  51.7955
    51.7955  51.7955  52.3752  52.3752  55.2335  55.2335  55.2335  55.2335
    57.2415  57.2416  61.2445  61.2445  61.2446  61.2446  68.0185  68.0185
    70.5402  70.5403  73.4834  73.4834  73.4834  73.4834  76.3039  76.3039
    77.6027  77.6027  77.6027  77.6027  79.2189  79.2189  79.2189  79.2189
    82.9441  82.9441  88.1935  88.1936  90.7599  90.7599  92.0063  92.0063
    92.0063  92.0063  93.3680  93.3680  95.8719  95.8719  95.8719  95.8719
    98.1580  98.1580  98.1580  98.1580  98.9259  98.9259 100.4219 100.4219
   102.2038 102.2038 102.2038 102.2038 103.1211 103.1211 103.1211 103.1211
   103.4576 103.4576 104.1806 104.1806 104.1806 104.1806 107.1415 107.1415
   107.1415 107.1415 107.6804 107.6804 109.4807 109.4807 111.1843 111.1843
   111.1843 111.1843 114.5819 114.5819 116.2730 116.2730 118.2200 118.2201
   118.6341 118.6341 118.6341 118.6341 120.9937 120.9937 120.9937 120.9937
   122.0538 122.0538 125.6740 125.6741 128.5999 128.5999 128.5999 128.5999
   129.7957 129.7957 129.8697 129.8697 129.8697 129.8697 129.9877 129.9877
   129.9877 129.9877 130.9902 130.9903 131.4507 131.4507 132.0031 132.0031
   132.0031 132.0031 136.4022 136.4022 136.4022 136.4022 136.6799 136.6799
   136.6799 136.6799 137.0795 137.0795 138.6338 138.6338 140.3900 140.3900
   141.2596 141.2596 141.2596 141.2596 141.4005 141.4005 141.4005 141.4005
   141.9819 141.9819 142.8253 142.8253 148.7973 148.7973 148.7973 148.7973
   151.3464 151.3464 151.3464 151.3464 153.1114 153.1114 154.6101 154.6101
   156.7331 156.7331 160.3164 160.3164 160.3164 160.3164 160.8365 160.8365
   163.7937 163.7937 163.7937 163.7937 166.6001 166.6001 166.6002 166.6002
   167.1291 167.1291 167.9163 167.9163 167.9163 167.9163 171.0458 171.0458
   171.0459 171.0459 171.5893 171.5893 171.5893 171.5893 171.6385 171.6385
   173.2751 173.2751 173.8588 173.8588 176.4753 176.4753 179.4933 179.4933
   179.4933 179.4933 187.2219 187.2219 187.2219 187.2219 188.8446 188.8446
   191.8139 191.8139 195.3842 195.3842 195.3842 195.3842 196.2892 196.2892
   196.2892 196.2892 196.7444 196.7444 196.7444 196.7444 197.3654 197.3654
   197.4533 197.4533 197.4533 197.4533 197.4874 197.4874 198.3948 198.3948
   201.1030 201.1030 204.3321 204.3321 204.3321 204.3321 206.1606 206.1606
   206.1606 206.1606 210.2066 210.2066 210.8272 210.8272 210.8272 210.8272
   211.3573 211.3573 211.3573 211.3573 211.6691 211.6691 212.4742 212.4742
   216.4023 216.4023 217.7452 217.7452 220.8012 220.8012 221.4207 221.4207
   221.4207 221.4207 222.6360 222.6360 222.6360 222.6360 223.6850 223.6850
   224.5600 224.5600 224.5600 224.5600 224.6431 224.6431 225.8784 225.8784
   225.8784 225.8784 226.6069 226.6069 226.6070 226.6070 226.9004 226.9004
   226.9586 226.9586 227.0972 227.0972 227.0972 227.0972 227.5673 227.5674
   228.0768 228.0768 228.0768 228.0768 230.1575 230.1575 231.5030 231.5030
   231.5030 231.5030 231.5643 231.5643 231.5643 231.5643 232.1749 232.1749
   232.1750 232.1750 232.2799 232.2800 232.5896 232.5896 232.9921 232.9921
   233.8082 233.8082 233.8082 233.8082 235.3297 235.3297 235.3297 235.3297
   235.6367 235.6367 236.7526 236.7527 242.4025 242.4025 242.4025 242.4025
   244.3892 244.3892 244.8174 244.8174 244.8174 244.8174 246.5194 246.5194
   247.0551 247.0551 247.0551 247.0551 247.3068 247.3068 248.9579 248.9579
   249.7853 249.7853 249.7853 249.7853 250.1920 250.1920 251.2474 251.2474
   251.2474 251.2474 254.6777 254.6777 255.3120 255.3120 255.3120 255.3120
   256.2268 256.2268 256.2268 256.2268 259.7548 259.7548 261.2733 261.2733
   261.2733 261.2733 261.3432 261.3432 262.4213 262.4213 262.4213 262.4213
   263.6064 263.6064 263.6064 263.6064 264.9352 264.9352 265.5341 265.5341
   265.5341 265.5341 266.1850 266.1850 266.3425 266.3425 267.0704 267.0704
   267.0705 267.0705 268.7158 268.7158 268.7158 268.7158 268.9907 268.9907
   269.7535 269.7535 269.7535 269.7535 269.9021 269.9021 270.1893 270.1893
   270.6304 270.6304 270.6304 270.6304 272.5323 272.5323 272.5323 272.5323
   273.0530 273.0530 273.5316 273.5316 277.6425 277.6425 284.0976 284.0976
   286.5506 286.5506 286.5506 286.5506 287.3929 287.3929 287.3929 287.3929
   287.5093 287.5093 288.3386 288.3386 288.6567 288.6567 288.6567 288.6567
   290.3315 290.3315 290.3315 290.3315 291.1941 291.1941 292.8686 292.8686
   292.8686 292.8686 293.1337 293.1337 294.8984 294.8984 294.8984 294.8984
   295.2872 295.2872 295.9901 295.9901 296.0732 296.0732 296.0733 296.0733
   296.9382 296.9382 296.9382 296.9382 297.1306 297.1306 298.1115 298.1115
   298.1115 298.1115 299.6493 299.6494 302.7374 302.7374 302.9923 302.9923
   302.9923 302.9923 303.8945 303.8945 305.1932 305.1932 305.1932 305.1932
   305.4236 305.4236 306.7585 306.7585 306.7585 306.7585 309.0841 309.0841
   309.0841 309.0841 310.9758 310.9758 310.9758 310.9758 310.9784 310.9784
   311.5288 311.5288 312.5364 312.5364 314.3730 314.3730 314.3730 314.3730
   317.5782 317.5782 317.5782 317.5782 317.7819 317.7819 317.7819 317.7819
   318.3668 318.3669 318.8431 318.8431 319.6779 319.6779 319.6779 319.6779
   321.4027 321.4027 322.4495 322.4495 322.4495 322.4495 324.5947 324.5947
   324.9861 324.9861 324.9861 324.9861 325.5995 325.5995 327.1892 327.1892
   330.0433 330.0433 330.0433 330.0433 330.8588 330.8588 330.9430 330.9430
   330.9430 330.9430 332.2265 332.2265 339.6694 339.6694 341.6085 341.6085
   341.6085 341.6085 345.2042 345.2042 345.2042 345.2042 348.5314 348.5314
   348.5314 348.5314 348.7914 348.7914 351.7931 351.7931 353.1654 353.1654
   353.1654 353.1654 353.3250 353.3250 353.8956 353.8956 355.6808 355.6808
   355.6808 355.6808 356.1673 356.1673 356.1673 356.1673 356.6187 356.6187
   357.6277 357.6277 357.9010 357.9010 357.9010 357.9010 359.1927 359.1927
   359.1927 359.1927 359.5686 359.5686 359.6769 359.6769 360.0991 360.0991
   360.0991 360.0991 360.7618 360.7618 360.7618 360.7618 360.7948 360.7948
   361.1137 361.1137 361.1137 361.1137 361.4497 361.4497 362.4592 362.4592
   362.5539 362.5539 362.5539 362.5539 365.0115 365.0115 365.0115 365.0115
   368.1863 368.1863 368.1863 368.1863 369.4442 369.4442 369.5593 369.5593
   372.5182 372.5182 372.5182 372.5182 380.9884 380.9884 382.7737 382.7737
   382.7737 382.7737 383.1404 383.1404 383.1404 383.1404 383.2367 383.2367
   383.5741 383.5741 383.5741 383.5741 384.2395 384.2395 385.3003 385.3003
   385.4154 385.4154 385.4154 385.4154 387.1059 387.1059 387.2985 387.2985
   389.7115 389.7115 389.7115 389.7115 391.3113 391.3113 391.6018 391.6018
   391.6703 391.6703 391.6703 391.6703 392.3709 392.3709 392.3709 392.3709
   393.0185 393.0185 393.0185 393.0185 394.1852 394.1852 395.1347 395.1347
   395.1347 395.1347 396.0503 396.0503 397.3791 397.3791 397.9684 397.9684
   397.9684 397.9684 398.6704 398.6704 399.5969 399.5969 399.9319 399.9319
   399.9319 399.9319 400.0177 400.0177 400.0945 400.0945 400.0945 400.0945
   400.6106 400.6106 400.6584 400.6584 400.6584 400.6584 400.9572 400.9572
   400.9572 400.9572 401.2317 401.2317 401.3312 401.3312 401.3312 401.3312
   401.5741 401.5741 405.1200 405.1200 405.1200 405.1200 406.1292 406.1292
   406.1292 406.1292 406.2295 406.2295 407.1760 407.1761 410.7154 410.7154
   413.7790 413.7790 414.0651 414.0651 414.0651 414.0651 414.4928 414.4928
   414.6691 414.6691 414.6691 414.6691 415.7629 415.7629 416.0127 416.0127
   416.1317 416.1317 416.1317 416.1317 416.5162 416.5162 416.5162 416.5162
   416.6547 416.6547 417.2442 417.2442 417.2442 417.2442 419.6440 419.6440
   419.6440 419.6440 420.6861 420.6861 420.6861 420.6861 421.0896 421.0896
   421.6994 421.6994 421.6994 421.6994 421.8159 421.8159 422.3365 422.3365
   422.3365 422.3365 422.6143 422.6143 422.6143 422.6143 422.9845 422.9845
   423.0185 423.0186 423.1724 423.1724 423.1724 423.1724 423.7237 423.7237
   423.8111 423.8111 423.8111 423.8111 424.1035 424.1035 424.1035 424.1035
   424.2980 424.2980 424.2980 424.2980 424.4965 424.4965 424.8400 424.8400
   425.0790 425.0790 426.7648 426.7648 426.7648 426.7648 427.2765 427.2765
   427.2765 427.2765 427.3794 427.3794 427.6949 427.6949 433.6116 433.6116
   433.6116 433.6116 436.3528 436.3528 436.7796 436.7796 436.7796 436.7796
   437.9012 437.9012 438.4617 438.4617 438.6083 438.6083 438.6083 438.6083
   438.7244 438.7244 438.9813 438.9813 438.9813 438.9813 439.2305 439.2305
   439.5110 439.5110 439.5110 439.5110 441.4403 441.4403 441.4403 441.4403
   442.7943 442.7943 444.9378 444.9378 445.2342 445.2342 445.2342 445.2342
   446.5427 446.5427 446.5427 446.5427 446.8186 446.8186 450.3493 450.3493
   450.3493 450.3493 450.6414 450.6414 451.4066 451.4066 451.4066 451.4066
   451.4460 451.4460 452.4241 452.4241 452.9065 452.9065 453.9083 453.9083
   453.9083 453.9083 454.9569 454.9569 454.9569 454.9569 455.4782 455.4782
   455.4782 455.4782 455.7226 455.7226 455.9187 455.9187 455.9187 455.9187
   456.1723 456.1723 458.2588 458.2588 458.3852 458.3852 458.5318 458.5318
   458.5318 458.5318 459.0809 459.0809 459.0809 459.0809 459.3047 459.3047

     occupation numbers 
     1.0000   1.0000   1.0000   1.0000   1.0000   1.0000   1.0000   1.0000
     0.0000   0.0000   0.0000   0.0000   0.0000   0.0000   0.0000   0.0000
     0.0000   0.0000   0.0000   0.0000   0.0000   0.0000   0.0000   0.0000
     0.0000   0.0000   0.0000   0.0000   0.0000   0.0000   0.0000   0.0000
     0.0000   0.0000   0.0000   0.0000   0.0000   0.0000   0.0000   0.0000
     0.0000   0.0000   0.0000   0.0000   0.0000   0.0000   0.0000   0.0000
     0.0000   0.0000   0.0000   0.0000   0.0000   0.0000   0.0000   0.0000
     0.0000   0.0000   0.0000   0.0000   0.0000   0.0000   0.0000   0.0000
     0.0000   0.0000   0.0000   0.0000   0.0000   0.0000   0.0000   0.0000
     0.0000   0.0000   0.0000   0.0000   0.0000   0.0000   0.0000   0.0000
     0.0000   0.0000   0.0000   0.0000   0.0000   0.0000   0.0000   0.0000
     0.0000   0.0000   0.0000   0.0000   0.0000   0.0000   0.0000   0.0000
     0.0000   0.0000   0.0000   0.0000   0.0000   0.0000   0.0000   0.0000
     0.0000   0.0000   0.0000   0.0000   0.0000   0.0000   0.0000   0.0000
     0.0000   0.0000   0.0000   0.0000   0.0000   0.0000   0.0000   0.0000
     0.0000   0.0000   0.0000   0.0000   0.0000   0.0000   0.0000   0.0000
     0.0000   0.0000   0.0000   0.0000   0.0000   0.0000   0.0000   0.0000
     0.0000   0.0000   0.0000   0.0000   0.0000   0.0000   0.0000   0.0000
     0.0000   0.0000   0.0000   0.0000   0.0000   0.0000   0.0000   0.0000
     0.0000   0.0000   0.0000   0.0000   0.0000   0.0000   0.0000   0.0000
     0.0000   0.0000   0.0000   0.0000   0.0000   0.0000   0.0000   0.0000
     0.0000   0.0000   0.0000   0.0000   0.0000   0.0000   0.0000   0.0000
     0.0000   0.0000   0.0000   0.0000   0.0000   0.0000   0.0000   0.0000
     0.0000   0.0000   0.0000   0.0000   0.0000   0.0000   0.0000   0.0000
     0.0000   0.0000   0.0000   0.0000   0.0000   0.0000   0.0000   0.0000
     0.0000   0.0000   0.0000   0.0000   0.0000   0.0000   0.0000   0.0000
     0.0000   0.0000   0.0000   0.0000   0.0000   0.0000   0.0000   0.0000
     0.0000   0.0000   0.0000   0.0000   0.0000   0.0000   0.0000   0.0000
     0.0000   0.0000   0.0000   0.0000   0.0000   0.0000   0.0000   0.0000
     0.0000   0.0000   0.0000   0.0000   0.0000   0.0000   0.0000   0.0000
     0.0000   0.0000   0.0000   0.0000   0.0000   0.0000   0.0000   0.0000
     0.0000   0.0000   0.0000   0.0000   0.0000   0.0000   0.0000   0.0000
     0.0000   0.0000   0.0000   0.0000   0.0000   0.0000   0.0000   0.0000
     0.0000   0.0000   0.0000   0.0000   0.0000   0.0000   0.0000   0.0000
     0.0000   0.0000   0.0000   0.0000   0.0000   0.0000   0.0000   0.0000
     0.0000   0.0000   0.0000   0.0000   0.0000   0.0000   0.0000   0.0000
     0.0000   0.0000   0.0000   0.0000   0.0000   0.0000   0.0000   0.0000
     0.0000   0.0000   0.0000   0.0000   0.0000   0.0000   0.0000   0.0000
     0.0000   0.0000   0.0000   0.0000   0.0000   0.0000   0.0000   0.0000
     0.0000   0.0000   0.0000   0.0000   0.0000   0.0000   0.0000   0.0000
     0.0000   0.0000   0.0000   0.0000   0.0000   0.0000   0.0000   0.0000
     0.0000   0.0000   0.0000   0.0000   0.0000   0.0000   0.0000   0.0000
     0.0000   0.0000   0.0000   0.0000   0.0000   0.0000   0.0000   0.0000
     0.0000   0.0000   0.0000   0.0000   0.0000   0.0000   0.0000   0.0000
     0.0000   0.0000   0.0000   0.0000   0.0000   0.0000   0.0000   0.0000
     0.0000   0.0000   0.0000   0.0000   0.0000   0.0000   0.0000   0.0000
     0.0000   0.0000   0.0000   0.0000   0.0000   0.0000   0.0000   0.0000
     0.0000   0.0000   0.0000   0.0000   0.0000   0.0000   0.0000   0.0000
     0.0000   0.0000   0.0000   0.0000   0.0000   0.0000   0.0000   0.0000
     0.0000   0.0000   0.0000   0.0000   0.0000   0.0000   0.0000   0.0000
     0.0000   0.0000   0.0000   0.0000   0.0000   0.0000   0.0000   0.0000
     0.0000   0.0000   0.0000   0.0000   0.0000   0.0000   0.0000   0.0000
     0.0000   0.0000   0.0000   0.0000   0.0000   0.0000   0.0000   0.0000
     0.0000   0.0000   0.0000   0.0000   0.0000   0.0000   0.0000   0.0000
     0.0000   0.0000   0.0000   0.0000   0.0000   0.0000   0.0000   0.0000
     0.0000   0.0000   0.0000   0.0000   0.0000   0.0000   0.0000   0.0000
     0.0000   0.0000   0.0000   0.0000   0.0000   0.0000   0.0000   0.0000
     0.0000   0.0000   0.0000   0.0000   0.0000   0.0000   0.0000   0.0000
     0.0000   0.0000   0.0000   0.0000   0.0000   0.0000   0.0000   0.0000
     0.0000   0.0000   0.0000   0.0000   0.0000   0.0000   0.0000   0.0000
     0.0000   0.0000   0.0000   0.0000   0.0000   0.0000   0.0000   0.0000
[...]
   130.9519 131.9579 132.3322 132.7568 133.5260 133.6682 134.5501 135.1540
   135.4250 135.7769 136.2732 136.8143 138.3702 138.7577 138.8377 139.8752
   140.0399 140.4087 141.2431 141.6445 142.4178 143.0117 143.5578 143.9205
   144.3088 144.6650 145.2320 145.5992 146.1371 146.4314 146.7376 147.0242
   147.4423 148.2800 148.8465 149.5676 149.9357 150.5509 150.9431 151.0969
   152.1000 152.4435 152.8005 153.7634 154.2973 154.9136 154.9401 155.4156
   156.1135 156.2796 157.0118 157.8882 157.9366 158.6481 159.6376 159.9619
   160.3536 160.5790 161.5712 161.8078 162.2282 162.4976 163.0414 163.1664
   163.5541 164.3468 164.7615 165.6914 166.4560 167.3114 167.4488 168.2526
   169.1558 169.6772 170.5053 170.6710 170.9937 171.5777 171.7645 171.9436
   172.3385 172.6101 173.2036 173.5171 173.8428 175.0225 175.2775 175.9968
   176.5524 176.7006 177.7297 178.0169 178.7749 179.0057 179.7363 180.0205
   180.2503 180.9040 181.2001 181.7178 181.7579 182.8182 183.1663 183.4132
   183.9323 184.5031 185.3082 185.4364 186.2819 186.8884 187.2864 188.0532
   188.1724 189.3257 189.6885 190.1053 190.3876 190.9454 191.2970 191.7964
   192.0713 192.6175 192.7973 193.0928 193.6354 194.5499 195.1308 195.3655
   195.6462 195.7081 196.0334 196.2833 196.9166 197.2104 197.8311 198.2889
   198.3497 198.6405 199.5419 200.0357 200.5255 200.8148 201.1807 202.0379
   202.3232 202.4418 202.7570 203.2095 204.1221 204.4338 204.8891 206.3796
   206.8342 207.0625 207.5506 208.0283 208.2278 208.6818 208.8872 209.0176
   209.7739 210.0374 210.2103 211.1618 211.3972 211.7112 212.5089 212.6697
   213.0086 213.8189 214.3117 214.7464 215.2009 215.2463 215.7454 216.2548
   216.6574 216.8105 217.1086 217.3450 217.6731 217.9383 218.6842 219.0243
   220.4590 221.0089 221.8983 222.2382 222.3050 222.5417 223.2334 223.3853
   223.7381 224.0744 224.4935 224.8131 225.1352 225.7819 226.2589 226.6402
   227.8001 227.9832 228.4850 228.5993 229.2558 230.0329 230.7758 231.4018
   231.6817 232.2033 232.9728 233.4485 233.5043 233.9179 234.5713 234.7870
   235.2486 235.7695 236.1137 236.8554 237.1147 238.0504 239.0621 239.2723
   239.7431 240.1610 240.9066 241.8943 242.1857 242.5157 242.7512 243.3523
   243.5433 243.7691 244.9187 245.4759 246.2084 246.8690 247.2196 247.8714
   248.8266 248.9868 249.2967 249.4755 249.6447 250.5757 251.2638 251.6634
   252.3879 253.0082 253.2753 254.1606 254.2547 254.9929 255.3171 255.8268
   256.1806 256.9594 256.9970 257.1821 257.6862 258.0599 258.8730 259.2145
   259.3952 260.5746 260.8517 261.6737 262.0202 263.1085 263.4843 263.6792
   264.4781 265.1161 265.8899 266.1860 266.3370 266.5732 266.7310 267.3256
   267.5969 268.2063 268.3005 268.7718 269.5429 269.7183 270.0462 270.9726
   271.9894 272.3768 273.0655 273.1717 273.2674 273.8010 274.1645 274.5232
   274.8192 275.2023 276.0037 276.9213 277.5633 277.6094 277.7179 278.4266
   278.7316 279.2825 279.7574 279.9693 280.5073 281.0613 281.1336 281.4915
   282.0910 282.4660 282.5853 283.5292 283.8138 284.3760 285.1961 285.3755
   285.4923 285.7987 286.0013 286.5711 286.7025 287.3902 287.8673 288.0729
   288.6883 289.0620 289.4178 289.4771 290.1262 290.3008 290.8184 291.2051
   291.5439 291.9430 292.4115 292.8314 293.1438 293.3179 293.4790 294.0930
   294.4565 294.8718 295.1105 295.2478 295.4493 295.9667 296.4381 296.6030
   296.9816 297.5091 297.9083 298.6654 298.7298 299.1215 299.7456 300.1559
   300.4379 300.6935 300.9457 301.1275 301.4048 301.7711 302.2879 302.5263
   303.3114 303.5344 303.6677 304.3493 304.4952 305.2166 305.5990 306.0340
   306.1723 306.3920 306.6313 306.8926 307.2411 307.6411 308.2605 308.8529
   309.5100 309.7737 310.3395 310.5349 310.9257 311.0122 311.5168 312.1821
   312.2806 313.0796 313.1304 313.7333 314.2315 314.3367 314.5304 314.7201
   314.8585 315.2541 315.4645 315.5954 315.6036 316.0074 316.2849 316.5728
   316.6949 317.2060 317.5447 318.0999 318.2550 318.3354 318.8731 319.6052
   320.0080 320.3562 320.8060 321.0626 321.3555 321.4896 321.6599 321.8499
   322.1527 322.6535 322.7922 323.3275 323.8955 324.5150 324.6058 325.0289
   325.3001 325.8210 326.2545 326.5859 326.7761 327.4637 327.8595 328.0683
   328.2959 328.4930 328.6654 329.3041 329.4676 329.7957 329.8793 329.9359
   330.4490 330.6307 331.0385 331.4067 331.6523 331.9398 332.1342 332.9254
   333.2460 333.3630 333.6832 333.8900 334.4282 334.6576 335.0870 335.7065
   336.2496 336.5740 337.0290 337.5914 337.7454 337.8768 339.0298 339.3978
   339.6458 339.7828 340.1273 340.4420 340.5923 341.1964 341.4323 341.7284
   341.8562 341.9370 342.3832 342.6256 343.0921 343.7551 343.8129 344.1008
   344.7540 345.1180 345.7919 346.2278 346.2978 346.5999 346.8377 347.7105
   348.2448 348.5203 348.8741 349.0003 349.2099 349.8868 350.4674 350.5817
   351.2155 351.6128 351.7284 352.4378 352.7567 352.9168 353.3304 353.4679
   353.7226 354.0516 354.1630 354.3541 354.6534 355.0721 355.4488 355.7008
   356.0953 356.3080 356.6593 356.8052 357.3897 357.6328 357.8917 358.0347
   358.6434 359.0532 359.4071 359.5676 359.8996 359.9678 360.6564 361.2098
   361.4350 361.5447 361.9331 362.2150 362.9029 363.2219 363.4037 363.8438
   364.1228 364.5209 364.9515 365.2554 365.3112 366.1408 366.5125 366.9691
   367.4914 368.8026 369.3006 369.5336 370.0008 370.3972 370.6066 371.6983
   372.1826 372.4115 372.7546 373.3429 373.7549 374.1414 374.3067 374.9239
   375.0586 375.5925 375.6850 376.0484 376.5721 376.9049 377.2211 377.4474
   377.8669 378.1986 378.5785 378.8652 379.1967 379.3415 379.5240 380.1713
   380.2898 380.8448 381.2484 381.5238 382.1717 382.2085 382.6026 382.8519
   383.2475 383.5682 383.8707 384.2661 384.2962 384.7554 384.8621 384.8888
   385.1695 385.6245 386.0736 386.5402 387.1875 387.4389 387.6613 387.8162
   388.1452 388.6756 388.8648 389.0071 389.6782 389.7796 390.1206 390.3269
   390.6434 390.8823 391.1089 391.3461 391.7936 392.6078 392.9865 393.1878
   393.9261 394.2619 394.4275 394.4874 394.5677 395.4277 395.7283 396.0385
   396.2181 397.2288 397.3426 397.8927 398.4238 399.2072 399.4739 400.7116
   400.8437 401.4650 401.5089 401.7313 402.0400 402.2846 402.7060 402.9600
   403.2622 403.3743 403.6685 404.0709 404.2988 404.6374 404.9888 405.6507
   406.0235 406.5124 406.9299 407.0684 407.4662 408.1769 408.4134 408.6135
   408.8530 408.9507 409.5240 410.1138 410.5711 410.7367 411.4356 411.5849
   412.1433 412.3330 412.4612 412.5769 412.7841 412.8934 413.0547 413.7302
   413.8487 413.9227 414.5062 415.0631 415.7400 415.8055 415.9259 416.4261
   416.5108 416.5886 417.3932 417.9617 418.1052 418.5721 419.0816 419.3633
   419.4124 419.8893 420.0230 420.1766 420.2940 420.6750 420.7360 421.1020
   421.3619 421.9610 422.3045 422.7078 423.1246 423.7521 423.9775 424.1657
   424.8881 424.9525 425.4859 425.8004 425.9479 426.2065 426.5352 426.6748
   427.0131 428.1984 428.5884 428.6383 428.9008 429.2489 430.1447 431.0325
   431.5948 431.7638 431.9601 432.1476 432.2536 433.1211 433.2667 434.6305
   434.7437 435.6206 435.9852 436.2400 437.0442 437.2733 437.3732 437.9729
   438.3297 438.6273 438.8042 438.9781 439.2750 439.4533 439.8150 440.3313
   440.8576 441.1359 441.2838 441.7530 441.9096 442.2120 442.3304 442.7871
   442.8631 443.0475 443.4865 443.6248 443.6778 443.9764 444.6462 445.2527
   445.3769 445.4238 446.0089 446.4442 447.1674 447.3996 447.4310 447.7591
   447.8965 448.4465 448.8341 449.0570 449.5343 450.0015 450.2448 450.3231
   450.6418 450.7945 451.0049 451.5454 451.7150 451.8357 452.2232 452.3076
   452.5430 453.8565 453.8802 454.2962 454.6381 454.7316 454.9573 455.3660
   455.8181 455.9250 456.3847 456.6288 456.7173 457.1267 457.6850 457.7645
   458.0874 458.8619 459.6276 459.9860 460.1833 461.1476 461.4679 461.7409
   462.0756 462.1875 462.2088 463.1318 463.5757 464.0062 464.2867 464.4185
   464.8337 465.0220 465.2737 465.8734 466.0846 466.6850 467.2717 467.5416
   468.4109 468.8036 469.6164 469.6421 469.8374 470.2625 470.9847 471.6849
   471.9551 472.0504 472.0938 472.2873 472.6816 472.8137 473.0740 473.2782

     occupation numbers 
     1.0000   1.0000   1.0000   1.0000   1.0000   1.0000   1.0000   1.0000
     0.0000   0.0000   0.0000   0.0000   0.0000   0.0000   0.0000   0.0000
     0.0000   0.0000   0.0000   0.0000   0.0000   0.0000   0.0000   0.0000
     0.0000   0.0000   0.0000   0.0000   0.0000   0.0000   0.0000   0.0000
     0.0000   0.0000   0.0000   0.0000   0.0000   0.0000   0.0000   0.0000
     0.0000   0.0000   0.0000   0.0000   0.0000   0.0000   0.0000   0.0000
     0.0000   0.0000   0.0000   0.0000   0.0000   0.0000   0.0000   0.0000
     0.0000   0.0000   0.0000   0.0000   0.0000   0.0000   0.0000   0.0000
     0.0000   0.0000   0.0000   0.0000   0.0000   0.0000   0.0000   0.0000
     0.0000   0.0000   0.0000   0.0000   0.0000   0.0000   0.0000   0.0000
     0.0000   0.0000   0.0000   0.0000   0.0000   0.0000   0.0000   0.0000
     0.0000   0.0000   0.0000   0.0000   0.0000   0.0000   0.0000   0.0000
     0.0000   0.0000   0.0000   0.0000   0.0000   0.0000   0.0000   0.0000
     0.0000   0.0000   0.0000   0.0000   0.0000   0.0000   0.0000   0.0000
     0.0000   0.0000   0.0000   0.0000   0.0000   0.0000   0.0000   0.0000
     0.0000   0.0000   0.0000   0.0000   0.0000   0.0000   0.0000   0.0000
     0.0000   0.0000   0.0000   0.0000   0.0000   0.0000   0.0000   0.0000
     0.0000   0.0000   0.0000   0.0000   0.0000   0.0000   0.0000   0.0000
     0.0000   0.0000   0.0000   0.0000   0.0000   0.0000   0.0000   0.0000
     0.0000   0.0000   0.0000   0.0000   0.0000   0.0000   0.0000   0.0000
     0.0000   0.0000   0.0000   0.0000   0.0000   0.0000   0.0000   0.0000
     0.0000   0.0000   0.0000   0.0000   0.0000   0.0000   0.0000   0.0000
     0.0000   0.0000   0.0000   0.0000   0.0000   0.0000   0.0000   0.0000
     0.0000   0.0000   0.0000   0.0000   0.0000   0.0000   0.0000   0.0000
     0.0000   0.0000   0.0000   0.0000   0.0000   0.0000   0.0000   0.0000
     0.0000   0.0000   0.0000   0.0000   0.0000   0.0000   0.0000   0.0000
     0.0000   0.0000   0.0000   0.0000   0.0000   0.0000   0.0000   0.0000
     0.0000   0.0000   0.0000   0.0000   0.0000   0.0000   0.0000   0.0000
     0.0000   0.0000   0.0000   0.0000   0.0000   0.0000   0.0000   0.0000
     0.0000   0.0000   0.0000   0.0000   0.0000   0.0000   0.0000   0.0000
     0.0000   0.0000   0.0000   0.0000   0.0000   0.0000   0.0000   0.0000
     0.0000   0.0000   0.0000   0.0000   0.0000   0.0000   0.0000   0.0000
     0.0000   0.0000   0.0000   0.0000   0.0000   0.0000   0.0000   0.0000
     0.0000   0.0000   0.0000   0.0000   0.0000   0.0000   0.0000   0.0000
     0.0000   0.0000   0.0000   0.0000   0.0000   0.0000   0.0000   0.0000
     0.0000   0.0000   0.0000   0.0000   0.0000   0.0000   0.0000   0.0000
     0.0000   0.0000   0.0000   0.0000   0.0000   0.0000   0.0000   0.0000
     0.0000   0.0000   0.0000   0.0000   0.0000   0.0000   0.0000   0.0000
     0.0000   0.0000   0.0000   0.0000   0.0000   0.0000   0.0000   0.0000
     0.0000   0.0000   0.0000   0.0000   0.0000   0.0000   0.0000   0.0000
     0.0000   0.0000   0.0000   0.0000   0.0000   0.0000   0.0000   0.0000
     0.0000   0.0000   0.0000   0.0000   0.0000   0.0000   0.0000   0.0000
     0.0000   0.0000   0.0000   0.0000   0.0000   0.0000   0.0000   0.0000
     0.0000   0.0000   0.0000   0.0000   0.0000   0.0000   0.0000   0.0000
     0.0000   0.0000   0.0000   0.0000   0.0000   0.0000   0.0000   0.0000
     0.0000   0.0000   0.0000   0.0000   0.0000   0.0000   0.0000   0.0000
     0.0000   0.0000   0.0000   0.0000   0.0000   0.0000   0.0000   0.0000
     0.0000   0.0000   0.0000   0.0000   0.0000   0.0000   0.0000   0.0000
     0.0000   0.0000   0.0000   0.0000   0.0000   0.0000   0.0000   0.0000
     0.0000   0.0000   0.0000   0.0000   0.0000   0.0000   0.0000   0.0000
     0.0000   0.0000   0.0000   0.0000   0.0000   0.0000   0.0000   0.0000
     0.0000   0.0000   0.0000   0.0000   0.0000   0.0000   0.0000   0.0000
     0.0000   0.0000   0.0000   0.0000   0.0000   0.0000   0.0000   0.0000
     0.0000   0.0000   0.0000   0.0000   0.0000   0.0000   0.0000   0.0000
     0.0000   0.0000   0.0000   0.0000   0.0000   0.0000   0.0000   0.0000
     0.0000   0.0000   0.0000   0.0000   0.0000   0.0000   0.0000   0.0000
     0.0000   0.0000   0.0000   0.0000   0.0000   0.0000   0.0000   0.0000
     0.0000   0.0000   0.0000   0.0000   0.0000   0.0000   0.0000   0.0000
     0.0000   0.0000   0.0000   0.0000   0.0000   0.0000   0.0000   0.0000
     0.0000   0.0000   0.0000   0.0000   0.0000   0.0000   0.0000   0.0000
     0.0000   0.0000   0.0000   0.0000   0.0000   0.0000   0.0000   0.0000
     0.0000   0.0000   0.0000   0.0000   0.0000   0.0000   0.0000   0.0000
     0.0000   0.0000   0.0000   0.0000   0.0000   0.0000   0.0000   0.0000
     0.0000   0.0000   0.0000   0.0000   0.0000   0.0000   0.0000   0.0000
     0.0000   0.0000   0.0000   0.0000   0.0000   0.0000   0.0000   0.0000
     0.0000   0.0000   0.0000   0.0000   0.0000   0.0000   0.0000   0.0000
     0.0000   0.0000   0.0000   0.0000   0.0000   0.0000   0.0000   0.0000
     0.0000   0.0000   0.0000   0.0000   0.0000   0.0000   0.0000   0.0000
     0.0000   0.0000   0.0000   0.0000   0.0000   0.0000   0.0000   0.0000
     0.0000   0.0000   0.0000   0.0000   0.0000   0.0000   0.0000   0.0000
     0.0000   0.0000   0.0000   0.0000   0.0000   0.0000   0.0000   0.0000
     0.0000   0.0000   0.0000   0.0000   0.0000   0.0000   0.0000   0.0000
     0.0000   0.0000   0.0000   0.0000   0.0000   0.0000   0.0000   0.0000
     0.0000   0.0000   0.0000   0.0000   0.0000   0.0000   0.0000   0.0000
     0.0000   0.0000   0.0000   0.0000   0.0000   0.0000   0.0000   0.0000
     0.0000   0.0000   0.0000   0.0000   0.0000   0.0000   0.0000   0.0000
     0.0000   0.0000   0.0000   0.0000   0.0000   0.0000   0.0000   0.0000
     0.0000   0.0000   0.0000   0.0000   0.0000   0.0000   0.0000   0.0000
     0.0000   0.0000   0.0000   0.0000   0.0000   0.0000   0.0000   0.0000
     0.0000   0.0000   0.0000   0.0000   0.0000   0.0000   0.0000   0.0000
     0.0000   0.0000   0.0000   0.0000   0.0000   0.0000   0.0000   0.0000
     0.0000   0.0000   0.0000   0.0000   0.0000   0.0000   0.0000   0.0000
     0.0000   0.0000   0.0000   0.0000   0.0000   0.0000   0.0000   0.0000
     0.0000   0.0000   0.0000   0.0000   0.0000   0.0000   0.0000   0.0000
     0.0000   0.0000   0.0000   0.0000   0.0000   0.0000   0.0000   0.0000
     0.0000   0.0000   0.0000   0.0000   0.0000   0.0000   0.0000   0.0000
     0.0000   0.0000   0.0000   0.0000   0.0000   0.0000   0.0000   0.0000
     0.0000   0.0000   0.0000   0.0000   0.0000   0.0000   0.0000   0.0000
     0.0000   0.0000   0.0000   0.0000   0.0000   0.0000   0.0000   0.0000
     0.0000   0.0000   0.0000   0.0000   0.0000   0.0000   0.0000   0.0000
     0.0000   0.0000   0.0000   0.0000   0.0000   0.0000   0.0000   0.0000
     0.0000   0.0000   0.0000   0.0000   0.0000   0.0000   0.0000   0.0000
     0.0000   0.0000   0.0000   0.0000   0.0000   0.0000   0.0000   0.0000
     0.0000   0.0000   0.0000   0.0000   0.0000   0.0000   0.0000   0.0000
     0.0000   0.0000   0.0000   0.0000   0.0000   0.0000   0.0000   0.0000
     0.0000   0.0000   0.0000   0.0000   0.0000   0.0000   0.0000   0.0000
     0.0000   0.0000   0.0000   0.0000   0.0000   0.0000   0.0000   0.0000
     0.0000   0.0000   0.0000   0.0000   0.0000   0.0000   0.0000   0.0000
     0.0000   0.0000   0.0000   0.0000   0.0000   0.0000   0.0000   0.0000
     0.0000   0.0000   0.0000   0.0000   0.0000   0.0000   0.0000   0.0000
     0.0000   0.0000   0.0000   0.0000   0.0000   0.0000   0.0000   0.0000
     0.0000   0.0000   0.0000   0.0000   0.0000   0.0000   0.0000   0.0000
     0.0000   0.0000   0.0000   0.0000   0.0000   0.0000   0.0000   0.0000
     0.0000   0.0000   0.0000   0.0000   0.0000   0.0000   0.0000   0.0000
     0.0000   0.0000   0.0000   0.0000   0.0000   0.0000   0.0000   0.0000
     0.0000   0.0000   0.0000   0.0000   0.0000   0.0000   0.0000   0.0000
     0.0000   0.0000   0.0000   0.0000   0.0000   0.0000   0.0000   0.0000
     0.0000   0.0000   0.0000   0.0000   0.0000   0.0000   0.0000   0.0000
     0.0000   0.0000   0.0000   0.0000   0.0000   0.0000   0.0000   0.0000
     0.0000   0.0000   0.0000   0.0000   0.0000   0.0000   0.0000   0.0000
     0.0000   0.0000   0.0000   0.0000   0.0000   0.0000   0.0000   0.0000
     0.0000   0.0000   0.0000   0.0000   0.0000   0.0000   0.0000   0.0000
     0.0000   0.0000   0.0000   0.0000   0.0000   0.0000   0.0000   0.0000
     0.0000   0.0000   0.0000   0.0000   0.0000   0.0000   0.0000   0.0000
     0.0000   0.0000   0.0000   0.0000   0.0000   0.0000   0.0000   0.0000
     0.0000   0.0000   0.0000   0.0000   0.0000   0.0000   0.0000   0.0000
     0.0000   0.0000   0.0000   0.0000   0.0000   0.0000   0.0000   0.0000
     0.0000   0.0000   0.0000   0.0000   0.0000   0.0000   0.0000   0.0000
     0.0000   0.0000   0.0000   0.0000   0.0000   0.0000   0.0000   0.0000
     0.0000   0.0000   0.0000   0.0000   0.0000   0.0000   0.0000   0.0000
     0.0000   0.0000   0.0000   0.0000   0.0000   0.0000   0.0000   0.0000
     0.0000   0.0000   0.0000   0.0000   0.0000   0.0000   0.0000   0.0000
     0.0000   0.0000   0.0000   0.0000   0.0000   0.0000   0.0000   0.0000
     0.0000   0.0000   0.0000   0.0000   0.0000   0.0000   0.0000   0.0000
     0.0000   0.0000   0.0000   0.0000   0.0000   0.0000   0.0000   0.0000

     highest occupied, lowest unoccupied level (ev):     3.2166    7.7330

     Writing all to output data dir ./out/aiida.save/
 
     init_run     :      0.02s CPU      0.07s WALL (       1 calls)
     electrons    :   1811.64s CPU   1968.70s WALL (       1 calls)

     Called by init_run:
     wfcinit      :      0.00s CPU      0.00s WALL (       1 calls)
     wfcinit:wfcr :     46.54s CPU     50.23s WALL (      69 calls)
     potinit      :      0.00s CPU      0.01s WALL (       1 calls)
     hinit0       :      0.01s CPU      0.05s WALL (       1 calls)

     Called by electrons:
     c_bands      :   1811.61s CPU   1968.59s WALL (       1 calls)
     v_of_rho     :      0.00s CPU      0.00s WALL (       1 calls)
     v_h          :      0.00s CPU      0.00s WALL (       1 calls)
     v_xc         :      0.00s CPU      0.00s WALL (       1 calls)

     Called by c_bands:
     init_us_2    :      0.00s CPU      0.01s WALL (      69 calls)
     init_us_2:cp :      0.00s CPU      0.00s WALL (      69 calls)
     cegterg      :   1764.36s CPU   1916.84s WALL (      69 calls)

     Called by sum_band:

     Called by *egterg:
     cdiaghg      :   1574.76s CPU   1715.17s WALL (     735 calls)
     cegterg:over :     66.31s CPU     69.58s WALL (     666 calls)
     cegterg:upda :     34.12s CPU     35.97s WALL (     666 calls)
     cegterg:last :     70.46s CPU     76.80s WALL (     345 calls)
     cdiaghg:chol :     62.58s CPU     70.81s WALL (     735 calls)
     cdiaghg:inve :     83.85s CPU     88.11s WALL (     735 calls)
     cdiaghg:para :    203.33s CPU    232.32s WALL (    1470 calls)
     h_psi        :     50.34s CPU     53.72s WALL (     804 calls)
     g_psi        :      0.37s CPU      0.38s WALL (     666 calls)

     Called by h_psi:
     h_psi:calbec :      1.19s CPU      1.34s WALL (     804 calls)
     vloc_psi     :     47.64s CPU     50.67s WALL (     804 calls)
     add_vuspsi   :      0.80s CPU      0.87s WALL (     804 calls)

     General routines
     calbec       :      1.19s CPU      1.34s WALL (     804 calls)
     fft          :      0.00s CPU      0.04s WALL (      10 calls)
     fftw         :     43.77s CPU     46.55s WALL (  895578 calls)
     davcio       :      0.06s CPU      1.65s WALL (     138 calls)
 
     Parallel routines
 
     PWSCF        :  30m19.42s CPU  33m 1.28s WALL

 
   This run was terminated on:  20:12:58   9Nov2023            

=------------------------------------------------------------------------------=
   JOB DONE.
=------------------------------------------------------------------------------=
