
     Program PWSCF v.7.1 starts on 14Nov2023 at 10:16:14 

     This program is part of the open-source Quantum ESPRESSO suite
     for quantum simulation of materials; please cite
         "P. Giannozzi et al., J. Phys.:Condens. Matter 21 395502 (2009);
         "P. Giannozzi et al., J. Phys.:Condens. Matter 29 465901 (2017);
         "P. Giannozzi et al., J. Chem. Phys. 152 154105 (2020);
          URL http://www.quantum-espresso.org", 
     in publications or presentations arising from this work. More details at
     http://www.quantum-espresso.org/quote

     Parallel version (MPI), running on    24 processors

     MPI processes distributed on     1 nodes
     123428 MiB available memory on the printing compute node when the environment starts
 
     Reading input from pw_mp-682_scf_k3000_E69.in
Warning: card &CELL ignored
Warning: card / ignored

     Current dimensions of program PWSCF are:
     Max number of different atomic species (ntypx) = 10
     Max number of k-points (npk) =  40000
     Max angular momentum in pseudopotentials (lmaxx) =  4
 
     K-points division:     npool     =       2
     R & G space division:  proc/nbgrp/npool/nimage =      12
     Subspace diagonalization in iterative solution of the eigenvalue problem:
     a serial algorithm will be used

 
     Parallelization info
     --------------------
     sticks:   dense  smooth     PW     G-vecs:    dense   smooth      PW
     Min          58      58     17                 1030     1030     175
     Max          59      59     18                 1033     1033     178
     Sum         703     703    211                12387    12387    2109
 
     Using Slab Decomposition
 


     bravais-lattice index     =            2
     lattice parameter (alat)  =       8.6394  a.u.
     unit-cell volume          =     161.2111 (a.u.)^3
     number of atoms/cell      =            2
     number of atomic types    =            2
     number of electrons       =        16.00
     number of Kohn-Sham states=           16
     kinetic-energy cutoff     =      69.0000  Ry
     charge density cutoff     =     276.0000  Ry
     scf convergence threshold =      1.0E-10
     mixing beta               =       0.7000
     number of iterations used =            8  plain     mixing
     Exchange-correlation= PBE
                           (   1   4   3   4   0   0   0)

     celldm(1)=   8.639428  celldm(2)=   0.000000  celldm(3)=   0.000000
     celldm(4)=   0.000000  celldm(5)=   0.000000  celldm(6)=   0.000000

     crystal axes: (cart. coord. in units of alat)
               a(1) = (  -0.500000   0.000000   0.500000 )  
               a(2) = (   0.000000   0.500000   0.500000 )  
               a(3) = (  -0.500000   0.500000   0.000000 )  

     reciprocal axes: (cart. coord. in units 2 pi/alat)
               b(1) = ( -1.000000 -1.000000  1.000000 )  
               b(2) = (  1.000000  1.000000  1.000000 )  
               b(3) = ( -1.000000  1.000000 -1.000000 )  


     PseudoPot. # 1 for F  read from file:
     /usr/scratch4/magr4985/MG/HTDF/pseudo/SG15/F.upf
     MD5 check sum: 1d8275f47d602dd53cad6bcdc0eda7dc
     Pseudo is Norm-conserving, Zval =  7.0
     Generated using ONCVPSP code by D. R. Hamann
     Using radial grid of  602 points,  4 beta functions with: 
                l(1) =   0
                l(2) =   0
                l(3) =   1
                l(4) =   1

     PseudoPot. # 2 for Na read from file:
     /usr/scratch4/magr4985/MG/HTDF/pseudo/SG15/Na.upf
     MD5 check sum: 425b17ce8ead78efa4860b7b3310c7e3
     Pseudo is Norm-conserving, Zval =  9.0
     Generated using ONCVPSP code by D. R. Hamann
     Using radial grid of  602 points,  4 beta functions with: 
                l(1) =   0
                l(2) =   0
                l(3) =   1
                l(4) =   1

     atomic species   valence    mass     pseudopotential
        F              7.00    18.99840     F ( 1.00)
        Na             9.00    22.98980     Na( 1.00)

     48 Sym. Ops., with inversion, found



   Cartesian axes

     site n.     atom                  positions (alat units)
         1           Na  tau(   1) = (   0.0000000   0.0000000   0.0000000  )
         2           F   tau(   2) = (  -0.5000000   0.5000000   0.5000000  )

     number of k points=    72  Gaussian smearing, width (Ry)=  0.0005
                       cart. coord. in units 2pi/alat
        k(    1) = (   0.0000000   0.0000000   0.0000000), wk =   0.0011574
        k(    2) = (  -0.0833333   0.0833333  -0.0833333), wk =   0.0092593
        k(    3) = (  -0.1666667   0.1666667  -0.1666667), wk =   0.0092593
        k(    4) = (  -0.2500000   0.2500000  -0.2500000), wk =   0.0092593
        k(    5) = (  -0.3333333   0.3333333  -0.3333333), wk =   0.0092593
        k(    6) = (  -0.4166667   0.4166667  -0.4166667), wk =   0.0092593
        k(    7) = (   0.5000000  -0.5000000   0.5000000), wk =   0.0046296
        k(    8) = (   0.0000000   0.1666667   0.0000000), wk =   0.0069444
        k(    9) = (  -0.0833333   0.2500000  -0.0833333), wk =   0.0277778
        k(   10) = (  -0.1666667   0.3333333  -0.1666667), wk =   0.0277778
        k(   11) = (  -0.2500000   0.4166667  -0.2500000), wk =   0.0277778
        k(   12) = (  -0.3333333   0.5000000  -0.3333333), wk =   0.0277778
        k(   13) = (   0.5833333  -0.4166667   0.5833333), wk =   0.0277778
        k(   14) = (   0.5000000  -0.3333333   0.5000000), wk =   0.0277778
        k(   15) = (   0.4166667  -0.2500000   0.4166667), wk =   0.0277778
        k(   16) = (   0.3333333  -0.1666667   0.3333333), wk =   0.0277778
        k(   17) = (   0.2500000  -0.0833333   0.2500000), wk =   0.0277778
        k(   18) = (   0.1666667  -0.0000000   0.1666667), wk =   0.0138889
        k(   19) = (   0.0000000   0.3333333   0.0000000), wk =   0.0069444
        k(   20) = (  -0.0833333   0.4166667  -0.0833333), wk =   0.0277778
        k(   21) = (  -0.1666667   0.5000000  -0.1666667), wk =   0.0277778
        k(   22) = (  -0.2500000   0.5833333  -0.2500000), wk =   0.0277778
        k(   23) = (   0.6666667  -0.3333333   0.6666667), wk =   0.0277778
        k(   24) = (   0.5833333  -0.2500000   0.5833333), wk =   0.0277778
        k(   25) = (   0.5000000  -0.1666667   0.5000000), wk =   0.0277778
        k(   26) = (   0.4166667  -0.0833333   0.4166667), wk =   0.0277778
        k(   27) = (   0.3333333   0.0000000   0.3333333), wk =   0.0138889
        k(   28) = (   0.0000000   0.5000000   0.0000000), wk =   0.0069444
        k(   29) = (  -0.0833333   0.5833333  -0.0833333), wk =   0.0277778
        k(   30) = (  -0.1666667   0.6666667  -0.1666667), wk =   0.0277778
        k(   31) = (   0.7500000  -0.2500000   0.7500000), wk =   0.0277778
        k(   32) = (   0.6666667  -0.1666667   0.6666667), wk =   0.0277778
        k(   33) = (   0.5833333  -0.0833333   0.5833333), wk =   0.0277778
        k(   34) = (   0.5000000   0.0000000   0.5000000), wk =   0.0138889
        k(   35) = (   0.0000000   0.6666667   0.0000000), wk =   0.0069444
        k(   36) = (  -0.0833333   0.7500000  -0.0833333), wk =   0.0277778
        k(   37) = (   0.8333333  -0.1666667   0.8333333), wk =   0.0277778
        k(   38) = (   0.7500000  -0.0833333   0.7500000), wk =   0.0277778
        k(   39) = (   0.6666667  -0.0000000   0.6666667), wk =   0.0138889
        k(   40) = (   0.0000000   0.8333333   0.0000000), wk =   0.0069444
        k(   41) = (   0.9166667  -0.0833333   0.9166667), wk =   0.0277778
        k(   42) = (   0.8333333   0.0000000   0.8333333), wk =   0.0138889
        k(   43) = (   0.0000000  -1.0000000   0.0000000), wk =   0.0034722
        k(   44) = (  -0.1666667   0.3333333   0.0000000), wk =   0.0277778
        k(   45) = (  -0.2500000   0.4166667  -0.0833333), wk =   0.0555556
        k(   46) = (  -0.3333333   0.5000000  -0.1666667), wk =   0.0555556
        k(   47) = (   0.5833333  -0.4166667   0.7500000), wk =   0.0555556
        k(   48) = (   0.5000000  -0.3333333   0.6666667), wk =   0.0277778
        k(   49) = (  -0.1666667   0.5000000   0.0000000), wk =   0.0277778
        k(   50) = (  -0.2500000   0.5833333  -0.0833333), wk =   0.0555556
        k(   51) = (   0.6666667  -0.3333333   0.8333333), wk =   0.0555556
        k(   52) = (   0.5833333  -0.2500000   0.7500000), wk =   0.0555556
        k(   53) = (   0.5000000  -0.1666667   0.6666667), wk =   0.0555556
        k(   54) = (   0.4166667  -0.0833333   0.5833333), wk =   0.0555556
        k(   55) = (   0.3333333   0.0000000   0.5000000), wk =   0.0277778
        k(   56) = (  -0.1666667   0.6666667  -0.0000000), wk =   0.0277778
        k(   57) = (   0.7500000  -0.2500000   0.9166667), wk =   0.0555556
        k(   58) = (   0.6666667  -0.1666667   0.8333333), wk =   0.0555556
        k(   59) = (   0.5833333  -0.0833333   0.7500000), wk =   0.0555556
        k(   60) = (   0.5000000   0.0000000   0.6666667), wk =   0.0277778
        k(   61) = (   0.8333333  -0.1666667   1.0000000), wk =   0.0277778
        k(   62) = (   0.7500000  -0.0833333   0.9166667), wk =   0.0555556
        k(   63) = (   0.6666667   0.0000000   0.8333333), wk =   0.0277778
        k(   64) = (  -0.1666667  -1.0000000  -0.0000000), wk =   0.0138889
        k(   65) = (   0.6666667  -0.3333333   1.0000000), wk =   0.0277778
        k(   66) = (   0.5833333  -0.2500000   0.9166667), wk =   0.0555556
        k(   67) = (   0.5000000  -0.1666667   0.8333333), wk =   0.0277778
        k(   68) = (   0.6666667  -0.1666667   1.0000000), wk =   0.0277778
        k(   69) = (   0.5833333  -0.0833333   0.9166667), wk =   0.0555556
        k(   70) = (   0.5000000   0.0000000   0.8333333), wk =   0.0277778
        k(   71) = (  -0.3333333  -1.0000000   0.0000000), wk =   0.0138889
        k(   72) = (  -0.5000000  -1.0000000   0.0000000), wk =   0.0069444

     Dense  grid:    12387 G-vectors     FFT dimensions: (  36,  36,  36)

     Estimated max dynamical RAM per process >       2.87 MB

     Estimated total dynamical RAM >      65.93 MB

     Initial potential from superposition of free atoms

     starting charge      15.8629, renormalised to      16.0000
     Starting wfcs are random

     total cpu time spent up to now is        0.3 secs

     Self-consistent Calculation

     iteration #  1     ecut=    69.00 Ry     beta= 0.70
     Davidson diagonalization with overlap
     ethr =  1.00E-02,  avg # of iterations =  7.4

     Threshold (ethr) on eigenvalues was too large:
     Diagonalizing with lowered threshold

     Davidson diagonalization with overlap
     ethr =  9.33E-04,  avg # of iterations =  1.2

     total cpu time spent up to now is        1.0 secs

     total energy              =    -133.14152103 Ry
     estimated scf accuracy    <       0.15193578 Ry

     iteration #  2     ecut=    69.00 Ry     beta= 0.70
     Davidson diagonalization with overlap
     ethr =  9.50E-04,  avg # of iterations =  2.1

     total cpu time spent up to now is        1.2 secs

     total energy              =    -133.17863675 Ry
     estimated scf accuracy    <       0.10502548 Ry

     iteration #  3     ecut=    69.00 Ry     beta= 0.70
     Davidson diagonalization with overlap
     ethr =  6.56E-04,  avg # of iterations =  1.8

     total cpu time spent up to now is        1.4 secs

     total energy              =    -133.20101960 Ry
     estimated scf accuracy    <       0.00125612 Ry

     iteration #  4     ecut=    69.00 Ry     beta= 0.70
     Davidson diagonalization with overlap
     ethr =  7.85E-06,  avg # of iterations =  4.6

     total cpu time spent up to now is        1.7 secs

     total energy              =    -133.20128674 Ry
     estimated scf accuracy    <       0.00001015 Ry

     iteration #  5     ecut=    69.00 Ry     beta= 0.70
     Davidson diagonalization with overlap
     ethr =  6.34E-08,  avg # of iterations =  2.2

     total cpu time spent up to now is        1.9 secs

     total energy              =    -133.20129043 Ry
     estimated scf accuracy    <       0.00000102 Ry

     iteration #  6     ecut=    69.00 Ry     beta= 0.70
     Davidson diagonalization with overlap
     ethr =  6.34E-09,  avg # of iterations =  2.0

     total cpu time spent up to now is        2.1 secs

     total energy              =    -133.20129068 Ry
     estimated scf accuracy    <       0.00000006 Ry

     iteration #  7     ecut=    69.00 Ry     beta= 0.70
     Davidson diagonalization with overlap
     ethr =  3.52E-10,  avg # of iterations =  1.0

     total cpu time spent up to now is        2.3 secs

     total energy              =    -133.20129068 Ry
     estimated scf accuracy    <          4.2E-10 Ry

     iteration #  8     ecut=    69.00 Ry     beta= 0.70
     Davidson diagonalization with overlap
     ethr =  2.61E-12,  avg # of iterations =  2.0

     total cpu time spent up to now is        2.5 secs

     End of self-consistent calculation

          k = 0.0000 0.0000 0.0000 (  1471 PWs)   bands (ev):

   -45.3596 -17.5305 -17.2649 -17.2649 -17.2649   1.6185   1.6185   1.6185
     8.1958  21.0539  21.0539  21.0539  23.8945  26.3231  26.3231  29.1758

          k =-0.0833 0.0833-0.0833 (  1528 PWs)   bands (ev):

   -45.3594 -17.6539 -17.2658 -17.2658 -17.1321   1.4726   1.5992   1.5992
     8.4526  20.0310  21.1681  21.1681  25.0543  26.0046  26.0046  29.1966

          k =-0.1667 0.1667-0.1667 (  1537 PWs)   bands (ev):

   -45.3566 -17.8343 -17.2682 -17.2682 -16.9254   1.1135   1.5489   1.5489
     9.1412  18.4991  21.4736  21.4736  25.4378  25.4378  26.4664  29.7640

          k =-0.2500 0.2500-0.2500 (  1546 PWs)   bands (ev):

   -45.3528 -17.9921 -17.2715 -17.2715 -16.7315   0.6848   1.4811   1.4811
    10.0952  17.1286  21.8511  21.8511  25.0300  25.0300  26.6794  30.9877

          k =-0.3333 0.3333-0.3333 (  1540 PWs)   bands (ev):

   -45.3488 -18.1115 -17.2749 -17.2749 -16.5753   0.3053   1.4145   1.4145
    11.1555  15.9631  22.1271  22.1271  24.9433  24.9433  26.4118  30.5453

          k =-0.4167 0.4167-0.4167 (  1550 PWs)   bands (ev):

   -45.3460 -18.1855 -17.2773 -17.2773 -16.4740   0.0501   1.3659   1.3659
    12.1594  14.9917  22.2297  22.2297  25.0910  25.0910  26.1875  29.7364

          k = 0.5000-0.5000 0.5000 (  1538 PWs)   bands (ev):

   -45.3448 -18.2105 -17.2782 -17.2782 -16.4389  -0.0393   1.3484   1.3484
    12.7040  14.4770  22.2449  22.2449  25.1906  25.1906  26.1141  29.4092

          k = 0.0000 0.1667 0.0000 (  1523 PWs)   bands (ev):

   -45.3589 -17.6739 -17.2688 -17.2688 -17.1041   1.4429   1.5865   1.5865
     8.5356  19.8864  21.1238  21.1238  25.3434  25.4603  26.5094  29.4961

          k =-0.0833 0.2500-0.0833 (  1539 PWs)   bands (ev):

   -45.3569 -17.8007 -17.2732 -17.2707 -16.9562   1.1769   1.5412   1.5440
     9.0742  18.7256  21.2806  21.3540  24.5160  26.4083  26.8769  29.6707

          k =-0.1667 0.3333-0.1667 (  1548 PWs)   bands (ev):

   -45.3535 -17.9415 -17.2776 -17.2728 -16.7849   0.7980   1.4762   1.4768
     9.9339  17.4472  21.5494  21.6820  23.9108  26.0920  27.4798  30.4310

          k =-0.2500 0.4167-0.2500 (  1563 PWs)   bands (ev):

   -45.3497 -18.0594 -17.2809 -17.2767 -16.6327   0.4285   1.3980   1.4104
    10.9591  16.3036  21.7946  21.8184  23.7900  25.8745  27.3609  30.9840

          k =-0.3333 0.5000-0.3333 (  1554 PWs)   bands (ev):

   -45.3464 -18.1408 -17.2823 -17.2814 -16.5224   0.1522   1.3304   1.3599
    12.0007  15.3116  21.6437  22.0210  24.0835  25.7531  27.1940  30.5396

          k = 0.5833-0.4167 0.5833 (  1551 PWs)   bands (ev):

   -45.3447 -18.1794 -17.2858 -17.2813 -16.4681   0.0173   1.2907   1.3376
    12.7961  14.5809  21.4589  22.1780  24.4647  25.5386  27.0879  30.2150

          k = 0.5000-0.3333 0.5000 (  1549 PWs)   bands (ev):

   -45.3450 -18.1732 -17.2884 -17.2783 -16.4768   0.0451   1.2894   1.3496
    12.5907  14.7757  21.3401  22.3423  24.8112  25.0720  27.0577  30.3539

          k = 0.4167-0.2500 0.4167 (  1558 PWs)   bands (ev):

   -45.3474 -18.1225 -17.2885 -17.2739 -16.5474   0.2307   1.3268   1.3928
    11.6594  15.6376  21.2850  22.4965  24.4557  25.0966  27.1561  30.9075

          k = 0.3333-0.1667 0.3333 (  1565 PWs)   bands (ev):

   -45.3511 -18.0305 -17.2856 -17.2695 -16.6713   0.5440   1.3944   1.4561
    10.6062  16.6772  21.2441  22.4020  24.1527  25.3544  27.3420  31.2420

          k = 0.2500-0.0833 0.2500 (  1550 PWs)   bands (ev):

   -45.3548 -17.9051 -17.2803 -17.2662 -16.8324   0.9244   1.4761   1.5232
     9.6199  17.8563  21.1757  21.9301  24.4930  25.6810  27.2776  30.1925

          k = 0.1667-0.0000 0.1667 (  1544 PWs)   bands (ev):

   -45.3579 -17.7633 -17.2730 -17.2648 -17.0049   1.2746   1.5518   1.5757
     8.8501  19.1066  21.1260  21.4503  25.2005  26.0320  26.2371  29.4933

          k = 0.0000 0.3333 0.0000 (  1551 PWs)   bands (ev):

   -45.3555 -17.8261 -17.2797 -17.2797 -16.9112   1.0545   1.5027   1.5027
     9.4320  18.2692  21.3049  21.3049  23.4131  27.0638  28.2722  29.6199

          k =-0.0833 0.4167-0.0833 (  1549 PWs)   bands (ev):

   -45.3525 -17.8957 -17.2860 -17.2843 -16.8186   0.8003   1.4365   1.4450
    10.1388  17.3935  21.4087  21.4667  22.5732  27.1775  29.2171  29.6357

          k =-0.1667 0.5000-0.1667 (  1560 PWs)   bands (ev):

   -45.3491 -17.9761 -17.2905 -17.2892 -16.7123   0.5223   1.3396   1.3829
    11.0742  16.4740  21.0380  21.6760  22.4995  27.0452  29.2081  29.8921

          k =-0.2500 0.5833-0.2500 (  1566 PWs)   bands (ev):

   -45.3460 -18.0443 -17.2971 -17.2919 -16.6179   0.2962   1.2338   1.3335
    12.1055  15.6141  20.4875  21.8730  22.7874  26.8477  29.2506  30.1527

          k = 0.6667-0.3333 0.6667 (  1567 PWs)   bands (ev):

   -45.3440 -18.0886 -17.3065 -17.2899 -16.5538   0.1656   1.1499   1.3088
    13.0513  14.8479  20.0899  22.0568  23.1296  26.4856  29.0382  31.1002

          k = 0.5833-0.2500 0.5833 (  1557 PWs)   bands (ev):

   -45.3436 -18.1041 -17.3138 -17.2849 -16.5311   0.1497   1.1137   1.3156
    13.2414  14.7126  19.8938  22.2725  23.6023  25.7909  28.8096  31.7823

          k = 0.5000-0.1667 0.5000 (  1557 PWs)   bands (ev):

   -45.3451 -18.0900 -17.3155 -17.2784 -16.5543   0.2469   1.1388   1.3522
    12.4142  15.4288  19.9308  22.5738  24.2243  24.7908  28.7056  31.4799

          k = 0.4167-0.0833 0.4167 (  1557 PWs)   bands (ev):

   -45.3481 -18.0479 -17.3098 -17.2721 -16.6207   0.4357   1.2243   1.4092
    11.3938  16.2439  20.2112  22.9699  23.7478  24.8702  28.6587  31.1583

          k = 0.3333 0.0000 0.3333 (  1558 PWs)   bands (ev):

   -45.3517 -17.9828 -17.2969 -17.2676 -16.7199   0.6785   1.3502   1.4719
    10.4147  17.0621  20.6710  22.6391  23.7235  25.3949  28.3105  30.6622

          k = 0.0000 0.5000 0.0000 (  1587 PWs)   bands (ev):

   -45.3509 -17.8727 -17.2946 -17.2946 -16.8263   0.6761   1.3942   1.3942
    10.6752  16.9341  21.2785  21.5332  21.5332  27.9684  28.8126  31.5980

          k =-0.0833 0.5833-0.0833 (  1565 PWs)   bands (ev):

   -45.3476 -17.8795 -17.3024 -17.3010 -16.8038   0.5119   1.3128   1.3396
    11.4746  16.3249  20.2093  21.6718  21.7745  28.2560  28.4840  31.8493

          k =-0.1667 0.6667-0.1667 (  1566 PWs)   bands (ev):

   -45.3448 -17.9076 -17.3157 -17.3036 -16.7537   0.3844   1.1777   1.2944
    12.4400  15.7257  19.3549  21.8237  21.9390  28.2071  28.7073  31.6091

          k = 0.7500-0.2500 0.7500 (  1564 PWs)   bands (ev):

   -45.3427 -17.9451 -17.3343 -17.3016 -16.6903   0.3278   1.0206   1.2705
    13.4354  15.1336  18.7632  21.9737  22.0562  27.8770  29.4644  31.1844

          k = 0.6667-0.1667 0.6667 (  1566 PWs)   bands (ev):

   -45.3422 -17.9842 -17.3482 -17.2955 -16.6333   0.3352   0.9019   1.2737
    13.9871  14.8025  18.4765  22.1461  22.3871  27.0947  30.3016  30.9685

          k = 0.5833-0.0833 0.5833 (  1559 PWs)   bands (ev):

   -45.3430 -18.0189 -17.3487 -17.2871 -16.5983   0.3607   0.8978   1.3040
    13.3004  15.3542  18.6083  22.3844  23.0703  25.8903  30.1663  31.2301

          k = 0.5000 0.0000 0.5000 (  1554 PWs)   bands (ev):

   -45.3451 -18.0425 -17.3340 -17.2785 -16.5939   0.3815   1.0299   1.3535
    12.3410  15.8415  19.2361  22.7183  23.9891  24.6175  29.6661  31.1176

          k = 0.0000 0.6667 0.0000 (  1580 PWs)   bands (ev):

   -45.3456 -17.7956 -17.3097 -17.3097 -16.8860   0.4296   1.2921   1.2921
    12.1256  15.9643  19.1930  21.7457  21.7457  27.6554  29.1702  33.6182

          k =-0.0833 0.7500-0.0833 (  1575 PWs)   bands (ev):

   -45.3433 -17.7508 -17.3253 -17.3142 -16.9168   0.3652   1.2053   1.2533
    12.9779  15.5934  18.2590  21.7729  21.8449  27.4596  29.5679  33.5283

          k = 0.8333-0.1667 0.8333 (  1567 PWs)   bands (ev):

   -45.3416 -17.7605 -17.3613 -17.3132 -16.8685   0.3734   1.0320   1.2327
    13.9382  15.2604  17.5458  21.6250  21.9438  28.0189  29.5368  32.6018

          k = 0.7500-0.0833 0.7500 (  1561 PWs)   bands (ev):

   -45.3409 -17.8254 -17.3843 -17.3072 -16.7739   0.4706   0.8030   1.2357
    14.6665  14.9915  17.2003  21.6250  22.0503  28.8365  29.1033  31.3966

          k = 0.6667-0.0000 0.6667 (  1568 PWs)   bands (ev):

   -45.3415 -17.9227 -17.3764 -17.2976 -16.6756   0.5458   0.6716   1.2614
    14.1422  15.3015  17.5687  22.1106  22.1910  27.3772  30.4182  31.1149

          k = 0.0000 0.8333 0.0000 (  1576 PWs)   bands (ev):

   -45.3419 -17.6120 -17.3208 -17.3208 -17.0703   0.3180   1.2209   1.2209
    13.7036  15.3786  17.2543  21.8946  21.8946  26.7190  30.4858  34.2019

          k = 0.9167-0.0833 0.9167 (  1571 PWs)   bands (ev):

   -45.3408 -17.5525 -17.3773 -17.3218 -17.0751   0.3207   1.1416   1.2054
    14.5655  15.2236  16.4469  21.7678  21.9442  26.8534  30.8882  33.0909

          k = 0.8333 0.0000 0.8333 (  1580 PWs)   bands (ev):

   -45.3406 -17.6521 -17.4108 -17.3168 -16.9351   0.3941   0.9661   1.2107
    15.0832  15.1500  16.2480  21.5003  21.9902  27.7766  30.8814  31.1642

          k = 0.0000-1.0000 0.0000 (  1588 PWs)   bands (ev):

   -45.3407 -17.4240 -17.3249 -17.3249 -17.2614   0.2904   1.1954   1.1954
    15.1321  15.1829  15.7120  21.9477  21.9477  26.3637  31.2138  34.2166

          k =-0.1667 0.3333 0.0000 (  1547 PWs)   bands (ev):

   -45.3544 -17.8869 -17.2843 -17.2713 -16.8443   0.9308   1.4610   1.5050
     9.6933  17.8557  21.1087  21.7817  23.6439  26.4283  28.0768  29.8449

          k =-0.2500 0.4167-0.0833 (  1557 PWs)   bands (ev):

   -45.3510 -17.9815 -17.2942 -17.2736 -16.7181   0.6278   1.3604   1.4441
    10.5842  16.8789  20.8875  22.2870  23.1224  26.1562  28.5550  30.2918

          k =-0.3333 0.5000-0.1667 (  1564 PWs)   bands (ev):

   -45.3475 -18.0601 -17.3002 -17.2783 -16.6092   0.3527   1.2664   1.3793
    11.6080  15.9480  20.6486  22.2305  23.4667  25.8274  28.5442  30.7473

          k = 0.5833-0.4167 0.7500 (  1557 PWs)   bands (ev):

   -45.3448 -18.1108 -17.3023 -17.2837 -16.5365   0.1652   1.2002   1.3311
    12.6107  15.0924  20.4712  22.0123  24.0380  25.5234  28.5364  31.2817

          k = 0.5000-0.3333 0.6667 (  1550 PWs)   bands (ev):

   -45.3437 -18.1282 -17.3023 -17.2863 -16.5111   0.0989   1.1765   1.3134
    13.1918  14.5789  20.4101  21.9275  24.2877  25.3805  28.5448  31.3619

          k =-0.1667 0.5000 0.0000 (  1556 PWs)   bands (ev):

   -45.3497 -17.9260 -17.2999 -17.2863 -16.7661   0.6094   1.3429   1.3952
    10.8854  16.7307  20.8065  21.8987  22.0267  27.3449  29.2378  30.4017

          k =-0.2500 0.5833-0.0833 (  1564 PWs)   bands (ev):

   -45.3466 -17.9644 -17.3112 -17.2915 -16.7021   0.4328   1.2224   1.3332
    11.8288  16.0543  20.0596  21.5612  22.6580  27.1120  29.3775  30.7243

          k = 0.6667-0.3333 0.8333 (  1557 PWs)   bands (ev):

   -45.3439 -17.9992 -17.3196 -17.2983 -16.6430   0.3129   1.0992   1.2847
    12.8401  15.3837  19.4879  21.3313  23.2304  26.7160  29.9625  30.6703

          k = 0.5833-0.2500 0.7500 (  1556 PWs)   bands (ev):

   -45.3426 -18.0237 -17.3278 -17.2993 -16.6023   0.2638   1.0114   1.2663
    13.6789  14.7733  19.1693  21.2716  23.7265  26.1789  30.4139  30.9961

          k = 0.5000-0.1667 0.6667 (  1558 PWs)   bands (ev):

   -45.3430 -18.0351 -17.3325 -17.2933 -16.5892   0.2807   0.9960   1.2824
    13.4057  15.0273  19.1300  21.4641  24.2268  25.4303  30.2572  31.1674

          k = 0.4167-0.0833 0.5833 (  1560 PWs)   bands (ev):

   -45.3449 -18.0318 -17.3283 -17.2847 -16.6071   0.3519   1.0681   1.3275
    12.4672  15.6899  19.4326  21.8666  24.1857  25.1223  30.0095  30.6738

          k = 0.3333 0.0000 0.5000 (  1566 PWs)   bands (ev):

   -45.3479 -18.0135 -17.3142 -17.2772 -16.6533   0.4703   1.2062   1.3876
    11.4713  16.2931  20.0695  22.3914  23.2473  25.7121  29.5936  30.3348

          k =-0.1667 0.6667-0.0000 (  1558 PWs)   bands (ev):

   -45.3450 -17.8530 -17.3156 -17.3080 -16.8142   0.4177   1.2313   1.2793
    12.2943  15.8808  19.2423  21.3935  22.2159  28.1051  28.6317  32.9382

          k = 0.7500-0.2500 0.9167 (  1565 PWs)   bands (ev):

   -45.3428 -17.8510 -17.3341 -17.3173 -16.7870   0.3810   1.0869   1.2288
    13.2524  15.4722  18.4543  21.0060  22.7246  28.0575  28.7869  32.3467

          k = 0.6667-0.1667 0.8333 (  1565 PWs)   bands (ev):

   -45.3415 -17.8756 -17.3579 -17.3159 -16.7334   0.4168   0.9027   1.2118
    14.1823  15.0389  17.9578  20.7498  23.1622  27.6688  29.4003  31.5500

          k = 0.5833-0.0833 0.7500 (  1558 PWs)   bands (ev):

   -45.3414 -17.9234 -17.3663 -17.3074 -16.6751   0.4759   0.7747   1.2281
    14.2262  15.1051  17.8915  20.8471  23.6364  26.6943  30.3952  31.0546

          k = 0.5000 0.0000 0.6667 (  1559 PWs)   bands (ev):

   -45.3427 -17.9815 -17.3540 -17.2956 -16.6299   0.4216   0.8641   1.2710
    13.4021  15.4770  18.4257  21.2879  24.2714  25.4322  30.6974  31.1225

          k = 0.8333-0.1667 1.0000 (  1572 PWs)   bands (ev):

   -45.3417 -17.6883 -17.3479 -17.3272 -16.9504   0.3515   1.1532   1.1872
    13.8339  15.3579  17.3940  21.2790  22.3408  27.3782  29.9313  32.6627

          k = 0.7500-0.0833 0.9167 (  1570 PWs)   bands (ev):

   -45.3407 -17.7007 -17.3901 -17.3294 -16.8889   0.4106   0.9869   1.1664
    14.7174  15.1732  16.8149  20.7502  22.7683  27.9908  29.6023  31.4224

          k = 0.6667 0.0000 0.8333 (  1560 PWs)   bands (ev):

   -45.3405 -17.7972 -17.3929 -17.3211 -16.7827   0.5388   0.7584   1.1852
    14.8419  15.1881  16.9432  20.5435  23.1512  28.2809  29.0985  31.0117

          k =-0.1667-1.0000-0.0000 (  1572 PWs)   bands (ev):

   -45.3404 -17.5414 -17.4173 -17.3315 -17.0349   0.3430   1.1254   1.1509
    15.1368  15.1819  15.9866  21.2340  22.3851  27.0964  31.1703  31.6068

          k = 0.6667-0.3333 1.0000 (  1564 PWs)   bands (ev):

   -45.3440 -17.9473 -17.3318 -17.3021 -16.6895   0.3970   1.0703   1.2653
    12.7532  15.6880  19.1300  20.9497  23.5259  26.5792  29.5506  31.8544

          k = 0.5833-0.2500 0.9167 (  1561 PWs)   bands (ev):

   -45.3421 -17.9310 -17.3457 -17.3163 -16.6789   0.4140   0.9251   1.2072
    13.7074  15.2916  18.5019  20.4028  24.3884  25.9698  29.9639  31.5884

          k = 0.5000-0.1667 0.8333 (  1566 PWs)   bands (ev):

   -45.3415 -17.9241 -17.3503 -17.3232 -16.6747   0.4361   0.8573   1.1847
    14.3511  14.8851  18.2861  20.1744  24.8727  25.5985  30.4035  30.9861

          k = 0.6667-0.1667 1.0000 (  1569 PWs)   bands (ev):

   -45.3413 -17.8097 -17.3517 -17.3447 -16.7874   0.4428   0.9754   1.1320
    14.1528  15.3063  17.7512  20.1448  23.6362  27.5763  28.9452  31.5363

          k = 0.5833-0.0833 0.9167 (  1574 PWs)   bands (ev):

   -45.3407 -17.8082 -17.3745 -17.3484 -16.7601   0.5624   0.8021   1.0964
    14.8809  15.0940  17.4444  19.6013  24.4512  26.8102  29.3367  30.8603

          k = 0.5000 0.0000 0.8333 (  1568 PWs)   bands (ev):

   -45.3410 -17.8571 -17.3687 -17.3373 -16.7202   0.5781   0.7489   1.1319
    14.5185  15.2440  17.7383  19.7075  25.1868  25.6730  29.8652  30.8311

          k =-0.3333-1.0000 0.0000 (  1578 PWs)   bands (ev):

   -45.3404 -17.7150 -17.3990 -17.3494 -16.8412   0.4915   0.9415   1.0624
    15.1488  15.1761  16.7165  19.8985  23.6664  28.4157  28.4448  30.9311

          k =-0.5000-1.0000 0.0000 (  1564 PWs)   bands (ev):

   -45.3402 -17.7776 -17.3741 -17.3741 -16.7686   0.7079   0.7079   1.0186
    15.1641  15.1641  17.3470  19.0368  25.7136  25.7136  29.2726  30.5878

     the Fermi energy is     4.3912 ev

!    total energy              =    -133.20129068 Ry
     estimated scf accuracy    <          9.9E-11 Ry
     smearing contrib. (-TS)   =      -0.00000000 Ry
     internal energy E=F+TS    =    -133.20129068 Ry

     The total energy is F=E-TS. E is the sum of the following terms:
     one-electron contribution =     -64.76446980 Ry
     hartree contribution      =      38.45749852 Ry
     xc contribution           =     -22.01156724 Ry
     ewald contribution        =     -84.88275216 Ry

     convergence has been achieved in   8 iterations

     Writing all to output data dir out/mp-682.save/
 
     init_run     :      0.08s CPU      0.17s WALL (       1 calls)
     electrons    :      2.06s CPU      2.25s WALL (       1 calls)

     Called by init_run:
     wfcinit      :      0.07s CPU      0.11s WALL (       1 calls)
     potinit      :      0.00s CPU      0.00s WALL (       1 calls)
     hinit0       :      0.01s CPU      0.04s WALL (       1 calls)

     Called by electrons:
     c_bands      :      1.78s CPU      1.94s WALL (       9 calls)
     sum_band     :      0.26s CPU      0.27s WALL (       9 calls)
     v_of_rho     :      0.02s CPU      0.02s WALL (       9 calls)
     mix_rho      :      0.00s CPU      0.00s WALL (       9 calls)

     Called by c_bands:
     init_us_2    :      0.02s CPU      0.02s WALL (     684 calls)
     init_us_2:cp :      0.02s CPU      0.02s WALL (     684 calls)
     cegterg      :      1.67s CPU      1.80s WALL (     324 calls)

     Called by *egterg:
     cdiaghg      :      0.32s CPU      0.37s WALL (    1192 calls)
     h_psi        :      1.26s CPU      1.38s WALL (    1264 calls)
     g_psi        :      0.01s CPU      0.01s WALL (     904 calls)

     Called by h_psi:
     h_psi:calbec :      0.04s CPU      0.04s WALL (    1264 calls)
     vloc_psi     :      1.20s CPU      1.30s WALL (    1264 calls)
     add_vuspsi   :      0.02s CPU      0.02s WALL (    1264 calls)

     General routines
     calbec       :      0.03s CPU      0.04s WALL (    1264 calls)
     fft          :      0.01s CPU      0.04s WALL (      90 calls)
     ffts         :      0.00s CPU      0.00s WALL (       9 calls)
     fftw         :      1.28s CPU      1.39s WALL (   34314 calls)
 
     Parallel routines
 
     PWSCF        :      2.20s CPU      2.60s WALL

 
   This run was terminated on:  10:16:17  14Nov2023            

=------------------------------------------------------------------------------=
   JOB DONE.
=------------------------------------------------------------------------------=
