
     Program PWSCF v.7.1 starts on 30Nov2023 at 16:14:12 

     This program is part of the open-source Quantum ESPRESSO suite
     for quantum simulation of materials; please cite
         "P. Giannozzi et al., J. Phys.:Condens. Matter 21 395502 (2009);
         "P. Giannozzi et al., J. Phys.:Condens. Matter 29 465901 (2017);
         "P. Giannozzi et al., J. Chem. Phys. 152 154105 (2020);
          URL http://www.quantum-espresso.org", 
     in publications or presentations arising from this work. More details at
     http://www.quantum-espresso.org/quote

     Parallel version (MPI), running on    24 processors

     MPI processes distributed on     1 nodes
     121991 MiB available memory on the printing compute node when the environment starts
 
     Reading input from pw_mp-2542_scf_k3000_E107.in
Warning: card &CELL ignored
Warning: card / ignored

     Current dimensions of program PWSCF are:
     Max number of different atomic species (ntypx) = 10
     Max number of k-points (npk) =  40000
     Max angular momentum in pseudopotentials (lmaxx) =  4
 
     R & G space division:  proc/nbgrp/npool/nimage =      24
     Subspace diagonalization in iterative solution of the eigenvalue problem:
     a serial algorithm will be used

 
     Parallelization info
     --------------------
     sticks:   dense  smooth     PW     G-vecs:    dense   smooth      PW
     Min          31      31      9                 1149     1149     180
     Max          32      32     11                 1158     1158     183
     Sum         757     757    223                27655    27655    4367
 
     Using Slab Decomposition
 


     bravais-lattice index     =            4
     lattice parameter (alat)  =       5.0914  a.u.
     unit-cell volume          =     185.6482 (a.u.)^3
     number of atoms/cell      =            4
     number of atomic types    =            2
     number of electrons       =        20.00
     number of Kohn-Sham states=           20
     kinetic-energy cutoff     =     107.0000  Ry
     charge density cutoff     =     428.0000  Ry
     scf convergence threshold =      1.0E-10
     mixing beta               =       0.7000
     number of iterations used =            8  plain     mixing
     Exchange-correlation= PBE
                           (   1   4   3   4   0   0   0)

     celldm(1)=   5.091445  celldm(2)=   0.000000  celldm(3)=   1.624191
     celldm(4)=   0.000000  celldm(5)=   0.000000  celldm(6)=   0.000000

     crystal axes: (cart. coord. in units of alat)
               a(1) = (   1.000000   0.000000   0.000000 )  
               a(2) = (  -0.500000   0.866025   0.000000 )  
               a(3) = (   0.000000   0.000000   1.624191 )  

     reciprocal axes: (cart. coord. in units 2 pi/alat)
               b(1) = (  1.000000  0.577350  0.000000 )  
               b(2) = (  0.000000  1.154701  0.000000 )  
               b(3) = (  0.000000  0.000000  0.615691 )  


     PseudoPot. # 1 for Be read from file:
     /usr/scratch4/magr4985/MG/HTDF/pseudo/SG15/Be.upf
     MD5 check sum: dc1f98d164da9dc61a6fd2fad64b4ce2
     Pseudo is Norm-conserving, Zval =  4.0
     Generated using ONCVPSP code by D. R. Hamann
     Using radial grid of  602 points,  4 beta functions with: 
                l(1) =   0
                l(2) =   0
                l(3) =   1
                l(4) =   1

     PseudoPot. # 2 for O  read from file:
     /usr/scratch4/magr4985/MG/HTDF/pseudo/SG15/O.upf
     MD5 check sum: e36c48deb68f4e355fffe4602be2c42c
     Pseudo is Norm-conserving, Zval =  6.0
     Generated using ONCVPSP code by D. R. Hamann
     Using radial grid of  602 points,  4 beta functions with: 
                l(1) =   0
                l(2) =   0
                l(3) =   1
                l(4) =   1

     atomic species   valence    mass     pseudopotential
        Be             4.00     9.01220     Be( 1.00)
        O              6.00    15.99940     O ( 1.00)

      6 Sym. Ops. (no inversion) found



   Cartesian axes

     site n.     atom                  positions (alat units)
         1           Be  tau(   1) = (   0.5000000   0.2886752   0.0002601  )
         2           Be  tau(   2) = (   0.0000000   0.5773502   0.8123555  )
         3           O   tau(   3) = (   0.5000000   0.2886752   0.6128719  )
         4           O   tau(   4) = (   0.0000000   0.5773502   1.4249672  )

     number of k points=    72  Gaussian smearing, width (Ry)=  0.0005
                       cart. coord. in units 2pi/alat
        k(    1) = (   0.0000000   0.0000000   0.0000000), wk =   0.0033333
        k(    2) = (   0.0000000   0.0000000   0.1026152), wk =   0.0066667
        k(    3) = (   0.0000000   0.0000000   0.2052304), wk =   0.0066667
        k(    4) = (   0.0000000   0.0000000  -0.3078456), wk =   0.0033333
        k(    5) = (   0.0000000   0.1154701   0.0000000), wk =   0.0200000
        k(    6) = (   0.0000000   0.1154701   0.1026152), wk =   0.0200000
        k(    7) = (   0.0000000   0.1154701   0.2052304), wk =   0.0200000
        k(    8) = (   0.0000000   0.1154701  -0.3078456), wk =   0.0200000
        k(    9) = (   0.0000000   0.2309401   0.0000000), wk =   0.0200000
        k(   10) = (   0.0000000   0.2309401   0.1026152), wk =   0.0200000
        k(   11) = (   0.0000000   0.2309401   0.2052304), wk =   0.0200000
        k(   12) = (   0.0000000   0.2309401  -0.3078456), wk =   0.0200000
        k(   13) = (   0.0000000   0.3464102   0.0000000), wk =   0.0200000
        k(   14) = (   0.0000000   0.3464102   0.1026152), wk =   0.0200000
        k(   15) = (   0.0000000   0.3464102   0.2052304), wk =   0.0200000
        k(   16) = (   0.0000000   0.3464102  -0.3078456), wk =   0.0200000
        k(   17) = (   0.0000000   0.4618802   0.0000000), wk =   0.0200000
        k(   18) = (   0.0000000   0.4618802   0.1026152), wk =   0.0200000
        k(   19) = (   0.0000000   0.4618802   0.2052304), wk =   0.0200000
        k(   20) = (   0.0000000   0.4618802  -0.3078456), wk =   0.0200000
        k(   21) = (   0.0000000  -0.5773503   0.0000000), wk =   0.0100000
        k(   22) = (   0.0000000  -0.5773503   0.1026152), wk =   0.0200000
        k(   23) = (   0.0000000  -0.5773503   0.2052304), wk =   0.0200000
        k(   24) = (   0.0000000  -0.5773503  -0.3078456), wk =   0.0100000
        k(   25) = (   0.1000000   0.1732051   0.0000000), wk =   0.0200000
        k(   26) = (   0.1000000   0.1732051   0.1026152), wk =   0.0400000
        k(   27) = (   0.1000000   0.1732051   0.2052304), wk =   0.0400000
        k(   28) = (   0.1000000   0.1732051  -0.3078456), wk =   0.0200000
        k(   29) = (   0.1000000   0.2886751   0.0000000), wk =   0.0400000
        k(   30) = (   0.1000000   0.2886751   0.1026152), wk =   0.0400000
        k(   31) = (   0.1000000   0.2886751   0.2052304), wk =   0.0400000
        k(   32) = (   0.1000000   0.2886751  -0.3078456), wk =   0.0400000
        k(   33) = (   0.1000000   0.4041452   0.0000000), wk =   0.0400000
        k(   34) = (   0.1000000   0.4041452   0.1026152), wk =   0.0400000
        k(   35) = (   0.1000000   0.4041452   0.2052304), wk =   0.0400000
        k(   36) = (   0.1000000   0.4041452  -0.3078456), wk =   0.0400000
        k(   37) = (   0.1000000   0.5196152   0.0000000), wk =   0.0400000
        k(   38) = (   0.1000000   0.5196152   0.1026152), wk =   0.0400000
        k(   39) = (   0.1000000   0.5196152   0.2052304), wk =   0.0400000
        k(   40) = (   0.1000000   0.5196152  -0.3078456), wk =   0.0400000
        k(   41) = (   0.2000000   0.3464102   0.0000000), wk =   0.0200000
        k(   42) = (   0.2000000   0.3464102   0.1026152), wk =   0.0400000
        k(   43) = (   0.2000000   0.3464102   0.2052304), wk =   0.0400000
        k(   44) = (   0.2000000   0.3464102  -0.3078456), wk =   0.0200000
        k(   45) = (   0.2000000   0.4618802   0.0000000), wk =   0.0400000
        k(   46) = (   0.2000000   0.4618802   0.1026152), wk =   0.0400000
        k(   47) = (   0.2000000   0.4618802   0.2052304), wk =   0.0400000
        k(   48) = (   0.2000000   0.4618802  -0.3078456), wk =   0.0400000
        k(   49) = (   0.2000000   0.5773503   0.0000000), wk =   0.0200000
        k(   50) = (   0.2000000   0.5773503   0.1026152), wk =   0.0400000
        k(   51) = (   0.2000000   0.5773503   0.2052304), wk =   0.0400000
        k(   52) = (   0.2000000   0.5773503  -0.3078456), wk =   0.0200000
        k(   53) = (   0.3000000   0.5196152   0.0000000), wk =   0.0200000
        k(   54) = (   0.3000000   0.5196152   0.1026152), wk =   0.0400000
        k(   55) = (   0.3000000   0.5196152   0.2052304), wk =   0.0400000
        k(   56) = (   0.3000000   0.5196152  -0.3078456), wk =   0.0200000
        k(   57) = (   0.0000000  -0.1154701   0.1026152), wk =   0.0200000
        k(   58) = (   0.0000000  -0.1154701   0.2052304), wk =   0.0200000
        k(   59) = (   0.0000000  -0.2309401   0.1026152), wk =   0.0200000
        k(   60) = (   0.0000000  -0.2309401   0.2052304), wk =   0.0200000
        k(   61) = (   0.0000000  -0.3464102   0.1026152), wk =   0.0200000
        k(   62) = (   0.0000000  -0.3464102   0.2052304), wk =   0.0200000
        k(   63) = (   0.0000000  -0.4618802   0.1026152), wk =   0.0200000
        k(   64) = (   0.0000000  -0.4618802   0.2052304), wk =   0.0200000
        k(   65) = (  -0.1000000  -0.2886751   0.1026152), wk =   0.0400000
        k(   66) = (  -0.1000000  -0.2886751   0.2052304), wk =   0.0400000
        k(   67) = (  -0.1000000  -0.4041452   0.1026152), wk =   0.0400000
        k(   68) = (  -0.1000000  -0.4041452   0.2052304), wk =   0.0400000
        k(   69) = (  -0.1000000  -0.5196152   0.1026152), wk =   0.0400000
        k(   70) = (  -0.1000000  -0.5196152   0.2052304), wk =   0.0400000
        k(   71) = (  -0.2000000  -0.4618802   0.1026152), wk =   0.0400000
        k(   72) = (  -0.2000000  -0.4618802   0.2052304), wk =   0.0400000

     Dense  grid:    27655 G-vectors     FFT dimensions: (  36,  36,  60)

     Estimated max dynamical RAM per process >       2.10 MB

     Estimated total dynamical RAM >      50.51 MB

     Initial potential from superposition of free atoms

     starting charge      19.9483, renormalised to      20.0000
     Starting wfcs are random

     total cpu time spent up to now is        0.3 secs

     Self-consistent Calculation

     iteration #  1     ecut=   107.00 Ry     beta= 0.70
     Davidson diagonalization with overlap
     ethr =  1.00E-02,  avg # of iterations =  8.0

     total cpu time spent up to now is        2.2 secs

     total energy              =    -117.46218147 Ry
     estimated scf accuracy    <       0.49616029 Ry

     iteration #  2     ecut=   107.00 Ry     beta= 0.70
     Davidson diagonalization with overlap
     ethr =  2.48E-03,  avg # of iterations =  2.0

     total cpu time spent up to now is        3.3 secs

     total energy              =    -117.58567859 Ry
     estimated scf accuracy    <       0.25530239 Ry

     iteration #  3     ecut=   107.00 Ry     beta= 0.70
     Davidson diagonalization with overlap
     ethr =  1.28E-03,  avg # of iterations =  1.8

     total cpu time spent up to now is        3.9 secs

     total energy              =    -117.63880531 Ry
     estimated scf accuracy    <       0.00265991 Ry

     iteration #  4     ecut=   107.00 Ry     beta= 0.70
     Davidson diagonalization with overlap
     ethr =  1.33E-05,  avg # of iterations =  2.9

     total cpu time spent up to now is        4.6 secs

     total energy              =    -117.63934522 Ry
     estimated scf accuracy    <       0.00003342 Ry

     iteration #  5     ecut=   107.00 Ry     beta= 0.70
     Davidson diagonalization with overlap
     ethr =  1.67E-07,  avg # of iterations =  2.2

     total cpu time spent up to now is        5.3 secs

     total energy              =    -117.63935231 Ry
     estimated scf accuracy    <       0.00000237 Ry

     iteration #  6     ecut=   107.00 Ry     beta= 0.70
     Davidson diagonalization with overlap
     ethr =  1.18E-08,  avg # of iterations =  2.0

     total cpu time spent up to now is        6.6 secs

     total energy              =    -117.63935279 Ry
     estimated scf accuracy    <       0.00000011 Ry

     iteration #  7     ecut=   107.00 Ry     beta= 0.70
     Davidson diagonalization with overlap
     ethr =  5.48E-10,  avg # of iterations =  1.0

     total cpu time spent up to now is        7.2 secs

     total energy              =    -117.63935279 Ry
     estimated scf accuracy    <       0.00000001 Ry

     iteration #  8     ecut=   107.00 Ry     beta= 0.70
     Davidson diagonalization with overlap
     ethr =  7.16E-11,  avg # of iterations =  1.4

     total cpu time spent up to now is        7.8 secs

     total energy              =    -117.63935280 Ry
     estimated scf accuracy    <          3.5E-10 Ry

     iteration #  9     ecut=   107.00 Ry     beta= 0.70
     Davidson diagonalization with overlap
     ethr =  1.76E-12,  avg # of iterations =  2.0

     total cpu time spent up to now is        8.5 secs

     End of self-consistent calculation

          k = 0.0000 0.0000 0.0000 (  3453 PWs)   bands (ev):

   -90.2019 -90.1991 -12.1359 -10.3263   0.2618   5.5155   5.5155   6.4957
     6.4957   6.5156  14.2208  18.2318  20.8962  20.8962  21.4099  21.8082
    23.0355  23.0355  30.1909  30.2799

          k = 0.0000 0.0000 0.1026 (  3489 PWs)   bands (ev):

   -90.2017 -90.1993 -12.0410 -10.4862   0.6448   5.5775   5.5775   5.9876
     6.4262   6.4262  14.5875  17.9971  20.9623  20.9623  21.3621  21.6386
    22.7898  22.7898  30.7584  30.8722

          k = 0.0000 0.0000 0.2052 (  3507 PWs)   bands (ev):

   -90.2012 -90.1998 -11.7678 -10.8836   1.6858   4.6978   5.7495   5.7495
     6.2393   6.2393  15.4508  17.3575  21.1937  21.1937  21.2573  21.3512
    22.2229  22.2229  32.0870  32.0871

          k = 0.0000 0.0000-0.3078 (  3532 PWs)   bands (ev):

   -90.2005 -90.2005 -11.3555 -11.3555   3.1373   3.1373   5.9906   5.9906
     5.9906   5.9906  16.4526  16.4526  21.2142  21.2142  21.6295  21.6295
    21.6296  21.6296  33.9326  33.9500

          k = 0.0000 0.1155 0.0000 (  3479 PWs)   bands (ev):

   -90.2016 -90.1990 -12.0178 -10.2625   0.4076   5.0315   5.3127   5.9741
     6.4206   6.4262  14.6154  18.6254  20.7313  21.0313  21.1749  21.9789
    23.3126  23.3189  27.6603  29.7746

          k = 0.0000 0.1155 0.1026 (  3482 PWs)   bands (ev):

   -90.2015 -90.1992 -11.9251 -10.4162   0.7729   5.0980   5.3814   5.6383
     6.2291   6.3403  14.9004  18.3215  20.7273  21.0078  21.2488  21.8293
    23.0819  23.2046  28.3701  30.2887

          k = 0.0000 0.1155 0.2052 (  3496 PWs)   bands (ev):

   -90.2010 -90.1997 -11.6586 -10.7997   1.7619   4.5398   5.3209   5.5728
     5.9284   6.1258  15.6295  17.5510  20.6805  20.8629  21.4966  21.8823
    22.5311  22.8511  30.0152  31.7080

          k = 0.0000 0.1155-0.3078 (  3502 PWs)   bands (ev):

   -90.2003 -90.2003 -11.2573 -11.2573   3.1239   3.1239   5.6079   5.6079
     5.8435   5.8435  16.5795  16.5795  20.6970  20.6970  21.9429  21.9429
    22.3304  22.3304  31.7879  31.7879

          k = 0.0000 0.2309 0.0000 (  3479 PWs)   bands (ev):

   -90.2010 -90.1988 -11.6823 -10.0988   0.8217   3.8348   4.8454   4.8456
     6.1489   6.1996  15.4249  19.1846  19.6949  21.2499  21.7320  22.3996
    23.7246  24.0186  25.9152  29.6092

          k = 0.0000 0.2309 0.1026 (  3478 PWs)   bands (ev):

   -90.2009 -90.1989 -11.5968 -10.2336   1.1196   3.9199   4.6224   4.9267
     5.9851   6.0976  15.5134  18.5449  20.0623  21.1543  21.8450  22.2764
    23.7892  23.8075  26.6173  30.1061

          k = 0.0000 0.2309 0.2052 (  3478 PWs)   bands (ev):

   -90.2005 -90.1993 -11.3518 -10.5737   1.9041   3.7806   4.4300   5.1543
     5.5078   5.8283  15.8794  17.5593  20.3370  20.8338  22.1771  22.5291
    23.2918  23.6427  28.1813  31.0719

          k = 0.0000 0.2309-0.3078 (  3480 PWs)   bands (ev):

   -90.1999 -90.1999 -10.9858 -10.9858   2.9046   2.9046   4.8967   4.8967
     5.4810   5.4810  16.5991  16.5991  20.5367  20.5367  22.6911  22.6911
    23.1275  23.1275  29.9412  29.9412

          k = 0.0000 0.3464 0.0000 (  3474 PWs)   bands (ev):

   -90.2002 -90.1985 -11.1915  -9.9193   1.3378   2.6223   3.6642   4.3493
     5.6661   5.9127  16.0873  18.2891  19.3921  21.9740  22.0023  23.0654
    23.8914  24.8920  25.5294  30.7408

          k = 0.0000 0.3464 0.1026 (  3473 PWs)   bands (ev):

   -90.2001 -90.1986 -11.1198 -10.0219   1.4306   2.8014   3.5130   4.4405
     5.6320   5.7911  15.9367  17.7665  19.9312  21.9198  22.2003  22.5387
    24.2985  24.6896  25.9986  30.7943

          k = 0.0000 0.3464 0.2052 (  3464 PWs)   bands (ev):

   -90.1998 -90.1989 -10.9158 -10.2864   1.7121   2.6714   3.8146   4.6978
     5.3299   5.4740  15.8518  16.9710  20.4459  21.4030  22.7299  22.8493
    24.1519  24.2005  27.2824  30.3186

          k = 0.0000 0.3464-0.3078 (  3456 PWs)   bands (ev):

   -90.1994 -90.1993 -10.6160 -10.6160   2.1586   2.1586   4.6369   4.6369
     5.0711   5.0712  16.2313  16.2313  20.8542  20.8542  23.4391  23.4391
    23.6185  23.6186  28.9223  28.9223

          k = 0.0000 0.4619 0.0000 (  3470 PWs)   bands (ev):

   -90.1995 -90.1983 -10.6726  -9.8439   1.0822   2.6438   2.7988   3.9918
     5.0067   5.6820  16.3293  17.2136  19.7409  21.8841  21.9419  23.8120
    24.7672  25.3368  25.6455  30.8617

          k = 0.0000 0.4619 0.1026 (  3467 PWs)   bands (ev):

   -90.1994 -90.1984 -10.6225  -9.9056   1.0313   2.3683   3.1465   4.0889
     5.1363   5.5483  15.9982  16.9458  20.2914  21.7896  22.2138  23.1690
    24.6472  25.4149  26.1722  30.8711

          k = 0.0000 0.4619 0.2052 (  3460 PWs)   bands (ev):

   -90.1992 -90.1986 -10.4821 -10.0690   1.0656   1.8189   3.9284   4.3638
     5.1613   5.2014  15.6152  16.3914  20.7557  21.7547  22.8725  22.9353
    24.3677  24.7762  27.4372  30.2882

          k = 0.0000 0.4619-0.3078 (  3452 PWs)   bands (ev):

   -90.1989 -90.1989 -10.2813 -10.2813   1.3357   1.3357   4.7207   4.7207
     4.7649   4.7649  15.7962  15.7962  21.1402  21.1402  23.7418  23.7418
    23.8765  23.8765  28.8821  28.8821

          k = 0.0000-0.5774 0.0000 (  3462 PWs)   bands (ev):

   -90.1992 -90.1983 -10.3928  -9.8825   0.7700   2.4380   3.1295   3.8633
     4.5427   5.5952  16.3570  16.8051  20.0340  21.6634  21.8777  24.4822
    24.7082  25.4156  25.9387  30.9318

          k = 0.0000-0.5774 0.1026 (  3478 PWs)   bands (ev):

   -90.1991 -90.1984 -10.3600  -9.9179   0.7283   2.0963   3.4379   3.9623
     4.7919   5.4573  15.9377  16.6552  20.7213  21.3606  22.1750  23.6523
    24.5043  25.6891  26.4739  30.9990

          k = 0.0000-0.5774 0.2052 (  3450 PWs)   bands (ev):

   -90.1990 -90.1985 -10.2694 -10.0139   0.7513   1.4895   4.1298   4.2429
     5.0309   5.1006  15.4742  16.1823  21.0244  21.5897  22.9664  22.9853
    24.3431  24.9924  27.7079  30.4277

          k = 0.0000-0.5774-0.3078 (  3428 PWs)   bands (ev):

   -90.1988 -90.1987 -10.1430 -10.1430   1.0003   1.0003   4.6531   4.6531
     4.7858   4.7858  15.6139  15.6139  21.2126  21.2126  23.7525  23.7525
    24.0029  24.0029  29.0557  29.0558

          k = 0.1000 0.1732 0.0000 (  3491 PWs)   bands (ev):

   -90.2012 -90.1988 -11.7908 -10.1483   0.6899   4.3899   4.5537   5.4883
     6.1621   6.2442  15.2327  19.1576  20.0412  20.9265  21.8778  22.0117
    23.5256  23.8720  26.8122  28.2267

          k = 0.1000 0.1732 0.1026 (  3475 PWs)   bands (ev):

   -90.2011 -90.1990 -11.7028 -10.2895   1.0140   4.4795   4.5299   5.2982
     6.0655   6.0911  15.3879  18.6555  20.1789  20.8951  21.9246  21.9719
    23.5713  23.6395  27.5636  28.5959

          k = 0.1000 0.1732 0.2052 (  3481 PWs)   bands (ev):

   -90.2006 -90.1994 -11.4504 -10.6444   1.8792   4.0683   4.7339   5.1481
     5.7214   5.8180  15.8801  17.6887  20.3091  20.6608  22.1227  22.2882
    23.1141  23.4186  29.1849  29.6761

          k = 0.1000 0.1732-0.3078 (  3494 PWs)   bands (ev):

   -90.2000 -90.2000 -11.0721 -11.0721   3.0195   3.0195   5.0778   5.0778
     5.5578   5.5578  16.6902  16.6903  20.4338  20.4338  22.5219  22.5219
    22.9220  22.9220  30.4535  30.4535

          k = 0.1000 0.2887 0.0000 (  3469 PWs)   bands (ev):

   -90.2005 -90.1986 -11.3756  -9.9741   1.1987   3.1424   3.7255   4.7943
     5.7922   5.8719  16.0818  18.5918  19.8818  21.3479  21.9527  22.5722
    23.6794  24.7704  26.2287  28.2126

          k = 0.1000 0.2887 0.1026 (  3467 PWs)   bands (ev):

   -90.2004 -90.1987 -11.2980 -10.0898   1.4043   3.2071   3.7601   4.6863
     5.6462   5.8446  16.0370  18.2050  20.0499  21.1406  22.2008  22.5341
    23.9248  24.4831  26.7338  28.5347

          k = 0.1000 0.2887 0.2052 (  3472 PWs)   bands (ev):

   -90.2000 -90.1991 -11.0768 -10.3853   1.9227   3.0713   4.0371   4.6565
     5.3178   5.5704  16.1323  17.4131  20.2671  20.7764  22.6702  22.8811
    23.8550  24.0350  27.8663  29.3409

          k = 0.1000 0.2887-0.3078 (  3486 PWs)   bands (ev):

   -90.1996 -90.1995 -10.7491 -10.7491   2.5478   2.5478   4.5690   4.5690
     5.1728   5.1728  16.6221  16.6221  20.4815  20.4815  23.1828  23.1828
    23.5893  23.5893  29.1882  29.1882

          k = 0.1000 0.4041 0.0000 (  3469 PWs)   bands (ev):

   -90.1998 -90.1984 -10.8621  -9.8433   1.4448   2.3727   3.0713   4.0979
     5.2899   5.4955  16.5907  17.6535  19.6510  21.8389  22.1964  23.3987
    23.9124  25.4385  26.0136  29.4513

          k = 0.1000 0.4041 0.1026 (  3474 PWs)   bands (ev):

   -90.1997 -90.1984 -10.8024  -9.9219   1.4066   2.4319   3.1898   4.0990
     5.2412   5.4864  16.3496  17.4496  19.8968  21.7252  22.4706  22.8949
    24.4176  25.0538  26.4770  29.6304

          k = 0.1000 0.4041 0.2052 (  3463 PWs)   bands (ev):

   -90.1994 -90.1987 -10.6342 -10.1279   1.4763   2.1614   3.7234   4.3222
     4.9153   5.4124  16.0943  16.9078  20.3136  21.3217  22.7422  23.3148
    24.3292  24.6107  27.4344  29.6738

          k = 0.1000 0.4041-0.3078 (  3454 PWs)   bands (ev):

   -90.1991 -90.1990 -10.3904 -10.3904   1.7550   1.7550   4.2837   4.2837
     5.0026   5.0026  16.3153  16.3153  20.7727  20.7727  23.3877  23.3877
    24.2012  24.2012  28.7060  28.7060

          k = 0.1000 0.5196 0.0000 (  3470 PWs)   bands (ev):

   -90.1992 -90.1983 -10.4235  -9.8506   0.9148   2.5587   2.9644   3.7598
     4.6396   5.3162  16.3916  17.3420  19.8392  21.6497  22.2431  24.3050
    24.8242  25.2721  25.8267  30.6992

          k = 0.1000 0.5196 0.1026 (  3471 PWs)   bands (ev):

   -90.1991 -90.1984 -10.3873  -9.8912   0.8880   2.2245   3.2041   3.9247
     4.7969   5.2315  16.1457  17.1754  20.1396  21.3838  22.5835  23.7866
    24.5793  25.3576  26.4907  30.6968

          k = 0.1000 0.5196 0.2052 (  3457 PWs)   bands (ev):

   -90.1990 -90.1985 -10.2869 -10.0005   0.9315   1.6552   3.6234   4.4071
     4.6426   5.2470  15.8585  16.6590  20.6303  21.1263  22.8724  23.7435
    24.2105  25.0951  27.5880  30.1046

          k = 0.1000 0.5196-0.3078 (  3456 PWs)   bands (ev):

   -90.1988 -90.1987 -10.1460 -10.1460   1.1846   1.1846   4.1042   4.1042
     5.0243   5.0243  16.0572  16.0572  20.9218  20.9218  23.3639  23.3639
    24.5712  24.5712  28.8351  28.8351

          k = 0.2000 0.3464 0.0000 (  3456 PWs)   bands (ev):

   -90.1998 -90.1984 -10.9319  -9.8440   1.7357   2.2033   3.0711   4.3527
     5.1221   5.4265  17.1244  17.4031  20.5914  21.2440  22.2127  22.4581
    24.1055  25.4578  27.0101  27.7116

          k = 0.2000 0.3464 0.1026 (  3450 PWs)   bands (ev):

   -90.1997 -90.1985 -10.8690  -9.9292   1.7428   2.2264   3.3447   4.1446
     4.9870   5.5293  16.9370  17.3842  20.3801  20.9855  22.5088  22.6990
    24.3023  25.1254  27.1502  28.1745

          k = 0.2000 0.3464 0.2052 (  3473 PWs)   bands (ev):

   -90.1995 -90.1987 -10.6910 -10.1511   1.8408   2.2110   3.8989   3.9147
     4.7526   5.4767  16.6922  17.1727  20.2431  20.5841  22.8163  23.4365
    24.4480  24.4524  27.7003  28.8791

          k = 0.2000 0.3464-0.3078 (  3462 PWs)   bands (ev):

   -90.1991 -90.1991 -10.4318 -10.4318   2.0441   2.0441   3.9787   3.9787
     5.0523   5.0523  16.8069  16.8069  20.3326  20.3326  23.4317  23.4317
    24.2363  24.2363  28.6008  28.6008

          k = 0.2000 0.4619 0.0000 (  3467 PWs)   bands (ev):

   -90.1992 -90.1983 -10.4668  -9.8054   1.2779   2.2916   3.0903   3.6931
     4.6214   4.8989  16.4122  18.1257  20.2359  21.5913  22.5949  23.3541
    24.3083  25.6226  26.4124  29.3425

          k = 0.2000 0.4619 0.1026 (  3462 PWs)   bands (ev):

   -90.1991 -90.1984 -10.4260  -9.8535   1.3094   2.1097   3.2290   3.7070
     4.4868   5.1177  16.5439  17.8864  19.9985  21.1650  22.9671  23.3689
    24.6154  25.3227  26.7532  29.4835

          k = 0.2000 0.4619 0.2052 (  3475 PWs)   bands (ev):

   -90.1990 -90.1985 -10.3121  -9.9820   1.4063   1.8552   3.1726   3.7952
     4.5904   5.3253  16.7201  17.3833  19.9001  20.5242  23.1861  23.8161
    24.7221  25.0363  27.4290  29.2788

          k = 0.2000 0.4619-0.3078 (  3462 PWs)   bands (ev):

   -90.1988 -90.1987 -10.1507 -10.1507   1.5962   1.5962   3.4024   3.4024
     5.1230   5.1230  16.9367  16.9367  20.1292  20.1292  23.5833  23.5833
    24.8639  24.8639  28.3498  28.3498

          k = 0.2000 0.5774 0.0000 (  3478 PWs)   bands (ev):

   -90.1989 -90.1983 -10.2066  -9.8623   0.9330   2.7332   2.8172   3.7407
     4.2084   4.6795  16.0333  18.4911  20.2200  21.4770  22.7350  24.1866
    24.8498  25.1175  25.9388  31.0453

          k = 0.2000 0.5774 0.1026 (  3461 PWs)   bands (ev):

   -90.1989 -90.1984 -10.1841  -9.8858   0.9798   2.4110   2.7435   4.0866
     4.1251   4.8601  16.2167  18.2921  19.8700  21.0165  23.1757  24.1387
    24.7471  25.1280  26.4812  30.7364

          k = 0.2000 0.5774 0.2052 (  3463 PWs)   bands (ev):

   -90.1988 -90.1985 -10.1221  -9.9497   1.1275   1.8622   2.8252   3.6951
     4.7118   5.1933  16.5493  17.6739  19.6914  20.4069  23.5289  23.9313
    24.7708  25.3723  27.3079  29.6143

          k = 0.2000 0.5774-0.3078 (  3464 PWs)   bands (ev):

   -90.1986 -90.1986 -10.0364 -10.0364   1.4123   1.4123   3.1840   3.1840
     5.1687   5.1687  16.9760  16.9760  20.0000  20.0000  23.6547  23.6548
    25.1908  25.1908  28.3158  28.3158

          k = 0.3000 0.5196 0.0000 (  3468 PWs)   bands (ev):

   -90.1987 -90.1984 -10.1184  -9.8697   0.9908   2.5636   3.1406   3.5877
     4.0177   4.3889  15.8021  19.1931  20.7369  21.3507  23.0857  23.4795
    24.5711  25.2699  26.2672  30.5958

          k = 0.3000 0.5196 0.1026 (  3477 PWs)   bands (ev):

   -90.1987 -90.1984 -10.1019  -9.8864   1.1123   2.3194   2.8651   3.5177
     4.2444   4.7114  16.1778  18.9821  20.1434  20.5641  23.6292  23.7528
    24.8547  25.2782  26.4158  30.4545

          k = 0.3000 0.5196 0.2052 (  3461 PWs)   bands (ev):

   -90.1987 -90.1985 -10.0567  -9.9322   1.4377   2.0069   2.5180   3.0233
     4.8317   5.1426  17.0420  18.3428  19.4846  19.5300  23.9060  24.0597
    25.3382  25.4348  26.8921  29.1851

          k = 0.3000 0.5196-0.3078 (  3466 PWs)   bands (ev):

   -90.1986 -90.1986  -9.9946  -9.9946   1.7827   1.7827   2.5382   2.5382
     5.2139   5.2139  17.7747  17.7747  19.1610  19.1610  24.0229  24.0229
    25.5542  25.5542  27.7680  27.7680

          k = 0.0000-0.1155 0.1026 (  3482 PWs)   bands (ev):

   -90.2015 -90.1992 -11.9251 -10.4162   0.7729   5.0980   5.3814   5.6383
     6.2291   6.3403  14.9004  18.3215  20.7273  21.0078  21.2488  21.8293
    23.0819  23.2046  28.3701  30.2887

          k = 0.0000-0.1155 0.2052 (  3496 PWs)   bands (ev):

   -90.2010 -90.1997 -11.6586 -10.7997   1.7619   4.5398   5.3209   5.5728
     5.9284   6.1258  15.6295  17.5510  20.6805  20.8629  21.4966  21.8823
    22.5311  22.8511  30.0152  31.7080

          k = 0.0000-0.2309 0.1026 (  3478 PWs)   bands (ev):

   -90.2009 -90.1989 -11.5968 -10.2336   1.1196   3.9199   4.6224   4.9267
     5.9851   6.0976  15.5134  18.5449  20.0623  21.1543  21.8450  22.2764
    23.7892  23.8075  26.6173  30.1060

          k = 0.0000-0.2309 0.2052 (  3478 PWs)   bands (ev):

   -90.2005 -90.1993 -11.3518 -10.5737   1.9041   3.7806   4.4300   5.1543
     5.5078   5.8283  15.8794  17.5593  20.3370  20.8338  22.1771  22.5291
    23.2918  23.6427  28.1813  31.0719

          k = 0.0000-0.3464 0.1026 (  3473 PWs)   bands (ev):

   -90.2001 -90.1986 -11.1198 -10.0219   1.4306   2.8014   3.5130   4.4405
     5.6320   5.7911  15.9367  17.7665  19.9312  21.9198  22.2003  22.5387
    24.2985  24.6896  25.9986  30.7943

          k = 0.0000-0.3464 0.2052 (  3464 PWs)   bands (ev):

   -90.1998 -90.1989 -10.9158 -10.2864   1.7121   2.6714   3.8146   4.6978
     5.3299   5.4740  15.8518  16.9710  20.4459  21.4030  22.7299  22.8493
    24.1519  24.2005  27.2824  30.3186

          k = 0.0000-0.4619 0.1026 (  3467 PWs)   bands (ev):

   -90.1994 -90.1984 -10.6225  -9.9056   1.0313   2.3683   3.1465   4.0889
     5.1363   5.5483  15.9982  16.9458  20.2914  21.7897  22.2138  23.1690
    24.6472  25.4149  26.1722  30.8711

          k = 0.0000-0.4619 0.2052 (  3460 PWs)   bands (ev):

   -90.1992 -90.1986 -10.4821 -10.0690   1.0656   1.8189   3.9284   4.3638
     5.1613   5.2014  15.6152  16.3914  20.7557  21.7547  22.8726  22.9353
    24.3677  24.7762  27.4372  30.2882

          k =-0.1000-0.2887 0.1026 (  3467 PWs)   bands (ev):

   -90.2004 -90.1987 -11.2980 -10.0898   1.4043   3.2071   3.7601   4.6863
     5.6462   5.8446  16.0370  18.2050  20.0499  21.1406  22.2008  22.5341
    23.9248  24.4831  26.7338  28.5347

          k =-0.1000-0.2887 0.2052 (  3472 PWs)   bands (ev):

   -90.2000 -90.1991 -11.0768 -10.3853   1.9227   3.0713   4.0371   4.6565
     5.3178   5.5704  16.1323  17.4131  20.2671  20.7764  22.6702  22.8811
    23.8550  24.0350  27.8663  29.3409

          k =-0.1000-0.4041 0.1026 (  3474 PWs)   bands (ev):

   -90.1997 -90.1984 -10.8024  -9.9219   1.4066   2.4319   3.1898   4.0990
     5.2412   5.4864  16.3496  17.4496  19.8968  21.7252  22.4706  22.8949
    24.4176  25.0538  26.4770  29.6304

          k =-0.1000-0.4041 0.2052 (  3463 PWs)   bands (ev):

   -90.1994 -90.1987 -10.6342 -10.1279   1.4763   2.1614   3.7234   4.3222
     4.9153   5.4124  16.0943  16.9078  20.3136  21.3217  22.7422  23.3148
    24.3292  24.6107  27.4344  29.6738

          k =-0.1000-0.5196 0.1026 (  3471 PWs)   bands (ev):

   -90.1991 -90.1984 -10.3873  -9.8912   0.8880   2.2245   3.2041   3.9247
     4.7969   5.2315  16.1457  17.1754  20.1396  21.3838  22.5835  23.7866
    24.5793  25.3576  26.4907  30.6968

          k =-0.1000-0.5196 0.2052 (  3457 PWs)   bands (ev):

   -90.1990 -90.1985 -10.2869 -10.0005   0.9315   1.6552   3.6234   4.4071
     4.6426   5.2470  15.8586  16.6590  20.6303  21.1263  22.8724  23.7435
    24.2105  25.0951  27.5880  30.1046

          k =-0.2000-0.4619 0.1026 (  3462 PWs)   bands (ev):

   -90.1991 -90.1984 -10.4260  -9.8535   1.3094   2.1097   3.2290   3.7070
     4.4868   5.1177  16.5439  17.8864  19.9985  21.1650  22.9671  23.3689
    24.6154  25.3227  26.7532  29.4835

          k =-0.2000-0.4619 0.2052 (  3475 PWs)   bands (ev):

   -90.1990 -90.1985 -10.3121  -9.9820   1.4063   1.8552   3.1726   3.7952
     4.5904   5.3253  16.7201  17.3833  19.9001  20.5241  23.1861  23.8161
    24.7221  25.0363  27.4290  29.2788

     the Fermi energy is    10.7106 ev

!    total energy              =    -117.63935280 Ry
     estimated scf accuracy    <          9.6E-11 Ry
     smearing contrib. (-TS)   =      -0.00000000 Ry
     internal energy E=F+TS    =    -117.63935280 Ry

     The total energy is F=E-TS. E is the sum of the following terms:
     one-electron contribution =     -39.06427058 Ry
     hartree contribution      =      21.24048265 Ry
     xc contribution           =     -22.87468737 Ry
     ewald contribution        =     -76.94087750 Ry

     convergence has been achieved in   9 iterations

     Writing all to output data dir out/mp-2542.save/
 
     init_run     :      0.24s CPU      0.27s WALL (       1 calls)
     electrons    :      7.24s CPU      8.25s WALL (       1 calls)

     Called by init_run:
     wfcinit      :      0.21s CPU      0.24s WALL (       1 calls)
     potinit      :      0.01s CPU      0.01s WALL (       1 calls)
     hinit0       :      0.01s CPU      0.01s WALL (       1 calls)

     Called by electrons:
     c_bands      :      6.33s CPU      7.16s WALL (       9 calls)
     sum_band     :      0.89s CPU      1.02s WALL (       9 calls)
     v_of_rho     :      0.02s CPU      0.02s WALL (      10 calls)
     mix_rho      :      0.01s CPU      0.01s WALL (       9 calls)

     Called by c_bands:
     init_us_2    :      0.05s CPU      0.05s WALL (    1368 calls)
     init_us_2:cp :      0.05s CPU      0.05s WALL (    1368 calls)
     cegterg      :      5.51s CPU      5.82s WALL (     648 calls)

     Called by *egterg:
     cdiaghg      :      0.97s CPU      1.01s WALL (    2323 calls)
     h_psi        :      4.28s CPU      4.55s WALL (    2395 calls)
     g_psi        :      0.02s CPU      0.02s WALL (    1675 calls)

     Called by h_psi:
     h_psi:calbec :      0.14s CPU      0.15s WALL (    2395 calls)
     vloc_psi     :      4.05s CPU      4.30s WALL (    2395 calls)
     add_vuspsi   :      0.07s CPU      0.07s WALL (    2395 calls)

     General routines
     calbec       :      0.14s CPU      0.15s WALL (    2395 calls)
     fft          :      0.01s CPU      0.01s WALL (      99 calls)
     ffts         :      0.00s CPU      0.00s WALL (       9 calls)
     fftw         :      4.48s CPU      4.78s WALL (   87080 calls)
     davcio       :      0.09s CPU      0.53s WALL (    2174 calls)
 
     Parallel routines
 
     PWSCF        :      7.89s CPU      9.57s WALL

 
   This run was terminated on:  16:14:21  30Nov2023            

=------------------------------------------------------------------------------=
   JOB DONE.
=------------------------------------------------------------------------------=
