
     Program PWSCF v.7.1 starts on 30Nov2023 at 13:58:10 

     This program is part of the open-source Quantum ESPRESSO suite
     for quantum simulation of materials; please cite
         "P. Giannozzi et al., J. Phys.:Condens. Matter 21 395502 (2009);
         "P. Giannozzi et al., J. Phys.:Condens. Matter 29 465901 (2017);
         "P. Giannozzi et al., J. Chem. Phys. 152 154105 (2020);
          URL http://www.quantum-espresso.org", 
     in publications or presentations arising from this work. More details at
     http://www.quantum-espresso.org/quote

     Parallel version (MPI), running on     8 processors

     MPI processes distributed on     1 nodes
     122228 MiB available memory on the printing compute node when the environment starts
 
     Reading input from pw_mp-2542_nscf_k70_E106.in
Warning: card &IONS ignored
Warning: card / ignored
Warning: card &CELL ignored
Warning: card / ignored

     Current dimensions of program PWSCF are:
     Max number of different atomic species (ntypx) = 10
     Max number of k-points (npk) =  40000
     Max angular momentum in pseudopotentials (lmaxx) =  4

     Atomic positions and unit cell read from directory:
     out/mp-2542.save/
     Atomic positions from file used, from input discarded
 
 
     R & G space division:  proc/nbgrp/npool/nimage =       8
     Subspace diagonalization in iterative solution of the eigenvalue problem:
     one sub-group per band group will be used
     scalapack distributed-memory algorithm (size of sub-group:  2*  2 procs)

 
     Parallelization info
     --------------------
     sticks:   dense  smooth     PW     G-vecs:    dense   smooth      PW
     Min          94      94     26                 3412     3412     528
     Max          95      95     27                 3418     3418     535
     Sum         757     757    211                27307    27307    4247
 
     Using Slab Decomposition
 


     bravais-lattice index     =            4
     lattice parameter (alat)  =       5.0914  a.u.
     unit-cell volume          =     185.6482 (a.u.)^3
     number of atoms/cell      =            4
     number of atomic types    =            2
     number of electrons       =        20.00
     number of Kohn-Sham states=         1704
     kinetic-energy cutoff     =     106.0000  Ry
     charge density cutoff     =     424.0000  Ry
     Exchange-correlation= PBE
                           (   1   4   3   4   0   0   0)

     celldm(1)=   5.091445  celldm(2)=   0.000000  celldm(3)=   1.624191
     celldm(4)=   0.000000  celldm(5)=   0.000000  celldm(6)=   0.000000

     crystal axes: (cart. coord. in units of alat)
               a(1) = (   1.000000   0.000000   0.000000 )  
               a(2) = (  -0.500000   0.866025   0.000000 )  
               a(3) = (   0.000000   0.000000   1.624191 )  

     reciprocal axes: (cart. coord. in units 2 pi/alat)
               b(1) = (  1.000000  0.577350  0.000000 )  
               b(2) = (  0.000000  1.154701  0.000000 )  
               b(3) = (  0.000000  0.000000  0.615691 )  


     PseudoPot. # 1 for Be read from file:
     /usr/scratch4/magr4985/MG/HTDF/pseudo/SG15/Be.upf
     MD5 check sum: dc1f98d164da9dc61a6fd2fad64b4ce2
     Pseudo is Norm-conserving, Zval =  4.0
     Generated using ONCVPSP code by D. R. Hamann
     Using radial grid of  602 points,  4 beta functions with: 
                l(1) =   0
                l(2) =   0
                l(3) =   1
                l(4) =   1

     PseudoPot. # 2 for O  read from file:
     /usr/scratch4/magr4985/MG/HTDF/pseudo/SG15/O.upf
     MD5 check sum: e36c48deb68f4e355fffe4602be2c42c
     Pseudo is Norm-conserving, Zval =  6.0
     Generated using ONCVPSP code by D. R. Hamann
     Using radial grid of  602 points,  4 beta functions with: 
                l(1) =   0
                l(2) =   0
                l(3) =   1
                l(4) =   1

     atomic species   valence    mass     pseudopotential
        Be             4.00     9.01220     Be( 1.00)
        O              6.00    15.99940     O ( 1.00)

      6 Sym. Ops. (no inversion) found



   Cartesian axes

     site n.     atom                  positions (alat units)
         1           Be  tau(   1) = (   0.5000000   0.2886752   0.0002601  )
         2           Be  tau(   2) = (   0.0000000   0.5773502   0.8123555  )
         3           O   tau(   3) = (   0.5000000   0.2886752   0.6128719  )
         4           O   tau(   4) = (   0.0000000   0.5773502   1.4249672  )

     number of k points=     8  Gaussian smearing, width (Ry)=  0.0005
                       cart. coord. in units 2pi/alat
        k(    1) = (   0.0000000   0.0000000   0.0000000), wk =   0.0625000
        k(    2) = (   0.0000000   0.0000000  -0.3078456), wk =   0.0625000
        k(    3) = (   0.0000000   0.2886751   0.0000000), wk =   0.3750000
        k(    4) = (   0.0000000   0.2886751  -0.3078456), wk =   0.3750000
        k(    5) = (   0.0000000  -0.5773503   0.0000000), wk =   0.1875000
        k(    6) = (   0.0000000  -0.5773503  -0.3078456), wk =   0.1875000
        k(    7) = (   0.2500000   0.4330127   0.0000000), wk =   0.3750000
        k(    8) = (   0.2500000   0.4330127  -0.3078456), wk =   0.3750000

     Dense  grid:    27307 G-vectors     FFT dimensions: (  36,  36,  60)

     Estimated max dynamical RAM per process >     191.02 MB

     Estimated total dynamical RAM >       1.49 GB

     The potential is recalculated from file :
     out/mp-2542.save/charge-density

     Starting wfcs are random

     Band Structure Calculation
     ParO style diagonalization

     ethr =  5.00E-06,  avg # of iterations =  5.6

     total cpu time spent up to now is     2075.2 secs

     End of band structure calculation

          k = 0.0000 0.0000 0.0000 (  3417 PWs)   bands (ev):

   -90.2019 -90.1991 -12.1358 -10.3262   0.2618   5.5156   5.5156   6.4957
     6.4957   6.5157  14.2208  18.2318  20.8962  20.8962  21.4100  21.8082
    23.0355  23.0355  30.1906  30.2799  30.2799  34.3017  34.3017  34.6625
    37.9101  39.5045  41.8258  41.8258  44.6168  46.6426  46.6426  48.7214
    48.8061  48.8061  53.9772  53.9772  56.6096  60.2131  60.2131  60.6665
    62.1087  62.1087  67.3056  67.7675  73.8181  73.8181  75.1740  77.6251
    77.6251  77.9296  78.5248  78.5248  79.6947  82.3409  82.3409  83.2911
    84.7248  87.1685  87.1685  87.8080  87.8080  88.7614  89.0472  89.7415
    89.7415  92.9862  92.9862  93.3362  94.3874  94.3874  95.0729  97.9326
    97.9326  99.9188 100.5709 100.5709 103.7676 103.7676 104.6672 105.5013
   105.5013 107.3466 107.8964 108.7130 108.7130 109.6433 109.6573 110.0773
   110.0773 110.1146 110.1146 110.3882 112.2183 113.2847 113.2847 113.6669
   114.4468 114.5886 114.5886 117.5854 120.4267 122.3956 122.3956 126.6300
   128.5690 128.5690 132.8424 132.8424 134.9853 135.5721 135.5721 136.4169
   137.0024 137.0024 137.7408 139.7451 140.0850 140.0850 140.8528 144.3812
   144.3812 145.3035 146.4001 146.4001 146.5906 146.5906 146.5957 147.9813
   147.9813 148.3101 148.3101 149.0186 149.2513 150.0556 150.0556 153.6577
   153.6577 154.5820 163.2167 163.4489 163.4489 165.4526 165.4526 170.1858
   172.5886 172.5886 173.5896 174.5083 174.5083 174.5195 174.5195 174.7859
   177.5482 179.3268 179.3268 179.5042 179.5042 180.9640 181.9282 182.3331
   182.6914 184.1020 184.3314 184.3314 185.3131 185.3131 185.5742 190.1210
   190.1210 190.1775 191.1217 192.8879 192.8879 193.1102 194.4011 194.4011
   195.3569 195.3875 195.4916 195.4916 195.8659 195.8660 197.0051 197.0930
   197.0930 198.1030 199.1624 199.1624 200.0055 200.4603 200.4603 200.9723
   200.9803 202.1191 202.1191 202.3371 202.3371 203.6784 203.6784 204.2070
   204.2983 207.7632 208.6965 208.6965 211.5791 211.5791 212.4649 212.4649
   212.6678 215.0070 215.0497 215.0497 215.5741 215.6233 215.6233 216.4525
   216.9347 217.7229 217.7229 218.7710 218.9986 218.9986 219.3487 219.3487
   219.6827 219.6827 220.3952 220.9957 220.9957 221.7380 221.7380 221.8202
   221.9365 222.2954 225.5290 225.5290 227.5079 227.5079 228.2084 228.2084
   229.1820 229.5005 229.5005 229.6241 230.6581 231.6279 231.6279 238.3011
   238.3011 238.7810 239.3156 239.3156 239.9217 240.6355 242.8469 243.9333
   243.9333 244.2133 246.5696 246.5696 247.1287 248.0151 248.0151 249.8707
   249.8707 252.4009 252.5815 252.9990 252.9990 253.0851 253.0851 253.8144
   253.8144 253.9465 254.8726 255.3576 256.9244 256.9244 258.5738 258.5738
   258.8775 260.0759 260.2712 260.2713 260.4797 260.4797 260.9627 261.1223
   264.7217 265.4245 265.4245 266.2137 266.2137 267.3947 267.3947 268.7939
   269.0972 269.9807 271.3052 271.3052 272.0952 272.0952 272.1002 272.8335
   272.8335 273.0615 273.0615 273.7268 273.8979 273.8979 274.8992 274.9267
   277.5022 277.9577 286.8633 287.0349 287.0349 288.3618 291.9215 291.9215
   295.2756 295.2756 296.6888 296.7681 296.7681 298.1157 299.5848 299.5848
   300.7926 301.5547 301.5547 301.5980 302.2951 302.2951 302.3039 303.0677
   303.0677 304.0455 304.0455 305.9817 305.9817 306.5444 307.0528 307.0528
   307.3618 307.7036 307.7036 307.8805 307.8805 308.6771 308.6771 309.1317
   309.4902 309.9543 310.0015 311.4091 312.4059 312.4059 312.6014 312.6014
   313.5398 313.8798 313.8798 314.8150 314.8150 315.1369 315.1369 315.1531
   315.1935 315.1935 315.4130 315.4130 315.6665 316.0479 316.3421 319.2921
   319.2921 320.1544 320.1544 320.4377 323.8587 323.8587 324.1588 324.3224
   329.9883 329.9884 330.0570 331.0492 331.0492 332.9943 334.8594 335.1420
   335.1420 335.6892 341.7609 341.7609 344.6694 345.9242 345.9242 346.9105
   346.9105 347.6873 349.0168 349.1703 350.2603 350.2603 351.3602 351.3602
   352.1406 352.4841 352.4841 352.6975 352.8693 353.2368 353.2368 353.4767
   353.4767 353.5424 354.4887 354.4887 354.6786 355.2465 355.5679 355.5679
   356.1142 357.4900 357.4900 358.3283 358.3283 358.8503 358.8503 359.2019
   359.2019 359.4159 359.6013 359.7307 359.7482 359.7482 360.4465 360.4465
   361.1447 361.1906 361.3606 361.8470 361.8470 361.8960 364.2692 364.2692
   364.3175 364.3175 364.4451 364.5879 364.8735 364.8735 365.0517 365.4062
   365.4062 365.9098 365.9098 366.2325 366.2325 366.5427 367.1597 370.0798
   370.1754 370.1754 371.8034 372.6518 374.4200 374.5868 374.5868 375.1641
   375.1641 377.7840 377.7840 378.4156 378.4156 379.5443 379.5443 379.6629
   379.8090 379.8090 380.1434 380.5624 380.7751 380.8567 381.5112 381.5112
   382.1128 382.1128 382.1709 382.8468 382.8468 383.4093 383.4119 383.5846
   383.5846 384.4564 384.4564 384.6937 384.8784 385.4649 385.4649 385.5553
   385.8470 385.9746 385.9746 386.1179 386.1179 386.1559 386.1559 386.5468
   386.6228 387.0619 387.1474 387.1474 387.1749 387.8150 387.8150 387.9961
   387.9961 388.2078 388.2078 388.6843 389.8981 391.2378 392.3745 392.3745
   393.4247 393.5020 393.9833 393.9833 394.4842 394.4843 394.5537 394.9288
   395.3692 395.3692 398.7811 403.5910 403.5910 403.8185 403.8185 406.7634
   408.6671 408.6671 408.7726 408.7726 408.8637 408.8637 409.5530 414.6474
   415.7445 415.7445 416.5432 416.5432 418.3918 419.9211 419.9211 421.5186
   422.5737 423.0107 423.0107 423.0988 423.9265 423.9265 424.6960 424.6960
   424.8654 424.8654 425.1554 425.2777 425.7934 427.1163 428.2957 428.2957
   431.5540 431.5540 433.0757 433.1053 433.1053 433.2630 433.2630 433.6136
   434.6909 434.6909 436.4198 436.5791 436.5791 436.8894 436.9637 436.9637
   436.9685 436.9685 437.0542 439.7692 440.9176 441.8013 443.1787 444.8754
   444.8754 445.8390 445.8390 445.9228 445.9228 446.3723 447.0516 448.5693
   448.5693 448.5716 448.7066 448.9386 448.9386 449.0897 449.0897 449.8827
   449.8827 453.4529 454.5261 454.5261 455.2878 459.3780 459.3780 459.4396
   459.4396 459.5160 459.5160 460.9755 461.2821 462.3582 462.3884 463.4510
   463.4510 463.8275 463.8275 463.9055 464.7052 465.1994 465.1994 465.3563
   465.3563 466.6553 466.6553 466.7479 466.9835 466.9835 466.9918 467.1600
   467.1600 467.7102 467.7352 469.3590 469.3590 469.5710 469.6452 470.1324
   470.1324 471.8700 471.8700 472.4887 472.4887 472.7895 472.7895 473.1890
   473.3256 473.3405 473.9881 473.9881 474.5444 475.4438 475.4438 475.5220
   475.5220 477.6541 477.9621 478.1131 478.5484 478.5484 478.9237 478.9237
   479.7436 479.7436 479.8181 479.8181 480.0932 480.1223 480.1848 481.2996
   485.6088 486.0787 486.0787 486.3209 486.3209 488.9432 488.9432 489.1145
   489.1145 489.3052 490.0208 491.4409 493.4569 493.4569 494.3717 496.7402
   496.7402 500.9938 502.9594 504.4823 504.4823 504.9113 504.9113 504.9663
   505.2739 505.2739 505.4786 507.3706 507.8478 507.8478 508.5300 508.9854
   508.9854 510.5242 510.6415 511.1407 511.1407 514.5724 514.8855 515.3683
   517.2100 517.6352 517.6352 517.6465 517.6465 518.1938 518.1938 519.0536
   519.0603 519.0603 519.1992 519.1992 519.2053 520.6781 520.6781 520.8586
   521.0669 521.0669 521.2953 521.2953 521.4093 521.5660 521.5660 521.6825
   521.6825 522.2316 522.2316 523.0483 523.0483 523.0563 523.0563 523.3259
   523.4265 523.9982 524.8368 525.1634 525.2078 525.2078 526.4017 526.6724
   526.6724 526.7494 526.7494 527.0986 527.0986 527.2982 527.3205 527.3205
   527.5292 527.9627 528.4180 531.2333 531.2333 531.2524 531.3268 531.3268
   531.3741 538.2667 538.2667 538.6901 538.6901 539.7092 542.1297 542.1297
   542.8819 543.5867 543.5867 544.2280 544.4674 544.4674 545.6823 545.6823
   546.6830 546.6830 546.7326 546.7766 546.7766 547.1088 547.3863 547.8980
   547.9711 548.0632 548.2505 549.0877 549.0877 549.4573 549.4573 550.1610
   550.1610 550.5734 550.5734 550.8518 550.8518 551.0334 551.0693 551.1194
   551.3230 551.3231 551.6783 552.1266 552.1266 552.5931 552.7353 552.7353
   552.7497 555.1247 557.6596 557.6596 558.5127 559.4905 559.9587 559.9587
   560.1668 560.1668 560.3764 560.7600 560.7600 561.1418 561.1418 562.0106
   562.7504 562.7504 564.0320 564.5252 564.5252 565.3414 565.3414 566.1712
   566.1712 566.2386 567.8365 567.8365 568.3879 568.8039 568.8304 569.6910
   569.6910 570.6577 571.2420 572.0699 572.3578 572.3578 572.6000 572.6000
   572.7814 572.7814 573.4974 573.5409 573.5409 573.5443 573.5443 573.8508
   574.5959 574.5959 574.6150 574.6150 575.3488 575.3630 575.9234 576.7059
   576.7059 577.3497 577.3497 577.6304 578.4670 578.5195 578.5195 578.6797
   578.6797 578.9378 578.9744 579.9597 579.9597 579.9894 579.9894 581.3532
   581.3532 581.5789 581.5860 581.7413 581.7413 582.2918 583.4923 583.4923
   583.9137 584.0721 584.0880 584.0880 584.0944 584.1901 584.1901 584.2504
   584.4616 584.4616 585.3302 585.4783 585.4783 585.7987 585.7987 586.0187
   589.0820 589.7037 589.8473 589.8473 590.5770 590.5770 590.8596 590.8596
   590.9268 591.3065 591.3065 591.3374 591.8230 594.3893 597.7454 597.7454
   601.0842 601.2630 601.2630 602.1046 602.3884 602.3884 602.4460 602.4460
   603.2578 603.5230 603.5230 604.0172 604.2583 604.2583 605.1003 605.1003
   605.3537 605.4573 605.4573 605.5400 605.6137 605.6137 605.7227 605.9568
   605.9606 605.9606 606.2248 606.2248 606.2467 606.4893 606.4893 606.7232
   606.7232 606.8138 606.8229 606.8650 606.8650 607.2858 607.2858 607.3104
   607.6693 607.6693 607.7814 608.0347 609.2016 614.2359 615.9755 615.9755
   621.2962 621.2962 622.7647 622.7647 622.9456 622.9456 623.8278 624.1610
   624.7833 625.3536 627.0760 627.7384 627.7384 627.7698 628.3927 628.3927
   628.6946 629.2075 629.2075 629.6693 629.6693 630.2438 630.4946 632.3075
   632.3075 633.1351 633.3736 633.7639 633.7639 633.8961 633.8961 633.9483
   633.9483 634.1650 634.9919 634.9962 636.0693 636.0693 636.1013 636.5631
   636.5631 636.8089 636.8089 636.9226 636.9226 637.0350 637.0350 637.1758
   637.1867 637.8385 638.0871 638.0871 638.2963 638.2963 638.3738 638.7501
   638.7501 639.3851 639.5466 640.4807 641.3222 641.3222 641.3501 641.5651
   641.5651 641.8556 642.1633 642.1633 643.4587 643.4587 643.9378 644.0898
   644.2764 644.5462 644.5462 645.3723 645.3723 645.4467 645.8262 645.8262
   646.0321 646.2843 646.2843 646.5123 646.6071 646.6804 646.7562 646.7562
   646.9534 646.9534 647.0618 647.0618 647.1383 647.2365 647.2365 647.2922
   648.4841 654.7494 654.7494 654.8956 654.8956 658.0518 659.9464 659.9464
   660.0056 660.0056 660.7202 673.5762 675.0466 675.0466 677.7241 677.7241
   681.0774 681.0933 681.0933 681.3109 681.3109 681.5557 681.7202 681.9288
   681.9288 683.8519 683.8519 683.8623 683.9342 683.9343 684.3722 684.3722
   686.0020 686.4298 686.4944 686.5109 689.2905 689.2905 689.9788 689.9788
   690.3613 691.4234 691.9077 691.9077 692.2322 692.2322 692.4902 692.4902
   693.0909 693.1050 693.1952 693.1952 693.2028 693.7339 693.7339 695.5685
   695.5685 695.8575 696.0640 696.3876 696.3876 697.1479 697.1479 697.1651
   698.6249 698.6864 698.9266 699.0945 699.0945 699.2365 699.2365 699.7054
   699.7054 699.8461 699.8461 700.0776 700.1682 701.2975 703.9177 703.9177
   707.0745 707.0745 707.2841 707.2841 707.3350 707.3350 707.4632 707.5275
   707.7540 708.2684 708.2684 708.3604 708.8293 709.7253 709.7253 709.8289
   709.8289 709.9746 710.1606 710.4937 710.6489 710.6489 710.7864 710.7864
   710.9433 710.9433 711.3710 711.3710 712.0371 713.0318 713.0318 713.1283
   713.3576 713.3576 713.3745 713.3745 714.5692 714.8430 714.8430 715.0018
   715.0538 715.0698 715.0769 715.2063 715.2063 716.3181 716.3181 716.4350
   716.4864 716.4864 716.7664 716.8372 716.8855 716.8855 716.9061 716.9061
   716.9635 717.0706 717.0823 717.0823 717.1454 717.2603 717.2603 717.4106
   717.5249 717.5249 718.1782 718.1782 718.4173 724.6388 728.9289 728.9289
   731.2906 731.2906 731.4188 731.8796 731.8796 732.1247 732.1247 733.4579
   733.4579 733.6705 733.9672 733.9672 734.1570 734.1570 734.4999 734.8609
   735.9036 736.4023 736.4487 736.4487 737.2047 737.3741 737.3928 738.1492
   738.1492 738.2039 738.2039 738.3378 738.7502 738.7502 738.8080 739.0287
   739.0287 739.0615 739.0615 739.1824 739.1824 739.3617 739.3891 740.2530
   740.2530 740.2746 740.2746 740.7096 741.0891 744.9503 745.0007 745.2697
   745.2697 745.2930 745.3427 745.3427 745.7493 745.7493 746.2141 746.2141
   747.0423 748.8260 748.8260 749.5626 749.6126 749.6126 749.6876 750.5384
   750.5384 752.1622 752.1622 753.0271 753.1287 753.5064 753.5064 753.5967
   753.7100 753.7100 753.7303 759.7833 759.7833 760.4873 760.4873 761.4626
   761.9110 761.9110 763.2921 763.7264 764.6758 764.6758 764.7374 765.4852
   765.5549 765.5549 765.9156 765.9156 766.1382 766.1664 766.1664 766.6396
   766.7270 766.7270 766.9529 766.9529 766.9601 767.1761 767.1761 767.8962
   768.0538 769.5989 769.6789 769.6789 769.8225 769.8320 769.8320 769.8577
   769.9873 770.0540 770.0540 770.1695 770.1695 770.5610 770.5610 770.6187
   770.6187 770.8642 770.9483 770.9483 770.9489 771.1717 771.1731 771.1731
   771.3400 773.2407 773.2742 773.2742 773.2975 773.2975 773.3950 774.4057
   775.3144 778.1369 778.1369 778.2683 778.2683 778.3749 778.4583 778.4583
   778.6186 778.6455 778.8766 778.8766 779.2691 788.3527 790.5061 790.5061
   792.7066 793.5525 793.5525 793.6370 794.5305 794.5759 794.5759 794.6495
   794.6495 794.7718 795.2999 796.6647 796.6647 797.2149 797.2389 797.5238
   797.5270 797.5270 797.6379 797.6379 797.6501 797.7989 797.7989 797.9662
   798.1156 798.1156 798.9718 798.9718 799.1105 799.2096 799.2096 799.2998
   799.3159 799.3159 799.4087 799.8202 801.4204 801.4204 802.2223 802.2223
   802.6778 802.6778 802.6865 802.7208 802.7208 802.7581 802.8151 803.9918
   803.9918 804.0112 804.0112 804.9115 807.5937 807.5937 807.5994 807.5994
   808.0618 808.1353 808.3485 808.3485 808.4570 808.4794 808.4794 808.7930
   808.7930 808.8195 808.8195 808.8702 809.0912 809.1281 809.3563 809.3563
   809.5200 809.5200 809.7403 809.9181 809.9181 810.2780 810.4476 810.4476
   811.2219 812.1396 812.1396 812.4176 812.9173 812.9173 814.1666 814.9290
   814.9290 815.0774 815.0774 816.1339 817.5972 819.0330 819.0466 819.7017
   819.7017 819.7365 819.7835 819.7835 819.8624 819.8624 820.0262 820.0262
   820.4019 822.8414 823.6210 824.0958 824.0958 824.2259 824.2259 825.7955
   825.7955 825.8490 825.8490 826.6399 826.6421 826.9419 826.9592 827.3104
   827.3104 827.3518 827.3518 827.4421 827.6687 827.6687 828.4663 828.4663
   829.1541 830.9419 830.9419 834.0747 834.0747 834.2769 834.4277 834.9976
   834.9976 835.4579 835.6998 835.6998 835.7754 835.9770 835.9770 836.4846
   837.0290 837.0290 837.3113 837.4605 837.4976 837.4976 837.6338 837.6338
   837.7773 843.7665 843.7665 845.1175 845.1175 845.3614 845.6780 846.8607
   846.8607 847.0498 847.7764 847.7764 848.6083 848.8452 849.7593 850.0361
   850.0361 850.0895 850.1958 850.1958 850.2368 850.2378 850.2378 850.6751
   850.6751 850.7780 850.7780 850.8975 850.8986 850.8986 851.6851 853.0867
   853.4660 853.4660 853.5150 853.5150 853.6200 853.6200 853.7244 853.7244
   853.9218 854.1552 854.4176 854.6336 854.8082 854.8544 854.8544 854.9933
   854.9933 855.0353 855.0676 855.6671 855.6671 855.6869 855.6869 855.7298
   855.8281 855.8281 855.8549 855.9062 855.9062 856.5370 857.4170 857.5011
   857.5011 857.5672 857.5672 857.5974 857.6210 857.7575 857.7575 857.7620
   857.7620 857.9226 857.9282 858.3531 858.3531 858.5500 858.5500 860.0755
   860.0755 860.1078 860.1159 860.1159 860.4128 861.7179 861.7462 861.7462
   861.7968 861.7968 861.8315 862.3113 862.3113 862.3335 862.3335 863.7621
   863.7621 863.7797 863.9262 863.9262 863.9327 864.1720 864.1872 864.1906
   864.1906 864.5428 864.6186 864.6186 865.0541 873.3592 874.3464 874.3464
   875.9030 875.9030 876.3684 876.4174 876.5457 876.7104 876.7104 876.9627
   876.9627 876.9953 876.9953 877.1316 877.1827 877.1827 877.2911 878.5854
   878.5854 878.6428 878.6428 878.6944 879.2050 880.7509 880.7509 880.8125
   880.8125 880.8709 881.0177 881.5270 881.5270 881.6221 881.6221 881.6543
   881.6543 881.6723 881.6725 881.7436 881.7553 881.8074 881.8074 882.7394
   882.7394 882.7538 882.7739 882.7739 882.7933 887.6021 888.3258 888.3258

          k = 0.0000 0.0000-0.3078 (  3436 PWs)   bands (ev):

   -90.2005 -90.2005 -11.3554 -11.3554   3.1374   3.1374   5.9907   5.9907
     5.9908   5.9908  16.4526  16.4527  21.2142  21.2142  21.6296  21.6296
    21.6296  21.6296  33.9316  33.9316  33.9316  33.9316  33.9741  33.9741
    38.3134  38.3135  40.6419  40.6419  40.6419  40.6419  46.4971  46.4972
    52.0965  52.0965  52.0965  52.0965  54.6762  54.6762  69.0429  69.0429
    69.0429  69.0429  71.8887  71.8887  71.8887  71.8887  74.4610  74.4610
    76.8165  76.8165  76.9049  76.9050  76.9050  76.9050  79.7297  79.7297
    81.2599  81.2599  81.2599  81.2599  86.2149  86.2149  90.4363  90.4363
    93.9120  93.9120  93.9121  93.9121  96.5143  96.5143  97.9444  97.9444
    97.9445  97.9445 102.9531 102.9532 104.1274 104.1274 104.1274 104.1274
   106.1627 106.1627 108.8630 108.8630 110.6799 110.6799 110.6799 110.6799
   116.7055 116.7055 116.7056 116.7056 117.8057 117.8057 119.2495 119.2495
   119.2495 119.2495 121.2229 121.2229 121.2229 121.2229 122.5831 122.5831
   123.9124 123.9124 123.9124 123.9124 124.0951 124.0951 126.6374 126.6374
   126.6374 126.6374 127.6083 127.6083 137.9455 137.9455 141.4281 141.4281
   141.4281 141.4281 145.3935 145.3935 151.2634 151.2634 151.7010 151.7010
   151.7010 151.7010 155.0181 155.0181 158.8312 158.8312 158.8312 158.8312
   164.0476 164.0476 169.3151 169.3151 169.3151 169.3151 172.1465 172.1465
   172.1465 172.1465 174.4611 174.4611 174.7759 174.7759 176.4348 176.4348
   176.4348 176.4348 179.2416 179.2416 179.2416 179.2416 179.6371 179.6371
   182.2538 182.2538 182.2538 182.2538 183.8789 183.8789 184.2385 184.2385
   184.2385 184.2385 189.4977 189.4977 191.1042 191.1042 191.1043 191.1043
   191.8261 191.8261 193.8155 193.8155 194.4208 194.4208 194.4208 194.4208
   197.6503 197.6503 198.9150 198.9150 198.9150 198.9150 200.7395 200.7395
   200.7396 200.7396 201.0819 201.0819 202.3395 202.3395 202.3395 202.3395
   203.2023 203.2023 204.8249 204.8249 205.4707 205.4707 205.4707 205.4707
   207.8771 207.8771 207.8771 207.8771 208.5324 208.5324 212.7511 212.7511
   218.6339 218.6339 218.6339 218.6339 224.2334 224.2334 227.3494 227.3494
   227.3494 227.3494 230.4066 230.4066 231.2349 231.2349 231.2349 231.2349
   233.6609 233.6609 234.6789 234.6789 234.6789 234.6789 234.7086 234.7086
   236.1097 236.1097 236.1097 236.1097 237.0858 237.0858 238.8336 238.8336
   238.8336 238.8336 238.9389 238.9389 240.0690 240.0690 240.4771 240.4771
   240.4771 240.4771 242.0389 242.0389 242.4036 242.4036 242.4036 242.4036
   243.8450 243.8450 252.9699 252.9699 252.9700 252.9700 254.6951 254.6952
   255.5952 255.5952 255.5952 255.5952 258.2102 258.2102 258.8819 258.8819
   258.8819 258.8819 259.2771 259.2771 259.2771 259.2771 259.6076 259.6076
   262.5462 262.5462 263.0089 263.0089 263.0089 263.0089 263.3346 263.3346
   263.3346 263.3346 264.7006 264.7006 271.7063 271.7063 271.7063 271.7063
   273.4967 273.4967 277.1814 277.1814 277.1814 277.1814 280.5199 280.5199
   281.6914 281.6914 281.6914 281.6914 282.2205 282.2205 285.8035 285.8035
   285.8035 285.8035 286.5700 286.5700 287.8435 287.8435 287.8435 287.8435
   288.8459 288.8459 290.8209 290.8209 290.8209 290.8209 291.3067 291.3067
   300.2898 300.2898 303.6897 303.6897 303.6897 303.6897 311.1251 311.1251
   311.1251 311.1251 312.9085 312.9085 313.7293 313.7293 313.7293 313.7293
   316.0354 316.0354 320.5573 320.5573 320.5573 320.5573 321.5474 321.5475
   322.3158 322.3158 324.2066 324.2066 324.2066 324.2066 327.4636 327.4636
   332.4704 332.4704 332.4704 332.4704 332.8765 332.8765 335.6362 335.6362
   335.6362 335.6362 336.1654 336.1654 338.0327 338.0327 338.0327 338.0327
   338.4675 338.4676 339.1843 339.1843 339.4531 339.4531 340.3626 340.3626
   340.3626 340.3626 340.6927 340.6927 340.6927 340.6927 342.4905 342.4905
   342.4905 342.4905 343.2810 343.2810 344.0551 344.0551 344.0551 344.0551
   344.4258 344.4258 344.8556 344.8556 345.9072 345.9072 345.9073 345.9073
   347.3016 347.3016 348.4392 348.4392 348.4392 348.4392 348.8356 348.8356
   348.8356 348.8356 349.2629 349.2629 350.3851 350.3851 350.3851 350.3851
   350.4100 350.4100 351.3335 351.3335 351.3335 351.3335 353.8958 353.8958
   354.0463 354.0463 354.5376 354.5376 354.5376 354.5376 355.5655 355.5655
   355.5655 355.5655 355.9465 355.9465 356.0915 356.0915 356.0915 356.0915
   358.4589 358.4590 363.5213 363.5213 363.5213 363.5213 367.0999 367.0999
   367.0999 367.0999 368.0149 368.0149 368.9287 368.9287 369.8546 369.8546
   370.5292 370.5292 370.5292 370.5292 371.1490 371.1490 371.1490 371.1490
   372.5760 372.5760 372.6935 372.6935 372.6935 372.6935 374.2129 374.2129
   374.5455 374.5455 374.7375 374.7375 374.7375 374.7375 384.4101 384.4101
   389.0812 389.0812 389.0812 389.0812 393.3221 393.3221 393.3221 393.3221
   397.5934 397.5934 399.2012 399.2012 399.2012 399.2012 399.6025 399.6025
   399.8093 399.8093 399.8093 399.8093 401.1424 401.1424 401.6586 401.6586
   402.2068 402.2068 402.2068 402.2068 403.2301 403.2301 403.3268 403.3268
   403.3268 403.3268 403.6341 403.6341 403.9231 403.9231 403.9231 403.9231
   407.9452 407.9452 407.9452 407.9452 410.0644 410.0644 412.3807 412.3807
   414.8975 414.8975 414.8975 414.8975 417.7060 417.7061 417.7061 417.7061
   419.2425 419.2425 419.2425 419.2425 419.2508 419.2508 420.6586 420.6586
   420.6586 420.6586 420.6760 420.6760 422.1851 422.1851 423.5856 423.5856
   425.3327 425.3327 425.3327 425.3327 427.6103 427.6103 427.6103 427.6103
   428.3484 428.3484 428.3857 428.3857 430.0557 430.0557 430.0557 430.0557
   431.9828 431.9828 431.9828 431.9828 433.4640 433.4640 434.1150 434.1150
   434.3821 434.3821 434.3821 434.3821 436.2941 436.2941 436.2941 436.2941
   436.4007 436.4007 438.9381 438.9381 441.8535 441.8535 441.8535 441.8535
   444.6478 444.6478 445.1749 445.1749 445.4669 445.4669 445.4669 445.4669
   448.4239 448.4239 449.2264 449.2264 449.2264 449.2264 449.2530 449.2530
   450.3164 450.3164 450.3164 450.3164 450.7248 450.7248 451.7575 451.7575
   451.7575 451.7575 452.9679 452.9680 453.3002 453.3002 453.3002 453.3002
   455.5211 455.5211 460.5808 460.5808 460.5808 460.5808 465.5362 465.5362
   465.5362 465.5362 465.6829 465.6829 471.8270 471.8270 471.8271 471.8271
   474.0143 474.0143 477.4267 477.4267 477.4267 477.4267 477.8229 477.8229
   479.2619 479.2619 479.2619 479.2619 481.7128 481.7128 481.7128 481.7128
   481.8679 481.8679 482.2676 482.2676 482.2676 482.2676 482.3146 482.3146
   483.6677 483.6677 483.9566 483.9566 483.9566 483.9566 486.0458 486.0458
   496.2579 496.2579 496.2579 496.2579 496.9685 496.9685 505.4087 505.4087
   505.4087 505.4087 507.0963 507.0963 507.0963 507.0963 507.6981 507.6981
   508.1505 508.1505 509.5482 509.5482 509.6989 509.6989 509.6989 509.6989
   510.3718 510.3718 510.3718 510.3718 511.5575 511.5575 511.6659 511.6659
   511.6659 511.6659 513.0525 513.0525 513.2718 513.2718 513.2718 513.2718
   513.6301 513.6301 513.8386 513.8386 513.8386 513.8386 515.7106 515.7106
   516.0478 516.0478 517.2053 517.2053 517.2053 517.2053 519.1460 519.1460
   519.1460 519.1460 520.0488 520.0488 520.0488 520.0488 520.3979 520.3979
   520.3979 520.3979 521.1893 521.1893 521.2430 521.2430 521.6069 521.6070
   521.6070 521.6070 521.8361 521.8361 522.0691 522.0691 522.0691 522.0691
   522.3849 522.3849 523.8044 523.8045 528.2480 528.2480 528.2480 528.2480
   529.7109 529.7109 529.9709 529.9709 529.9709 529.9709 532.2170 532.2170
   532.9782 532.9782 533.1049 533.1049 533.1049 533.1049 533.5312 533.5312
   533.5312 533.5312 534.3639 534.3639 537.7264 537.7264 537.7842 537.7842
   537.7842 537.7842 538.3582 538.3583 538.4503 538.4503 538.4503 538.4503
   540.8692 540.8692 542.8330 542.8330 542.8330 542.8330 545.7931 545.7931
   545.7931 545.7931 546.9848 546.9848 552.4874 552.4874 552.4874 552.4874
   556.0543 556.0543 558.8837 558.8837 559.0872 559.0872 559.0946 559.0946
   559.0946 559.0946 562.1116 562.1116 562.1116 562.1116 563.5877 563.5877
   563.8772 563.8772 563.8772 563.8772 564.0277 564.0277 564.9676 564.9676
   564.9676 564.9676 567.5857 567.5857 567.5857 567.5857 568.0230 568.0230
   568.6076 568.6076 569.1452 569.1452 570.0428 570.0428 570.0428 570.0428
   570.6859 570.6859 570.9304 570.9304 570.9304 570.9304 571.6097 571.6097
   571.6097 571.6097 572.1183 572.1183 572.1183 572.1183 572.2696 572.2696
   572.6348 572.6348 575.7622 575.7622 575.7622 575.7622 575.8129 575.8130
   576.0241 576.0241 576.0241 576.0241 576.1321 576.1321 577.8905 577.8905
   584.0483 584.0483 584.0483 584.0483 584.2233 584.2233 584.8043 584.8043
   584.8043 584.8043 586.3355 586.3355 586.3355 586.3355 587.8981 587.8981
   587.8982 587.8982 588.2132 588.2132 589.4951 589.4951 589.5503 589.5503
   589.7935 589.7935 589.7935 589.7935 590.4784 590.4784 590.5566 590.5566
   590.5566 590.5566 591.3765 591.3765 591.3765 591.3765 591.6810 591.6810
   591.6810 591.6810 592.0540 592.0540 592.7027 592.7027 592.7200 592.7200
   592.7200 592.7200 592.7756 592.7756 592.7894 592.7894 592.7894 592.7894
   592.8865 592.8865 594.8129 594.8129 594.8739 594.8739 594.8739 594.8739
   595.7205 595.7205 595.7205 595.7205 595.7406 595.7406 606.5777 606.5777
   606.5777 606.5777 609.1488 609.1488 609.1488 609.1488 609.3761 609.3761
   609.7162 609.7162 614.1132 614.1132 614.4133 614.4133 614.4133 614.4133
   616.0305 616.0305 616.0305 616.0305 616.2435 616.2435 617.6042 617.6042
   619.1923 619.1923 619.1923 619.1923 620.2250 620.2250 620.2250 620.2250
   620.8305 620.8306 621.1980 621.1980 621.1980 621.1980 622.1743 622.1743
   623.3050 623.3050 623.3050 623.3050 623.9863 623.9863 623.9863 623.9863
   624.0507 624.0507 624.1441 624.1441 624.1658 624.1658 624.1658 624.1658
   625.7927 625.7927 628.4675 628.4675 629.4212 629.4212 629.4212 629.4212
   631.5399 631.5399 631.5399 631.5399 632.2870 632.2870 638.5319 638.5319
   640.9577 640.9577 640.9577 640.9577 644.4266 644.4266 644.4266 644.4266
   646.1850 646.1850 652.2175 652.2175 652.6378 652.6378 652.6378 652.6378
   654.9571 654.9571 655.0000 655.0000 655.0000 655.0000 657.0549 657.0549
   657.0549 657.0549 662.4471 662.4471 663.3020 663.3020 663.3020 663.3020
   664.6512 664.6512 665.6531 665.6531 667.7029 667.7029 667.7029 667.7029
   667.7548 667.7548 668.8027 668.8027 668.8027 668.8027 669.9365 669.9365
   669.9365 669.9365 670.2397 670.2397 670.2397 670.2397 670.5463 670.5463
   671.2271 671.2271 671.4667 671.4667 671.4667 671.4667 671.6541 671.6541
   671.7599 671.7599 671.7599 671.7599 672.7468 672.7468 674.2057 674.2057
   674.2057 674.2057 674.4486 674.4486 674.8547 674.8547 674.8547 674.8547
   674.9401 674.9401 678.7110 678.7110 678.7110 678.7110 679.1942 679.1942
   679.3234 679.3234 679.3234 679.3234 679.5342 679.5342 679.6055 679.6055
   680.1602 680.1602 680.1602 680.1602 680.7343 680.7343 680.7343 680.7343
   681.1860 681.1860 682.1073 682.1073 682.1073 682.1073 682.9677 682.9677
   682.9677 682.9677 683.4417 683.4417 684.4087 684.4087 684.6542 684.6542
   685.2697 685.2697 685.2697 685.2697 685.9746 685.9746 685.9746 685.9746
   685.9878 685.9878 686.2421 686.2421 686.2421 686.2421 686.4041 686.4041
   686.4850 686.4850 686.8641 686.8641 686.8641 686.8641 698.2512 698.2512
   700.1668 700.1668 700.1668 700.1668 701.4686 701.4686 701.5252 701.5252
   701.5252 701.5252 702.1915 702.1915 714.9100 714.9100 721.3452 721.3452
   721.3452 721.3452 726.0672 726.0672 727.3647 727.3647 727.3647 727.3647
   727.4628 727.4628 727.4628 727.4628 728.0848 728.0848 731.1177 731.1177
   731.1177 731.1177 731.5982 731.5982 731.8871 731.8871 732.1756 732.1756
   732.1756 732.1756 732.5582 732.5582 732.5582 732.5582 732.7037 732.7037
   732.7815 732.7815 732.7815 732.7815 733.2650 733.2650 733.2650 733.2650
   733.5013 733.5013 733.5321 733.5321 734.9438 734.9438 734.9438 734.9438
   735.7227 735.7227 735.8477 735.8477 735.8477 735.8477 736.9439 736.9439
   742.7613 742.7613 744.5645 744.5645 744.5645 744.5645 748.0171 748.0171
   748.0171 748.0171 750.5192 750.5192 750.5192 750.5192 750.8084 750.8084
   750.8857 750.8857 751.0060 751.0060 751.3739 751.3739 751.3739 751.3739
   753.0014 753.0014 753.0014 753.0014 753.2477 753.2477 754.3758 754.3758
   754.3759 754.3759 754.3985 754.3985 755.2654 755.2654 755.2654 755.2654
   755.3724 755.3725 757.1862 757.1862 757.1862 757.1862 757.3499 757.3499
   757.3499 757.3499 757.5796 757.5796 757.8028 757.8028 757.8028 757.8028
   757.8514 757.8514 757.9842 757.9842 763.4536 763.4536 763.4536 763.4536
   763.6340 763.6340 764.4181 764.4181 764.4181 764.4181 765.1568 765.1568
   765.1568 765.1568 765.3469 765.3469 765.5735 765.5735 766.3107 766.3107
   766.3107 766.3107 766.6422 766.6422 767.0400 767.0400 767.0400 767.0400
   767.1063 767.1064 767.6618 767.6618 767.6618 767.6618 767.6696 767.6696
   767.9306 767.9306 767.9306 767.9306 768.1270 768.1270 768.2130 768.2130
   768.2130 768.2130 768.3304 768.3304 777.6633 777.6633 777.6633 777.6633
   778.1179 778.1179 778.5889 778.5889 778.5889 778.5889 779.1649 779.1649
   780.0937 780.0937 781.8322 781.8323 781.8323 781.8323 781.9680 781.9680
   782.3110 782.3110 782.3110 782.3110 782.5856 782.5856 782.5856 782.5856
   783.3875 783.3875 785.2368 785.2368 785.2665 785.2665 785.2665 785.2665
   785.4473 785.4473 785.4473 785.4473 785.5986 785.5986 785.7273 785.7273
   785.7273 785.7273 787.6143 787.6143 787.8239 787.8239 788.7569 788.7569
   788.7569 788.7569 789.2969 789.2969 789.2969 789.2969 789.3265 789.3265
   789.7128 789.7128 789.7145 789.7145 789.7145 789.7145 791.5344 791.5344
   791.5344 791.5344 792.1238 792.1238 794.2448 794.2448 795.0262 795.0262
   795.0262 795.0262 795.9455 795.9455 795.9455 795.9455 796.2786 796.2786
   804.2580 804.2580 804.7464 804.7464 804.7464 804.7464 806.6969 806.6969
   806.6969 806.6969 807.0757 807.0757 807.6121 807.6121 807.8499 807.8499
   807.8499 807.8499 808.3221 808.3221 808.3221 808.3221 808.5852 808.5852
   810.5505 810.5505 810.7954 810.7954 810.7954 810.7954 811.3762 811.3762
   811.3762 811.3762 811.8952 811.8952 813.2792 813.2792 813.2792 813.2792
   813.4780 813.4780 813.8234 813.8234 813.8234 813.8234 813.9991 813.9991
   813.9991 813.9991 814.3424 814.3424 814.5341 814.5341 814.5341 814.5341
   814.5911 814.5911 814.6087 814.6087 816.0270 816.0270 816.0270 816.0270
   816.2977 816.2977 816.3469 816.3469 816.3469 816.3469 816.4366 816.4366
   833.3057 833.3057 833.3057 833.3057 834.2805 834.2805 834.2805 834.2805
   834.2864 834.2864 834.3063 834.3063 840.5826 840.5826 840.5826 840.5826
   841.6185 841.6185 841.7276 841.7276 841.7276 841.7276 842.1527 842.1527
   844.6077 844.6077 844.6077 844.6077 845.1393 845.1393 845.6860 845.6860
   845.6860 845.6860 845.7078 845.7078 846.3161 846.3161 846.3161 846.3161
   846.5326 846.5326 846.5326 846.5326 846.6113 846.6113 847.2681 847.2681
   850.9943 850.9943 851.1847 851.1847 851.1847 851.1847 851.3039 851.3039
   851.3446 851.3446 851.3446 851.3446 851.7278 851.7278 851.7598 851.7598
   851.7598 851.7598 852.0199 852.0199 852.0199 852.0199 852.1294 852.1294
   855.2039 855.2039 860.1350 860.1350 860.1350 860.1350 860.8407 860.8407
   861.1302 861.1302 861.1302 861.1302 861.1878 861.1878 862.6799 862.6799
   862.7066 862.7066 862.7066 862.7066 862.9721 862.9721 862.9721 862.9721
   863.1700 863.1700 866.2865 866.2865 866.2866 866.2866 866.6564 866.6564
   866.8111 866.8111 866.8111 866.8111 867.1810 867.1810 869.0440 869.0440
   869.0737 869.0737 869.0737 869.0737 869.2375 869.2375 869.2375 869.2375
   869.2995 869.2995 870.3327 870.3327 873.4946 873.4946 873.4946 873.4946
   873.8916 873.8916 874.5428 874.5428 874.5428 874.5428 874.9507 874.9507
   882.7668 882.7669 884.2993 884.2993 884.2993 884.2993 884.8425 884.8425
   884.8425 884.8425 887.1498 887.1498 887.1498 887.1498 887.9494 887.9494
   890.1728 890.1728 890.1728 890.1728 890.7945 890.7945 893.1805 893.1805
   893.1805 893.1805 893.7503 893.7503 893.7503 893.7503 894.3953 894.3953
   894.9720 894.9720 895.0229 895.0229 895.4883 895.4883 895.4883 895.4883
   895.7849 895.7849 895.7849 895.7849 896.2989 896.2989 896.5472 896.5472

          k = 0.0000 0.2887 0.0000 (  3430 PWs)   bands (ev):

   -90.2007 -90.1986 -11.4502 -10.0037   1.0958   3.1697   4.2373   4.5886
     5.9339   6.0566  15.8026  18.9298  19.3666  21.6404  21.9247  22.7050
    23.8035  24.4474  25.5791  30.0100  30.9249  35.9804  37.2737  38.3601
    40.1659  40.1966  42.3896  44.5027  44.6647  46.7555  47.4185  47.8014
    49.0150  51.3297  51.8856  55.7992  58.9815  59.1235  59.6208  60.8438
    62.4530  64.2635  65.7259  66.0060  66.9694  69.5028  71.7179  71.9052
    72.4133  75.1095  76.7260  78.6395  79.3111  80.0012  81.5652  82.5908
    83.7948  84.4477  84.8999  86.1673  87.0943  88.3968  88.6616  89.6790
    89.7173  91.4018  92.7631  92.7719  93.9755  94.9188  95.9242  97.7012
    98.4540  98.5140  99.2866  99.7617 101.3280 101.7126 102.6485 104.6194
   105.3746 106.7078 107.3401 108.3982 108.5780 109.6194 110.4668 112.3786
   112.5376 112.9545 113.6628 116.3095 117.2751 117.8054 119.4404 120.4398
   121.0680 121.8615 124.7083 125.6543 126.9969 127.1229 127.7592 128.2815
   129.0196 130.0172 130.7905 130.9680 131.2047 132.5983 135.2900 135.7702
   136.8182 137.6557 139.5309 139.6957 141.3644 141.6701 141.7246 143.3622
   143.4614 145.4055 145.7245 146.0016 148.0067 148.2569 149.5931 149.9034
   151.3078 151.3886 151.6638 154.0649 154.2044 154.5438 155.7635 156.0244
   156.5735 159.3033 159.8333 160.9895 161.2186 161.7735 162.7798 162.9023
   163.1458 163.7876 165.5231 165.7845 167.4272 167.7267 169.4728 169.7109
   170.9608 171.5077 171.6449 172.4826 173.2204 173.8233 176.1155 177.2727
   179.5353 179.8180 180.9747 181.9064 182.3136 182.3873 182.8988 183.5406
   185.3024 185.8804 186.5145 187.1323 188.5497 189.9672 190.7902 190.9497
   192.1440 192.2839 193.1062 193.7951 194.0606 194.9592 195.6984 196.4494
   197.6226 198.3129 199.5064 200.2823 200.4430 200.7508 202.4008 203.9815
   204.7465 205.0204 205.2872 205.6888 206.3206 207.1011 207.8292 208.5513
   209.0509 209.5750 210.2765 210.9016 211.5675 212.2046 212.7096 212.9562
   214.1092 214.4498 214.6597 215.3637 216.2086 216.3416 216.8382 217.0791
   217.4281 218.5826 221.5763 221.8215 222.3424 222.4096 222.9139 223.3021
   223.4167 223.7028 223.9227 224.1786 224.5401 224.5873 225.4759 225.5488
   226.1688 226.9794 227.1665 227.6613 228.1378 228.6233 228.7017 229.1708
   230.0968 230.9128 231.7922 231.9266 232.8327 233.4193 234.0719 234.3122
   235.0160 235.4876 238.3684 238.7939 239.9405 242.5059 242.5265 242.9495
   244.0779 245.2993 246.0564 246.6641 247.0364 247.7590 249.2101 249.4841
   249.9841 250.6962 250.7452 251.0191 253.3197 253.5759 254.0954 254.7100
   255.0195 255.7585 256.1768 256.6778 257.7776 258.7171 259.9338 261.5290
   261.7118 262.8114 263.5243 265.5400 266.2004 266.2433 267.3096 267.9913
   269.8931 270.0981 270.9328 271.3428 271.9600 272.8276 273.3612 274.0247
   274.1927 275.0603 275.1059 276.8353 277.1560 278.1195 279.1860 280.2195
   280.6061 281.8613 281.8746 282.2985 282.5984 282.8463 283.3442 283.9979
   284.1765 284.3104 284.5733 286.3798 286.8141 287.0114 287.5612 288.4696
   288.4970 289.0506 289.2697 291.0490 291.3918 292.1753 292.5632 292.6876
   293.4759 293.6043 293.6841 294.3604 294.4616 295.1239 295.3041 295.7938
   296.2931 296.4567 296.5511 296.7099 297.8800 298.3738 298.9232 300.2074
   300.8146 301.8319 302.6824 303.0149 304.6948 305.8928 306.3749 306.9527
   308.0680 309.0500 309.6614 310.7401 311.1225 312.0029 312.5751 312.7912
   313.1272 313.9840 314.3673 315.2015 315.2330 315.3208 315.8692 316.7090
   317.3087 317.5512 318.1614 318.4888 318.8426 320.0686 320.5061 321.3354
   321.5690 321.8118 322.0628 323.1242 323.8159 325.1910 326.0384 327.0408
   327.6659 328.2239 328.2628 329.9313 330.5708 330.5991 331.4057 332.7599
   332.9754 333.3665 334.4996 334.9754 335.1392 335.6581 337.5178 337.5230
   338.0437 338.1813 338.4424 339.0344 339.6632 340.2691 340.3288 340.4265
   341.1052 341.4930 343.4331 344.0969 344.4867 344.8934 345.0825 345.9591
   347.4495 347.7991 348.4407 348.7165 349.2362 349.3333 349.6767 350.0435
   350.6744 350.7762 351.4623 351.6341 352.1722 352.5186 353.8101 353.9525
   354.4599 354.9546 355.0491 355.1939 356.1324 356.1528 356.8286 356.9001
   357.3835 357.3988 357.8961 358.5311 359.0253 359.0773 359.8751 359.8929
   361.4978 361.8759 364.4418 365.8159 366.1473 366.4669 367.9603 368.3616
   369.2658 369.8251 369.8754 370.5124 371.3005 371.4705 372.0760 372.3760
   373.2013 373.2907 374.4390 374.4825 375.3039 375.8701 376.3796 376.5217
   377.1576 377.2990 377.3704 377.6498 378.6782 378.7176 379.3720 379.7816
   380.5973 380.7986 380.8537 382.3067 382.7477 384.0258 384.1993 384.3335
   386.3020 386.9610 387.3240 387.5685 387.8459 388.0678 388.3919 388.8352
   390.0318 390.8415 391.1572 391.8482 392.4252 393.1048 393.7483 393.8011
   393.9818 394.9184 395.0158 395.2315 395.8177 396.4401 396.7962 397.6773
   398.0002 398.2041 398.4373 399.2820 399.4899 399.5981 400.0791 400.1824
   400.2698 400.5256 400.6528 400.6815 400.9104 401.0970 401.7453 402.5181
   403.1891 403.8604 404.3824 404.8748 406.0507 406.4322 407.2586 408.4096
   408.4631 408.5026 408.8129 409.2356 409.3869 409.8168 410.3068 410.4492
   410.6265 410.7022 410.9402 411.4628 411.6941 411.9072 412.1869 412.7572
   413.5502 414.1940 414.7207 415.1112 415.1257 415.4537 416.0896 416.1722
   416.6588 416.7905 417.5807 417.8134 418.7930 419.2950 420.1107 420.3750
   420.5150 420.7397 421.0442 421.3328 422.3518 422.8159 424.2443 425.9560
   429.5088 429.6551 429.8217 430.6550 430.6965 431.5824 432.2084 433.8297
   434.2093 434.5363 434.6140 435.1031 435.4326 435.8025 436.4209 436.4413
   436.9938 437.8154 438.1744 438.3508 438.4703 440.0260 440.1943 441.1506
   441.4543 441.6472 441.7137 442.2800 443.3528 443.5857 444.0157 444.7133
   445.0695 445.4115 446.7408 447.8079 449.0950 450.3275 450.4574 451.0950
   451.2269 451.5624 451.7003 454.6168 455.2597 455.3680 456.4519 457.3366
   458.3338 458.7282 458.9948 459.4086 459.6643 459.9865 460.1540 460.8770
   461.0660 461.8431 462.7125 463.0290 463.0981 463.7274 463.8521 464.2354
   464.9300 465.0853 465.2020 465.3552 466.0257 466.8724 467.4317 468.7774
   470.5438 470.5666 471.1572 471.5508 472.4108 473.6635 473.8458 474.1206
   474.4506 474.8128 475.3314 475.3534 475.5529 475.8167 476.0919 476.6447
   476.8363 476.9878 477.6120 477.9549 478.3468 478.4604 479.1640 479.2281
   479.5479 479.6782 479.7868 480.7666 481.5369 481.6846 482.0943 482.2201
   483.2681 483.3213 483.3748 483.5538 486.4107 487.2933 487.4996 489.4235
   490.0612 490.0657 490.5923 491.2392 491.2958 491.8406 492.4848 492.9927
   493.2215 493.6735 493.7369 494.2947 494.7258 494.9731 495.7785 496.0911
   496.4066 496.7455 496.9165 497.0866 497.2736 497.6131 499.1092 500.2274
   500.4391 501.2646 501.2829 502.1204 502.2913 502.6556 502.8890 503.1232
   503.2955 503.4718 503.5400 504.1031 504.2915 504.3043 504.6338 504.9836
   505.6475 505.9928 506.3324 506.7815 507.2949 507.5697 507.6406 507.7516
   509.5291 511.1977 512.3771 512.5270 512.9754 513.3520 513.4572 513.8622
   514.1012 514.5254 514.8674 515.8992 516.2879 517.2884 517.9406 518.0139
   518.3524 518.3711 518.4109 518.9337 519.5878 519.7611 520.1894 520.6759
   521.4819 522.7081 522.9701 523.4454 524.4674 524.5161 525.0877 525.2712
   526.3082 526.6064 526.7942 527.3533 527.7390 528.9235 529.0751 529.1106
   529.2131 530.2032 530.6632 531.3266 531.8985 531.9259 532.3986 532.5752
   532.7976 532.8908 532.9913 533.0403 533.5424 533.7625 534.0093 534.2205
   535.0352 535.6236 536.5407 536.5966 537.0610 537.1543 537.6283 537.9025
   538.0201 538.2252 538.4689 539.2169 540.1024 540.6044 540.8834 541.5244
   541.6885 541.7893 542.1105 542.6613 542.9054 543.4038 543.4267 543.9021
   544.3794 544.6358 544.7901 544.8145 545.1135 545.4046 545.4930 545.6574
   545.7597 546.5083 546.9113 549.8422 551.9603 553.3868 554.4370 555.2572
   555.6662 556.5490 556.5671 557.2069 557.4483 558.6857 558.7660 559.1894
   559.4764 559.7763 559.7835 560.9330 560.9361 561.5449 561.7604 561.9846
   562.3638 562.5795 562.8623 563.2117 563.6126 563.6280 564.3210 564.6209
   564.6383 564.8272 565.1121 565.1138 565.1755 565.3332 565.5943 565.8316
   565.9968 566.0790 566.6421 566.9027 569.4337 569.6530 572.7125 574.4240
   574.8180 574.8688 575.5053 576.4825 576.7365 576.7771 577.5857 578.1202
   578.4677 578.9273 579.1787 579.2893 579.6667 580.0112 580.1646 580.3410
   580.3435 580.6009 581.0600 581.3170 581.6724 582.0932 582.4305 582.7178
   582.8686 582.9790 583.9470 584.3533 585.3791 585.3794 586.2849 586.3297
   586.6792 586.7006 587.0784 587.3324 587.5378 587.6813 587.8328 588.7686
   589.1841 589.5938 589.6359 589.9416 590.1726 590.3570 590.5347 590.5915
   590.8293 591.3428 592.0532 592.2014 592.8322 592.9461 593.5194 594.4683
   595.2305 595.4808 595.6822 595.7021 595.9936 596.1863 596.3566 596.4863
   596.6908 596.7432 597.0148 597.0635 598.2104 598.4260 598.4560 598.7136
   598.8036 598.9611 599.2456 599.5823 599.9480 600.1251 600.5823 601.2874
   602.1672 603.1580 603.2920 603.4954 603.6121 603.9017 604.3188 604.3926
   604.7684 605.1130 605.3038 605.5432 605.9315 605.9809 606.6111 606.9180
   607.2392 607.2620 607.4376 607.4589 607.5309 607.7634 608.0230 608.1903
   608.3809 608.8145 608.9762 609.4690 609.5670 613.0611 614.0662 614.6278
   616.6381 616.7817 617.2871 617.8376 618.3610 619.0964 619.6681 620.7552
   620.8486 621.5310 621.7474 621.9263 623.0734 624.0100 624.7747 624.8228
   624.9210 625.0844 625.7153 625.9775 626.6581 627.0376 627.5776 627.7483
   627.8314 628.5728 629.0020 631.8497 633.3692 634.0389 634.2826 634.4541
   634.9955 635.1130 635.1158 635.5731 636.0435 636.5413 636.8386 636.9594
   637.8695 637.9631 638.9669 639.3001 640.6438 641.8299 642.0365 643.1582
   643.4333 644.3113 644.5798 644.8448 645.0687 645.6272 646.2827 646.3397
   646.8186 647.0727 647.3692 647.5828 648.1428 648.3541 648.4343 648.6529
   648.8144 649.1433 649.2154 649.2805 649.8409 650.0430 650.2909 650.5992
   650.6597 650.8718 650.9973 651.6183 651.6812 651.7792 651.9373 652.0937
   652.3513 652.5876 653.1344 653.3503 654.0459 654.2761 654.5244 655.1176
   656.0085 656.8630 658.9588 658.9747 659.2697 659.9178 659.9629 660.1801
   660.2674 660.2760 660.7002 661.4439 661.7645 662.4559 662.4858 662.5487
   662.6031 662.7774 662.8842 663.2894 664.6774 664.9104 665.3969 665.6097
   665.9416 666.1156 666.4789 666.5719 666.6216 666.6720 667.0523 667.2716
   667.9326 668.4345 669.5321 670.2518 670.2997 670.5062 670.5712 670.7034
   670.8988 671.0639 671.3731 671.6307 672.7008 672.9038 672.9080 673.5281
   674.7005 674.9645 676.6453 677.7417 678.3801 678.7194 679.3566 679.6945
   680.1876 680.5618 681.1987 681.5291 681.5777 682.1691 682.9763 683.3095
   683.9662 684.6213 684.8465 685.0352 685.5906 685.6341 686.1892 686.4225
   687.2501 687.6811 688.4422 688.8592 689.0613 689.3886 689.6501 689.8028
   690.1258 690.1387 690.4066 690.9719 691.7512 691.8428 692.5197 692.5859
   692.8604 692.9166 693.9147 694.0245 694.1233 695.1458 695.9134 696.2523
   696.8139 697.4857 698.9797 699.3412 699.5550 700.0975 700.5335 700.5892
   701.3108 702.7742 702.7832 703.4250 704.3240 704.6696 704.7297 705.0889
   705.6016 706.2342 706.4601 706.5401 707.0388 707.4460 707.6418 707.9546
   708.1772 708.2740 708.4963 708.7410 709.3913 709.5737 709.7291 710.0219
   710.1789 710.2135 711.3121 711.3223 711.4293 712.0362 712.1356 712.5751
   712.6939 712.8055 713.1786 713.6613 714.3083 714.8647 715.5796 715.7955
   715.8128 716.0475 716.3532 717.3068 717.3559 717.5028 718.5521 718.9617
   719.9403 720.2242 720.6474 720.6970 721.2372 721.2878 721.4277 721.6581
   721.6957 722.2656 722.4802 723.2075 723.8101 724.2359 724.4190 724.4576
   724.6680 724.8095 726.2270 726.4269 726.8238 726.9000 727.0620 727.1626
   727.4642 727.5428 727.8730 728.3848 728.8034 729.1442 729.2079 729.4151
   729.5396 729.5892 730.8929 731.1371 731.3330 731.4666 732.0271 733.2216
   733.4754 734.1148 735.4700 735.6707 735.7082 738.0532 739.1366 739.3815
   739.5588 740.3146 740.5680 741.0882 741.4762 741.8989 742.5731 742.6681
   743.6432 744.0639 744.4499 744.8709 745.2720 745.3284 745.6680 746.0584
   748.6794 748.7758 748.7914 749.1409 749.3020 749.4614 749.5753 749.5825
   749.7797 749.8894 750.0456 750.3152 750.7251 751.0152 751.0239 751.1728
   751.3730 751.4553 751.7847 751.9842 752.0819 752.4926 752.8206 753.1005
   753.5247 753.9514 754.2863 754.4135 754.4736 754.5580 754.7977 754.9641
   755.1095 755.3009 756.1621 756.2913 757.6866 758.7551 760.3898 760.9115
   762.6767 762.9462 763.4871 763.8181 764.5069 764.5733 765.4023 765.5919
   765.5927 765.7261 766.1919 766.3009 766.4059 766.4840 767.9302 768.0968
   768.2638 768.9077 769.1084 769.3860 769.8098 770.7765 771.5864 771.6735
   771.8135 771.8792 771.9332 772.2322 772.6545 772.8581 773.7885 773.9658
   774.2064 774.3053 774.6074 774.7411 774.9316 775.4819 775.5762 775.8856
   776.1396 776.4850 778.9787 780.2604 780.4511 780.4566 780.6571 781.4413
   781.9512 782.6295 782.7212 782.8118 783.1902 783.2684 783.3608 783.4031
   783.6555 783.6886 784.2671 784.6612 785.0716 785.9770 786.5059 786.5383
   786.8055 787.2312 787.6325 788.0960 788.3578 788.4598 788.5034 788.5583
   789.2924 789.6223 789.7583 789.9123 790.0226 790.4450 790.9038 790.9149
   791.0179 791.1644 791.2531 791.5288 791.7647 791.8367 792.2511 792.3768
   792.9345 793.7938 793.9422 794.1043 794.4776 794.5618 794.7595 796.3612
   796.3965 796.8457 796.9636 797.0979 797.2098 797.2207 797.2934 798.4831
   799.2981 800.2120 800.5601 800.7254 800.9286 801.0568 801.0640 802.5647
   802.7157 802.9360 803.1143 803.1811 804.0734 804.5384 805.1470 806.1598
   806.4988 807.0921 807.5125 807.8312 807.9606 808.2377 808.6121 809.0279
   809.1981 809.6455 809.6667 809.7286 809.7917 810.7254 811.1191 811.2705
   811.3435 811.8046 811.8560 812.8008 812.9170 813.3590 813.6208 813.6309
   813.9068 814.0401 814.0811 814.2598 814.3080 814.3649 814.7170 814.9925
   815.0602 815.1240 815.2744 815.3264 815.6708 816.5836 816.5986 819.2238
   819.9871 820.5045 821.0897 821.4310 821.6360 821.6446 821.8814 822.2980
   822.5315 822.5768 823.4148 823.5741 823.6750 823.9902 824.1567 824.1582
   824.2649 824.5645 824.5946 824.6381 825.1652 826.1258 826.2700 826.7867
   826.9947 827.5713 827.8498 829.6174 829.9759 830.9791 831.1808 831.5043
   831.5851 832.2083 832.4320 832.4677 832.6301 832.7196 832.8190 833.9726
   834.1385 834.4321 834.4528 835.0866 835.2083 835.8031 835.8837 836.0099
   836.0774 836.2333 836.4140 836.4861 836.6977 836.9227 837.3895 838.1275
   838.2343 838.3971 838.5250 838.8669 839.2734 841.2888 841.5175 841.6230
   841.8115 842.4201 842.4608 842.6250 843.0939 843.1793 843.2201 843.2704
   843.7964 843.8797 844.0695 845.4895 846.2466 846.4858 846.5690 846.8258
   846.9713 847.0053 847.0591 847.0964 847.1971 847.8408 847.8950 847.9301
   848.0841 848.0844 848.1724 848.2868 848.2881 848.9880 849.3053 849.3125
   849.4260 849.8736 850.2423 850.7920 851.2636 851.8145 851.8869 853.5295
   853.5479 854.0013 854.2448 855.1122 855.6504 855.6938 855.9233 856.0737
   856.1888 856.3583 856.4665 856.4708 856.6894 857.4878 857.8790 857.9789
   858.0769 858.0935 858.1284 858.2405 858.3271 860.5389 860.5638 861.8395
   861.9520 862.0003 862.0971 863.3926 863.5360 864.4193 864.7795 865.0204
   865.4017 865.5747 866.6497 867.7938 868.3512 868.8516 869.1278 869.4876
   869.5020 869.7503 869.7958 869.8671 869.8761 871.8743 871.9199 872.5072
   872.8409 872.8874 873.2978 873.4612 873.4925 873.5809 873.7162 874.3268
   874.3498 875.3346 875.4914 875.9169 876.4626 876.7991 877.0098 877.0571
   877.1836 877.2037 877.3488 877.5183 877.5993 879.1201 879.3995 879.5027
   879.9065 880.0998 880.1032 880.3369 880.4946 880.7445 880.9871 881.3375
   881.4607 884.8048 884.8163 889.0360 889.5711 889.6953 889.9016 890.2040
   890.2409 890.3581 891.0456 891.5023 891.6645 892.8471 893.0807 893.4974
   893.7288 893.9509 894.0649 894.1977 894.2098 894.5008 894.8690 896.1715
   896.2829 896.4468 896.5022 897.7546 897.9814 898.0706 898.2318 898.4830

          k = 0.0000 0.2887-0.3078 (  3430 PWs)   bands (ev):

   -90.1997 -90.1996 -10.8061 -10.8061   2.5889   2.5889   4.6939   4.6939
     5.2714   5.2714  16.4501  16.4502  20.6671  20.6671  23.0922  23.0922
    23.4258  23.4258  29.2966  29.2966  33.8587  33.8587  35.7594  35.7594
    40.2929  40.2929  44.1217  44.1217  45.5535  45.5535  47.4805  47.4806
    51.4353  51.4353  51.9588  51.9588  56.8705  56.8705  62.4673  62.4673
    63.5295  63.5296  67.9682  67.9682  70.1094  70.1094  72.9482  72.9482
    73.3196  73.3196  76.0879  76.0879  79.3982  79.3982  79.7488  79.7488
    81.8853  81.8853  84.1188  84.1188  86.0208  86.0208  89.7504  89.7504
    92.9204  92.9204  94.1599  94.1599  94.5525  94.5525  95.7884  95.7884
    98.3414  98.3414 100.6747 100.6747 102.9512 102.9512 104.0071 104.0071
   107.8668 107.8668 108.4872 108.4873 110.1237 110.1237 111.7740 111.7740
   113.0579 113.0579 114.9517 114.9517 117.7713 117.7713 118.2934 118.2934
   122.5658 122.5658 123.9950 123.9950 124.7635 124.7635 126.8008 126.8008
   127.9185 127.9185 131.7295 131.7295 133.6510 133.6510 133.9635 133.9635
   136.3105 136.3105 136.6579 136.6579 138.8132 138.8132 142.6693 142.6693
   144.9363 144.9363 147.1626 147.1626 148.2711 148.2711 148.3158 148.3158
   150.2892 150.2892 152.2657 152.2657 154.2028 154.2028 157.6558 157.6558
   158.4756 158.4756 161.2460 161.2460 163.2296 163.2296 166.3936 166.3936
   168.2637 168.2637 169.2536 169.2536 171.4116 171.4116 172.7370 172.7370
   173.8680 173.8680 174.0176 174.0177 175.5290 175.5290 175.8570 175.8570
   177.6839 177.6839 178.8559 178.8559 179.9139 179.9139 181.9172 181.9172
   183.5642 183.5643 184.7314 184.7314 187.9615 187.9615 188.8438 188.8438
   189.2561 189.2561 190.3672 190.3672 193.6794 193.6794 195.3121 195.3121
   196.5978 196.5978 198.3583 198.3583 198.3635 198.3636 200.2556 200.2556
   201.3068 201.3068 202.9167 202.9167 206.2665 206.2665 207.0943 207.0943
   208.8576 208.8576 209.2602 209.2602 211.6524 211.6524 212.4401 212.4401
   213.4253 213.4253 214.8159 214.8159 216.3863 216.3863 217.3614 217.3614
   218.8252 218.8252 219.1886 219.1886 220.8761 220.8761 223.5474 223.5474
   224.9838 224.9839 227.1970 227.1970 227.7526 227.7526 228.3960 228.3960
   230.6912 230.6912 231.2182 231.2182 231.6790 231.6791 233.1936 233.1936
   234.5400 234.5400 235.8986 235.8986 237.8940 237.8940 238.5998 238.5998
   240.7345 240.7345 240.8822 240.8822 242.1064 242.1064 243.0174 243.0174
   244.6294 244.6294 247.0767 247.0767 247.2683 247.2683 249.3587 249.3587
   249.6240 249.6240 251.1628 251.1628 252.4336 252.4336 253.2457 253.2457
   255.3485 255.3485 256.3172 256.3172 257.1516 257.1516 258.9663 258.9663
   259.4420 259.4420 261.9850 261.9850 264.2157 264.2157 264.2604 264.2604
   266.8544 266.8544 268.0219 268.0219 268.3953 268.3953 269.3223 269.3223
   272.2374 272.2374 273.3407 273.3407 274.0050 274.0050 274.0635 274.0635
   275.3385 275.3385 276.7817 276.7817 279.5842 279.5842 280.4361 280.4362
   281.3989 281.3989 281.7401 281.7401 282.9803 282.9803 286.6112 286.6112
   288.4306 288.4306 288.7134 288.7135 289.9781 289.9781 293.1291 293.1291
   293.7331 293.7331 297.8676 297.8676 298.3389 298.3389 300.3255 300.3255
   302.1723 302.1723 303.7189 303.7189 304.6921 304.6921 305.9241 305.9241
   308.1816 308.1816 308.8677 308.8677 309.0808 309.0808 311.3759 311.3759
   311.4688 311.4688 313.0051 313.0051 313.1166 313.1166 314.5099 314.5099
   315.1764 315.1764 316.1286 316.1286 317.4379 317.4379 319.1024 319.1024
   319.5638 319.5638 319.8358 319.8358 320.6407 320.6407 320.6816 320.6816
   321.2017 321.2017 321.6168 321.6168 324.4811 324.4811 324.9606 324.9606
   327.0383 327.0383 328.2046 328.2046 330.0763 330.0763 330.9503 330.9503
   331.4071 331.4071 332.6188 332.6188 333.4835 333.4835 334.7623 334.7623
   335.8346 335.8346 336.8755 336.8755 338.2429 338.2429 338.6827 338.6827
   338.8152 338.8152 340.2879 340.2879 343.7539 343.7539 344.3049 344.3049
   345.6326 345.6326 346.7278 346.7278 347.5542 347.5542 348.3495 348.3495
   349.8709 349.8709 354.0294 354.0294 354.7272 354.7272 355.5845 355.5845
   355.7029 355.7029 356.7025 356.7025 357.5987 357.5987 358.3486 358.3486
   358.5339 358.5339 360.3289 360.3289 362.0355 362.0355 362.1613 362.1613
   362.8491 362.8491 364.2357 364.2357 365.0714 365.0714 366.3603 366.3603
   367.0600 367.0600 368.8857 368.8857 369.7279 369.7279 370.9019 370.9019
   372.7950 372.7950 373.1273 373.1273 373.1895 373.1895 374.5180 374.5180
   376.4870 376.4870 378.1842 378.1842 379.3161 379.3161 379.6912 379.6912
   380.5445 380.5445 381.8709 381.8709 381.9288 381.9288 383.0690 383.0690
   383.6673 383.6673 384.7113 384.7114 384.8780 384.8780 386.0704 386.0704
   386.6688 386.6688 387.7949 387.7949 388.5270 388.5270 389.0236 389.0236
   390.0490 390.0490 390.7787 390.7787 392.3681 392.3681 394.5923 394.5923
   396.1186 396.1186 397.9456 397.9456 398.7151 398.7151 400.7264 400.7264
   402.1496 402.1496 402.5945 402.5945 403.2329 403.2329 404.3593 404.3593
   405.5500 405.5500 405.8955 405.8955 406.6720 406.6720 407.5765 407.5765
   409.7950 409.7950 411.2829 411.2829 411.8983 411.8983 413.7478 413.7478
   414.1773 414.1773 414.9992 414.9992 415.3597 415.3597 416.5965 416.5965
   417.3706 417.3706 418.5966 418.5966 419.9335 419.9335 420.1194 420.1194
   421.6607 421.6607 421.7517 421.7517 422.4143 422.4143 423.4995 423.4995
   423.5219 423.5219 424.6740 424.6740 425.9272 425.9272 426.7680 426.7681
   427.9041 427.9041 430.1813 430.1813 430.7363 430.7363 432.2951 432.2951
   433.2559 433.2559 434.5203 434.5203 435.2536 435.2536 436.2983 436.2983
   436.3481 436.3481 437.0545 437.0545 439.2656 439.2656 441.7643 441.7643
   441.7831 441.7831 443.4192 443.4192 446.6416 446.6416 448.2064 448.2064
   448.3257 448.3257 450.1923 450.1923 450.4273 450.4273 452.4358 452.4358
   453.2163 453.2163 454.3185 454.3185 455.8667 455.8667 457.1161 457.1161
   457.2646 457.2646 457.8625 457.8625 458.1809 458.1809 459.0796 459.0796
   459.1607 459.1607 459.8638 459.8638 461.0891 461.0891 461.3085 461.3085
   462.4501 462.4501 464.0004 464.0004 464.5561 464.5561 464.7605 464.7605
   464.7719 464.7719 465.8919 465.8919 466.3144 466.3144 468.3008 468.3008
   471.3352 471.3352 471.4104 471.4105 472.2803 472.2803 474.4004 474.4004
   475.6765 475.6765 476.1671 476.1671 478.6314 478.6314 479.5539 479.5539
   479.7258 479.7258 481.0924 481.0924 481.5567 481.5567 482.4427 482.4427
   482.5888 482.5888 483.2561 483.2561 484.2017 484.2017 484.7311 484.7311
   484.7361 484.7361 487.7648 487.7649 489.2881 489.2881 489.3401 489.3401
   491.3522 491.3522 491.4168 491.4168 494.0380 494.0380 494.9104 494.9104
   496.1398 496.1398 497.6510 497.6510 499.0774 499.0774 499.1700 499.1700
   499.6419 499.6419 500.0683 500.0683 502.7171 502.7171 504.5743 504.5743
   505.1662 505.1662 505.7528 505.7528 508.5250 508.5250 509.0258 509.0258
   509.6846 509.6846 510.3236 510.3236 510.8309 510.8309 511.8851 511.8851
   512.5668 512.5668 513.2377 513.2377 515.1878 515.1878 515.4221 515.4221
   518.2296 518.2296 518.3150 518.3150 518.6392 518.6392 519.1576 519.1576
   520.4373 520.4373 521.1082 521.1082 521.2147 521.2147 522.1906 522.1906
   523.4766 523.4766 524.7468 524.7468 524.7991 524.7991 525.3342 525.3342
   526.1826 526.1826 527.1115 527.1115 527.3231 527.3231 528.7780 528.7780
   530.1314 530.1314 530.3675 530.3675 531.2395 531.2395 532.1766 532.1766
   532.4393 532.4393 532.4902 532.4902 532.8556 532.8557 532.8970 532.8970
   535.5336 535.5336 537.3325 537.3325 539.1515 539.1515 539.9302 539.9302
   542.3461 542.3461 543.3750 543.3750 543.8946 543.8946 544.0300 544.0300
   544.8233 544.8233 545.0291 545.0291 547.0042 547.0042 547.4355 547.4355
   548.5932 548.5932 548.8289 548.8289 550.6347 550.6347 550.8962 550.8962
   551.9418 551.9418 553.0105 553.0105 553.8575 553.8575 554.6129 554.6129
   555.9952 555.9952 556.1796 556.1796 556.2267 556.2267 557.0285 557.0286
   557.6018 557.6018 558.2970 558.2970 558.3571 558.3571 559.4777 559.4777
   559.4911 559.4912 560.3396 560.3396 560.7080 560.7080 561.2174 561.2174
   561.5548 561.5548 562.1086 562.1086 562.9880 562.9880 563.1119 563.1119
   563.5798 563.5798 563.9892 563.9892 564.0977 564.0977 567.2281 567.2281
   567.3521 567.3521 567.7929 567.7929 568.1337 568.1337 569.7694 569.7694
   571.9770 571.9770 572.9408 572.9408 573.7471 573.7471 574.2966 574.2966
   575.1107 575.1107 575.9961 575.9961 576.0727 576.0727 577.8503 577.8504
   578.2569 578.2569 581.4217 581.4217 581.8873 581.8873 582.4414 582.4414
   583.0950 583.0950 584.4965 584.4965 584.7632 584.7632 586.4999 586.4999
   588.5183 588.5183 591.0805 591.0805 591.9694 591.9694 593.1669 593.1669
   593.2829 593.2830 593.9464 593.9464 594.1756 594.1756 594.4909 594.4909
   595.3590 595.3590 597.8518 597.8518 599.5594 599.5594 599.9906 599.9906
   600.9059 600.9059 602.0822 602.0822 602.1117 602.1117 602.8305 602.8305
   603.6898 603.6898 604.4625 604.4625 604.6627 604.6627 605.9102 605.9102
   608.1586 608.1586 608.9484 608.9484 609.5060 609.5060 610.7033 610.7033
   610.8232 610.8232 613.0217 613.0217 614.0161 614.0161 614.3386 614.3386
   614.4310 614.4310 615.1124 615.1124 615.9409 615.9409 617.2972 617.2972
   617.5411 617.5411 618.1935 618.1935 619.1793 619.1793 619.2503 619.2503
   620.3642 620.3642 620.5959 620.5959 621.4442 621.4442 621.4542 621.4542
   622.1522 622.1522 622.2416 622.2416 622.8428 622.8428 624.1883 624.1883
   624.2523 624.2523 625.6192 625.6192 626.6367 626.6367 626.6615 626.6615
   627.0824 627.0824 627.5489 627.5489 631.4506 631.4506 631.9370 631.9370
   632.2984 632.2984 633.3013 633.3013 634.0892 634.0893 634.4253 634.4253
   634.5538 634.5538 634.9059 634.9059 635.4759 635.4759 636.3378 636.3378
   638.7809 638.7809 639.4681 639.4681 640.9038 640.9038 641.6740 641.6740
   641.9852 641.9852 643.2499 643.2499 643.8770 643.8770 643.9045 643.9045
   644.4246 644.4246 644.7866 644.7866 646.6997 646.6997 647.1531 647.1531
   648.5679 648.5679 649.9079 649.9079 650.6601 650.6601 650.8638 650.8638
   651.4023 651.4023 651.4087 651.4087 652.5608 652.5608 654.2096 654.2096
   654.4011 654.4011 656.4365 656.4365 656.5757 656.5757 656.8329 656.8329
   657.7356 657.7356 657.7917 657.7917 659.3645 659.3645 660.0325 660.0325
   660.4016 660.4016 663.3088 663.3088 664.2696 664.2696 664.3528 664.3528
   665.6055 665.6055 665.6758 665.6758 666.4095 666.4095 666.4917 666.4917
   667.1325 667.1326 667.7963 667.7963 667.8429 667.8429 668.8419 668.8419
   669.1062 669.1062 669.8692 669.8692 671.1593 671.1593 671.3876 671.3876
   671.9416 671.9416 673.2607 673.2607 673.3166 673.3166 674.5248 674.5248
   674.6428 674.6428 682.5355 682.5355 682.6503 682.6503 683.7974 683.7974
   684.8582 684.8582 685.5961 685.5961 687.6872 687.6872 689.1277 689.1277
   689.6749 689.6749 690.9524 690.9524 691.3297 691.3297 692.6219 692.6219
   693.1647 693.1647 695.1918 695.1918 695.7139 695.7139 697.2964 697.2964
   698.2765 698.2765 698.5205 698.5205 698.8789 698.8789 699.2098 699.2098
   699.7355 699.7355 699.9360 699.9360 700.6898 700.6898 701.1119 701.1119
   701.1183 701.1183 702.5155 702.5155 702.8287 702.8287 705.5382 705.5382
   705.8165 705.8165 706.0828 706.0828 708.7406 708.7406 709.2645 709.2645
   710.0741 710.0741 710.2663 710.2663 711.2749 711.2749 711.9745 711.9745
   712.2889 712.2889 712.6184 712.6184 712.9578 712.9578 713.1840 713.1840
   715.6227 715.6227 717.0753 717.0754 717.2060 717.2060 717.9443 717.9443
   718.1599 718.1599 718.7464 718.7464 719.6813 719.6813 720.0492 720.0492
   721.6065 721.6065 724.0987 724.0987 724.2569 724.2569 725.0745 725.0745
   725.0842 725.0842 725.4405 725.4405 725.6576 725.6576 726.0969 726.0969
   726.1724 726.1724 728.3651 728.3651 728.6427 728.6427 728.9652 728.9652
   730.0541 730.0541 731.2791 731.2791 731.9415 731.9415 732.3210 732.3210
   732.7742 732.7742 734.3393 734.3393 734.7889 734.7889 735.8904 735.8904
   736.0882 736.0882 736.2782 736.2782 736.2803 736.2803 737.9103 737.9103
   737.9200 737.9200 738.3851 738.3851 738.6152 738.6152 739.1716 739.1716
   743.1325 743.1325 744.3213 744.3213 745.4652 745.4652 745.6435 745.6435
   746.3887 746.3887 746.4771 746.4771 746.9798 746.9798 747.0906 747.0906
   747.5713 747.5713 747.9407 747.9407 748.6485 748.6485 749.3606 749.3606
   751.9640 751.9640 752.3183 752.3183 752.7484 752.7484 753.5247 753.5247
   753.5426 753.5426 754.4189 754.4189 758.6973 758.6973 758.9871 758.9871
   759.3534 759.3534 759.6513 759.6513 760.2543 760.2543 760.3622 760.3622
   760.8668 760.8668 761.0783 761.0783 762.7485 762.7485 763.6249 763.6249
   763.9308 763.9308 766.6624 766.6624 767.5500 767.5501 767.6621 767.6621
   768.0688 768.0688 768.3696 768.3696 768.7412 768.7412 769.5525 769.5525
   769.8936 769.8936 770.5518 770.5518 772.0312 772.0312 772.1028 772.1028
   772.5288 772.5288 773.9726 773.9726 774.1504 774.1504 774.4694 774.4694
   774.4803 774.4803 775.5475 775.5475 777.5009 777.5009 777.5136 777.5136
   779.8925 779.8925 780.6764 780.6764 780.7589 780.7589 781.3731 781.3731
   782.1690 782.1690 785.2050 785.2050 785.6461 785.6461 786.0102 786.0102
   786.9147 786.9147 788.1303 788.1303 788.6484 788.6484 789.3560 789.3560
   789.5614 789.5614 790.1069 790.1069 790.6382 790.6382 790.9024 790.9024
   791.6637 791.6637 791.7863 791.7863 792.8494 792.8494 793.6847 793.6847
   794.0292 794.0292 794.1331 794.1331 794.5367 794.5367 795.7207 795.7207
   795.7910 795.7910 796.1785 796.1785 798.0066 798.0066 798.5502 798.5502
   799.8733 799.8733 800.3539 800.3539 800.5363 800.5363 800.6572 800.6572
   800.7970 800.7970 801.2992 801.2992 802.7434 802.7434 802.9887 802.9887
   803.0219 803.0219 803.4611 803.4611 803.5060 803.5060 803.7553 803.7553
   803.8032 803.8032 804.7539 804.7539 806.9685 806.9685 807.9903 807.9903
   808.5762 808.5762 808.6002 808.6002 808.7941 808.7941 808.8036 808.8036
   809.1609 809.1609 809.7296 809.7296 809.9453 809.9453 813.4055 813.4055
   813.4798 813.4798 815.0295 815.0295 815.2635 815.2635 818.0659 818.0659
   818.2581 818.2581 820.1412 820.1412 820.4120 820.4120 820.6229 820.6229
   821.7565 821.7565 822.2123 822.2123 823.6025 823.6025 824.0497 824.0497
   824.3285 824.3285 825.2095 825.2095 825.2947 825.2947 825.4155 825.4155
   825.7215 825.7215 827.3414 827.3414 828.0657 828.0657 829.8927 829.8927
   829.9587 829.9587 832.5380 832.5380 832.6376 832.6376 833.6334 833.6334
   833.7251 833.7251 834.4858 834.4858 835.6643 835.6643 836.6169 836.6169
   836.6451 836.6451 836.9131 836.9131 837.2138 837.2138 838.4329 838.4329
   840.9703 840.9703 841.0970 841.0970 841.4827 841.4827 841.5354 841.5354
   841.6564 841.6564 843.0529 843.0529 843.1322 843.1322 843.2872 843.2872
   845.2084 845.2084 845.3848 845.3848 845.7403 845.7403 846.9685 846.9685
   848.6272 848.6272 849.5707 849.5707 849.7633 849.7633 850.4166 850.4166
   850.4984 850.4984 851.2337 851.2337 851.5630 851.5630 851.8780 851.8780
   851.9885 851.9885 852.6939 852.6939 852.9146 852.9146 853.2089 853.2089
   854.1364 854.1364 856.1721 856.1721 856.4077 856.4077 856.6477 856.6477
   857.0073 857.0073 857.4516 857.4516 858.2481 858.2481 858.3692 858.3692
   859.7607 859.7607 862.4254 862.4254 863.9201 863.9202 864.3299 864.3299
   865.6343 865.6343 868.9480 868.9480 869.3070 869.3070 870.1763 870.1763
   870.7545 870.7545 870.8400 870.8400 871.3626 871.3626 871.4786 871.4786
   871.8255 871.8255 872.4634 872.4634 872.5904 872.5904 872.7517 872.7517
   872.9419 872.9419 874.6803 874.6803 875.0227 875.0227 875.4491 875.4491
   875.9667 875.9667 878.0303 878.0303 878.1467 878.1467 879.8249 879.8249
   879.9788 879.9788 880.9637 880.9637 881.3920 881.3920 882.7193 882.7193
   882.7996 882.7996 884.8615 884.8615 885.1490 885.1490 885.2173 885.2173
   885.5654 885.5654 886.9553 886.9553 887.1753 887.1753 889.3999 889.3999
   889.4444 889.4444 891.8870 891.8870 893.6920 893.6920 893.9245 893.9245
   895.5949 895.5950 895.9633 895.9633 896.3546 896.3546 896.5422 896.5422
   896.7719 896.7719 897.7571 897.7571 897.8827 897.8827 899.0206 899.0206

          k = 0.0000-0.5774 0.0000 (  3410 PWs)   bands (ev):

   -90.1992 -90.1983 -10.3927  -9.8824   0.7700   2.4381   3.1296   3.8634
     4.5428   5.5953  16.3571  16.8052  20.0340  21.6635  21.8777  24.4822
    24.7083  25.4156  25.9388  30.9318  34.0645  34.8916  35.3078  37.8944
    40.6498  41.8551  45.2503  45.3080  45.8871  48.5163  49.6322  51.3330
    51.5793  51.7150  52.8694  55.1647  55.7173  57.9211  57.9858  61.6971
    62.6574  64.5581  65.4440  65.9263  68.2629  68.4607  68.6022  69.0217
    70.8038  74.4026  75.0060  75.5007  76.0595  76.3293  78.1354  79.7345
    80.9831  81.0851  81.3852  82.4090  83.3810  85.1054  85.1591  85.6311
    87.4331  88.4680  90.0121  90.9510  94.9696  95.0968  96.1299  97.8042
    98.3034 100.6675 102.3846 102.8151 102.8738 102.9223 107.2430 107.7376
   107.9965 109.8675 112.3251 113.2358 113.4639 114.1389 114.7908 115.0988
   116.4885 117.2364 117.5187 119.8416 120.4478 121.1035 122.2977 122.5794
   123.2864 123.3026 123.5481 124.8481 124.9832 126.9873 130.1437 130.3569
   130.3999 132.6086 132.8021 133.9503 134.5256 135.5689 136.1975 136.8679
   137.5140 137.9439 138.6247 138.7854 140.2139 140.9818 143.2815 143.8016
   145.0477 146.3796 146.6312 146.9625 148.9457 149.0103 149.5233 149.6681
   149.7574 151.3808 151.6190 153.1304 154.5211 154.7271 155.7104 155.8500
   156.2819 156.2823 156.4782 156.7330 159.2990 160.4174 161.7119 161.8512
   163.9182 164.1108 165.9199 166.2358 166.4240 166.9157 167.5452 168.4824
   168.7931 169.1929 169.5480 169.7372 170.4140 171.0323 171.6317 173.8356
   174.0521 174.7692 176.2640 177.3220 177.4810 177.6410 179.1779 180.5074
   181.0810 181.2259 182.4346 184.4090 187.1191 187.4845 188.6602 188.8188
   191.4590 191.8213 192.4775 192.6051 194.2770 194.5197 195.1143 195.4963
   196.3056 197.0842 197.1718 197.8731 198.7699 199.3015 199.9997 200.3786
   200.6329 203.0207 203.2736 203.9825 204.0253 205.9655 206.2490 207.1753
   208.1620 208.3495 208.7179 208.9348 209.1285 209.2819 210.5712 211.1388
   211.1837 211.1840 211.3818 211.6516 212.2731 212.2806 212.4600 212.7977
   212.8441 213.4426 216.8973 218.1291 218.2441 218.7783 221.6617 221.8597
   222.4992 227.2952 229.3276 230.7032 231.6217 232.2183 232.5483 233.3376
   234.0613 234.7938 235.8584 236.6333 237.0009 237.1767 238.0543 238.7289
   239.0248 239.1837 239.2239 239.6437 242.2394 242.2786 243.4865 243.6271
   243.7263 244.2196 244.3929 244.4221 245.8017 246.7037 246.9297 247.1315
   248.8926 248.8959 249.4080 249.6847 250.3197 250.5184 251.1551 251.5306
   251.5423 252.2798 252.7783 253.4758 255.7433 256.0876 257.3892 257.9332
   258.0736 260.3009 260.9530 261.1665 261.4637 261.8529 262.0715 262.7792
   263.7996 264.2461 264.6143 264.9480 265.4890 265.9766 266.4734 267.6045
   269.1185 270.4240 272.8627 273.1410 273.2517 273.2713 273.3145 274.4539
   274.6138 274.7054 274.7161 275.7695 276.1788 276.3139 276.5550 276.7521
   277.2195 277.6996 277.8598 278.0858 278.1248 278.6024 279.0799 279.5357
   279.8695 280.8600 281.3843 281.6030 281.6673 282.7024 284.7384 286.3465
   286.5811 287.1713 287.1750 288.1377 288.2315 288.8896 289.5554 289.8442
   290.2996 291.0464 291.2431 291.9903 293.4517 294.0614 294.3353 294.9933
   295.0006 295.6551 296.0130 296.5142 296.9794 297.6804 300.1730 300.2542
   300.6586 300.8475 301.6724 303.0298 303.7622 304.2109 304.6880 304.8823
   306.4742 308.4033 308.6283 312.4076 313.9886 314.2889 314.8900 315.2768
   316.1866 316.5521 316.9926 317.1572 317.7294 318.3901 318.7996 319.1998
   319.3805 319.5710 319.7776 320.2386 321.0522 321.1061 321.9009 321.9347
   322.0590 322.4349 322.7566 323.4829 323.6571 323.9510 324.4949 324.8046
   326.1950 326.3054 326.3837 326.5707 327.1745 327.2923 328.3229 329.0868
   329.2491 330.4923 330.6307 330.7388 331.5245 331.5473 331.6581 332.2746
   332.4047 333.0158 333.2536 333.6401 334.1269 334.5676 334.6350 334.7828
   334.8975 334.9786 335.3358 335.8399 335.8864 335.9232 336.0216 336.8666
   337.2223 337.3209 337.7833 337.9617 339.2994 340.2842 341.1913 341.5554
   342.2641 343.0518 344.7545 344.7821 351.8627 352.6710 352.9745 353.1424
   353.2895 355.1477 356.3472 357.6134 358.4340 358.6973 358.7798 358.9477
   359.1253 359.1286 359.6031 360.0053 360.1387 360.5277 361.0999 362.0965
   362.2968 362.5550 362.7375 363.5358 364.0322 364.2764 364.5045 364.8766
   365.6571 366.5552 366.8967 367.1883 369.6873 370.2972 370.8165 371.1157
   371.4502 372.4791 372.7624 372.8267 374.0237 374.0244 375.3091 375.4600
   375.8519 377.4035 377.4895 379.2097 379.8846 382.1416 382.1558 382.8061
   383.4380 383.5331 384.3214 384.8960 385.9044 387.2568 388.7933 389.2037
   389.2507 389.2804 389.3202 390.0850 390.8250 391.9526 392.9472 393.5533
   394.8280 394.8866 394.9537 396.9370 397.4562 397.6192 398.0883 398.6583
   398.6835 398.8810 399.3899 399.9197 400.5927 400.7980 401.3954 401.4836
   401.9165 402.0873 402.2159 402.6376 402.7585 403.0043 403.2556 403.3732
   403.6858 404.3308 404.5872 405.0768 405.1023 405.4114 406.4318 406.6122
   407.1808 407.2835 407.8658 407.9481 409.3770 410.5590 411.2150 411.9679
   412.0243 412.9963 413.5369 413.5425 414.6811 414.7145 415.1479 415.8934
   416.0499 417.0953 417.2110 417.4566 417.4971 418.0762 418.4647 418.7647
   419.1210 419.1314 419.2147 419.6430 419.7189 419.8269 420.3850 420.5324
   421.8183 422.2423 423.3473 423.5267 423.5580 424.0480 425.2949 425.4292
   426.6577 427.1372 427.5513 428.0895 428.1313 428.4316 428.4799 428.4826
   429.5296 430.1077 430.3480 431.7865 433.4077 434.6213 436.9235 438.0501
   438.2045 438.3454 439.0084 439.1234 439.1476 439.5150 440.6887 440.8188
   440.9358 441.1218 442.1779 442.3851 443.4453 443.9159 444.2818 445.2095
   445.2161 445.3919 445.8591 446.0469 446.2341 446.4065 446.5342 446.8467
   448.2016 448.2841 449.0637 449.3465 450.2295 450.6989 451.3032 451.9689
   452.4541 453.2797 453.7555 453.9834 454.0061 454.9422 455.3287 455.5102
   455.7092 456.1688 456.4342 456.4789 456.8608 457.0814 457.4400 457.8571
   458.2229 458.3665 458.3981 458.5013 458.7565 459.0967 459.1682 459.5470
   459.9458 460.0590 460.0764 460.2234 460.3645 460.5158 460.6230 460.7568
   460.8748 461.0389 461.1274 461.1590 461.7989 462.0584 462.1135 462.9981
   464.8463 465.3185 465.5438 466.2008 466.2843 466.5202 467.1109 468.2022
   468.2501 468.4009 468.9381 470.6123 477.4491 477.7008 477.9831 478.0460
   478.9891 479.6855 481.4365 481.5764 482.2235 483.3648 483.8260 483.9055
   484.1228 484.2831 484.4175 484.4737 486.0959 486.1260 487.2587 487.3364
   488.0481 488.0512 488.5768 488.7468 488.9499 489.2212 489.2664 489.6728
   489.7675 490.5704 490.7595 490.7905 491.2880 491.4522 492.1284 492.4917
   493.0130 493.8514 495.1541 495.5173 496.4145 496.9482 498.1081 498.1322
   498.2995 498.5790 499.5876 499.7964 499.9450 500.0880 500.4941 501.6953
   502.8266 503.0449 503.1096 503.3426 504.3741 505.1248 507.0514 507.8779
   507.9571 507.9779 508.3959 508.7438 508.9341 508.9760 509.0360 509.2890
   510.2724 510.5214 510.8629 511.3647 511.6135 511.7594 512.0359 512.9219
   514.4600 515.5108 516.2804 516.3853 516.6851 516.9218 518.7437 519.4991
   519.5977 520.2978 521.2085 521.3172 521.4709 521.6291 521.6998 522.0115
   522.1293 522.3512 522.4285 523.4240 524.3118 524.4562 525.2214 525.6794
   525.9759 526.4057 526.6374 526.6757 526.9701 527.0157 527.0903 527.3116
   527.6142 528.0681 528.7762 528.8519 528.9338 529.2177 529.3606 529.4616
   530.0088 530.1784 530.2706 530.3586 530.3912 530.4646 530.4936 530.7305
   531.1738 531.5427 531.8392 535.0511 535.4718 536.0326 536.3326 536.9891
   537.3882 537.4382 537.8086 537.9859 538.1175 538.1999 538.5989 538.6000
   539.3388 540.3786 541.3069 541.9602 542.0275 542.1880 542.2978 542.3776
   542.5331 542.9406 543.1485 543.8519 543.9049 544.0887 545.1206 545.2821
   546.0491 546.1148 546.8302 546.8553 546.8579 546.8786 548.2442 549.2906
   549.3110 550.0098 550.0383 550.1967 550.4456 550.9080 550.9235 551.6453
   551.6528 551.8496 551.8894 552.3669 553.0850 553.1861 553.2235 553.3676
   555.3245 555.7743 556.9841 557.2607 557.7659 558.6288 559.3587 559.5707
   560.5702 562.7094 562.9634 563.9087 563.9437 563.9904 565.7550 565.8864
   566.1764 566.4329 566.7146 566.7763 567.0444 568.1220 568.1744 569.1804
   569.3212 569.7320 570.4768 570.5607 570.9742 571.0192 571.3252 571.3503
   571.4260 571.6804 571.9386 572.0408 576.2485 576.4549 576.7275 577.2221
   578.3442 578.6598 579.9730 580.5570 581.0903 581.5041 581.5780 581.6789
   582.0549 582.1721 582.1731 582.3239 582.4400 582.5285 582.7521 582.7633
   582.7762 582.8063 582.9184 582.9233 584.0769 584.1311 584.4604 584.5744
   585.2586 585.4782 585.5183 587.3108 590.5110 590.9943 592.1238 592.3851
   592.6092 592.6613 592.7555 592.8538 599.7582 600.2204 602.1873 604.0043
   604.7944 605.1479 606.3574 606.9898 607.7921 607.9727 608.1824 608.3914
   608.4412 608.6250 608.8713 609.0287 609.5784 610.2171 610.5359 610.5889
   611.2357 611.2917 611.3699 612.2454 612.4998 613.0741 613.7328 613.7896
   615.1240 615.7411 616.3776 616.5586 616.7227 616.7232 617.6340 617.9075
   618.1797 618.8600 619.0196 619.2792 619.4851 619.6925 619.9258 619.9794
   620.1168 620.1364 620.5487 620.7321 620.9615 621.4310 621.6600 621.9137
   622.5642 622.6769 623.3989 623.5190 623.5197 623.6930 624.3913 624.6845
   624.8355 624.9573 624.9684 624.9829 625.2329 625.6478 625.8486 626.4731
   626.5968 626.6084 626.6141 626.6661 626.7698 630.0264 630.1995 631.0377
   631.0927 631.4302 631.4524 632.1041 632.3906 632.5525 632.5728 632.6129
   632.6422 632.9100 632.9150 633.0304 633.1817 633.2218 633.3686 634.3691
   634.9237 635.0121 635.3797 635.4586 635.4697 635.5510 635.6508 636.8440
   637.3577 637.7294 638.0515 638.4229 638.6669 639.7651 640.1394 640.4403
   640.5901 640.6222 640.7119 641.4883 643.9222 644.4857 645.0243 645.5089
   646.4260 646.4555 646.4860 646.6566 646.9765 647.6145 648.3449 648.6921
   648.7431 648.7619 648.7787 648.7967 648.8535 649.5034 649.7299 649.7989
   649.9405 650.2496 650.3347 650.3438 650.8876 651.1113 651.9962 652.2235
[...]
   815.0318 815.2189 816.5757 817.0557 817.7358 817.9591 818.8233 818.9681
   819.5131 820.1232 820.2062 820.2642 821.7115 821.7890 821.8261 822.0928
   822.2393 822.2624 822.8074 822.8578 823.1398 823.2033 823.8098 823.9508
   824.5089 824.7885 824.9291 824.9987 825.4093 825.5227 825.5304 825.6543
   826.3109 826.4207 828.5121 828.7524 831.1496 831.7524 833.3949 833.6777
   834.1223 834.3979 835.2318 835.2732 836.9198 837.0923 837.4394 837.6610
   837.8075 838.0452 839.4086 839.6366 839.8412 839.9488 840.2491 841.0475
   841.9430 842.5474 842.9019 843.1697 843.3211 843.3820 843.4772 843.9410
   844.1453 844.2221 844.7259 844.7737 844.8627 844.8745 845.2004 845.4159
   845.7147 845.7674 846.6728 846.7415 846.9738 846.9868 847.0436 847.5463
   850.6419 851.0198 852.1012 852.5244 852.9648 853.0653 853.1223 853.1709
   854.1566 854.2043 854.3002 854.5578 854.6613 854.7085 854.7770 855.0171
   855.5063 855.7869 856.3340 856.7478 856.8053 857.0538 857.4238 857.5177
   860.7005 861.1229 861.5641 861.6028 861.6953 862.2487 862.7875 862.8215
   862.8789 862.9212 863.7316 864.2231 864.3167 864.9771 865.5159 865.7567
   865.8464 866.0603 866.0707 866.1098 866.1764 866.3078 866.3426 866.3539
   866.3909 866.4039 866.5799 867.3863 867.4322 867.6202 867.6254 867.7053
   867.7214 867.8095 867.8590 868.8961 869.7921 870.7319 872.3487 872.5868
   872.9457 873.2077 873.2853 873.4827 873.5863 873.7191 874.1767 874.4916
   874.7233 874.7403 875.2861 875.3013 876.1561 876.2270 876.8482 877.1686
   877.5347 877.6462 877.6599 877.8676 877.9354 878.1749 878.4674 878.7239
   878.8934 878.9778 879.1061 879.2212 879.2735 879.7671 880.0334 880.1358
   880.1485 880.4411 880.4829 880.6810 881.0381 881.1662 881.3039 881.4456
   882.2618 882.5012 882.9451 883.8275 884.0990 884.2064 884.3187 884.4268
   884.6747 884.7508 884.9451 884.9614 885.5041 885.5243 885.8567 885.8896
   885.9281 886.0509 886.1160 886.1246 886.3186 886.3553 886.4820 886.6298
   887.1550 887.2326 887.3677 887.4459 887.7072 887.7636 888.6405 890.2785
   891.3925 891.6765 893.8159 894.8849 894.9133 894.9440 895.1531 896.3539

          k = 0.2500 0.4330-0.3078 (  3414 PWs)   bands (ev):

   -90.1988 -90.1988 -10.1515 -10.1515   1.6964   1.6964   3.2607   3.2607
     5.1334   5.1334  17.1294  17.1295  19.9421  19.9421  23.6734  23.6734
    24.8809  24.8810  28.2474  28.2474  33.8696  33.8696  36.7991  36.7992
    41.1641  41.1641  45.7205  45.7205  47.6703  47.6703  50.0589  50.0590
    51.9985  51.9985  55.7913  55.7913  58.3705  58.3705  60.1020  60.1020
    61.2885  61.2885  65.1553  65.1553  66.1208  66.1208  68.7731  68.7731
    71.1926  71.1926  73.6629  73.6630  75.7275  75.7275  78.6794  78.6794
    81.1691  81.1691  84.2552  84.2552  85.3379  85.3379  87.2094  87.2094
    89.8530  89.8530  91.9959  91.9959  94.2272  94.2272  97.3315  97.3315
   100.6927 100.6927 102.2516 102.2516 103.6487 103.6487 107.1429 107.1429
   108.7061 108.7061 109.9993 109.9993 113.6404 113.6404 114.7062 114.7062
   116.6948 116.6948 117.3958 117.3958 118.5715 118.5715 120.2788 120.2788
   122.2236 122.2236 124.8937 124.8937 125.5982 125.5982 128.3073 128.3073
   130.9024 130.9024 133.0970 133.0970 135.6425 135.6425 136.3235 136.3235
   139.5852 139.5852 142.2277 142.2277 143.1357 143.1357 145.5112 145.5112
   147.3980 147.3980 148.0474 148.0474 149.3336 149.3336 150.7202 150.7202
   151.6238 151.6238 152.5968 152.5968 153.4314 153.4314 154.4119 154.4119
   155.7546 155.7546 158.5133 158.5133 159.6176 159.6176 161.6970 161.6970
   164.1909 164.1909 164.8075 164.8075 166.1050 166.1050 167.5247 167.5247
   168.0873 168.0873 169.3258 169.3258 170.1247 170.1247 171.5786 171.5787
   172.8549 172.8549 175.8133 175.8134 178.6718 178.6718 181.4482 181.4482
   182.9988 182.9988 183.7015 183.7015 185.4236 185.4236 186.8102 186.8102
   189.5402 189.5402 191.7443 191.7443 193.9191 193.9191 195.0234 195.0234
   195.8463 195.8463 197.2159 197.2159 198.2351 198.2351 199.2154 199.2154
   200.3306 200.3306 202.5885 202.5885 203.1820 203.1820 204.2255 204.2255
   206.6548 206.6548 207.6594 207.6594 208.6552 208.6552 211.8508 211.8508
   213.6719 213.6719 215.2039 215.2039 216.9344 216.9344 218.1134 218.1135
   218.5332 218.5332 220.2583 220.2583 223.0759 223.0759 224.6827 224.6827
   226.7689 226.7689 227.7621 227.7621 228.7925 228.7925 229.9946 229.9946
   232.0069 232.0069 232.7695 232.7695 233.1225 233.1225 235.3832 235.3832
   237.9248 237.9248 239.9202 239.9202 242.8746 242.8746 243.6322 243.6322
   244.5399 244.5399 244.7009 244.7009 245.7851 245.7851 246.8035 246.8035
   247.8499 247.8499 248.9130 248.9130 249.9703 249.9703 251.7344 251.7344
   254.9940 254.9940 256.0179 256.0179 256.9218 256.9218 257.1492 257.1492
   259.6196 259.6196 261.3921 261.3921 262.3325 262.3325 263.3772 263.3772
   264.1889 264.1889 265.9909 265.9909 266.3288 266.3288 267.1178 267.1178
   267.8238 267.8238 268.9321 268.9321 270.6266 270.6266 271.3609 271.3609
   272.1586 272.1586 273.7161 273.7161 276.8366 276.8366 277.5185 277.5185
   277.8455 277.8455 278.9389 278.9389 279.7919 279.7919 281.3707 281.3707
   282.5208 282.5208 283.6821 283.6821 284.1236 284.1236 285.3981 285.3981
   288.3075 288.3075 290.3969 290.3969 291.3373 291.3373 292.7184 292.7184
   293.0273 293.0273 293.9054 293.9054 294.7063 294.7063 294.7757 294.7757
   295.6448 295.6448 296.0124 296.0124 298.3625 298.3625 300.6855 300.6855
   301.5756 301.5756 302.4984 302.4984 304.1769 304.1769 304.6632 304.6632
   305.4993 305.4993 306.3043 306.3043 307.3327 307.3327 308.1253 308.1253
   308.8512 308.8512 309.1356 309.1356 309.3436 309.3436 309.9895 309.9895
   312.1454 312.1454 313.6785 313.6785 316.8708 316.8708 318.5380 318.5380
   321.1073 321.1073 323.3344 323.3344 324.6094 324.6094 326.0953 326.0953
   327.0737 327.0737 328.0225 328.0225 328.5467 328.5467 329.3631 329.3631
   330.7873 330.7873 333.7355 333.7356 335.3289 335.3289 336.3939 336.3939
   336.7198 336.7198 336.9779 336.9779 339.1260 339.1260 339.8621 339.8621
   341.1368 341.1368 341.5400 341.5400 341.9801 341.9801 342.5263 342.5263
   343.4100 343.4100 343.7078 343.7078 345.3501 345.3501 345.7317 345.7317
   347.0837 347.0837 350.4804 350.4804 351.8370 351.8370 352.2202 352.2202
   353.5195 353.5195 354.5553 354.5553 355.2097 355.2097 356.3080 356.3080
   356.7284 356.7284 357.9877 357.9877 359.1442 359.1442 360.0505 360.0506
   361.7189 361.7189 365.3429 365.3429 367.2640 367.2640 368.7169 368.7169
   369.0976 369.0976 369.7405 369.7405 369.9691 369.9691 371.2575 371.2575
   373.1486 373.1486 373.9520 373.9520 374.3007 374.3007 375.8984 375.8984
   376.8877 376.8877 378.5836 378.5836 379.6512 379.6512 381.0443 381.0443
   382.0355 382.0355 382.4463 382.4463 384.2025 384.2025 384.8405 384.8405
   386.2525 386.2525 387.3118 387.3118 387.5857 387.5857 388.0623 388.0623
   389.8857 389.8857 391.0723 391.0723 391.2810 391.2810 391.5372 391.5372
   391.9328 391.9328 392.8951 392.8951 394.8590 394.8590 395.5482 395.5482
   396.6533 396.6533 397.6895 397.6895 399.5802 399.5802 401.4887 401.4887
   402.5351 402.5351 403.4868 403.4868 404.1022 404.1022 405.1530 405.1531
   405.7935 405.7935 407.8861 407.8861 408.6330 408.6330 409.2808 409.2808
   409.5884 409.5884 411.6857 411.6858 413.8747 413.8747 414.9577 414.9577
   416.0043 416.0043 419.5745 419.5746 419.9473 419.9473 420.3314 420.3314
   420.9569 420.9569 422.1680 422.1680 424.0507 424.0507 424.9947 424.9947
   426.8327 426.8327 427.4550 427.4550 427.9957 427.9957 429.8192 429.8192
   430.3938 430.3938 431.4427 431.4427 432.0443 432.0443 434.3688 434.3688
   435.1092 435.1093 435.8844 435.8844 436.4285 436.4286 437.8199 437.8199
   438.6085 438.6085 439.0283 439.0283 439.7935 439.7935 439.8805 439.8805
   440.3274 440.3274 441.6721 441.6721 441.8078 441.8078 443.7356 443.7356
   445.6070 445.6070 446.8063 446.8063 448.1125 448.1125 449.5133 449.5133
   449.9448 449.9448 450.1127 450.1127 452.0508 452.0508 452.6766 452.6766
   454.1983 454.1983 454.7957 454.7957 455.7763 455.7763 455.9473 455.9473
   456.8650 456.8650 457.6398 457.6398 458.3733 458.3733 458.6218 458.6218
   459.2867 459.2867 460.4532 460.4532 461.5865 461.5865 462.9380 462.9380
   464.1420 464.1420 465.6506 465.6506 465.8733 465.8733 466.2288 466.2288
   467.5940 467.5940 468.7562 468.7562 469.2604 469.2604 469.5877 469.5877
   470.4524 470.4524 471.3984 471.3984 472.1946 472.1946 473.6693 473.6693
   474.2895 474.2895 474.5948 474.5948 475.5345 475.5345 476.0063 476.0063
   477.3204 477.3204 477.9431 477.9431 479.6358 479.6358 480.6847 480.6847
   481.3026 481.3026 481.9120 481.9120 482.6108 482.6108 483.1644 483.1644
   483.3658 483.3658 483.7910 483.7910 485.6443 485.6443 486.8013 486.8013
   487.9859 487.9859 488.4155 488.4155 489.2257 489.2257 489.9723 489.9723
   490.5301 490.5301 490.9308 490.9308 491.8333 491.8333 493.4734 493.4734
   494.1779 494.1779 494.2822 494.2822 495.7411 495.7411 495.9496 495.9496
   497.5692 497.5692 498.9879 498.9879 499.4530 499.4530 499.8565 499.8565
   501.2838 501.2838 502.7074 502.7074 503.6755 503.6755 505.8983 505.8983
   507.2814 507.2814 507.7460 507.7460 508.8054 508.8054 509.1592 509.1592
   511.0694 511.0694 511.6513 511.6513 512.4099 512.4099 513.1916 513.1916
   513.9780 513.9780 515.0723 515.0723 515.6192 515.6192 516.2342 516.2342
   517.1767 517.1767 517.5607 517.5607 518.0815 518.0815 521.2967 521.2967
   521.6639 521.6639 522.9156 522.9156 523.5641 523.5641 523.9298 523.9298
   524.2804 524.2804 525.8704 525.8704 527.2164 527.2164 528.2299 528.2299
   529.8009 529.8009 531.9581 531.9581 532.3960 532.3960 533.2160 533.2160
   533.3816 533.3816 534.4255 534.4255 535.1610 535.1610 536.4901 536.4901
   538.0311 538.0311 538.8468 538.8468 539.5923 539.5923 540.3175 540.3175
   540.6935 540.6935 543.0804 543.0804 543.2784 543.2784 544.2149 544.2149
   545.0653 545.0653 545.4622 545.4622 546.0491 546.0491 548.9935 548.9936
   550.1100 550.1100 552.0224 552.0224 555.4449 555.4449 555.7982 555.7982
   557.2403 557.2403 557.9673 557.9673 558.8315 558.8315 559.5776 559.5776
   561.2227 561.2227 562.8552 562.8552 563.4899 563.4899 564.7445 564.7445
   566.3481 566.3481 566.5622 566.5622 568.7909 568.7909 569.3096 569.3096
   569.7617 569.7617 570.1263 570.1263 570.9710 570.9710 572.4459 572.4459
   572.9847 572.9847 573.2636 573.2636 575.1257 575.1257 575.5391 575.5391
   575.8753 575.8753 576.1847 576.1847 577.0390 577.0390 577.7857 577.7857
   577.9469 577.9469 578.3308 578.3308 578.5851 578.5851 578.8930 578.8930
   579.3374 579.3374 580.0095 580.0095 581.1242 581.1242 582.0312 582.0312
   583.5764 583.5764 584.0708 584.0708 585.6049 585.6049 586.6986 586.6986
   587.0209 587.0209 587.2668 587.2668 589.3370 589.3370 590.3949 590.3949
   590.6174 590.6174 591.3158 591.3158 592.0465 592.0465 592.5382 592.5382
   593.4433 593.4433 593.6782 593.6782 593.8668 593.8668 595.1131 595.1131
   596.7821 596.7821 597.5691 597.5691 598.8098 598.8098 599.1576 599.1576
   599.6316 599.6316 601.9584 601.9584 602.4888 602.4888 602.8668 602.8668
   603.3464 603.3464 603.7978 603.7978 604.9605 604.9605 605.6871 605.6871
   606.1020 606.1020 606.7866 606.7866 606.9968 606.9968 607.5894 607.5894
   608.8243 608.8243 610.8065 610.8065 611.3423 611.3423 612.0286 612.0286
   612.4613 612.4613 612.8438 612.8438 615.5961 615.5961 615.8061 615.8061
   616.3043 616.3043 616.7771 616.7771 616.8910 616.8910 617.3763 617.3763
   617.9651 617.9651 618.1153 618.1153 618.5076 618.5077 618.6898 618.6898
   619.8771 619.8771 620.5296 620.5296 623.3838 623.3838 624.4249 624.4249
   626.5150 626.5150 626.9211 626.9211 628.5411 628.5411 628.8701 628.8701
   630.2342 630.2342 630.5641 630.5641 631.0268 631.0268 632.3623 632.3623
   633.2541 633.2541 634.2071 634.2071 634.4302 634.4302 634.8537 634.8537
   635.9928 635.9928 636.4879 636.4879 637.7226 637.7226 638.4644 638.4644
   639.2114 639.2114 640.1567 640.1567 641.6789 641.6789 645.1768 645.1768
   645.6053 645.6053 646.5203 646.5203 647.5482 647.5482 648.4626 648.4626
   648.8023 648.8023 649.4843 649.4843 651.0272 651.0272 651.9005 651.9005
   652.3849 652.3849 653.5276 653.5276 653.6913 653.6913 654.0711 654.0711
   655.7248 655.7248 655.8099 655.8099 658.7355 658.7355 659.2466 659.2466
   659.8048 659.8048 660.4345 660.4345 660.6862 660.6862 662.7593 662.7593
   664.0900 664.0900 665.2679 665.2679 665.8794 665.8794 666.6192 666.6192
   667.2955 667.2955 669.2253 669.2254 670.2540 670.2540 671.3470 671.3470
   671.9161 671.9161 672.5433 672.5433 673.6820 673.6820 676.1616 676.1616
   676.2924 676.2924 676.7504 676.7504 677.0888 677.0888 677.3364 677.3364
   677.5497 677.5497 677.8402 677.8402 678.3154 678.3154 678.5797 678.5797
   679.6069 679.6069 680.3108 680.3108 681.1591 681.1591 681.4342 681.4342
   682.3587 682.3587 682.5599 682.5599 682.7591 682.7591 683.1689 683.1689
   683.6680 683.6680 686.1320 686.1320 686.4540 686.4540 686.9600 686.9600
   687.7903 687.7903 688.1059 688.1059 688.5329 688.5329 689.0702 689.0702
   689.8156 689.8156 690.3845 690.3845 693.3738 693.3738 693.7446 693.7446
   694.3493 694.3493 694.4991 694.4991 694.7689 694.7689 695.5262 695.5262
   696.2683 696.2683 696.7517 696.7517 697.1411 697.1411 697.9487 697.9487
   698.7044 698.7044 699.0582 699.0582 700.0378 700.0378 700.1568 700.1568
   700.6221 700.6221 701.1029 701.1029 702.5504 702.5504 705.6214 705.6214
   706.6485 706.6485 707.0291 707.0291 707.2869 707.2869 707.4136 707.4136
   708.6319 708.6319 709.5893 709.5893 709.9598 709.9598 710.1519 710.1519
   710.6815 710.6815 710.9965 710.9965 712.8441 712.8441 713.6747 713.6747
   714.4412 714.4412 714.6856 714.6856 715.4542 715.4542 715.8918 715.8918
   716.4847 716.4847 716.8948 716.8948 717.5957 717.5957 717.6683 717.6683
   717.9537 717.9537 719.7982 719.7982 720.1000 720.1000 721.8857 721.8857
   722.2016 722.2016 724.4342 724.4342 726.1635 726.1635 727.5287 727.5287
   727.8147 727.8147 728.1684 728.1684 728.3512 728.3512 729.0463 729.0463
   730.8723 730.8723 730.9483 730.9483 731.1335 731.1335 731.6339 731.6339
   732.0476 732.0476 732.2501 732.2501 732.4201 732.4201 734.5126 734.5126
   735.0404 735.0404 735.9416 735.9416 737.1952 737.1952 737.7162 737.7162
   738.1014 738.1014 738.3692 738.3692 738.8226 738.8226 739.0989 739.0989
   740.2265 740.2265 741.8691 741.8691 742.2688 742.2688 742.5918 742.5918
   743.3695 743.3695 744.0552 744.0552 744.2907 744.2907 745.6722 745.6722
   746.6790 746.6790 747.1439 747.1439 748.0037 748.0037 748.1643 748.1643
   748.3250 748.3250 748.4598 748.4598 748.7780 748.7780 750.9759 750.9759
   751.5020 751.5020 751.6395 751.6395 751.7960 751.7960 752.1640 752.1640
   752.7019 752.7019 752.7931 752.7931 753.9274 753.9274 756.1971 756.1971
   756.5855 756.5855 756.9713 756.9713 757.1115 757.1115 757.7958 757.7958
   760.3504 760.3504 760.6598 760.6598 766.5099 766.5099 767.0828 767.0828
   768.2606 768.2606 768.6565 768.6565 769.0964 769.0964 769.2022 769.2022
   769.9629 769.9629 772.7661 772.7661 772.9759 772.9759 773.7331 773.7331
   775.1974 775.1974 775.8712 775.8712 776.6615 776.6615 777.0768 777.0768
   777.3897 777.3897 777.6795 777.6795 778.1770 778.1770 778.5336 778.5336
   778.6748 778.6748 778.8558 778.8558 779.2558 779.2558 780.5290 780.5290
   780.7776 780.7776 783.7123 783.7123 783.9441 783.9441 784.3594 784.3594
   785.0781 785.0781 785.1594 785.1594 788.0997 788.0997 790.1415 790.1415
   790.5973 790.5973 791.1983 791.1983 791.3415 791.3415 794.2633 794.2633
   794.7835 794.7835 795.3028 795.3028 795.8290 795.8290 796.4354 796.4354
   797.8982 797.8982 798.4686 798.4686 799.3892 799.3892 800.1895 800.1895
   800.2547 800.2547 801.1170 801.1170 801.2560 801.2560 803.6693 803.6693
   804.7874 804.7874 806.6735 806.6735 807.1862 807.1862 807.8105 807.8105
   808.4946 808.4946 809.8169 809.8169 810.0208 810.0208 810.5386 810.5386
   810.9790 810.9790 811.8396 811.8396 812.2979 812.2979 812.5141 812.5141
   812.9961 812.9961 813.3941 813.3941 814.1795 814.1795 814.6036 814.6036
   816.0832 816.0832 817.4238 817.4238 817.8617 817.8617 818.8139 818.8139
   819.1194 819.1194 820.7463 820.7463 820.7788 820.7788 821.1107 821.1107
   821.2031 821.2031 822.7464 822.7464 823.0133 823.0133 823.2083 823.2083
   824.3327 824.3327 824.5654 824.5654 824.7904 824.7904 825.0784 825.0784
   826.0005 826.0005 826.0975 826.0975 827.7039 827.7039 827.8414 827.8414
   831.0942 831.0942 831.1970 831.1970 831.5226 831.5226 833.1643 833.1643
   833.3603 833.3603 833.6950 833.6950 835.0828 835.0828 835.4160 835.4160
   835.5624 835.5624 837.9740 837.9740 838.8107 838.8107 839.0529 839.0529
   839.2644 839.2644 841.3663 841.3663 841.5023 841.5023 842.5184 842.5184
   843.2070 843.2070 845.1675 845.1675 845.3526 845.3526 846.5701 846.5701
   847.2184 847.2184 849.5103 849.5103 849.7149 849.7149 849.8308 849.8308
   850.6573 850.6573 851.0085 851.0085 851.2686 851.2686 851.6617 851.6617
   852.0352 852.0352 852.2840 852.2840 852.5283 852.5283 854.5650 854.5650
   854.8155 854.8155 855.3066 855.3066 855.8766 855.8766 855.9795 855.9795
   857.4233 857.4233 858.4515 858.4515 858.7869 858.7869 859.1133 859.1133
   859.9940 859.9940 861.0282 861.0282 861.6957 861.6957 862.0464 862.0464
   862.4114 862.4114 862.5401 862.5401 862.7950 862.7950 863.0927 863.0927
   863.5802 863.5802 864.3942 864.3942 864.8729 864.8729 865.4476 865.4476
   867.0751 867.0751 867.5325 867.5325 869.2909 869.2909 872.7088 872.7088
   872.7906 872.7906 873.9236 873.9236 874.6655 874.6655 874.9129 874.9129
   875.2574 875.2574 875.7685 875.7685 876.9680 876.9680 877.7757 877.7757
   879.0945 879.0945 880.7154 880.7154 880.9202 880.9202 881.6339 881.6339
   882.1317 882.1317 882.3706 882.3706 882.5410 882.5410 882.8544 882.8544
   883.1620 883.1620 883.9547 883.9547 885.9347 885.9347 886.3565 886.3565
   887.2198 887.2198 887.4260 887.4260 887.6576 887.6576 888.1460 888.1460
   889.1990 889.1990 889.7600 889.7600 890.0812 890.0812 890.2057 890.2057
   890.3887 890.3887 890.9541 890.9541 891.4216 891.4216 892.2182 892.2182
   892.4178 892.4178 892.6463 892.6463 892.8527 892.8527 893.3661 893.3661
   893.6269 893.6269 895.6910 895.6910 896.0613 896.0613 897.5366 897.5366

     the Fermi energy is    10.6176 ev
     (compare with:    10.7091 eV, computed in scf)

     Writing all to output data dir out/mp-2542.save/
 
     init_run     :      0.04s CPU      0.08s WALL (       1 calls)
     electrons    :   1927.01s CPU   2074.83s WALL (       1 calls)

     Called by init_run:
     wfcinit      :      0.00s CPU      0.00s WALL (       1 calls)
     potinit      :      0.01s CPU      0.04s WALL (       1 calls)
     hinit0       :      0.01s CPU      0.02s WALL (       1 calls)

     Called by electrons:
     c_bands      :   1927.00s CPU   2074.82s WALL (       1 calls)
     v_of_rho     :      0.01s CPU      0.01s WALL (       1 calls)

     Called by c_bands:
     init_us_2    :      0.00s CPU      0.00s WALL (       8 calls)
     init_us_2:cp :      0.00s CPU      0.00s WALL (       8 calls)
     paro_k       :   1871.92s CPU   2015.67s WALL (       8 calls)

     Called by paro_*:
     h_psi        :     17.98s CPU     18.73s WALL (    1060 calls)
     g_psi        :      0.37s CPU      0.42s WALL (  108911 calls)

     Called by h_psi:
     h_psi:calbec :      0.43s CPU      0.46s WALL (    1060 calls)
     vloc_psi     :     17.10s CPU     17.81s WALL (    1060 calls)
     add_vuspsi   :      0.32s CPU      0.33s WALL (    1060 calls)

     General routines
     calbec       :      0.43s CPU      0.45s WALL (    1060 calls)
     fft          :      0.00s CPU      0.01s WALL (      10 calls)
     fftw         :     15.22s CPU     15.83s WALL (  178408 calls)
 
     Parallel routines
 
     PWSCF        :  32m 7.99s CPU  34m36.97s WALL

 
   This run was terminated on:  14:32:47  30Nov2023            

=------------------------------------------------------------------------------=
   JOB DONE.
=------------------------------------------------------------------------------=
