
     Program PWSCF v.7.1 starts on 11Dec2023 at 12:26:11 

     This program is part of the open-source Quantum ESPRESSO suite
     for quantum simulation of materials; please cite
         "P. Giannozzi et al., J. Phys.:Condens. Matter 21 395502 (2009);
         "P. Giannozzi et al., J. Phys.:Condens. Matter 29 465901 (2017);
         "P. Giannozzi et al., J. Chem. Phys. 152 154105 (2020);
          URL http://www.quantum-espresso.org", 
     in publications or presentations arising from this work. More details at
     http://www.quantum-espresso.org/quote

     Parallel version (MPI), running on    24 processors

     MPI processes distributed on     1 nodes
     122777 MiB available memory on the printing compute node when the environment starts
 
     Reading input from pw_mp-938_scf_k3000_E63.in
Warning: card &CELL ignored
Warning: card / ignored

     Current dimensions of program PWSCF are:
     Max number of different atomic species (ntypx) = 10
     Max number of k-points (npk) =  40000
     Max angular momentum in pseudopotentials (lmaxx) =  4
 
     K-points division:     npool     =       2
     R & G space division:  proc/nbgrp/npool/nimage =      12
     Subspace diagonalization in iterative solution of the eigenvalue problem:
     a serial algorithm will be used

 
     Parallelization info
     --------------------
     sticks:   dense  smooth     PW     G-vecs:    dense   smooth      PW
     Min          96      96     29                 2121     2121     361
     Max          98      98     30                 2122     2122     363
     Sum        1159    1159    359                25463    25463    4345
 
     Using Slab Decomposition
 


     bravais-lattice index     =            5
     lattice parameter (alat)  =       8.3200  a.u.
     unit-cell volume          =     377.2923 (a.u.)^3
     number of atoms/cell      =            2
     number of atomic types    =            2
     number of electrons       =        30.00
     number of Kohn-Sham states=           30
     kinetic-energy cutoff     =      63.0000  Ry
     charge density cutoff     =     252.0000  Ry
     scf convergence threshold =      1.0E-10
     mixing beta               =       0.7000
     number of iterations used =            8  plain     mixing
     Exchange-correlation= PBE
                           (   1   4   3   4   0   0   0)

     celldm(1)=   8.320040  celldm(2)=   0.000000  celldm(3)=   0.000000
     celldm(4)=   0.547379  celldm(5)=   0.000000  celldm(6)=   0.000000

     crystal axes: (cart. coord. in units of alat)
               a(1) = (   0.475721  -0.274658   0.835615 )  
               a(2) = (   0.000000   0.549315   0.835615 )  
               a(3) = (  -0.475721  -0.274658   0.835615 )  

     reciprocal axes: (cart. coord. in units 2 pi/alat)
               b(1) = (  1.051036 -0.606816  0.398908 )  
               b(2) = (  0.000000  1.213632  0.398908 )  
               b(3) = ( -1.051036 -0.606816  0.398908 )  


     PseudoPot. # 1 for Ge read from file:
     /usr/scratch4/magr4985/MG/HTDF/pseudo/SG15/Ge.upf
     MD5 check sum: 9f45083245c564cb2163622d60d05ca9
     Pseudo is Norm-conserving, Zval = 14.0
     Generated using ONCVPSP code by D. R. Hamann
     Using radial grid of  602 points,  6 beta functions with: 
                l(1) =   0
                l(2) =   0
                l(3) =   1
                l(4) =   1
                l(5) =   2
                l(6) =   2

     PseudoPot. # 2 for Te read from file:
     /usr/scratch4/magr4985/MG/HTDF/pseudo/SG15/Te.upf
     MD5 check sum: dd4de4dac1e38587f63aaf3700bb29d3
     Pseudo is Norm-conserving, Zval = 16.0
     Generated using ONCVPSP code by D. R. Hamann
     Using radial grid of  602 points,  6 beta functions with: 
                l(1) =   0
                l(2) =   0
                l(3) =   1
                l(4) =   1
                l(5) =   2
                l(6) =   2

     atomic species   valence    mass     pseudopotential
        Ge            14.00    72.64000     Ge( 1.00)
        Te            16.00   127.60000     Te( 1.00)

      6 Sym. Ops. (no inversion) found



   Cartesian axes

     site n.     atom                  positions (alat units)
         1           Ge  tau(   1) = (   0.0000000  -0.0000000   0.0194953  )
         2           Te  tau(   2) = (   0.0000000   0.0000000   1.1812836  )

     number of k points=   189  Gaussian smearing, width (Ry)=  0.0005

     Number of k-points >= 100: set verbosity='high' to print them.

     Dense  grid:    25463 G-vectors     FFT dimensions: (  45,  45,  45)

     Estimated max dynamical RAM per process >       4.99 MB

     Estimated total dynamical RAM >     113.44 MB

     Initial potential from superposition of free atoms

     starting charge      29.9073, renormalised to      30.0000
     Starting wfcs are random

     total cpu time spent up to now is        2.2 secs

     Self-consistent Calculation

     iteration #  1     ecut=    63.00 Ry     beta= 0.70
     Davidson diagonalization with overlap
     ethr =  1.00E-02,  avg # of iterations =  9.2

     Threshold (ethr) on eigenvalues was too large:
     Diagonalizing with lowered threshold

     Davidson diagonalization with overlap
     ethr =  5.06E-05,  avg # of iterations =  6.5

     total cpu time spent up to now is       15.6 secs

     total energy              =    -316.36682015 Ry
     estimated scf accuracy    <       0.01092838 Ry

     iteration #  2     ecut=    63.00 Ry     beta= 0.70
     Davidson diagonalization with overlap
     ethr =  3.64E-05,  avg # of iterations =  2.2

     total cpu time spent up to now is       18.9 secs

     total energy              =    -316.36828618 Ry
     estimated scf accuracy    <       0.00181822 Ry

     iteration #  3     ecut=    63.00 Ry     beta= 0.70
     Davidson diagonalization with overlap
     ethr =  6.06E-06,  avg # of iterations =  2.6

     total cpu time spent up to now is       21.4 secs

     total energy              =    -316.36873677 Ry
     estimated scf accuracy    <       0.00044071 Ry

     iteration #  4     ecut=    63.00 Ry     beta= 0.70
     Davidson diagonalization with overlap
     ethr =  1.47E-06,  avg # of iterations =  2.3

     total cpu time spent up to now is       23.7 secs

     total energy              =    -316.36882366 Ry
     estimated scf accuracy    <       0.00000972 Ry

     iteration #  5     ecut=    63.00 Ry     beta= 0.70
     Davidson diagonalization with overlap
     ethr =  3.24E-08,  avg # of iterations =  2.0

     total cpu time spent up to now is       26.0 secs

     total energy              =    -316.36882533 Ry
     estimated scf accuracy    <       0.00000141 Ry

     iteration #  6     ecut=    63.00 Ry     beta= 0.70
     Davidson diagonalization with overlap
     ethr =  4.70E-09,  avg # of iterations =  2.1

     total cpu time spent up to now is       28.3 secs

     total energy              =    -316.36882572 Ry
     estimated scf accuracy    <       0.00000007 Ry

     iteration #  7     ecut=    63.00 Ry     beta= 0.70
     Davidson diagonalization with overlap
     ethr =  2.40E-10,  avg # of iterations =  2.3

     total cpu time spent up to now is       30.9 secs

     total energy              =    -316.36882574 Ry
     estimated scf accuracy    <          3.1E-09 Ry

     iteration #  8     ecut=    63.00 Ry     beta= 0.70
     Davidson diagonalization with overlap
     ethr =  1.02E-11,  avg # of iterations =  3.0

     total cpu time spent up to now is       33.4 secs

     total energy              =    -316.36882574 Ry
     estimated scf accuracy    <          2.4E-10 Ry

     iteration #  9     ecut=    63.00 Ry     beta= 0.70
     Davidson diagonalization with overlap
     ethr =  8.02E-13,  avg # of iterations =  2.4

     total cpu time spent up to now is       36.0 secs

     End of self-consistent calculation

     Number of k-points >= 100: set verbosity='high' to print the bands.

     the Fermi energy is    10.6711 ev

!    total energy              =    -316.36882574 Ry
     estimated scf accuracy    <          7.2E-12 Ry
     smearing contrib. (-TS)   =      -0.00000000 Ry
     internal energy E=F+TS    =    -316.36882574 Ry

     The total energy is F=E-TS. E is the sum of the following terms:
     one-electron contribution =    -137.92149280 Ry
     hartree contribution      =      79.08413880 Ry
     xc contribution           =     -35.88493453 Ry
     ewald contribution        =    -221.64653721 Ry

     convergence has been achieved in   9 iterations

     Writing all to output data dir out/mp-938.save/
 
     init_run     :      1.37s CPU      1.75s WALL (       1 calls)
     electrons    :     29.05s CPU     33.82s WALL (       1 calls)

     Called by init_run:
     wfcinit      :      1.31s CPU      1.62s WALL (       1 calls)
     potinit      :      0.02s CPU      0.04s WALL (       1 calls)
     hinit0       :      0.02s CPU      0.06s WALL (       1 calls)

     Called by electrons:
     c_bands      :     24.91s CPU     28.65s WALL (      10 calls)
     sum_band     :      4.09s CPU      4.98s WALL (      10 calls)
     v_of_rho     :      0.04s CPU      0.04s WALL (      10 calls)
     mix_rho      :      0.01s CPU      0.01s WALL (      10 calls)

     Called by c_bands:
     init_us_2    :      0.18s CPU      0.20s WALL (    1995 calls)
     init_us_2:cp :      0.17s CPU      0.19s WALL (    1995 calls)
     cegterg      :     22.42s CPU     23.20s WALL (     950 calls)

     Called by *egterg:
     cdiaghg      :      3.99s CPU      4.07s WALL (    4126 calls)
     h_psi        :     17.67s CPU     18.43s WALL (    4316 calls)
     g_psi        :      0.09s CPU      0.09s WALL (    3271 calls)

     Called by h_psi:
     h_psi:calbec :      0.37s CPU      0.39s WALL (    4316 calls)
     vloc_psi     :     16.97s CPU     17.70s WALL (    4316 calls)
     add_vuspsi   :      0.26s CPU      0.28s WALL (    4316 calls)

     General routines
     calbec       :      0.36s CPU      0.38s WALL (    4316 calls)
     fft          :      0.02s CPU      0.05s WALL (     100 calls)
     ffts         :      0.00s CPU      0.00s WALL (      10 calls)
     fftw         :     19.12s CPU     20.03s WALL (  193026 calls)
     davcio       :      0.28s CPU      3.19s WALL (    3126 calls)
 
     Parallel routines
 
     PWSCF        :     30.69s CPU     37.36s WALL

 
   This run was terminated on:  12:26:48  11Dec2023            

=------------------------------------------------------------------------------=
   JOB DONE.
=------------------------------------------------------------------------------=
