
     Program PWSCF v.7.1 starts on  5Dec2023 at  0:52: 1 

     This program is part of the open-source Quantum ESPRESSO suite
     for quantum simulation of materials; please cite
         "P. Giannozzi et al., J. Phys.:Condens. Matter 21 395502 (2009);
         "P. Giannozzi et al., J. Phys.:Condens. Matter 29 465901 (2017);
         "P. Giannozzi et al., J. Chem. Phys. 152 154105 (2020);
          URL http://www.quantum-espresso.org", 
     in publications or presentations arising from this work. More details at
     http://www.quantum-espresso.org/quote

     Parallel version (MPI), running on    24 processors

     MPI processes distributed on     1 nodes
     119888 MiB available memory on the printing compute node when the environment starts
 
     Reading input from pw_mp-23703_scf_k3000_E206.in
Warning: card &CELL ignored
Warning: card / ignored

     Current dimensions of program PWSCF are:
     Max number of different atomic species (ntypx) = 10
     Max number of k-points (npk) =  40000
     Max angular momentum in pseudopotentials (lmaxx) =  4
 
     R & G space division:  proc/nbgrp/npool/nimage =      24
     Subspace diagonalization in iterative solution of the eigenvalue problem:
     a serial algorithm will be used

 
     Parallelization info
     --------------------
     sticks:   dense  smooth     PW     G-vecs:    dense   smooth      PW
     Min          68      68     19                 1818     1818     283
     Max          69      69     20                 1821     1821     287
     Sum        1639    1639    475                43655    43655    6855
 
     Using Slab Decomposition
 


     bravais-lattice index     =            2
     lattice parameter (alat)  =       7.5915  a.u.
     unit-cell volume          =     109.3754 (a.u.)^3
     number of atoms/cell      =            2
     number of atomic types    =            2
     number of electrons       =         4.00
     number of Kohn-Sham states=            8
     kinetic-energy cutoff     =     206.0000  Ry
     charge density cutoff     =     824.0000  Ry
     scf convergence threshold =      1.0E-10
     mixing beta               =       0.7000
     number of iterations used =            8  plain     mixing
     Exchange-correlation= PBE
                           (   1   4   3   4   0   0   0)

     celldm(1)=   7.591481  celldm(2)=   0.000000  celldm(3)=   0.000000
     celldm(4)=   0.000000  celldm(5)=   0.000000  celldm(6)=   0.000000

     crystal axes: (cart. coord. in units of alat)
               a(1) = (  -0.500000   0.000000   0.500000 )  
               a(2) = (   0.000000   0.500000   0.500000 )  
               a(3) = (  -0.500000   0.500000   0.000000 )  

     reciprocal axes: (cart. coord. in units 2 pi/alat)
               b(1) = ( -1.000000 -1.000000  1.000000 )  
               b(2) = (  1.000000  1.000000  1.000000 )  
               b(3) = ( -1.000000  1.000000 -1.000000 )  


     PseudoPot. # 1 for H  read from file:
     /usr/scratch4/magr4985/MG/HTDF/pseudo/SG15/H.upf
     MD5 check sum: bf21e08b90ac4ce7d0149ac4e8138190
     Pseudo is Norm-conserving, Zval =  1.0
     Generated using ONCVPSP code by D. R. Hamann
     Using radial grid of  602 points,  2 beta functions with: 
                l(1) =   0
                l(2) =   0

     PseudoPot. # 2 for Li read from file:
     /usr/scratch4/magr4985/MG/HTDF/pseudo/SG15/Li.upf
     MD5 check sum: c91dd4cee9943b136ac3b62641658f95
     Pseudo is Norm-conserving, Zval =  3.0
     Generated using ONCVPSP code by D. R. Hamann
     Using radial grid of  602 points,  4 beta functions with: 
                l(1) =   0
                l(2) =   0
                l(3) =   1
                l(4) =   1

     atomic species   valence    mass     pseudopotential
        H              1.00     1.00790     H ( 1.00)
        Li             3.00     6.94100     Li( 1.00)

     48 Sym. Ops., with inversion, found



   Cartesian axes

     site n.     atom                  positions (alat units)
         1           Li  tau(   1) = (   0.0000000   0.0000000   0.0000000  )
         2           H   tau(   2) = (  -0.5000000   0.5000000   0.5000000  )

     number of k points=    72  Gaussian smearing, width (Ry)=  0.0005
                       cart. coord. in units 2pi/alat
        k(    1) = (   0.0000000   0.0000000   0.0000000), wk =   0.0011574
        k(    2) = (  -0.0833333   0.0833333  -0.0833333), wk =   0.0092593
        k(    3) = (  -0.1666667   0.1666667  -0.1666667), wk =   0.0092593
        k(    4) = (  -0.2500000   0.2500000  -0.2500000), wk =   0.0092593
        k(    5) = (  -0.3333333   0.3333333  -0.3333333), wk =   0.0092593
        k(    6) = (  -0.4166667   0.4166667  -0.4166667), wk =   0.0092593
        k(    7) = (   0.5000000  -0.5000000   0.5000000), wk =   0.0046296
        k(    8) = (   0.0000000   0.1666667   0.0000000), wk =   0.0069444
        k(    9) = (  -0.0833333   0.2500000  -0.0833333), wk =   0.0277778
        k(   10) = (  -0.1666667   0.3333333  -0.1666667), wk =   0.0277778
        k(   11) = (  -0.2500000   0.4166667  -0.2500000), wk =   0.0277778
        k(   12) = (  -0.3333333   0.5000000  -0.3333333), wk =   0.0277778
        k(   13) = (   0.5833333  -0.4166667   0.5833333), wk =   0.0277778
        k(   14) = (   0.5000000  -0.3333333   0.5000000), wk =   0.0277778
        k(   15) = (   0.4166667  -0.2500000   0.4166667), wk =   0.0277778
        k(   16) = (   0.3333333  -0.1666667   0.3333333), wk =   0.0277778
        k(   17) = (   0.2500000  -0.0833333   0.2500000), wk =   0.0277778
        k(   18) = (   0.1666667  -0.0000000   0.1666667), wk =   0.0138889
        k(   19) = (   0.0000000   0.3333333   0.0000000), wk =   0.0069444
        k(   20) = (  -0.0833333   0.4166667  -0.0833333), wk =   0.0277778
        k(   21) = (  -0.1666667   0.5000000  -0.1666667), wk =   0.0277778
        k(   22) = (  -0.2500000   0.5833333  -0.2500000), wk =   0.0277778
        k(   23) = (   0.6666667  -0.3333333   0.6666667), wk =   0.0277778
        k(   24) = (   0.5833333  -0.2500000   0.5833333), wk =   0.0277778
        k(   25) = (   0.5000000  -0.1666667   0.5000000), wk =   0.0277778
        k(   26) = (   0.4166667  -0.0833333   0.4166667), wk =   0.0277778
        k(   27) = (   0.3333333   0.0000000   0.3333333), wk =   0.0138889
        k(   28) = (   0.0000000   0.5000000   0.0000000), wk =   0.0069444
        k(   29) = (  -0.0833333   0.5833333  -0.0833333), wk =   0.0277778
        k(   30) = (  -0.1666667   0.6666667  -0.1666667), wk =   0.0277778
        k(   31) = (   0.7500000  -0.2500000   0.7500000), wk =   0.0277778
        k(   32) = (   0.6666667  -0.1666667   0.6666667), wk =   0.0277778
        k(   33) = (   0.5833333  -0.0833333   0.5833333), wk =   0.0277778
        k(   34) = (   0.5000000   0.0000000   0.5000000), wk =   0.0138889
        k(   35) = (   0.0000000   0.6666667   0.0000000), wk =   0.0069444
        k(   36) = (  -0.0833333   0.7500000  -0.0833333), wk =   0.0277778
        k(   37) = (   0.8333333  -0.1666667   0.8333333), wk =   0.0277778
        k(   38) = (   0.7500000  -0.0833333   0.7500000), wk =   0.0277778
        k(   39) = (   0.6666667  -0.0000000   0.6666667), wk =   0.0138889
        k(   40) = (   0.0000000   0.8333333   0.0000000), wk =   0.0069444
        k(   41) = (   0.9166667  -0.0833333   0.9166667), wk =   0.0277778
        k(   42) = (   0.8333333   0.0000000   0.8333333), wk =   0.0138889
        k(   43) = (   0.0000000  -1.0000000   0.0000000), wk =   0.0034722
        k(   44) = (  -0.1666667   0.3333333   0.0000000), wk =   0.0277778
        k(   45) = (  -0.2500000   0.4166667  -0.0833333), wk =   0.0555556
        k(   46) = (  -0.3333333   0.5000000  -0.1666667), wk =   0.0555556
        k(   47) = (   0.5833333  -0.4166667   0.7500000), wk =   0.0555556
        k(   48) = (   0.5000000  -0.3333333   0.6666667), wk =   0.0277778
        k(   49) = (  -0.1666667   0.5000000   0.0000000), wk =   0.0277778
        k(   50) = (  -0.2500000   0.5833333  -0.0833333), wk =   0.0555556
        k(   51) = (   0.6666667  -0.3333333   0.8333333), wk =   0.0555556
        k(   52) = (   0.5833333  -0.2500000   0.7500000), wk =   0.0555556
        k(   53) = (   0.5000000  -0.1666667   0.6666667), wk =   0.0555556
        k(   54) = (   0.4166667  -0.0833333   0.5833333), wk =   0.0555556
        k(   55) = (   0.3333333   0.0000000   0.5000000), wk =   0.0277778
        k(   56) = (  -0.1666667   0.6666667  -0.0000000), wk =   0.0277778
        k(   57) = (   0.7500000  -0.2500000   0.9166667), wk =   0.0555556
        k(   58) = (   0.6666667  -0.1666667   0.8333333), wk =   0.0555556
        k(   59) = (   0.5833333  -0.0833333   0.7500000), wk =   0.0555556
        k(   60) = (   0.5000000   0.0000000   0.6666667), wk =   0.0277778
        k(   61) = (   0.8333333  -0.1666667   1.0000000), wk =   0.0277778
        k(   62) = (   0.7500000  -0.0833333   0.9166667), wk =   0.0555556
        k(   63) = (   0.6666667   0.0000000   0.8333333), wk =   0.0277778
        k(   64) = (  -0.1666667  -1.0000000  -0.0000000), wk =   0.0138889
        k(   65) = (   0.6666667  -0.3333333   1.0000000), wk =   0.0277778
        k(   66) = (   0.5833333  -0.2500000   0.9166667), wk =   0.0555556
        k(   67) = (   0.5000000  -0.1666667   0.8333333), wk =   0.0277778
        k(   68) = (   0.6666667  -0.1666667   1.0000000), wk =   0.0277778
        k(   69) = (   0.5833333  -0.0833333   0.9166667), wk =   0.0555556
        k(   70) = (   0.5000000   0.0000000   0.8333333), wk =   0.0277778
        k(   71) = (  -0.3333333  -1.0000000   0.0000000), wk =   0.0138889
        k(   72) = (  -0.5000000  -1.0000000   0.0000000), wk =   0.0069444

     Dense  grid:    43655 G-vectors     FFT dimensions: (  50,  50,  50)

     Estimated max dynamical RAM per process >       2.83 MB

     Estimated total dynamical RAM >      67.89 MB

     Initial potential from superposition of free atoms

     starting charge       3.8851, renormalised to       4.0000
     Starting wfcs are random

     total cpu time spent up to now is        0.3 secs

     Self-consistent Calculation

     iteration #  1     ecut=   206.00 Ry     beta= 0.70
     Davidson diagonalization with overlap
     ethr =  1.00E-02,  avg # of iterations =  6.9

     total cpu time spent up to now is        1.2 secs

     total energy              =     -15.46796199 Ry
     estimated scf accuracy    <       0.06098691 Ry

     iteration #  2     ecut=   206.00 Ry     beta= 0.70
     Davidson diagonalization with overlap
     ethr =  1.52E-03,  avg # of iterations =  1.0

     total cpu time spent up to now is        1.6 secs

     total energy              =     -15.47441177 Ry
     estimated scf accuracy    <       0.00029697 Ry

     iteration #  3     ecut=   206.00 Ry     beta= 0.70
     Davidson diagonalization with overlap
     ethr =  7.42E-06,  avg # of iterations =  4.4

     total cpu time spent up to now is        2.2 secs

     total energy              =     -15.47448867 Ry
     estimated scf accuracy    <       0.00002404 Ry

     iteration #  4     ecut=   206.00 Ry     beta= 0.70
     Davidson diagonalization with overlap
     ethr =  6.01E-07,  avg # of iterations =  1.3

     total cpu time spent up to now is        2.6 secs

     total energy              =     -15.47449033 Ry
     estimated scf accuracy    <       0.00000017 Ry

     iteration #  5     ecut=   206.00 Ry     beta= 0.70
     Davidson diagonalization with overlap
     ethr =  4.17E-09,  avg # of iterations =  2.0

     total cpu time spent up to now is        3.0 secs

     total energy              =     -15.47449039 Ry
     estimated scf accuracy    <          7.3E-09 Ry

     iteration #  6     ecut=   206.00 Ry     beta= 0.70
     Davidson diagonalization with overlap
     ethr =  1.82E-10,  avg # of iterations =  2.0

     total cpu time spent up to now is        3.4 secs

     total energy              =     -15.47449039 Ry
     estimated scf accuracy    <          2.1E-10 Ry

     iteration #  7     ecut=   206.00 Ry     beta= 0.70
     Davidson diagonalization with overlap
     ethr =  5.29E-12,  avg # of iterations =  1.0

     total cpu time spent up to now is        3.8 secs

     End of self-consistent calculation

          k = 0.0000 0.0000 0.0000 (  5577 PWs)   bands (ev):

   -43.6326  -4.7825  16.6295  18.4623  18.4623  18.4623  23.1759  23.1759

          k =-0.0833 0.0833-0.0833 (  5489 PWs)   bands (ev):

   -43.6296  -4.6598  15.6142  17.6880  18.1789  18.1789  22.5828  23.7817

          k =-0.1667 0.1667-0.1667 (  5468 PWs)   bands (ev):

   -43.6213  -4.2976  13.0732  16.5904  17.6470  17.6470  23.0520  24.4100

          k =-0.2500 0.2500-0.2500 (  5459 PWs)   bands (ev):

   -43.6101  -3.7194  10.3169  15.6300  17.2230  17.2230  22.7243  22.7243

          k =-0.3333 0.3333-0.3333 (  5450 PWs)   bands (ev):

   -43.5988  -2.9930   7.9185  14.8757  17.0250  17.0250  21.1615  21.1615

          k =-0.4167 0.4167-0.4167 (  5468 PWs)   bands (ev):

   -43.5905  -2.2941   6.1876  14.3980  17.0297  17.0297  20.0728  20.0728

          k = 0.5000-0.5000 0.5000 (  5444 PWs)   bands (ev):

   -43.5875  -1.9765   5.5221  14.2349  17.0788  17.0788  19.6593  19.6593

          k = 0.0000 0.1667 0.0000 (  5493 PWs)   bands (ev):

   -43.6286  -4.6176  15.6876  17.2222  17.2222  19.1152  20.9833  24.8500

          k =-0.0833 0.2500-0.0833 (  5466 PWs)   bands (ev):

   -43.6221  -4.3311  13.9291  16.0982  16.3601  19.0689  20.9307  24.5135

          k =-0.1667 0.3333-0.1667 (  5453 PWs)   bands (ev):

   -43.6119  -3.8160  11.2343  15.0532  15.7617  18.5512  22.1381  23.0894

          k =-0.2500 0.4167-0.2500 (  5462 PWs)   bands (ev):

   -43.6006  -3.1199   8.6953  14.1784  15.4845  17.8962  21.8068  23.5947

          k =-0.3333 0.5000-0.3333 (  5460 PWs)   bands (ev):

   -43.5913  -2.3722   6.7023  13.5385  15.5455  17.2234  21.3652  22.1907

          k = 0.5833-0.4167 0.5833 (  5470 PWs)   bands (ev):

   -43.5865  -1.8744   5.6297  13.1737  15.9391  16.6537  21.1649  21.4861

          k = 0.5000-0.3333 0.5000 (  5471 PWs)   bands (ev):

   -43.5876  -1.9890   5.8629  13.0941  16.3138  16.6283  20.5659  22.0971

          k = 0.4167-0.2500 0.4167 (  5455 PWs)   bands (ev):

   -43.5941  -2.6183   7.3007  13.2871  16.2847  17.4988  20.4951  23.1216

          k = 0.3333-0.1667 0.3333 (  5453 PWs)   bands (ev):

   -43.6043  -3.3719   9.5209  13.7321  16.5872  18.2896  21.1659  24.2624

          k = 0.2500-0.0833 0.2500 (  5461 PWs)   bands (ev):

   -43.6156  -4.0154  12.1812  14.4370  17.1524  18.7766  22.6611  23.0153

          k = 0.1667-0.0000 0.1667 (  5463 PWs)   bands (ev):

   -43.6248  -4.4557  14.5584  15.7852  17.7400  18.8106  22.3225  23.6931

          k = 0.0000 0.3333 0.0000 (  5457 PWs)   bands (ev):

   -43.6177  -4.1150  13.7636  15.2891  15.2891  18.6963  19.0894  25.2230

          k =-0.0833 0.4167-0.0833 (  5455 PWs)   bands (ev):

   -43.6092  -3.6591  11.8790  14.0130  14.5321  18.4431  19.1403  25.2561

          k =-0.1667 0.5000-0.1667 (  5467 PWs)   bands (ev):

   -43.5990  -2.9962   9.4594  12.7475  14.1221  17.8053  20.7468  25.0035

          k =-0.2500 0.5833-0.2500 (  5467 PWs)   bands (ev):

   -43.5898  -2.2193   7.3154  11.7820  14.0717  17.1613  22.6397  25.0200

          k = 0.6667-0.3333 0.6667 (  5464 PWs)   bands (ev):

   -43.5840  -1.5730   5.9096  11.1269  14.3838  16.6460  23.8103  23.9514

          k = 0.5833-0.2500 0.5833 (  5451 PWs)   bands (ev):

   -43.5833  -1.4751   5.7240  10.7826  15.0535  16.3417  22.9417  24.7494

          k = 0.5000-0.1667 0.5000 (  5457 PWs)   bands (ev):

   -43.5877  -2.0136   6.8618  10.7397  16.0618  16.2930  22.4004  25.5590

          k = 0.4167-0.0833 0.4167 (  5459 PWs)   bands (ev):

   -43.5962  -2.7896   8.9090  10.9819  16.4941  17.3459  22.1238  24.8601

          k = 0.3333 0.0000 0.3333 (  5468 PWs)   bands (ev):

   -43.6064  -3.4982  11.3601  11.6363  16.8551  18.6221  22.0082  23.6075

          k = 0.0000 0.5000 0.0000 (  5457 PWs)   bands (ev):

   -43.6029  -3.2552  11.0187  13.6314  13.6314  16.8981  18.2971  27.2160

          k =-0.0833 0.5833-0.0833 (  5467 PWs)   bands (ev):

   -43.5945  -2.6264   9.3088  12.1878  13.0873  17.2435  18.2165  28.0077

          k =-0.1667 0.6667-0.1667 (  5470 PWs)   bands (ev):

   -43.5864  -1.8392   7.5043  10.6207  12.9101  17.2164  19.7549  28.2645

          k = 0.7500-0.2500 0.7500 (  5467 PWs)   bands (ev):

   -43.5806  -1.0872   6.0625   9.5356  13.1030  16.8519  22.0999  26.8767

          k = 0.6667-0.1667 0.6667 (  5446 PWs)   bands (ev):

   -43.5788  -0.7976   5.6054   8.8951  13.6651  16.5530  24.5991  25.7869

          k = 0.5833-0.0833 0.5833 (  5455 PWs)   bands (ev):

   -43.5815  -1.2355   6.4811   8.6431  14.5889  16.3972  24.8601  26.6388

          k = 0.5000 0.0000 0.5000 (  5452 PWs)   bands (ev):

   -43.5878  -2.0256   8.1722   8.8980  15.8504  16.3957  23.7412  26.0863

          k = 0.0000 0.6667 0.0000 (  5462 PWs)   bands (ev):

   -43.5882  -2.0262   7.9593  12.4117  12.4117  15.6100  17.9103  30.4317

          k =-0.0833 0.7500-0.0833 (  5476 PWs)   bands (ev):

   -43.5819  -1.2461   6.5034  11.0619  12.1056  16.2984  17.9508  31.3866

          k = 0.8333-0.1667 0.8333 (  5458 PWs)   bands (ev):

   -43.5772  -0.4482   5.3511   9.4510  12.1728  16.9291  19.2558  30.2016

          k = 0.7500-0.0833 0.7500 (  5463 PWs)   bands (ev):

   -43.5754  -0.0617   4.9673   8.3306  12.6133  16.7863  21.7946  28.7893

          k = 0.6667-0.0000 0.6667 (  5450 PWs)   bands (ev):

   -43.5769  -0.4487   5.6535   7.8776  13.4230  16.5686  24.6261  27.1270

          k = 0.0000 0.8333 0.0000 (  5486 PWs)   bands (ev):

   -43.5776  -0.4890   5.1753  11.6711  11.6711  14.8363  17.8287  34.1281

          k = 0.9167-0.0833 0.9167 (  5463 PWs)   bands (ev):

   -43.5747   0.2465   4.2012  10.5272  11.6109  15.8092  17.9173  33.4592

          k = 0.8333 0.0000 0.8333 (  5458 PWs)   bands (ev):

   -43.5739   0.4507   4.1324   9.1046  11.9257  16.8334  19.1227  31.4910

          k = 0.0000-1.0000 0.0000 (  5434 PWs)   bands (ev):

   -43.5738   0.6271   3.6241  11.4231  11.4231  14.5783  17.8297  35.2702

          k =-0.1667 0.3333 0.0000 (  5453 PWs)   bands (ev):

   -43.6146  -3.9623  12.7783  13.7383  16.2718  19.0117  20.7135  23.7752

          k =-0.2500 0.4167-0.0833 (  5463 PWs)   bands (ev):

   -43.6044  -3.3717  10.4230  12.5472  15.7529  18.4062  21.7817  23.1389

          k =-0.3333 0.5000-0.1667 (  5453 PWs)   bands (ev):

   -43.5942  -2.6241   8.0429  11.9450  15.2830  17.5780  22.2121  24.1986

          k = 0.5833-0.4167 0.7500 (  5463 PWs)   bands (ev):

   -43.5867  -1.8961   6.2929  11.5874  15.0461  16.9008  22.1928  24.4880

          k = 0.5000-0.3333 0.6667 (  5448 PWs)   bands (ev):

   -43.5840  -1.5606   5.6120  11.4669  14.9916  16.6331  22.2347  24.0970

          k =-0.1667 0.5000 0.0000 (  5463 PWs)   bands (ev):

   -43.6008  -3.1200  10.5542  12.0328  14.2655  18.3035  18.9950  25.6925

          k =-0.2500 0.5833-0.0833 (  5462 PWs)   bands (ev):

   -43.5917  -2.3896   8.6224  10.6826  13.8473  17.7860  20.5018  25.5671

          k = 0.6667-0.3333 0.8333 (  5471 PWs)   bands (ev):

   -43.5842  -1.5974   6.7704   9.9228  13.6545  17.2569  22.4884  25.4889

          k = 0.5833-0.2500 0.7500 (  5460 PWs)   bands (ev):

   -43.5805  -1.0714   5.7466   9.4812  13.7774  16.9203  23.8223  25.9261

          k = 0.5000-0.1667 0.6667 (  5449 PWs)   bands (ev):

   -43.5814  -1.2248   6.0574   9.3247  14.1678  16.8943  23.8040  26.8514

          k = 0.4167-0.0833 0.5833 (  5456 PWs)   bands (ev):

   -43.5869  -1.9174   7.5775   9.4440  14.7300  17.2436  23.4421  24.7637

          k = 0.3333 0.0000 0.5000 (  5459 PWs)   bands (ev):

   -43.5953  -2.7107   9.7569   9.9088  15.3387  17.8845  22.5855  23.4385

          k =-0.1667 0.6667-0.0000 (  5467 PWs)   bands (ev):

   -43.5872  -1.9219   7.8792  10.7898  12.7584  17.7383  17.9487  28.4915

          k = 0.7500-0.2500 0.9167 (  5462 PWs)   bands (ev):

   -43.5808  -1.1036   6.5079   9.3200  12.6050  17.5544  19.6461  28.0796

          k = 0.6667-0.1667 0.8333 (  5455 PWs)   bands (ev):

   -43.5770  -0.4523   5.5763   8.3160  12.7566  17.2327  22.0718  27.4457

          k = 0.5833-0.0833 0.7500 (  5453 PWs)   bands (ev):

   -43.5769  -0.4522   5.7241   7.7918  13.2201  17.0390  24.5392  26.8865

          k = 0.5000 0.0000 0.6667 (  5477 PWs)   bands (ev):

   -43.5805  -1.1001   6.9140   7.8164  13.9299  17.0379  25.2413  25.6006

          k = 0.8333-0.1667 1.0000 (  5460 PWs)   bands (ev):

   -43.5773  -0.4474   5.2953  10.0379  11.9214  16.9787  17.8909  31.0297

          k = 0.7500-0.0833 0.9167 (  5459 PWs)   bands (ev):

   -43.5745   0.1956   4.6096   8.6986  12.0368  17.4759  19.2711  30.2089

          k = 0.6667 0.0000 0.8333 (  5453 PWs)   bands (ev):

   -43.5744   0.1772   4.8932   7.7727  12.4788  17.2536  21.9243  29.0455

          k =-0.1667-1.0000-0.0000 (  5462 PWs)   bands (ev):

   -43.5737   0.5690   3.8783   9.7865  11.6533  16.7248  17.9019  32.5422

          k = 0.6667-0.3333 1.0000 (  5469 PWs)   bands (ev):

   -43.5843  -1.6096   7.7849   8.6552  13.4732  17.8378  21.3849  25.7583

          k = 0.5833-0.2500 0.9167 (  5455 PWs)   bands (ev):

   -43.5789  -0.8282   6.4589   7.8685  13.1640  17.6200  23.1885  25.9694

          k = 0.5000-0.1667 0.8333 (  5464 PWs)   bands (ev):

   -43.5769  -0.4557   5.8011   7.6992  13.0537  17.5065  24.4366  26.1767

          k = 0.6667-0.1667 1.0000 (  5449 PWs)   bands (ev):

   -43.5764  -0.3215   5.7241   7.8982  12.4399  17.9920  20.6425  27.8120

          k = 0.5833-0.0833 0.9167 (  5462 PWs)   bands (ev):

   -43.5744   0.1419   5.4627   6.9367  12.4736  17.9317  22.8255  26.9173

          k = 0.5000 0.0000 0.8333 (  5461 PWs)   bands (ev):

   -43.5753  -0.1079   6.1548   6.5581  12.7294  17.8056  24.9099  25.1828

          k =-0.3333-1.0000 0.0000 (  5472 PWs)   bands (ev):

   -43.5735   0.4567   4.6393   7.6453  12.1261  18.0842  20.3931  29.4348

          k =-0.5000-1.0000 0.0000 (  5440 PWs)   bands (ev):

   -43.5734   0.4025   5.9012   5.9012  12.3693  18.2022  24.6704  24.6704

     the Fermi energy is     0.7580 ev

!    total energy              =     -15.47449039 Ry
     estimated scf accuracy    <          5.3E-13 Ry
     smearing contrib. (-TS)   =      -0.00000000 Ry
     internal energy E=F+TS    =     -15.47449039 Ry

     The total energy is F=E-TS. E is the sum of the following terms:
     one-electron contribution =      -7.62198022 Ry
     hartree contribution      =       3.07536449 Ry
     xc contribution           =      -4.02711033 Ry
     ewald contribution        =      -6.90076433 Ry

     convergence has been achieved in   7 iterations

     Writing all to output data dir out/mp-23703.save/
 
     init_run     :      0.16s CPU      0.22s WALL (       1 calls)
     electrons    :      3.12s CPU      3.56s WALL (       1 calls)

     Called by init_run:
     wfcinit      :      0.13s CPU      0.16s WALL (       1 calls)
     potinit      :      0.01s CPU      0.03s WALL (       1 calls)
     hinit0       :      0.01s CPU      0.01s WALL (       1 calls)

     Called by electrons:
     c_bands      :      2.62s CPU      2.97s WALL (       7 calls)
     sum_band     :      0.46s CPU      0.52s WALL (       7 calls)
     v_of_rho     :      0.03s CPU      0.03s WALL (       8 calls)
     mix_rho      :      0.01s CPU      0.01s WALL (       7 calls)

     Called by c_bands:
     init_us_2    :      0.04s CPU      0.05s WALL (    1080 calls)
     init_us_2:cp :      0.04s CPU      0.04s WALL (    1080 calls)
     cegterg      :      2.45s CPU      2.60s WALL (     504 calls)

     Called by *egterg:
     cdiaghg      :      0.16s CPU      0.17s WALL (    1848 calls)
     h_psi        :      2.23s CPU      2.38s WALL (    1920 calls)
     g_psi        :      0.01s CPU      0.01s WALL (    1344 calls)

     Called by h_psi:
     h_psi:calbec :      0.04s CPU      0.04s WALL (    1920 calls)
     vloc_psi     :      2.16s CPU      2.30s WALL (    1920 calls)
     add_vuspsi   :      0.02s CPU      0.02s WALL (    1920 calls)

     General routines
     calbec       :      0.04s CPU      0.04s WALL (    1920 calls)
     fft          :      0.01s CPU      0.02s WALL (      79 calls)
     ffts         :      0.00s CPU      0.00s WALL (       7 calls)
     fftw         :      2.35s CPU      2.50s WALL (   27634 calls)
     davcio       :      0.05s CPU      0.22s WALL (    1708 calls)
 
     Parallel routines
 
     PWSCF        :      3.41s CPU      4.32s WALL

 
   This run was terminated on:   0:52: 6   5Dec2023            

=------------------------------------------------------------------------------=
   JOB DONE.
=------------------------------------------------------------------------------=
