
     Program PWSCF v.7.1 starts on  4Dec2023 at 16:54:25 

     This program is part of the open-source Quantum ESPRESSO suite
     for quantum simulation of materials; please cite
         "P. Giannozzi et al., J. Phys.:Condens. Matter 21 395502 (2009);
         "P. Giannozzi et al., J. Phys.:Condens. Matter 29 465901 (2017);
         "P. Giannozzi et al., J. Chem. Phys. 152 154105 (2020);
          URL http://www.quantum-espresso.org", 
     in publications or presentations arising from this work. More details at
     http://www.quantum-espresso.org/quote

     Parallel version (MPI), running on     4 processors

     MPI processes distributed on     1 nodes
     120100 MiB available memory on the printing compute node when the environment starts
 
     Reading input from pw_mp-23703_scf_k3000_E151.in
Warning: card &CELL ignored
Warning: card / ignored

     Current dimensions of program PWSCF are:
     Max number of different atomic species (ntypx) = 10
     Max number of k-points (npk) =  40000
     Max angular momentum in pseudopotentials (lmaxx) =  4
 
     R & G space division:  proc/nbgrp/npool/nimage =       4
     Subspace diagonalization in iterative solution of the eigenvalue problem:
     a serial algorithm will be used

 
     Parallelization info
     --------------------
     sticks:   dense  smooth     PW     G-vecs:    dense   smooth      PW
     Min         297     297     90                 6828     6828    1118
     Max         298     298     91                 6831     6831    1120
     Sum        1189    1189    361                27317    27317    4477
 
     Using Slab Decomposition
 


     bravais-lattice index     =            2
     lattice parameter (alat)  =       7.5915  a.u.
     unit-cell volume          =     109.3754 (a.u.)^3
     number of atoms/cell      =            2
     number of atomic types    =            2
     number of electrons       =         4.00
     number of Kohn-Sham states=            8
     kinetic-energy cutoff     =     151.0000  Ry
     charge density cutoff     =     604.0000  Ry
     scf convergence threshold =      1.0E-10
     mixing beta               =       0.7000
     number of iterations used =            8  plain     mixing
     Exchange-correlation= PBE
                           (   1   4   3   4   0   0   0)

     celldm(1)=   7.591481  celldm(2)=   0.000000  celldm(3)=   0.000000
     celldm(4)=   0.000000  celldm(5)=   0.000000  celldm(6)=   0.000000

     crystal axes: (cart. coord. in units of alat)
               a(1) = (  -0.500000   0.000000   0.500000 )  
               a(2) = (   0.000000   0.500000   0.500000 )  
               a(3) = (  -0.500000   0.500000   0.000000 )  

     reciprocal axes: (cart. coord. in units 2 pi/alat)
               b(1) = ( -1.000000 -1.000000  1.000000 )  
               b(2) = (  1.000000  1.000000  1.000000 )  
               b(3) = ( -1.000000  1.000000 -1.000000 )  


     PseudoPot. # 1 for H  read from file:
     /usr/scratch4/magr4985/MG/HTDF/pseudo/SG15/H.upf
     MD5 check sum: bf21e08b90ac4ce7d0149ac4e8138190
     Pseudo is Norm-conserving, Zval =  1.0
     Generated using ONCVPSP code by D. R. Hamann
     Using radial grid of  602 points,  2 beta functions with: 
                l(1) =   0
                l(2) =   0

     PseudoPot. # 2 for Li read from file:
     /usr/scratch4/magr4985/MG/HTDF/pseudo/SG15/Li.upf
     MD5 check sum: c91dd4cee9943b136ac3b62641658f95
     Pseudo is Norm-conserving, Zval =  3.0
     Generated using ONCVPSP code by D. R. Hamann
     Using radial grid of  602 points,  4 beta functions with: 
                l(1) =   0
                l(2) =   0
                l(3) =   1
                l(4) =   1

     atomic species   valence    mass     pseudopotential
        H              1.00     1.00790     H ( 1.00)
        Li             3.00     6.94100     Li( 1.00)

     48 Sym. Ops., with inversion, found



   Cartesian axes

     site n.     atom                  positions (alat units)
         1           Li  tau(   1) = (   0.0000000   0.0000000   0.0000000  )
         2           H   tau(   2) = (  -0.5000000   0.5000000   0.5000000  )

     number of k points=    72  Gaussian smearing, width (Ry)=  0.0005
                       cart. coord. in units 2pi/alat
        k(    1) = (   0.0000000   0.0000000   0.0000000), wk =   0.0011574
        k(    2) = (  -0.0833333   0.0833333  -0.0833333), wk =   0.0092593
        k(    3) = (  -0.1666667   0.1666667  -0.1666667), wk =   0.0092593
        k(    4) = (  -0.2500000   0.2500000  -0.2500000), wk =   0.0092593
        k(    5) = (  -0.3333333   0.3333333  -0.3333333), wk =   0.0092593
        k(    6) = (  -0.4166667   0.4166667  -0.4166667), wk =   0.0092593
        k(    7) = (   0.5000000  -0.5000000   0.5000000), wk =   0.0046296
        k(    8) = (   0.0000000   0.1666667   0.0000000), wk =   0.0069444
        k(    9) = (  -0.0833333   0.2500000  -0.0833333), wk =   0.0277778
        k(   10) = (  -0.1666667   0.3333333  -0.1666667), wk =   0.0277778
        k(   11) = (  -0.2500000   0.4166667  -0.2500000), wk =   0.0277778
        k(   12) = (  -0.3333333   0.5000000  -0.3333333), wk =   0.0277778
        k(   13) = (   0.5833333  -0.4166667   0.5833333), wk =   0.0277778
        k(   14) = (   0.5000000  -0.3333333   0.5000000), wk =   0.0277778
        k(   15) = (   0.4166667  -0.2500000   0.4166667), wk =   0.0277778
        k(   16) = (   0.3333333  -0.1666667   0.3333333), wk =   0.0277778
        k(   17) = (   0.2500000  -0.0833333   0.2500000), wk =   0.0277778
        k(   18) = (   0.1666667  -0.0000000   0.1666667), wk =   0.0138889
        k(   19) = (   0.0000000   0.3333333   0.0000000), wk =   0.0069444
        k(   20) = (  -0.0833333   0.4166667  -0.0833333), wk =   0.0277778
        k(   21) = (  -0.1666667   0.5000000  -0.1666667), wk =   0.0277778
        k(   22) = (  -0.2500000   0.5833333  -0.2500000), wk =   0.0277778
        k(   23) = (   0.6666667  -0.3333333   0.6666667), wk =   0.0277778
        k(   24) = (   0.5833333  -0.2500000   0.5833333), wk =   0.0277778
        k(   25) = (   0.5000000  -0.1666667   0.5000000), wk =   0.0277778
        k(   26) = (   0.4166667  -0.0833333   0.4166667), wk =   0.0277778
        k(   27) = (   0.3333333   0.0000000   0.3333333), wk =   0.0138889
        k(   28) = (   0.0000000   0.5000000   0.0000000), wk =   0.0069444
        k(   29) = (  -0.0833333   0.5833333  -0.0833333), wk =   0.0277778
        k(   30) = (  -0.1666667   0.6666667  -0.1666667), wk =   0.0277778
        k(   31) = (   0.7500000  -0.2500000   0.7500000), wk =   0.0277778
        k(   32) = (   0.6666667  -0.1666667   0.6666667), wk =   0.0277778
        k(   33) = (   0.5833333  -0.0833333   0.5833333), wk =   0.0277778
        k(   34) = (   0.5000000   0.0000000   0.5000000), wk =   0.0138889
        k(   35) = (   0.0000000   0.6666667   0.0000000), wk =   0.0069444
        k(   36) = (  -0.0833333   0.7500000  -0.0833333), wk =   0.0277778
        k(   37) = (   0.8333333  -0.1666667   0.8333333), wk =   0.0277778
        k(   38) = (   0.7500000  -0.0833333   0.7500000), wk =   0.0277778
        k(   39) = (   0.6666667  -0.0000000   0.6666667), wk =   0.0138889
        k(   40) = (   0.0000000   0.8333333   0.0000000), wk =   0.0069444
        k(   41) = (   0.9166667  -0.0833333   0.9166667), wk =   0.0277778
        k(   42) = (   0.8333333   0.0000000   0.8333333), wk =   0.0138889
        k(   43) = (   0.0000000  -1.0000000   0.0000000), wk =   0.0034722
        k(   44) = (  -0.1666667   0.3333333   0.0000000), wk =   0.0277778
        k(   45) = (  -0.2500000   0.4166667  -0.0833333), wk =   0.0555556
        k(   46) = (  -0.3333333   0.5000000  -0.1666667), wk =   0.0555556
        k(   47) = (   0.5833333  -0.4166667   0.7500000), wk =   0.0555556
        k(   48) = (   0.5000000  -0.3333333   0.6666667), wk =   0.0277778
        k(   49) = (  -0.1666667   0.5000000   0.0000000), wk =   0.0277778
        k(   50) = (  -0.2500000   0.5833333  -0.0833333), wk =   0.0555556
        k(   51) = (   0.6666667  -0.3333333   0.8333333), wk =   0.0555556
        k(   52) = (   0.5833333  -0.2500000   0.7500000), wk =   0.0555556
        k(   53) = (   0.5000000  -0.1666667   0.6666667), wk =   0.0555556
        k(   54) = (   0.4166667  -0.0833333   0.5833333), wk =   0.0555556
        k(   55) = (   0.3333333   0.0000000   0.5000000), wk =   0.0277778
        k(   56) = (  -0.1666667   0.6666667  -0.0000000), wk =   0.0277778
        k(   57) = (   0.7500000  -0.2500000   0.9166667), wk =   0.0555556
        k(   58) = (   0.6666667  -0.1666667   0.8333333), wk =   0.0555556
        k(   59) = (   0.5833333  -0.0833333   0.7500000), wk =   0.0555556
        k(   60) = (   0.5000000   0.0000000   0.6666667), wk =   0.0277778
        k(   61) = (   0.8333333  -0.1666667   1.0000000), wk =   0.0277778
        k(   62) = (   0.7500000  -0.0833333   0.9166667), wk =   0.0555556
        k(   63) = (   0.6666667   0.0000000   0.8333333), wk =   0.0277778
        k(   64) = (  -0.1666667  -1.0000000  -0.0000000), wk =   0.0138889
        k(   65) = (   0.6666667  -0.3333333   1.0000000), wk =   0.0277778
        k(   66) = (   0.5833333  -0.2500000   0.9166667), wk =   0.0555556
        k(   67) = (   0.5000000  -0.1666667   0.8333333), wk =   0.0277778
        k(   68) = (   0.6666667  -0.1666667   1.0000000), wk =   0.0277778
        k(   69) = (   0.5833333  -0.0833333   0.9166667), wk =   0.0555556
        k(   70) = (   0.5000000   0.0000000   0.8333333), wk =   0.0277778
        k(   71) = (  -0.3333333  -1.0000000   0.0000000), wk =   0.0138889
        k(   72) = (  -0.5000000  -1.0000000   0.0000000), wk =   0.0069444

     Dense  grid:    27317 G-vectors     FFT dimensions: (  45,  45,  45)

     Estimated max dynamical RAM per process >       6.51 MB

     Estimated total dynamical RAM >      26.04 MB

     Initial potential from superposition of free atoms

     starting charge       3.8851, renormalised to       4.0000
     Starting wfcs are random

     total cpu time spent up to now is        0.6 secs

     Self-consistent Calculation

     iteration #  1     ecut=   151.00 Ry     beta= 0.70
     Davidson diagonalization with overlap
     ethr =  1.00E-02,  avg # of iterations =  7.0

     total cpu time spent up to now is        3.0 secs

     total energy              =     -15.46802155 Ry
     estimated scf accuracy    <       0.06098030 Ry

     iteration #  2     ecut=   151.00 Ry     beta= 0.70
     Davidson diagonalization with overlap
     ethr =  1.52E-03,  avg # of iterations =  1.0

     total cpu time spent up to now is        3.9 secs

     total energy              =     -15.47440848 Ry
     estimated scf accuracy    <       0.00029820 Ry

     iteration #  3     ecut=   151.00 Ry     beta= 0.70
     Davidson diagonalization with overlap
     ethr =  7.46E-06,  avg # of iterations =  4.3

     total cpu time spent up to now is        5.3 secs

     total energy              =     -15.47448588 Ry
     estimated scf accuracy    <       0.00002408 Ry

     iteration #  4     ecut=   151.00 Ry     beta= 0.70
     Davidson diagonalization with overlap
     ethr =  6.02E-07,  avg # of iterations =  1.2

     total cpu time spent up to now is        6.4 secs

     total energy              =     -15.47448754 Ry
     estimated scf accuracy    <       0.00000018 Ry

     iteration #  5     ecut=   151.00 Ry     beta= 0.70
     Davidson diagonalization with overlap
     ethr =  4.42E-09,  avg # of iterations =  2.0

     total cpu time spent up to now is        7.5 secs

     total energy              =     -15.47448759 Ry
     estimated scf accuracy    <          7.2E-09 Ry

     iteration #  6     ecut=   151.00 Ry     beta= 0.70
     Davidson diagonalization with overlap
     ethr =  1.79E-10,  avg # of iterations =  2.0

     total cpu time spent up to now is        8.6 secs

     total energy              =     -15.47448759 Ry
     estimated scf accuracy    <          2.1E-10 Ry

     iteration #  7     ecut=   151.00 Ry     beta= 0.70
     Davidson diagonalization with overlap
     ethr =  5.24E-12,  avg # of iterations =  1.0

     total cpu time spent up to now is        9.6 secs

     End of self-consistent calculation

          k = 0.0000 0.0000 0.0000 (  3479 PWs)   bands (ev):

   -43.6326  -4.7825  16.6296  18.4623  18.4623  18.4623  23.1760  23.1760

          k =-0.0833 0.0833-0.0833 (  3455 PWs)   bands (ev):

   -43.6296  -4.6598  15.6143  17.6881  18.1788  18.1788  22.5828  23.7817

          k =-0.1667 0.1667-0.1667 (  3443 PWs)   bands (ev):

   -43.6213  -4.2975  13.0732  16.5905  17.6469  17.6469  23.0519  24.4099

          k =-0.2500 0.2500-0.2500 (  3428 PWs)   bands (ev):

   -43.6100  -3.7194  10.3169  15.6301  17.2229  17.2229  22.7243  22.7243

          k =-0.3333 0.3333-0.3333 (  3428 PWs)   bands (ev):

   -43.5987  -2.9930   7.9185  14.8758  17.0249  17.0249  21.1615  21.1615

          k =-0.4167 0.4167-0.4167 (  3422 PWs)   bands (ev):

   -43.5905  -2.2941   6.1876  14.3980  17.0296  17.0296  20.0728  20.0728

          k = 0.5000-0.5000 0.5000 (  3426 PWs)   bands (ev):

   -43.5874  -1.9765   5.5221  14.2349  17.0787  17.0787  19.6593  19.6593

          k = 0.0000 0.1667 0.0000 (  3439 PWs)   bands (ev):

   -43.6286  -4.6176  15.6877  17.2222  17.2222  19.1152  20.9833  24.8500

          k =-0.0833 0.2500-0.0833 (  3449 PWs)   bands (ev):

   -43.6221  -4.3311  13.9291  16.0982  16.3600  19.0688  20.9307  24.5136

          k =-0.1667 0.3333-0.1667 (  3438 PWs)   bands (ev):

   -43.6118  -3.8159  11.2343  15.0533  15.7617  18.5511  22.1381  23.0894

          k =-0.2500 0.4167-0.2500 (  3435 PWs)   bands (ev):

   -43.6006  -3.1198   8.6953  14.1785  15.4845  17.8961  21.8068  23.5947

          k =-0.3333 0.5000-0.3333 (  3425 PWs)   bands (ev):

   -43.5913  -2.3722   6.7023  13.5385  15.5455  17.2234  21.3652  22.1907

          k = 0.5833-0.4167 0.5833 (  3417 PWs)   bands (ev):

   -43.5865  -1.8743   5.6297  13.1738  15.9390  16.6536  21.1649  21.4862

          k = 0.5000-0.3333 0.5000 (  3423 PWs)   bands (ev):

   -43.5875  -1.9890   5.8629  13.0941  16.3137  16.6283  20.5658  22.0971

          k = 0.4167-0.2500 0.4167 (  3434 PWs)   bands (ev):

   -43.5940  -2.6183   7.3007  13.2871  16.2847  17.4987  20.4951  23.1216

          k = 0.3333-0.1667 0.3333 (  3440 PWs)   bands (ev):

   -43.6043  -3.3719   9.5209  13.7321  16.5872  18.2895  21.1659  24.2624

          k = 0.2500-0.0833 0.2500 (  3438 PWs)   bands (ev):

   -43.6156  -4.0153  12.1812  14.4370  17.1524  18.7765  22.6611  23.0153

          k = 0.1667-0.0000 0.1667 (  3441 PWs)   bands (ev):

   -43.6248  -4.4557  14.5584  15.7852  17.7401  18.8105  22.3225  23.6931

          k = 0.0000 0.3333 0.0000 (  3455 PWs)   bands (ev):

   -43.6177  -4.1149  13.7636  15.2891  15.2891  18.6963  19.0893  25.2231

          k =-0.0833 0.4167-0.0833 (  3441 PWs)   bands (ev):

   -43.6092  -3.6591  11.8790  14.0130  14.5320  18.4431  19.1403  25.2562

          k =-0.1667 0.5000-0.1667 (  3440 PWs)   bands (ev):

   -43.5990  -2.9961   9.4594  12.7475  14.1220  17.8053  20.7468  25.0035

          k =-0.2500 0.5833-0.2500 (  3433 PWs)   bands (ev):

   -43.5898  -2.2193   7.3154  11.7820  14.0716  17.1613  22.6397  25.0224

          k = 0.6667-0.3333 0.6667 (  3415 PWs)   bands (ev):

   -43.5840  -1.5730   5.9096  11.1269  14.3837  16.6460  23.8103  23.9514

          k = 0.5833-0.2500 0.5833 (  3437 PWs)   bands (ev):

   -43.5833  -1.4751   5.7240  10.7826  15.0534  16.3417  22.9417  24.7494

          k = 0.5000-0.1667 0.5000 (  3419 PWs)   bands (ev):

   -43.5877  -2.0136   6.8618  10.7397  16.0618  16.2930  22.4004  25.5591

          k = 0.4167-0.0833 0.4167 (  3435 PWs)   bands (ev):

   -43.5962  -2.7896   8.9090  10.9819  16.4941  17.3458  22.1237  24.8601

          k = 0.3333 0.0000 0.3333 (  3433 PWs)   bands (ev):

   -43.6064  -3.4981  11.3601  11.6363  16.8551  18.6220  22.0082  23.6075

          k = 0.0000 0.5000 0.0000 (  3479 PWs)   bands (ev):

   -43.6029  -3.2552  11.0187  13.6314  13.6314  16.8981  18.2970  27.2162

          k =-0.0833 0.5833-0.0833 (  3440 PWs)   bands (ev):

   -43.5945  -2.6263   9.3088  12.1878  13.0873  17.2435  18.2165  28.0079

          k =-0.1667 0.6667-0.1667 (  3426 PWs)   bands (ev):

   -43.5863  -1.8392   7.5043  10.6207  12.9100  17.2164  19.7549  28.2375

          k = 0.7500-0.2500 0.7500 (  3417 PWs)   bands (ev):

   -43.5806  -1.0872   6.0625   9.5356  13.1030  16.8519  22.0999  26.8767

          k = 0.6667-0.1667 0.6667 (  3433 PWs)   bands (ev):

   -43.5788  -0.7976   5.6054   8.8951  13.6651  16.5530  24.5991  25.7868

          k = 0.5833-0.0833 0.5833 (  3425 PWs)   bands (ev):

   -43.5815  -1.2355   6.4811   8.6431  14.5889  16.3972  24.8600  26.6389

          k = 0.5000 0.0000 0.5000 (  3418 PWs)   bands (ev):

   -43.5878  -2.0256   8.1721   8.8980  15.8504  16.3957  23.7411  26.0863

          k = 0.0000 0.6667 0.0000 (  3423 PWs)   bands (ev):

   -43.5882  -2.0262   7.9594  12.4117  12.4117  15.6100  17.9103  30.4319

          k =-0.0833 0.7500-0.0833 (  3420 PWs)   bands (ev):

   -43.5819  -1.2461   6.5034  11.0619  12.1056  16.2984  17.9508  31.3868

          k = 0.8333-0.1667 0.8333 (  3419 PWs)   bands (ev):

   -43.5772  -0.4482   5.3511   9.4510  12.1728  16.9291  19.2558  30.2015

          k = 0.7500-0.0833 0.7500 (  3424 PWs)   bands (ev):

   -43.5754  -0.0617   4.9673   8.3306  12.6132  16.7863  21.7947  28.7893

          k = 0.6667-0.0000 0.6667 (  3444 PWs)   bands (ev):

   -43.5769  -0.4487   5.6535   7.8776  13.4230  16.5686  24.6261  27.1269

          k = 0.0000 0.8333 0.0000 (  3419 PWs)   bands (ev):

   -43.5776  -0.4890   5.1753  11.6710  11.6710  14.8363  17.8287  34.1844

          k = 0.9167-0.0833 0.9167 (  3406 PWs)   bands (ev):

   -43.5747   0.2466   4.2012  10.5272  11.6108  15.8092  17.9173  33.4590

          k = 0.8333 0.0000 0.8333 (  3420 PWs)   bands (ev):

   -43.5738   0.4507   4.1324   9.1046  11.9257  16.8334  19.1227  31.4910

          k = 0.0000-1.0000 0.0000 (  3378 PWs)   bands (ev):

   -43.5737   0.6271   3.6241  11.4230  11.4230  14.5783  17.8297  35.2702

          k =-0.1667 0.3333 0.0000 (  3446 PWs)   bands (ev):

   -43.6146  -3.9623  12.7784  13.7382  16.2718  19.0116  20.7135  23.7753

          k =-0.2500 0.4167-0.0833 (  3444 PWs)   bands (ev):

   -43.6044  -3.3717  10.4230  12.5472  15.7529  18.4061  21.7817  23.1389

          k =-0.3333 0.5000-0.1667 (  3437 PWs)   bands (ev):

   -43.5942  -2.6241   8.0429  11.9450  15.2829  17.5779  22.2121  24.1987

          k = 0.5833-0.4167 0.7500 (  3430 PWs)   bands (ev):

   -43.5867  -1.8961   6.2929  11.5875  15.0461  16.9007  22.1927  24.4880

          k = 0.5000-0.3333 0.6667 (  3428 PWs)   bands (ev):

   -43.5839  -1.5606   5.6120  11.4669  14.9915  16.6331  22.2347  24.0970

          k =-0.1667 0.5000 0.0000 (  3445 PWs)   bands (ev):

   -43.6008  -3.1200  10.5542  12.0328  14.2655  18.3035  18.9950  25.6926

          k =-0.2500 0.5833-0.0833 (  3438 PWs)   bands (ev):

   -43.5916  -2.3896   8.6224  10.6826  13.8473  17.7859  20.5018  25.5671

          k = 0.6667-0.3333 0.8333 (  3419 PWs)   bands (ev):

   -43.5842  -1.5974   6.7704   9.9228  13.6545  17.2569  22.4884  25.4889

          k = 0.5833-0.2500 0.7500 (  3415 PWs)   bands (ev):

   -43.5805  -1.0714   5.7466   9.4812  13.7774  16.9203  23.8223  25.9261

          k = 0.5000-0.1667 0.6667 (  3427 PWs)   bands (ev):

   -43.5814  -1.2248   6.0574   9.3247  14.1678  16.8943  23.8040  26.8516

          k = 0.4167-0.0833 0.5833 (  3431 PWs)   bands (ev):

   -43.5868  -1.9174   7.5775   9.4440  14.7300  17.2435  23.4421  24.7636

          k = 0.3333 0.0000 0.5000 (  3440 PWs)   bands (ev):

   -43.5952  -2.7107   9.7569   9.9088  15.3387  17.8844  22.5855  23.4385

          k =-0.1667 0.6667-0.0000 (  3428 PWs)   bands (ev):

   -43.5871  -1.9219   7.8792  10.7898  12.7583  17.7383  17.9487  28.4915

          k = 0.7500-0.2500 0.9167 (  3424 PWs)   bands (ev):

   -43.5808  -1.1036   6.5079   9.3200  12.6050  17.5544  19.6461  28.0796

          k = 0.6667-0.1667 0.8333 (  3417 PWs)   bands (ev):

   -43.5770  -0.4523   5.5763   8.3160  12.7566  17.2327  22.0718  27.4457

          k = 0.5833-0.0833 0.7500 (  3423 PWs)   bands (ev):

   -43.5769  -0.4522   5.7241   7.7918  13.2201  17.0390  24.5392  26.8864

          k = 0.5000 0.0000 0.6667 (  3426 PWs)   bands (ev):

   -43.5805  -1.1001   6.9140   7.8164  13.9299  17.0379  25.2413  25.6005

          k = 0.8333-0.1667 1.0000 (  3423 PWs)   bands (ev):

   -43.5773  -0.4474   5.2953  10.0379  11.9214  16.9787  17.8909  31.0297

          k = 0.7500-0.0833 0.9167 (  3409 PWs)   bands (ev):

   -43.5745   0.1956   4.6095   8.6986  12.0367  17.4759  19.2711  30.2089

          k = 0.6667 0.0000 0.8333 (  3407 PWs)   bands (ev):

   -43.5744   0.1772   4.8932   7.7727  12.4788  17.2536  21.9243  29.0455

          k =-0.1667-1.0000-0.0000 (  3412 PWs)   bands (ev):

   -43.5737   0.5690   3.8783   9.7865  11.6532  16.7248  17.9019  32.5422

          k = 0.6667-0.3333 1.0000 (  3423 PWs)   bands (ev):

   -43.5843  -1.6096   7.7849   8.6552  13.4732  17.8377  21.3849  25.7583

          k = 0.5833-0.2500 0.9167 (  3428 PWs)   bands (ev):

   -43.5789  -0.8282   6.4589   7.8685  13.1640  17.6200  23.1885  25.9693

          k = 0.5000-0.1667 0.8333 (  3418 PWs)   bands (ev):

   -43.5769  -0.4557   5.8011   7.6992  13.0537  17.5065  24.4366  26.1768

          k = 0.6667-0.1667 1.0000 (  3415 PWs)   bands (ev):

   -43.5764  -0.3215   5.7241   7.8982  12.4399  17.9919  20.6425  27.8119

          k = 0.5833-0.0833 0.9167 (  3412 PWs)   bands (ev):

   -43.5744   0.1419   5.4627   6.9367  12.4736  17.9317  22.8255  26.9173

          k = 0.5000 0.0000 0.8333 (  3423 PWs)   bands (ev):

   -43.5753  -0.1078   6.1548   6.5581  12.7294  17.8056  24.9099  25.1828

          k =-0.3333-1.0000 0.0000 (  3406 PWs)   bands (ev):

   -43.5735   0.4568   4.6393   7.6453  12.1261  18.0842  20.3930  29.4341

          k =-0.5000-1.0000 0.0000 (  3400 PWs)   bands (ev):

   -43.5734   0.4025   5.9012   5.9012  12.3692  18.2022  24.6703  24.6703

     the Fermi energy is     0.7580 ev

!    total energy              =     -15.47448759 Ry
     estimated scf accuracy    <          4.9E-13 Ry
     smearing contrib. (-TS)   =      -0.00000000 Ry
     internal energy E=F+TS    =     -15.47448759 Ry

     The total energy is F=E-TS. E is the sum of the following terms:
     one-electron contribution =      -7.62198146 Ry
     hartree contribution      =       3.07536780 Ry
     xc contribution           =      -4.02710961 Ry
     ewald contribution        =      -6.90076433 Ry

     convergence has been achieved in   7 iterations

     Writing all to output data dir out/mp-23703.save/
 
     init_run     :      0.48s CPU      0.51s WALL (       1 calls)
     electrons    :      8.62s CPU      9.08s WALL (       1 calls)

     Called by init_run:
     wfcinit      :      0.39s CPU      0.41s WALL (       1 calls)
     potinit      :      0.03s CPU      0.03s WALL (       1 calls)
     hinit0       :      0.01s CPU      0.01s WALL (       1 calls)

     Called by electrons:
     c_bands      :      7.24s CPU      7.62s WALL (       7 calls)
     sum_band     :      1.29s CPU      1.36s WALL (       7 calls)
     v_of_rho     :      0.09s CPU      0.10s WALL (       8 calls)
     mix_rho      :      0.01s CPU      0.02s WALL (       7 calls)

     Called by c_bands:
     init_us_2    :      0.14s CPU      0.16s WALL (    1080 calls)
     init_us_2:cp :      0.14s CPU      0.16s WALL (    1080 calls)
     cegterg      :      6.98s CPU      7.14s WALL (     504 calls)

     Called by *egterg:
     cdiaghg      :      0.17s CPU      0.18s WALL (    1831 calls)
     h_psi        :      6.74s CPU      6.89s WALL (    1903 calls)
     g_psi        :      0.04s CPU      0.04s WALL (    1327 calls)

     Called by h_psi:
     h_psi:calbec :      0.08s CPU      0.08s WALL (    1903 calls)
     vloc_psi     :      6.57s CPU      6.72s WALL (    1903 calls)
     add_vuspsi   :      0.06s CPU      0.06s WALL (    1903 calls)

     General routines
     calbec       :      0.07s CPU      0.08s WALL (    1903 calls)
     fft          :      0.04s CPU      0.05s WALL (      79 calls)
     ffts         :      0.00s CPU      0.00s WALL (       7 calls)
     fftw         :      6.87s CPU      7.04s WALL (   27592 calls)
     davcio       :      0.07s CPU      0.24s WALL (    1708 calls)
 
     Parallel routines
 
     PWSCF        :      9.19s CPU      9.79s WALL

 
   This run was terminated on:  16:54:35   4Dec2023            

=------------------------------------------------------------------------------=
   JOB DONE.
=------------------------------------------------------------------------------=
