
     Program PWSCF v.7.1 starts on  5Apr2024 at 13: 3: 5 

     This program is part of the open-source Quantum ESPRESSO suite
     for quantum simulation of materials; please cite
         "P. Giannozzi et al., J. Phys.:Condens. Matter 21 395502 (2009);
         "P. Giannozzi et al., J. Phys.:Condens. Matter 29 465901 (2017);
         "P. Giannozzi et al., J. Chem. Phys. 152 154105 (2020);
          URL http://www.quantum-espresso.org", 
     in publications or presentations arising from this work. More details at
     http://www.quantum-espresso.org/quote

     Parallel version (MPI), running on     8 processors

     MPI processes distributed on     1 nodes
     233556 MiB available memory on the printing compute node when the environment starts
 
     Reading input from pw_mp-66_nscf_k0_E152.in
Warning: card &IONS ignored
Warning: card / ignored
Warning: card &CELL ignored
Warning: card / ignored

     Current dimensions of program PWSCF are:
     Max number of different atomic species (ntypx) = 10
     Max number of k-points (npk) =  40000
     Max angular momentum in pseudopotentials (lmaxx) =  4

     Atomic positions and unit cell read from directory:
     out/mp-66.save/
     Atomic positions from file used, from input discarded
 
 
     R & G space division:  proc/nbgrp/npool/nimage =       8
     Subspace diagonalization in iterative solution of the eigenvalue problem:
     one sub-group per band group will be used
     scalapack distributed-memory algorithm (size of sub-group:  2*  2 procs)

 
     Parallelization info
     --------------------
     sticks:   dense  smooth     PW     G-vecs:    dense   smooth      PW
     Min         119     119     30                 2416     2416     302
     Max         120     120     31                 2419     2419     304
     Sum         955     955    241                19339    19339    2421
 
     Using Slab Decomposition
 


     bravais-lattice index     =            2
     lattice parameter (alat)  =       6.7288  a.u.
     unit-cell volume          =      76.1657 (a.u.)^3
     number of atoms/cell      =            2
     number of atomic types    =            1
     number of electrons       =         8.00
     number of Kohn-Sham states=          880
     kinetic-energy cutoff     =     152.0000  Ry
     charge density cutoff     =     608.0000  Ry
     Exchange-correlation= PBE
                           (   1   4   3   4   0   0   0)

     celldm(1)=   6.728833  celldm(2)=   0.000000  celldm(3)=   0.000000
     celldm(4)=   0.000000  celldm(5)=   0.000000  celldm(6)=   0.000000

     crystal axes: (cart. coord. in units of alat)
               a(1) = (  -0.500000   0.000000   0.500000 )  
               a(2) = (   0.000000   0.500000   0.500000 )  
               a(3) = (  -0.500000   0.500000   0.000000 )  

     reciprocal axes: (cart. coord. in units 2 pi/alat)
               b(1) = ( -1.000000 -1.000000  1.000000 )  
               b(2) = (  1.000000  1.000000  1.000000 )  
               b(3) = ( -1.000000  1.000000 -1.000000 )  


     PseudoPot. # 1 for C  read from file:
     /usr/scratch4/magr4985/FGWC/FGWC/pseudo/SG15/C.upf
     MD5 check sum: 1a5f83a7b1f58d24996abe00ed223ac6
     Pseudo is Norm-conserving, Zval =  4.0
     Generated using ONCVPSP code by D. R. Hamann
     Using radial grid of  602 points,  4 beta functions with: 
                l(1) =   0
                l(2) =   0
                l(3) =   1
                l(4) =   1

     atomic species   valence    mass     pseudopotential
        C              4.00    12.01070     C ( 1.00)

     24 Sym. Ops. (no inversion) found



   Cartesian axes

     site n.     atom                  positions (alat units)
         1           C   tau(   1) = (  -0.5000000   0.5000000   0.0000000  )
         2           C   tau(   2) = (  -0.7500000   0.7500000   0.7500000  )

     number of k points=     1  Gaussian smearing, width (Ry)=  0.0005
                       cart. coord. in units 2pi/alat
        k(    1) = (   0.0000000   0.0000000   0.0000000), wk =   2.0000000

     Dense  grid:    19339 G-vectors     FFT dimensions: (  40,  40,  40)

     Estimated max dynamical RAM per process >      57.38 MB

     Estimated total dynamical RAM >     459.02 MB

     The potential is recalculated from file :
     out/mp-66.save/charge-density

     Starting wfcs are random

     Band Structure Calculation
     Davidson diagonalization with overlap

     ethr =  5.00E-06,  avg # of iterations =  8.0

     total cpu time spent up to now is       23.1 secs

     End of band structure calculation

          k = 0.0000 0.0000 0.0000 (  2421 PWs)   bands (ev):

    -8.0983  13.4026  13.4026  13.4026  19.0161  19.0161  19.0161  26.8656
    32.7970  40.1359  40.1359  41.0596  41.0596  41.0596  48.3368  60.6906
    60.6906  60.6906  81.1020  81.1020  81.1020  85.4897  85.4897  88.1441
    88.1441  88.1441  92.6028  92.6028  92.6028 100.7045 112.7949 112.7949
   112.7949 118.4965 118.4965 118.4965 118.7664 118.7664 118.9000 118.9000
   123.2265 123.2265 123.2265 124.1935 124.1935 124.1935 125.4060 125.4060
   125.4060 127.0922 133.0874 134.6517 134.6517 134.6517 135.5302 135.5302
   135.5302 142.4236 147.1847 172.5822 172.5823 172.5823 179.1247 179.1247
   182.2100 182.2100 182.2100 187.2286 194.7198 194.7198 194.7198 206.7860
   206.7860 208.6690 208.6690 208.6690 209.7557 209.7557 209.7557 211.6770
   211.6770 211.6770 216.2951 216.2951 216.2951 216.3198 216.3198 222.0747
   224.1954 224.1954 224.1954 224.4227 224.4227 229.3076 229.7027 229.7027
   229.7027 230.0055 230.0055 230.0055 230.9193 230.9193 230.9193 231.4529
   231.4529 231.4529 233.1610 233.7783 233.7783 233.7783 233.9066 233.9066
   251.1888 251.1888 251.1888 254.5510 264.9527 264.9527 264.9527 269.2938
   271.8031 271.8031 273.7112 273.7112 273.7112 275.4570 275.4570 275.4570
   276.0829 276.0829 276.0829 276.8832 276.8832 276.8832 277.6444 277.6444
   292.2195 295.7601 295.7601 295.7601 304.2209 304.2209 304.2209 306.1789
   306.1789 307.2659 307.2659 308.8031 309.0383 309.0383 309.0383 309.8361
   309.8361 309.8361 311.4157 313.1017 313.1017 313.1017 313.1125 313.1125
   313.1125 313.1589 313.1589 313.1589 313.5345 313.5345 313.5345 321.7826
   321.8137 352.1280 352.1280 352.1280 360.2549 360.2549 360.2549 364.1780
   364.1780 364.1780 364.1834 364.1834 364.3513 364.3513 364.3513 373.5650
   388.5868 388.5868 388.5868 394.5679 394.5679 395.0614 395.0614 395.0614
   395.6781 395.6781 395.6781 397.4834 400.0685 400.0685 400.0685 400.3431
   400.3431 401.5063 401.5063 401.5063 401.5911 405.7844 405.7844 405.7844
   405.9296 405.9296 405.9455 405.9455 405.9455 406.7769 406.7769 406.7769
   406.9460 406.9460 407.4644 407.4644 407.4644 408.9539 409.1125 409.1125
   409.1125 409.4217 409.4217 409.4217 409.7673 411.2166 411.2166 411.2166
   414.4323 414.4323 414.4323 415.2732 415.8377 416.2703 416.2703 416.2703
   416.9983 416.9983 419.1117 421.3333 421.3333 421.3963 421.3963 421.3963
   421.6123 421.6123 421.6123 421.8051 421.8051 421.8051 422.1649 422.1649
   422.1649 422.1892 422.1892 446.4620 446.4620 446.4620 456.0611 456.0611
   458.5229 464.1999 464.1999 464.1999 464.6563 464.6563 464.6563 464.9379
   464.9379 464.9379 465.0410 465.0410 465.0410 469.0196 469.0196 469.0569
   469.0569 469.0569 469.1260 477.2775 477.2775 477.2775 483.3648 483.3649
   483.3649 488.8648 490.1050 496.4905 496.4905 496.4905 497.3864 497.3864
   498.6986 498.6986 498.6986 498.8394 498.8394 498.8394 499.0183 499.0183
   499.0183 499.6503 499.6503 506.7304 506.7304 506.7304 510.2682 511.4871
   511.4871 512.1803 512.1803 512.1803 512.9438 512.9438 512.9438 513.5643
   513.5643 513.5643 513.5944 513.5944 513.5944 514.2009 514.6913 514.6913
   514.6913 515.0906 515.0906 547.3690 547.3690 547.3690 557.5423 557.5423
   557.5423 557.9618 558.0698 563.5946 563.5946 563.5946 572.4952 572.4952
   572.4952 582.1158 583.0156 583.0156 583.0344 583.0344 583.0344 583.2268
   583.2268 583.2268 588.1248 589.1301 589.1301 589.9146 589.9146 589.9146
   590.1105 590.1105 590.7660 590.7660 590.7660 591.1123 591.1123 591.1123
   591.1662 591.7161 591.7161 591.7161 591.9586 591.9586 592.4125 596.9194
   596.9194 596.9194 596.9664 596.9664 596.9664 597.0851 597.0851 597.0851
   597.1437 597.1437 597.1437 608.0783 608.0783 608.0783 608.2746 608.2746
   608.2746 608.3526 608.3526 608.3725 608.3725 608.3725 608.4698 609.5746
   609.5746 609.5746 610.5982 610.6833 610.6833 610.6833 610.8803 610.8803
   610.8803 610.8962 610.8962 623.4464 623.4464 623.4464 640.0840 641.0727
   641.0727 641.0727 643.2946 646.2874 646.2874 646.8212 646.8212 646.8212
   647.7298 647.7298 647.7298 648.4694 648.4694 648.4694 648.9530 648.9530
   648.9530 649.9972 649.9972 654.3057 654.3057 654.9765 654.9765 654.9765
   655.2433 655.2433 655.2433 655.5587 655.5587 655.5587 656.2001 656.2001
   656.2001 656.6520 656.6520 657.3081 658.1138 658.1138 658.1138 658.5857
   658.5857 658.5857 658.9255 664.6969 664.6969 664.6969 681.5512 681.7567
   681.7567 681.7567 681.8093 683.0483 683.0483 683.0483 685.2800 685.2800
   685.2800 685.4654 685.4654 686.4804 686.4804 686.5350 686.5350 686.5350
   686.6920 686.6920 686.6920 687.1547 687.1547 687.1547 687.6286 687.9224
   688.0394 688.0394 688.0394 691.6464 691.6464 691.6464 691.6680 691.6680
   691.7391 691.7391 691.7391 691.8539 691.8539 691.8539 692.1660 692.1660
   692.1660 692.1942 692.1942 692.5801 692.5801 692.5801 692.6430 692.6430
   692.6430 692.6596 692.8685 693.4559 693.4559 693.4559 693.4599 693.4599
   693.4599 693.5000 693.5000 693.5259 693.5259 693.5259 693.8035 693.8035
   693.8172 693.8172 693.8172 744.5867 744.5867 744.5867 747.7485 747.7485
   747.8079 752.7764 752.7764 752.7764 772.9614 772.9614 772.9614 776.9503
   777.0984 779.1271 779.1271 779.3214 779.3214 779.3214 779.7221 779.7221
   779.7221 780.3480 780.3480 780.3480 780.3545 780.3545 780.3545 780.7237
   780.7237 787.6094 787.6094 787.6094 788.2106 788.9297 788.9297 788.9297
   789.0400 789.0400 791.4118 791.4118 791.4118 792.4615 792.9615 796.8019
   796.8019 796.8019 796.9522 796.9522 796.9522 796.9856 796.9856 796.9856
   796.9979 796.9979 796.9979 800.1554 800.1554 800.1554 800.3149 800.3149
   800.3149 800.3162 800.3162 800.3354 800.3354 800.3354 800.3624 800.3624
   800.3624 800.3682 800.3682 800.9117 800.9117 800.9198 800.9198 800.9198
   800.9369 817.6928 817.6928 817.6928 836.8717 836.8717 836.8888 836.8888
   836.8888 837.0404 837.0741 837.0741 837.0741 840.4762 840.4762 840.4851
   840.4851 840.4851 841.6555 843.0284 843.0284 843.0284 843.3094 843.3094
   843.3094 843.3722 843.3722 843.3722 843.6549 843.6549 843.6549 845.2685
   845.3053 845.3053 845.3053 845.3293 845.3293 850.2994 850.2994 850.2994
   867.1315 867.1315 867.1315 867.2129 867.2129 867.2129 867.2323 867.2323
   868.1091 871.8550 871.8550 871.8550 875.3492 875.5136 875.5136 875.5136
   875.7962 875.7962 875.7962 875.8021 875.8021 876.2462 876.2462 876.2462
   877.6014 877.6014 877.6014 877.8437 878.0963 880.2032 880.2032 880.2032
   880.2851 880.2851 880.2885 880.2885 880.2885 880.3367 880.3367 880.3367
   880.3983 881.0996 881.0996 881.0996 881.2353 881.2353 881.3290 881.3290
   881.3290 881.4462 881.4462 881.4462 881.5531 892.2730 892.2730 892.2730
   893.0746 893.0746 893.0746 893.2986 893.2986 893.2986 893.2993 893.2993
   893.3442 894.0275 894.0275 894.0275 894.7100 894.7100 894.7100 894.7320
   894.7320 894.7339 894.7339 894.7339 894.7596 927.7542 927.7543 927.7543
   937.5685 937.5685 938.0208 938.0936 938.0936 938.0936 938.1586 938.1586
   938.1586 938.2331 938.2331 938.2331 938.3119 938.3119 938.3119 938.7312
   938.7312 938.7885 938.7885 938.7885 938.8707 943.9304 943.9304 943.9304
   954.7803 954.7803 954.7803 960.8630 961.9704 964.1715 964.1715 964.1715
   964.1978 964.1978 965.7105 965.7105 965.7105 965.8911 965.8911 965.8911
   966.2485 966.2485 966.2485 966.7695 966.7695 969.3217 969.3217 969.3217
   969.3558 969.4515 969.4515 969.4515 969.9974 969.9974 970.1468 970.1594
   970.1594 973.9919 973.9919 973.9919 974.0112 974.0112 974.0112 974.2055
   974.2055 974.2055 974.3005 974.3005 974.6100 974.6100 974.6100 974.7623
   974.7623 976.4724 976.4724 976.4724 976.5616 976.5616 976.5616 976.7036
   976.7036 976.7036 976.8505 976.8505 976.8505 976.9632 977.2393 977.2393
   977.2393 977.4074 977.4074 977.4074 977.5290 981.6876 981.6876 981.6876
   983.7145 983.7145 983.7145 984.1817 985.0819 985.0819 985.4075 985.4075
   985.4075 985.4546 985.4546 985.4546 985.5649 985.6711 985.6711 985.6711
   985.9993 985.9993 985.9993 986.5266 986.5266 989.1217 989.1217 989.2419
   989.2419 989.2419 989.5069 990.0505 990.0505 990.0505 990.1350 990.1350
   990.1350 990.2480 990.2480 990.2480 990.3826 990.3826 990.3826 990.7795
   990.7795 990.9054 990.9054 990.9054 991.04151020.54141020.54141020.5414
  1025.96901025.96901025.96901026.25201026.73391036.17521036.17521036.1752

     the Fermi energy is    16.3173 ev
     (compare with:    16.3173 eV, computed in scf)

     Writing all to output data dir out/mp-66.save/
 
     init_run     :      0.05s CPU      0.08s WALL (       1 calls)
     electrons    :     22.03s CPU     22.79s WALL (       1 calls)

     Called by init_run:
     wfcinit      :      0.00s CPU      0.00s WALL (       1 calls)
     potinit      :      0.01s CPU      0.01s WALL (       1 calls)
     hinit0       :      0.01s CPU      0.04s WALL (       1 calls)

     Called by electrons:
     c_bands      :     22.03s CPU     22.79s WALL (       1 calls)
     v_of_rho     :      0.01s CPU      0.01s WALL (       1 calls)

     Called by c_bands:
     init_us_2    :      0.00s CPU      0.00s WALL (       1 calls)
     init_us_2:cp :      0.00s CPU      0.00s WALL (       1 calls)
     cegterg      :     21.24s CPU     21.96s WALL (       1 calls)

     Called by *egterg:
     cdiaghg      :     20.23s CPU     20.91s WALL (       9 calls)
     h_psi        :      0.56s CPU      0.58s WALL (      10 calls)
     g_psi        :      0.00s CPU      0.00s WALL (       8 calls)

     Called by h_psi:
     h_psi:calbec :      0.01s CPU      0.01s WALL (      10 calls)
     vloc_psi     :      0.55s CPU      0.56s WALL (      10 calls)
     add_vuspsi   :      0.00s CPU      0.00s WALL (      10 calls)

     General routines
     calbec       :      0.01s CPU      0.01s WALL (      10 calls)
     fft          :      0.00s CPU      0.04s WALL (      10 calls)
     fftw         :      0.50s CPU      0.51s WALL (    9904 calls)
 
     Parallel routines
 
     PWSCF        :     22.36s CPU     23.22s WALL

 
   This run was terminated on:  13: 3:28   5Apr2024            

=------------------------------------------------------------------------------=
   JOB DONE.
=------------------------------------------------------------------------------=
