
     Program PWSCF v.7.1 starts on  5Apr2024 at 13:39:46 

     This program is part of the open-source Quantum ESPRESSO suite
     for quantum simulation of materials; please cite
         "P. Giannozzi et al., J. Phys.:Condens. Matter 21 395502 (2009);
         "P. Giannozzi et al., J. Phys.:Condens. Matter 29 465901 (2017);
         "P. Giannozzi et al., J. Chem. Phys. 152 154105 (2020);
          URL http://www.quantum-espresso.org", 
     in publications or presentations arising from this work. More details at
     http://www.quantum-espresso.org/quote

     Parallel version (MPI), running on    16 processors

     MPI processes distributed on     1 nodes
     234130 MiB available memory on the printing compute node when the environment starts
 
     Reading input from pw_mp-66_scf_k3000_E152.in
Warning: card &CELL ignored
Warning: card / ignored

     Current dimensions of program PWSCF are:
     Max number of different atomic species (ntypx) = 10
     Max number of k-points (npk) =  40000
     Max angular momentum in pseudopotentials (lmaxx) =  4
 
     R & G space division:  proc/nbgrp/npool/nimage =      16
     Subspace diagonalization in iterative solution of the eigenvalue problem:
     a serial algorithm will be used

 
     Parallelization info
     --------------------
     sticks:   dense  smooth     PW     G-vecs:    dense   smooth      PW
     Min          59      59     17                 1207     1207     195
     Max          60      60     18                 1210     1210     198
     Sum         955     955    283                19339    19339    3143
 
     Using Slab Decomposition
 


     bravais-lattice index     =            2
     lattice parameter (alat)  =       6.7288  a.u.
     unit-cell volume          =      76.1657 (a.u.)^3
     number of atoms/cell      =            2
     number of atomic types    =            1
     number of electrons       =         8.00
     number of Kohn-Sham states=            8
     kinetic-energy cutoff     =     152.0000  Ry
     charge density cutoff     =     608.0000  Ry
     scf convergence threshold =      1.0E-10
     mixing beta               =       0.7000
     number of iterations used =            8  plain     mixing
     Exchange-correlation= PBE
                           (   1   4   3   4   0   0   0)

     celldm(1)=   6.728833  celldm(2)=   0.000000  celldm(3)=   0.000000
     celldm(4)=   0.000000  celldm(5)=   0.000000  celldm(6)=   0.000000

     crystal axes: (cart. coord. in units of alat)
               a(1) = (  -0.500000   0.000000   0.500000 )  
               a(2) = (   0.000000   0.500000   0.500000 )  
               a(3) = (  -0.500000   0.500000   0.000000 )  

     reciprocal axes: (cart. coord. in units 2 pi/alat)
               b(1) = ( -1.000000 -1.000000  1.000000 )  
               b(2) = (  1.000000  1.000000  1.000000 )  
               b(3) = ( -1.000000  1.000000 -1.000000 )  


     PseudoPot. # 1 for C  read from file:
     /usr/scratch4/magr4985/FGWC/FGWC/pseudo/SG15/C.upf
     MD5 check sum: 1a5f83a7b1f58d24996abe00ed223ac6
     Pseudo is Norm-conserving, Zval =  4.0
     Generated using ONCVPSP code by D. R. Hamann
     Using radial grid of  602 points,  4 beta functions with: 
                l(1) =   0
                l(2) =   0
                l(3) =   1
                l(4) =   1

     atomic species   valence    mass     pseudopotential
        C              4.00    12.01070     C ( 1.00)

     24 Sym. Ops. (no inversion) found



   Cartesian axes

     site n.     atom                  positions (alat units)
         1           C   tau(   1) = (  -0.5000000   0.5000000   0.0000000  )
         2           C   tau(   2) = (  -0.7500000   0.7500000   0.7500000  )

     number of k points=    72  Gaussian smearing, width (Ry)=  0.0018
                       cart. coord. in units 2pi/alat
        k(    1) = (   0.0000000   0.0000000   0.0000000), wk =   0.0011574
        k(    2) = (  -0.0833333   0.0833333  -0.0833333), wk =   0.0092593
        k(    3) = (  -0.1666667   0.1666667  -0.1666667), wk =   0.0092593
        k(    4) = (  -0.2500000   0.2500000  -0.2500000), wk =   0.0092593
        k(    5) = (  -0.3333333   0.3333333  -0.3333333), wk =   0.0092593
        k(    6) = (  -0.4166667   0.4166667  -0.4166667), wk =   0.0092593
        k(    7) = (   0.5000000  -0.5000000   0.5000000), wk =   0.0046296
        k(    8) = (   0.0000000   0.1666667   0.0000000), wk =   0.0069444
        k(    9) = (  -0.0833333   0.2500000  -0.0833333), wk =   0.0277778
        k(   10) = (  -0.1666667   0.3333333  -0.1666667), wk =   0.0277778
        k(   11) = (  -0.2500000   0.4166667  -0.2500000), wk =   0.0277778
        k(   12) = (  -0.3333333   0.5000000  -0.3333333), wk =   0.0277778
        k(   13) = (   0.5833333  -0.4166667   0.5833333), wk =   0.0277778
        k(   14) = (   0.5000000  -0.3333333   0.5000000), wk =   0.0277778
        k(   15) = (   0.4166667  -0.2500000   0.4166667), wk =   0.0277778
        k(   16) = (   0.3333333  -0.1666667   0.3333333), wk =   0.0277778
        k(   17) = (   0.2500000  -0.0833333   0.2500000), wk =   0.0277778
        k(   18) = (   0.1666667  -0.0000000   0.1666667), wk =   0.0138889
        k(   19) = (   0.0000000   0.3333333   0.0000000), wk =   0.0069444
        k(   20) = (  -0.0833333   0.4166667  -0.0833333), wk =   0.0277778
        k(   21) = (  -0.1666667   0.5000000  -0.1666667), wk =   0.0277778
        k(   22) = (  -0.2500000   0.5833333  -0.2500000), wk =   0.0277778
        k(   23) = (   0.6666667  -0.3333333   0.6666667), wk =   0.0277778
        k(   24) = (   0.5833333  -0.2500000   0.5833333), wk =   0.0277778
        k(   25) = (   0.5000000  -0.1666667   0.5000000), wk =   0.0277778
        k(   26) = (   0.4166667  -0.0833333   0.4166667), wk =   0.0277778
        k(   27) = (   0.3333333   0.0000000   0.3333333), wk =   0.0138889
        k(   28) = (   0.0000000   0.5000000   0.0000000), wk =   0.0069444
        k(   29) = (  -0.0833333   0.5833333  -0.0833333), wk =   0.0277778
        k(   30) = (  -0.1666667   0.6666667  -0.1666667), wk =   0.0277778
        k(   31) = (   0.7500000  -0.2500000   0.7500000), wk =   0.0277778
        k(   32) = (   0.6666667  -0.1666667   0.6666667), wk =   0.0277778
        k(   33) = (   0.5833333  -0.0833333   0.5833333), wk =   0.0277778
        k(   34) = (   0.5000000   0.0000000   0.5000000), wk =   0.0138889
        k(   35) = (   0.0000000   0.6666667   0.0000000), wk =   0.0069444
        k(   36) = (  -0.0833333   0.7500000  -0.0833333), wk =   0.0277778
        k(   37) = (   0.8333333  -0.1666667   0.8333333), wk =   0.0277778
        k(   38) = (   0.7500000  -0.0833333   0.7500000), wk =   0.0277778
        k(   39) = (   0.6666667  -0.0000000   0.6666667), wk =   0.0138889
        k(   40) = (   0.0000000   0.8333333   0.0000000), wk =   0.0069444
        k(   41) = (   0.9166667  -0.0833333   0.9166667), wk =   0.0277778
        k(   42) = (   0.8333333   0.0000000   0.8333333), wk =   0.0138889
        k(   43) = (   0.0000000  -1.0000000   0.0000000), wk =   0.0034722
        k(   44) = (  -0.1666667   0.3333333   0.0000000), wk =   0.0277778
        k(   45) = (  -0.2500000   0.4166667  -0.0833333), wk =   0.0555556
        k(   46) = (  -0.3333333   0.5000000  -0.1666667), wk =   0.0555556
        k(   47) = (   0.5833333  -0.4166667   0.7500000), wk =   0.0555556
        k(   48) = (   0.5000000  -0.3333333   0.6666667), wk =   0.0277778
        k(   49) = (  -0.1666667   0.5000000   0.0000000), wk =   0.0277778
        k(   50) = (  -0.2500000   0.5833333  -0.0833333), wk =   0.0555556
        k(   51) = (   0.6666667  -0.3333333   0.8333333), wk =   0.0555556
        k(   52) = (   0.5833333  -0.2500000   0.7500000), wk =   0.0555556
        k(   53) = (   0.5000000  -0.1666667   0.6666667), wk =   0.0555556
        k(   54) = (   0.4166667  -0.0833333   0.5833333), wk =   0.0555556
        k(   55) = (   0.3333333   0.0000000   0.5000000), wk =   0.0277778
        k(   56) = (  -0.1666667   0.6666667  -0.0000000), wk =   0.0277778
        k(   57) = (   0.7500000  -0.2500000   0.9166667), wk =   0.0555556
        k(   58) = (   0.6666667  -0.1666667   0.8333333), wk =   0.0555556
        k(   59) = (   0.5833333  -0.0833333   0.7500000), wk =   0.0555556
        k(   60) = (   0.5000000   0.0000000   0.6666667), wk =   0.0277778
        k(   61) = (   0.8333333  -0.1666667   1.0000000), wk =   0.0277778
        k(   62) = (   0.7500000  -0.0833333   0.9166667), wk =   0.0555556
        k(   63) = (   0.6666667   0.0000000   0.8333333), wk =   0.0277778
        k(   64) = (  -0.1666667  -1.0000000  -0.0000000), wk =   0.0138889
        k(   65) = (   0.6666667  -0.3333333   1.0000000), wk =   0.0277778
        k(   66) = (   0.5833333  -0.2500000   0.9166667), wk =   0.0555556
        k(   67) = (   0.5000000  -0.1666667   0.8333333), wk =   0.0277778
        k(   68) = (   0.6666667  -0.1666667   1.0000000), wk =   0.0277778
        k(   69) = (   0.5833333  -0.0833333   0.9166667), wk =   0.0555556
        k(   70) = (   0.5000000   0.0000000   0.8333333), wk =   0.0277778
        k(   71) = (  -0.3333333  -1.0000000   0.0000000), wk =   0.0138889
        k(   72) = (  -0.5000000  -1.0000000   0.0000000), wk =   0.0069444

     Dense  grid:    19339 G-vectors     FFT dimensions: (  40,  40,  40)

     Estimated max dynamical RAM per process >       1.54 MB

     Estimated total dynamical RAM >      24.63 MB

     Initial potential from superposition of free atoms

     starting charge       7.9861, renormalised to       8.0000
     Starting wfcs are random

     total cpu time spent up to now is        0.2 secs

     Self-consistent Calculation

     iteration #  1     ecut=   152.00 Ry     beta= 0.70
     Davidson diagonalization with overlap
     ethr =  1.00E-02,  avg # of iterations =  8.6

     total cpu time spent up to now is        0.8 secs

     total energy              =     -22.77900172 Ry
     estimated scf accuracy    <       0.11529080 Ry

     iteration #  2     ecut=   152.00 Ry     beta= 0.70
     Davidson diagonalization with overlap
     ethr =  1.44E-03,  avg # of iterations =  1.1

     total cpu time spent up to now is        1.0 secs

     total energy              =     -22.78743280 Ry
     estimated scf accuracy    <       0.00256103 Ry

     iteration #  3     ecut=   152.00 Ry     beta= 0.70
     Davidson diagonalization with overlap
     ethr =  3.20E-05,  avg # of iterations =  3.0

     total cpu time spent up to now is        1.3 secs

     total energy              =     -22.78798219 Ry
     estimated scf accuracy    <       0.00004386 Ry

     iteration #  4     ecut=   152.00 Ry     beta= 0.70
     Davidson diagonalization with overlap
     ethr =  5.48E-07,  avg # of iterations =  3.0

     total cpu time spent up to now is        1.6 secs

     total energy              =     -22.78799080 Ry
     estimated scf accuracy    <       0.00000092 Ry

     iteration #  5     ecut=   152.00 Ry     beta= 0.70
     Davidson diagonalization with overlap
     ethr =  1.14E-08,  avg # of iterations =  2.0

     total cpu time spent up to now is        1.8 secs

     total energy              =     -22.78799103 Ry
     estimated scf accuracy    <       0.00000005 Ry

     iteration #  6     ecut=   152.00 Ry     beta= 0.70
     Davidson diagonalization with overlap
     ethr =  6.46E-10,  avg # of iterations =  1.9

     total cpu time spent up to now is        2.0 secs

     total energy              =     -22.78799106 Ry
     estimated scf accuracy    <          7.5E-09 Ry

     iteration #  7     ecut=   152.00 Ry     beta= 0.70
     Davidson diagonalization with overlap
     ethr =  9.43E-11,  avg # of iterations =  2.0

     total cpu time spent up to now is        2.2 secs

     End of self-consistent calculation

          k = 0.0000 0.0000 0.0000 (  2421 PWs)   bands (ev):

    -8.0983  13.4026  13.4026  13.4026  19.0161  19.0161  19.0161  26.8656

          k =-0.0833 0.0833-0.0833 (  2421 PWs)   bands (ev):

    -7.9057  12.1769  13.0790  13.0790  19.4398  19.4398  19.7361  27.0228

          k =-0.1667 0.1667-0.1667 (  2415 PWs)   bands (ev):

    -7.3300   9.6453  12.3759  12.3759  20.3610  20.3610  20.8434  27.4747

          k =-0.2500 0.2500-0.2500 (  2427 PWs)   bands (ev):

    -6.3795   6.8067  11.6503  11.6503  21.2215  21.2215  21.6195  28.1109

          k =-0.3333 0.3333-0.3333 (  2424 PWs)   bands (ev):

    -5.0753   4.0227  11.0741  11.0741  21.7134  21.7134  22.0653  28.7020

          k =-0.4167 0.4167-0.4167 (  2428 PWs)   bands (ev):

    -3.4912   1.5090  10.7133  10.7133  21.8763  21.8763  22.2913  29.0433

          k = 0.5000-0.5000 0.5000 (  2392 PWs)   bands (ev):

    -2.2980  -0.0003  10.5911  10.5911  21.9006  21.9006  22.3610  29.1370

          k = 0.0000 0.1667 0.0000 (  2405 PWs)   bands (ev):

    -7.8415  12.4892  12.4892  12.7916  18.8238  20.1488  20.1488  26.9762

          k =-0.0833 0.2500-0.0833 (  2411 PWs)   bands (ev):

    -7.3936  10.5073  11.6842  12.4589  19.1213  21.2234  21.2469  27.0330

          k =-0.1667 0.3333-0.1667 (  2420 PWs)   bands (ev):

    -6.5680   7.8140  10.9609  11.7931  19.9777  22.1283  22.1722  27.2143

          k =-0.2500 0.4167-0.2500 (  2417 PWs)   bands (ev):

    -5.3804   5.0381  10.4528  11.0428  20.7598  22.6508  22.6787  27.6896

          k =-0.3333 0.5000-0.3333 (  2412 PWs)   bands (ev):

    -3.8767   2.4360  10.2098  10.3980  21.2229  22.7326  22.9148  28.4454

          k = 0.5833-0.4167 0.5833 (  2412 PWs)   bands (ev):

    -2.3456   0.3904   9.9465  10.2419  21.5173  22.5350  23.0082  29.0298

          k = 0.5000-0.3333 0.5000 (  2417 PWs)   bands (ev):

    -2.7984   0.9484   9.7349  10.5363  21.8017  22.2406  22.9656  29.0555

          k = 0.4167-0.2500 0.4167 (  2414 PWs)   bands (ev):

    -4.4075   3.2757   9.7895  11.0614  21.8362  22.0415  22.7692  28.5416

          k = 0.3333-0.1667 0.3333 (  2424 PWs)   bands (ev):

    -5.8152   5.9625  10.1195  11.7593  21.1932  22.0316  22.3146  27.8788

          k = 0.2500-0.0833 0.2500 (  2424 PWs)   bands (ev):

    -6.8847   8.7427  10.7156  12.5136  20.3074  21.4489  21.5952  27.4349

          k = 0.1667-0.0000 0.1667 (  2411 PWs)   bands (ev):

    -7.5853  11.1616  11.6560  13.0754  19.5360  20.3445  20.6888  27.1795

          k = 0.0000 0.3333 0.0000 (  2405 PWs)   bands (ev):

    -7.0745  10.8223  10.8223  11.1721  18.3674  22.4560  22.4560  26.2003

          k =-0.0833 0.4167-0.0833 (  2416 PWs)   bands (ev):

    -6.3770   8.7396  10.0684  10.7350  18.6312  23.5562  23.5975  25.4050

          k =-0.1667 0.5000-0.1667 (  2417 PWs)   bands (ev):

    -5.3135   6.1757   9.5546   9.9758  19.4609  24.2423  24.2932  25.2565

          k =-0.2500 0.5833-0.2500 (  2411 PWs)   bands (ev):

    -3.9163   3.6189   9.1288   9.3348  20.1297  24.4311  24.5865  26.1513

          k = 0.6667-0.3333 0.6667 (  2408 PWs)   bands (ev):

    -2.3270   1.3710   8.4090   9.4220  20.5556  24.1624  24.7119  27.7372

          k = 0.5833-0.2500 0.5833 (  2411 PWs)   bands (ev):

    -1.8929   0.8506   7.9208   9.8014  20.9948  23.6713  24.6918  28.8793

          k = 0.5000-0.1667 0.5000 (  2407 PWs)   bands (ev):

    -3.3990   2.8533   7.7209  10.4306  21.5215  23.0024  24.5115  28.3878

          k = 0.4167-0.0833 0.4167 (  2412 PWs)   bands (ev):

    -4.8863   5.3622   7.8527  11.2253  21.9844  22.1004  23.9620  27.4279

          k = 0.3333 0.0000 0.3333 (  2411 PWs)   bands (ev):

    -6.0644   7.7066   8.5837  12.0209  21.0575  22.0804  22.8029  27.1930

          k = 0.0000 0.5000 0.0000 (  2429 PWs)   bands (ev):

    -5.8091   8.8984   9.2666   9.2666  17.8907  23.7345  25.0213  25.0213

          k =-0.0833 0.5833-0.0833 (  2410 PWs)   bands (ev):

    -4.8740   6.9766   8.6541   8.7034  18.2208  22.8308  26.0423  26.0440

          k =-0.1667 0.6667-0.1667 (  2403 PWs)   bands (ev):

    -3.5965   4.7692   7.6465   8.4438  19.0106  23.1710  26.4380  26.5769

          k = 0.7500-0.2500 0.7500 (  2408 PWs)   bands (ev):

    -2.0602   2.6061   6.6531   8.5084  19.5394  24.8976  26.2479  26.7921

          k = 0.6667-0.1667 0.6667 (  2403 PWs)   bands (ev):

    -0.9567   1.3119   5.9008   8.8876  20.0150  25.6410  26.7270  27.3490

          k = 0.5833-0.0833 0.5833 (  2399 PWs)   bands (ev):

    -2.0991   2.7423   5.4934   9.5409  20.6482  24.6969  26.6609  28.3224

          k = 0.5000 0.0000 0.5000 (  2395 PWs)   bands (ev):

    -3.6198   4.7011   5.7783  10.3795  21.3907  23.4414  25.8132  27.3896

          k = 0.0000 0.6667 0.0000 (  2397 PWs)   bands (ev):

    -4.0689   6.2331   8.0730   8.0730  17.6089  21.2197  27.4781  27.4781

          k =-0.0833 0.7500-0.0833 (  2409 PWs)   bands (ev):

    -2.9183   4.7233   7.1682   7.7433  18.0642  20.7099  28.2529  28.3169

          k = 0.8333-0.1667 0.8333 (  2404 PWs)   bands (ev):

    -1.4787   3.1857   5.7290   7.7445  18.7292  21.8228  28.2609  28.6548

          k = 0.7500-0.0833 0.7500 (  2403 PWs)   bands (ev):

    -0.0888   1.9005   4.4630   8.0745  19.1884  24.2828  27.5926  28.6974

          k = 0.6667-0.0000 0.6667 (  2390 PWs)   bands (ev):

    -0.6521   2.4635   4.0007   8.7000  19.8141  26.3534  26.9907  28.4534

          k = 0.0000 0.8333 0.0000 (  2418 PWs)   bands (ev):

    -1.8964   3.4046   7.3320   7.3320  17.6787  19.3709  29.4329  29.4329

          k = 0.9167-0.0833 0.9167 (  2408 PWs)   bands (ev):

    -0.5722   2.0516   6.5299   7.2510  18.2368  19.3705  29.7084  29.8476

          k = 0.8333 0.0000 0.8333 (  2404 PWs)   bands (ev):

     0.7352   1.0949   5.1161   7.5066  18.6388  21.3642  29.0496  29.6518

          k = 0.0000-1.0000 0.0000 (  2450 PWs)   bands (ev):

     0.6350   0.6350   7.0814   7.0814  18.2258  18.2258  30.2323  30.2323

          k =-0.1667 0.3333 0.0000 (  2424 PWs)   bands (ev):

    -6.8208   9.4002  10.0716  12.0580  19.3605  22.2201  22.4068  26.6667

          k =-0.2500 0.4167-0.0833 (  2418 PWs)   bands (ev):

    -5.8759   7.0171   9.2167  11.3941  20.2268  22.7256  23.5196  26.4970

          k =-0.3333 0.5000-0.1667 (  2417 PWs)   bands (ev):

    -4.5814   4.3741   8.8234  10.6160  21.0524  22.7589  24.1978  27.0876

          k = 0.5833-0.4167 0.7500 (  2410 PWs)   bands (ev):

    -3.0146   1.9348   8.6917   9.9810  21.5033  22.5762  24.4993  28.2355

          k = 0.5000-0.3333 0.6667 (  2412 PWs)   bands (ev):

    -1.8456   0.4663   8.6922   9.7156  21.6395  22.4693  24.5842  28.9031

          k =-0.1667 0.5000 0.0000 (  2418 PWs)   bands (ev):

    -5.5605   7.6563   8.5687  10.1631  18.9304  24.2398  24.4716  25.0113

          k =-0.2500 0.5833-0.0833 (  2410 PWs)   bands (ev):

    -4.3890   5.5140   7.8098   9.4272  19.8483  24.0749  24.7192  26.0952

          k = 0.6667-0.3333 0.8333 (  2412 PWs)   bands (ev):

    -2.9132   3.1624   7.4157   8.8086  20.5483  24.1069  25.5930  26.7277

          k = 0.5833-0.2500 0.7500 (  2411 PWs)   bands (ev):

    -1.4328   1.2577   7.0124   8.7103  20.9857  23.8212  26.4894  27.7192

          k = 0.5000-0.1667 0.6667 (  2410 PWs)   bands (ev):

    -1.8777   1.8095   6.6759   9.1198  21.4715  23.3187  26.3833  28.2623

          k = 0.4167-0.0833 0.5833 (  2409 PWs)   bands (ev):

    -3.4414   3.9894   6.6005   9.8447  22.0305  22.5397  25.9794  26.9782

          k = 0.3333 0.0000 0.5000 (  2403 PWs)   bands (ev):

    -4.8221   6.1291   7.1504  10.6960  21.2700  22.6555  25.0671  26.1469

          k =-0.1667 0.6667-0.0000 (  2409 PWs)   bands (ev):

    -3.8308   5.7829   7.4198   8.2126  18.6608  22.0542  26.4784  27.5064

          k = 0.7500-0.2500 0.9167 (  2404 PWs)   bands (ev):

    -2.4685   4.0955   6.4077   7.6847  19.5962  22.5383  26.4517  28.3073

          k = 0.6667-0.1667 0.8333 (  2403 PWs)   bands (ev):

    -0.9413   2.3223   5.4349   7.7124  20.1447  24.4915  26.1471  28.3509

          k = 0.5833-0.0833 0.7500 (  2400 PWs)   bands (ev):

    -0.5896   1.9992   4.7563   8.1740  20.6657  25.3247  27.0751  27.7815

          k = 0.5000 0.0000 0.6667 (  2404 PWs)   bands (ev):

    -2.0187   3.5050   4.7913   8.9366  21.3601  24.0949  26.9971  27.7868

          k = 0.8333-0.1667 1.0000 (  2403 PWs)   bands (ev):

    -1.6810   3.4093   6.7310   6.9992  18.7189  20.3081  28.4804  29.3523

          k = 0.7500-0.0833 0.9167 (  2403 PWs)   bands (ev):

    -0.2126   2.1726   5.3606   6.9687  19.5229  21.5741  28.2507  29.2836

          k = 0.6667 0.0000 0.8333 (  2393 PWs)   bands (ev):

     0.5425   1.7061   4.1710   7.4150  19.9935  24.2486  27.3381  28.4761

          k =-0.1667-1.0000-0.0000 (  2406 PWs)   bands (ev):

     0.7952   0.7952   6.5644   6.5644  19.2295  19.2295  29.7154  29.7154

          k = 0.6667-0.3333 1.0000 (  2409 PWs)   bands (ev):

    -3.1299   4.7127   6.0732   8.5847  21.1510  23.4472  24.9078  27.6028

          k = 0.5833-0.2500 0.9167 (  2415 PWs)   bands (ev):

    -1.6223   2.9587   5.5938   7.7913  22.1204  23.3868  25.6771  28.2288

          k = 0.5000-0.1667 0.8333 (  2412 PWs)   bands (ev):

    -0.5186   1.6716   5.5692   7.4575  22.2423  23.5047  27.2055  27.4498

          k = 0.6667-0.1667 1.0000 (  2421 PWs)   bands (ev):

    -1.0660   3.2004   5.4948   6.5918  21.2398  22.5481  26.1664  28.8987

          k = 0.5833-0.0833 0.9167 (  2406 PWs)   bands (ev):

     0.3107   2.0954   4.7107   6.2976  22.0645  24.2661  25.8712  27.6341

          k = 0.5000 0.0000 0.8333 (  2409 PWs)   bands (ev):

    -0.1895   2.5211   4.4222   6.8354  22.5241  24.3196  26.1127  27.2752

          k =-0.3333-1.0000 0.0000 (  2402 PWs)   bands (ev):

     1.1839   1.1839   5.5686   5.5686  21.6831  21.6831  27.9590  27.9590

          k =-0.5000-1.0000 0.0000 (  2400 PWs)   bands (ev):

     1.4342   1.4342   5.0531   5.0531  24.0717  24.0717  25.7887  25.7888

     the Fermi energy is    15.9208 ev

!    total energy              =     -22.78799106 Ry
     estimated scf accuracy    <          2.4E-11 Ry
     smearing contrib. (-TS)   =      -0.00000000 Ry
     internal energy E=F+TS    =     -22.78799106 Ry

     The total energy is F=E-TS. E is the sum of the following terms:
     one-electron contribution =       8.02086549 Ry
     hartree contribution      =       1.93451186 Ry
     xc contribution           =      -7.12562037 Ry
     ewald contribution        =     -25.61774804 Ry

     convergence has been achieved in   7 iterations

     Writing all to output data dir out/mp-66.save/
 
     init_run     :      0.13s CPU      0.19s WALL (       1 calls)
     electrons    :      1.86s CPU      2.01s WALL (       1 calls)

     Called by init_run:
     wfcinit      :      0.11s CPU      0.15s WALL (       1 calls)
     potinit      :      0.00s CPU      0.01s WALL (       1 calls)
     hinit0       :      0.01s CPU      0.02s WALL (       1 calls)

     Called by electrons:
     c_bands      :      1.62s CPU      1.75s WALL (       7 calls)
     sum_band     :      0.22s CPU      0.24s WALL (       7 calls)
     v_of_rho     :      0.01s CPU      0.02s WALL (       8 calls)
     mix_rho      :      0.00s CPU      0.00s WALL (       7 calls)

     Called by c_bands:
     init_us_2    :      0.02s CPU      0.02s WALL (    1080 calls)
     init_us_2:cp :      0.01s CPU      0.02s WALL (    1080 calls)
     cegterg      :      1.49s CPU      1.56s WALL (     504 calls)

     Called by *egterg:
     cdiaghg      :      0.12s CPU      0.13s WALL (    2058 calls)
     h_psi        :      1.36s CPU      1.46s WALL (    2130 calls)
     g_psi        :      0.00s CPU      0.00s WALL (    1554 calls)

     Called by h_psi:
     h_psi:calbec :      0.04s CPU      0.04s WALL (    2130 calls)
     vloc_psi     :      1.31s CPU      1.40s WALL (    2130 calls)
     add_vuspsi   :      0.01s CPU      0.01s WALL (    2130 calls)

     General routines
     calbec       :      0.03s CPU      0.04s WALL (    2130 calls)
     fft          :      0.01s CPU      0.02s WALL (      79 calls)
     ffts         :      0.00s CPU      0.00s WALL (       7 calls)
     fftw         :      1.43s CPU      1.52s WALL (   30470 calls)
     davcio       :      0.02s CPU      0.07s WALL (    1708 calls)
 
     Parallel routines
 
     PWSCF        :      2.07s CPU      2.51s WALL

 
   This run was terminated on:  13:39:48   5Apr2024            

=------------------------------------------------------------------------------=
   JOB DONE.
=------------------------------------------------------------------------------=
