
     Program PWSCF v.7.1 starts on  5Apr2024 at 10:34:52 

     This program is part of the open-source Quantum ESPRESSO suite
     for quantum simulation of materials; please cite
         "P. Giannozzi et al., J. Phys.:Condens. Matter 21 395502 (2009);
         "P. Giannozzi et al., J. Phys.:Condens. Matter 29 465901 (2017);
         "P. Giannozzi et al., J. Chem. Phys. 152 154105 (2020);
          URL http://www.quantum-espresso.org", 
     in publications or presentations arising from this work. More details at
     http://www.quantum-espresso.org/quote

     Parallel version (MPI), running on     8 processors

     MPI processes distributed on     1 nodes
     248074 MiB available memory on the printing compute node when the environment starts
 
     Reading input from pw_MoSe2_nscf_k54_E48.in
Warning: card &IONS ignored
Warning: card / ignored
Warning: card &CELL ignored
Warning: card / ignored

     Current dimensions of program PWSCF are:
     Max number of different atomic species (ntypx) = 10
     Max number of k-points (npk) =  40000
     Max angular momentum in pseudopotentials (lmaxx) =  4

     Atomic positions and unit cell read from directory:
     out/MoSe2.save/
     Atomic positions from file used, from input discarded
 
 
     R & G space division:  proc/nbgrp/npool/nimage =       8
     Subspace diagonalization in iterative solution of the eigenvalue problem:
     one sub-group per band group will be used
     scalapack distributed-memory algorithm (size of sub-group:  2*  2 procs)

 
     Parallelization info
     --------------------
     sticks:   dense  smooth     PW     G-vecs:    dense   smooth      PW
     Min          63      63     19                 8393     8393    1387
     Max          64      64     27                 8422     8422    1393
     Sum         511     511    163                67305    67305   11117
 
     Using Slab Decomposition
 


     bravais-lattice index     =            4
     lattice parameter (alat)  =       6.2659  a.u.
     unit-cell volume          =    1500.8938 (a.u.)^3
     number of atoms/cell      =            3
     number of atomic types    =            2
     number of electrons       =        26.00
     number of Kohn-Sham states=         1200
     kinetic-energy cutoff     =      48.0000  Ry
     charge density cutoff     =     192.0000  Ry
     Exchange-correlation= PBE
                           (   1   4   3   4   0   0   0)

     celldm(1)=   6.265942  celldm(2)=   0.000000  celldm(3)=   7.044663
     celldm(4)=   0.000000  celldm(5)=   0.000000  celldm(6)=   0.000000

     crystal axes: (cart. coord. in units of alat)
               a(1) = (   1.000000   0.000000   0.000000 )  
               a(2) = (  -0.500000   0.866025   0.000000 )  
               a(3) = (   0.000000   0.000000   7.044663 )  

     reciprocal axes: (cart. coord. in units 2 pi/alat)
               b(1) = (  1.000000  0.577350  0.000000 )  
               b(2) = (  0.000000  1.154701  0.000000 )  
               b(3) = (  0.000000  0.000000  0.141951 )  


     PseudoPot. # 1 for Mo read from file:
     /usr/scratch4/magr4985/FGWC/FGWC/pseudo/SG15/Mo.upf
     MD5 check sum: 2665c9f4159700498d9a5f7573bd8e9f
     Pseudo is Norm-conserving, Zval = 14.0
     Generated using ONCVPSP code by D. R. Hamann
     Using radial grid of  602 points,  6 beta functions with: 
                l(1) =   0
                l(2) =   0
                l(3) =   1
                l(4) =   1
                l(5) =   2
                l(6) =   2

     PseudoPot. # 2 for Se read from file:
     /usr/scratch4/magr4985/FGWC/FGWC/pseudo/SG15/Se.upf
     MD5 check sum: e78e48a4f5d8ce1f8dc76ec1271f249c
     Pseudo is Norm-conserving, Zval =  6.0
     Generated using ONCVPSP code by D. R. Hamann
     Using radial grid of  602 points,  6 beta functions with: 
                l(1) =   0
                l(2) =   0
                l(3) =   1
                l(4) =   1
                l(5) =   2
                l(6) =   2

     atomic species   valence    mass     pseudopotential
        Mo            14.00    95.94000     Mo( 1.00)
        Se             6.00    78.96000     Se( 1.00)

     12 Sym. Ops. (no inversion) found



   Cartesian axes

     site n.     atom                  positions (alat units)
         1           Mo  tau(   1) = (   0.5000000   0.2886752   3.5223315  )
         2           Se  tau(   2) = (   0.0000000   0.0000000   4.0263545  )
         3           Se  tau(   3) = (   0.0000000   0.0000000   3.0183086  )

     number of k points=     7  Gaussian smearing, width (Ry)=  0.0005
                       cart. coord. in units 2pi/alat
        k(    1) = (   0.0000000   0.0000000   0.0000000), wk =   0.0555556
        k(    2) = (   0.0000000   0.1924501   0.0000000), wk =   0.3333333
        k(    3) = (   0.0000000   0.3849002   0.0000000), wk =   0.3333333
        k(    4) = (   0.0000000  -0.5773503   0.0000000), wk =   0.1666667
        k(    5) = (   0.1666667   0.2886751   0.0000000), wk =   0.3333333
        k(    6) = (   0.1666667   0.4811252   0.0000000), wk =   0.6666667
        k(    7) = (   0.3333333   0.5773503   0.0000000), wk =   0.1111111

     Dense  grid:    67305 G-vectors     FFT dimensions: (  27,  27, 200)

     Estimated max dynamical RAM per process >     231.56 MB

     Estimated total dynamical RAM >       1.81 GB

     The potential is recalculated from file :
     out/MoSe2.save/charge-density

     Starting wfcs are random

     Band Structure Calculation
     ParO style diagonalization

     ethr =  5.00E-06,  avg # of iterations =  9.6

     total cpu time spent up to now is      416.7 secs

     End of band structure calculation

          k = 0.0000 0.0000 0.0000 (  8293 PWs)   bands (ev):

   -61.9309 -36.0711 -35.9101 -35.9101 -15.2527 -14.2645  -6.4583  -3.1998
    -3.1998  -2.9125  -2.2200  -2.2200  -1.3476   1.7604   1.7604   1.9874
     1.9874   3.5619   3.8853   4.4093   4.9999   5.2384   6.1359   7.1923
     7.4665   8.2372   9.8311   9.8311  10.0115  10.5492  11.4689  11.8631
    11.8631  13.2108  13.6442  13.6929  15.5135  15.5135  15.6098  15.6098
    15.7235  16.3395  17.6269  17.8515  18.8919  18.8919  20.9229  20.9459
    20.9459  21.1949  21.6108  21.6108  21.7091  22.0071  22.0071  22.1221
    22.1640  22.2417  22.3029  22.3029  22.6470  22.6498  22.6498  22.7374
    22.9145  22.9145  22.9504  22.9504  23.0843  23.3840  23.3840  23.5756
    23.6297  23.7976  23.7976  24.0882  24.4207  24.4207  24.4414  24.4414
    24.6232  25.1231  25.2715  25.2715  25.6205  25.6205  25.6566  26.1786
    26.4614  26.4614  26.7015  26.7015  26.7381  26.8937  27.3058  27.8325
    27.8325  27.8706  28.0684  28.0684  28.5032  28.8950  28.9042  28.9042
    29.6200  29.6200  29.9766  30.6165  31.0187  31.0187  31.1137  31.1137
    31.8881  31.8881  31.9214  32.1534  32.5157  32.7521  33.0725  33.0725
    33.6498  34.2342  34.3025  34.7181  34.7181  34.7659  34.7659  35.4763
    35.4764  35.7780  36.1032  36.9129  36.9129  37.8367  38.2386  38.4968
    38.7288  38.7613  38.7613  38.8418  38.8418  39.3915  39.4492  39.4492
    40.3026  40.3026  40.5307  40.6936  41.6678  41.6678  41.8092  41.8092
    42.2277  42.5218  42.5871  42.5871  43.1295  43.1578  43.1578  43.5002
    44.2190  44.2190  44.2320  44.2320  44.7356  45.0708  45.5360  45.5360
    46.0169  46.6645  47.0567  47.0567  47.2350  48.4050  48.4050  48.6150
    48.9273  48.9274  49.1093  50.2294  50.2294  50.7559  50.9740  51.0782
    51.0782  51.0956  51.0956  51.7835  52.1227  52.2688  52.2688  52.7734
    52.7734  52.9652  52.9907  53.2172  53.3612  54.8215  54.8215  54.8613
    54.8804  54.8804  56.0654  56.0654  56.4740  56.5509  56.5628  56.5628
    56.8397  57.0080  57.3934  57.3934  57.6812  57.7657  57.7657  58.1885
    58.1885  58.2267  58.2267  58.3719  58.5482  58.7707  58.8710  59.0001
    59.0016  59.0016  59.0392  59.0392  59.0713  59.0713  59.2051  59.2051
    59.4826  59.4897  59.4897  59.6835  59.6835  59.8633  59.8781  59.8909
    60.1215  60.2765  60.2765  60.3486  60.3486  60.4418  60.8149  60.8149
    60.9553  60.9553  61.0935  61.0935  61.1130  61.1904  61.6839  61.7282
    61.7594  61.7893  62.1765  62.1765  62.3654  62.3787  62.3787  62.5115
    62.5115  62.9050  62.9050  63.1672  63.2917  63.2917  63.7479  63.7479
    64.3655  64.3815  64.4843  64.4843  64.5092  64.5092  64.6474  64.6807
    64.8795  64.9894  64.9894  65.0970  65.0986  65.0986  65.5013  65.5013
    65.7190  65.7190  66.4830  66.7140  66.7140  67.1539  67.1539  67.5657
    67.5657  67.5670  67.6439  67.6498  68.0600  68.4680  68.6731  68.6731
    68.6818  68.9310  68.9310  69.0203  69.4494  69.4494  69.8953  70.2641
    70.2641  70.2876  70.2876  70.6116  71.4615  71.4615  71.5016  71.5143
    71.5143  71.5253  71.5761  71.7851  72.1239  72.1239  72.3829  72.3829
    72.3976  72.6438  72.6438  73.0375  73.1892  73.1892  73.5139  73.9617
    73.9617  74.1866  74.2042  74.2042  75.2453  75.3366  75.5674  75.5674
    75.6442  75.6442  75.9376  76.0211  76.0211  76.1084  76.4506  76.5964
    76.7993  76.7993  76.8385  76.9954  76.9954  77.0761  77.0869  77.0869
    77.1940  77.1940  77.2734  77.3703  77.4133  77.5006  77.5006  77.6148
    77.6798  77.6798  77.6959  77.6959  77.7300  78.0482  78.0482  78.1593
    78.1852  78.3049  78.3049  78.3530  78.3530  78.5049  78.5286  78.5286
    78.7909  78.7909  78.8499  79.1811  79.1811  79.7097  79.7097  79.8340
    79.9085  80.0524  80.0524  80.1340  80.1340  80.1827  80.4554  80.4602
    80.7808  80.7902  80.7902  80.8625  80.8625  80.9213  81.0744  81.0744
    81.1577  81.1577  81.2309  81.5848  81.8177  81.8177  82.0610  82.3862
    82.3862  82.3916  82.3916  82.5253  82.6391  82.6391  82.7296  82.8832
    83.2337  83.6198  83.6198  83.7108  83.7108  83.9620  84.4413  84.6033
    84.6033  85.0816  85.0816  85.6303  85.7410  85.9073  85.9073  85.9268
    86.0639  86.0639  86.3744  86.4000  86.5356  86.5356  86.7206  86.7206
    86.7671  86.7671  86.9075  86.9970  87.2439  87.2439  87.3203  87.7443
    87.7443  87.9574  87.9574  87.9953  88.0460  88.0460  88.2639  88.7293
    88.8223  88.8223  89.3614  89.4584  89.4584  89.4751  89.4751  89.6023
    89.7233  90.1068  90.1068  90.2574  90.3355  91.0383  91.0383  91.5621
    91.6996  91.8109  91.8109  92.1510  92.1510  92.4250  92.7436  92.7436
    93.1125  93.3539  93.3539  93.6748  93.6748  93.7694  93.8938  94.1686
    94.1686  94.1990  94.1990  94.3661  94.3927  94.5657  94.7770  94.8092
    94.8092  95.2113  95.6467  95.6467  95.8402  95.8402  96.1433  96.1433
    96.3195  96.8614  96.8629  96.8629  97.5337  97.5337  97.7527  97.7563
    98.0117  98.0117  98.6434  98.7231  98.7231  98.7494  98.9439  99.0295
    99.0295  99.5398  99.5398  99.7146  99.7146  99.7385  99.7533  99.8602
    99.9627  99.9627 100.0739 100.0739 100.0780 100.5822 100.7861 101.0410
   101.0410 102.9849 103.2428 103.2945 103.2945 103.6971 103.6971 103.7578
   103.9969 104.0885 104.0885 104.2866 104.3310 105.0198 105.0198 105.0963
   105.1466 105.3383 105.3383 105.6948 105.6948 105.9747 106.3815 106.3815
   106.3818 106.3818 106.5979 106.5979 106.6757 106.6757 107.0376 107.0724
   107.0724 107.3420 107.3548 107.3548 107.4497 107.4620 107.4620 107.5033
   107.6175 107.6175 107.7912 108.6377 108.6922 108.7061 109.0730 109.0730
   109.7838 109.7838 109.8466 109.8466 109.9797 110.2355 111.2429 111.5008
   111.5008 111.5713 111.5713 111.8068 112.0537 112.0537 112.0642 112.5813
   112.6813 112.7805 112.7805 113.4721 113.4721 113.6049 113.6049 113.8591
   113.8591 113.9791 114.3384 114.3384 114.3400 114.5215 115.1347 115.5357
   115.5357 115.8786 115.8786 115.9373 116.0795 116.1689 116.1689 116.2614
   116.2614 116.5313 116.5313 116.6688 116.8211 116.8211 116.9695 117.0902
   117.2642 117.2642 117.2787 117.2787 117.3239 117.3687 117.6124 117.8665
   117.8665 117.9691 118.0184 118.1101 118.1101 118.5622 118.7758 118.7758
   119.0961 119.0961 119.3423 119.5377 119.7675 119.7675 119.9483 120.5858
   121.3944 121.5597 121.5597 121.6209 121.6209 121.9429 121.9583 121.9583
   122.4699 122.4699 122.7745 122.8788 122.8788 123.0891 123.1907 123.1907
   123.4018 123.4018 123.6550 123.9444 123.9807 124.6477 124.7359 124.7359
   124.8293 124.8826 124.8826 124.9526 125.4446 125.4446 125.7256 125.8031
   125.8031 125.8693 125.9800 125.9800 126.4195 126.4195 126.4201 126.7626
   126.7626 126.9816 127.2278 127.2903 127.2903 127.3088 127.3088 127.7841
   127.9247 127.9247 128.0057 128.1087 128.1087 128.5416 128.5416 128.7633
   129.1060 129.9906 129.9906 130.0228 130.3183 130.3492 130.4970 130.4970
   130.5244 130.5895 130.5895 130.7524 130.8368 130.9937 130.9937 131.0557
   131.0557 131.2582 131.2582 131.3254 131.3254 131.5965 131.5965 131.6473
   131.7175 131.7357 131.7357 131.7638 131.8194 131.8194 131.8417 131.8739
   131.8739 131.9791 131.9930 132.0020 132.0033 132.0033 132.0305 132.0959
   132.0959 132.1631 132.1631 132.3058 132.3097 132.3097 132.3794 132.4450
   132.5063 132.5063 132.5132 132.6097 132.6097 132.7318 132.7318 132.7939
   132.8088 132.8094 132.8094 132.8259 132.9090 132.9090 132.9856 132.9856
   133.0272 133.2278 133.2278 133.2571 133.2803 133.3115 133.3115 133.5751
   133.5751 133.6442 133.6537 133.7151 133.7151 133.8682 134.1571 134.1571
   134.1990 134.1990 134.2866 134.3549 134.3549 134.3928 134.3992 134.4414
   134.5093 134.5093 134.6992 134.8227 134.8227 134.8699 134.9110 134.9110
   135.0127 135.0127 135.0700 135.0833 135.1545 135.1545 135.3309 135.3309
   135.5435 135.8649 136.1938 136.4606 136.4606 136.5968 136.5968 136.7530
   136.7530 136.8107 136.8453 136.8570 136.8794 136.8794 136.8861 137.2642
   137.4020 137.4020 137.4602 137.4602 137.5751 137.5751 137.5822 137.5822
   137.7022 137.7135 137.7507 137.7507 138.0344 138.0344 138.0983 138.2367
   138.2367 138.3150 138.8047 138.8047 138.8634 138.8634 139.1200 139.1200
   139.1444 139.4344 139.7022 139.7022 139.7771 139.7946 139.8223 139.8748
   139.8748 140.1970 140.2795 140.2795 140.2898 140.2898 140.3633 140.5617
   140.5617 140.7840 140.7840 140.8120 140.8120 140.9677 140.9880 140.9953
   140.9953 141.0335 141.3316 141.4174 141.4174 141.4858 141.4858 141.8245
   142.2794 142.2884 142.2985 142.2985 142.3998 142.4387 142.4387 142.4734
   142.5595 142.5595 142.9142 143.0127 143.0127 143.0500 143.1008 143.1008
   143.2471 143.3819 143.5868 143.5868 143.9202 144.0290 144.0290 144.0838
   144.0838 144.1530 144.1638 144.2960 144.4903 144.4903 144.6839 144.6839
   144.9077 144.9077 144.9181 144.9366 144.9366 145.0317 145.0395 145.1612
   145.1612 145.6528 146.1976 146.1976 146.3682 146.4770 146.6953 146.6953
   146.9741 147.4022 147.4022 147.4902 147.4902 147.5813 147.7297 147.9743
   148.0944 148.1411 148.3921 148.3921 148.5493 148.5493 148.6063 148.6549
   148.6549 148.7688 148.7688 148.9178 148.9178 149.1153 149.1153 149.2458
   149.2458 149.5116 149.5231 149.5317 149.5366 149.6196 149.6196 149.8245
   149.8245 149.9306 150.0257 150.0257 150.3642 150.3642 150.7438 150.7438
   150.7494 150.9385 151.0847 151.0847 151.0922 151.0922 151.1167 151.1167
   151.2776 151.5690 151.5712 151.8265 151.8265 151.9261 151.9261 151.9652
   151.9891 152.1554 152.1554 152.3134 152.3831 152.6062 152.7525 152.7525
   152.7849 152.7849 152.9719 153.1646 153.1646 153.1709 153.1709 153.5415
   153.7077 153.7077 153.9709 153.9831 153.9831 154.0155 154.5222 154.5222
   154.5574 154.5574 154.6881 154.7321 154.8631 154.8631 155.0244 155.2209
   155.2209 155.2773 155.5315 156.0869 156.0869 156.1250 156.3728 156.8770
   156.8770 157.2598 157.2598 157.4036 157.4435 157.6999 157.6999 158.4097
   158.4097 158.5862 158.6105 158.6920 158.9330 159.0850 159.0850 159.1615
   159.1615 159.4130 159.6498 159.6498 160.0821 160.0821 160.2587 160.2587
   160.2934 160.3362 160.3953 160.5073 160.5073 160.7093 160.7747 160.7747
   161.0153 161.0153 161.0184 161.2609 161.4827 161.4827 161.5069 161.5069
   161.6136 161.8049 161.8049 162.0002 162.0662 162.0662 162.2486 162.2486
   162.3756 162.4099 162.6124 162.6124 162.7013 162.7013 162.8506 162.8506
   163.0680 163.0714 163.0923 163.0923 163.5403 163.6360 163.6360 163.8231
   163.9747 164.2361 164.2361 164.4843 164.4843 164.5863 164.9224 165.2425
   165.2425 165.4744 165.5335 165.5371 165.5371 165.5764 165.7618 165.7618
   166.1793 166.1793 166.3086 166.3086 166.5941 166.6495 166.6866 166.7652
   166.7652 166.8249 166.9828 166.9828 167.2208 167.2919 167.2919 167.8790
   167.8790 167.8882 168.0187 168.0187 168.1944 168.2236 168.3637 168.3637
   168.3905 168.4400 168.4400 168.5402 168.6151 168.6151 168.7080 168.8557
   168.8557 168.9177 168.9177 168.9534 169.0009 169.1713 169.2223 169.2223
   169.2683 169.2683 169.3621 169.3621 169.4900 169.4918 169.4918 169.7046
   169.7330 170.0239 170.3449 170.4188 170.4188 170.6378 170.6378 170.6663
   170.6663 170.7004 170.8130 170.8130 170.8536 171.0665 171.1613 171.1613
   171.1822 171.2408 171.5318 171.5318 171.5838 171.5838 171.7298 171.7628
   171.7628 171.9338 171.9338 172.0090 172.2258 172.6489 172.8334 172.8334

          k = 0.0000 0.1925 0.0000 (  8388 PWs)   bands (ev):

   -61.9255 -36.0584 -35.9714 -35.9242 -14.8961 -14.0685  -6.0358  -4.0464
    -3.7499  -2.8432  -2.7405  -2.0974  -1.5364   0.9718   1.2229   1.5102
     2.2197   4.2013   4.3986   4.9890   5.7389   6.1083   6.8494   7.7129
     8.3598   8.6068   8.9128  10.0930  10.5076  10.8963  11.1040  11.5270
    12.3394  12.5150  13.7737  13.8946  14.0744  14.9546  15.9090  16.3437
    16.5512  17.0119  17.1976  17.2940  17.6409  18.0732  18.3168  18.6152
    18.6776  19.1634  19.3891  19.5635  19.8475  19.9992  20.1232  20.3283
    20.6076  20.8218  20.8517  20.9230  20.9312  21.4084  21.7464  21.9638
    22.3531  22.4521  22.5487  22.9257  23.2061  23.4232  24.0284  24.1533
    24.2168  24.7556  25.2745  25.4693  25.5312  25.7846  25.8845  25.9214
    26.1612  26.3395  26.5141  26.5510  26.6120  27.1466  27.2707  27.4282
    27.5530  27.6231  27.7153  27.8254  27.9919  28.6843  28.7290  28.7975
    28.8012  29.2681  29.4439  29.6320  29.7180  29.7911  30.1609  30.2343
    30.6242  30.6253  31.0355  31.1729  31.4832  31.6745  31.9009  32.0295
    32.2218  32.6733  32.7447  32.8566  33.1275  33.2976  33.5384  33.5988
    33.7393  33.9422  34.3228  34.3677  34.9091  35.0423  35.1070  35.6528
    35.8331  36.1088  36.7452  36.7608  37.4259  37.5715  37.8001  37.8982
    37.9471  38.6867  38.8843  38.9191  39.0781  39.0844  39.6293  39.7349
    39.7890  40.6556  41.1598  41.4048  41.4956  41.5474  42.0182  42.2959
    42.3435  42.4803  42.6328  43.1681  43.6278  43.6502  43.6848  43.8488
    44.7085  44.9064  45.0480  45.4556  45.5137  45.6670  45.9316  46.2560
    46.5370  47.1245  47.1292  47.3039  47.6175  47.7181  48.2166  48.2789
    48.7242  48.9073  49.2770  49.4739  49.5985  49.7542  49.9378  50.0616
    50.0919  50.4861  50.5693  50.5955  50.6046  50.7988  50.9363  51.2261
    51.2545  51.5096  51.7110  51.9433  52.0693  52.3145  52.3740  52.3968
    52.4883  52.8525  53.1014  53.3919  53.4623  53.4795  53.5774  54.0842
    54.2783  54.3773  54.4910  54.6985  54.7026  54.9147  55.3526  55.5452
    55.7068  55.8596  56.1416  56.3576  56.6493  56.7885  57.0037  57.0378
    57.4294  57.4485  58.2389  58.5587  58.6390  58.8266  58.9200  59.0384
    59.2587  59.2784  59.2953  59.4083  59.5886  59.6564  59.6637  59.6778
    59.9931  60.0700  60.1432  60.3848  60.4365  60.6983  60.6993  61.0198
    61.1323  61.1433  61.2650  61.4499  61.7336  61.9404  62.0610  62.1473
    62.4302  62.4850  62.6931  62.7123  63.0437  63.0606  63.0691  63.4386
    63.4501  63.5786  63.9027  64.3557  64.6478  64.6705  64.7474  65.1593
    65.2175  65.3792  65.4401  65.5433  65.6371  65.6804  65.9709  66.1167
    66.2832  66.3883  66.4925  66.6595  67.0877  67.0902  67.1350  67.3295
    67.5165  67.6253  67.6269  67.8014  67.8993  68.0595  68.3813  68.3857
    68.5179  68.5592  68.5668  68.5868  68.7272  68.7383  68.8680  68.9439
    69.0350  69.1476  69.2826  69.3684  69.6778  69.6976  69.7898  69.8746
    70.1494  70.1735  70.2500  70.3153  70.3753  70.6025  70.8264  71.1282
    71.1681  71.2642  71.4678  71.5208  71.5251  71.6114  71.7519  71.7696
    71.8486  72.0416  72.0549  72.2782  72.2952  72.3211  72.6592  72.7560
    72.8783  72.9761  73.0025  73.0438  73.1420  73.2292  73.5022  73.5627
    73.8842  73.9975  74.0455  74.1461  74.2802  74.4536  74.4732  74.5977
    74.6585  74.7682  74.8573  75.1796  75.3768  75.4133  75.4732  75.7630
    75.9743  76.0242  76.4660  76.6948  76.8075  76.8282  76.8743  76.9080
    77.1465  77.2069  77.2457  77.4584  77.6960  77.7377  77.9403  77.9612
    77.9988  78.1813  78.3597  78.3654  78.5781  78.6357  79.0658  79.1502
    79.2586  79.3587  79.4740  79.5539  79.7294  79.9673  80.6078  80.7077
    80.7793  80.8949  81.0427  81.1447  81.2659  81.4575  81.5966  81.6589
    81.9310  81.9664  82.0222  82.3300  82.5055  82.5797  82.9230  82.9357
    82.9984  83.3194  83.4436  83.5056  83.6845  83.7784  83.8056  83.8345
    84.0398  84.2975  84.3759  84.4059  84.5891  84.6092  84.7633  84.7767
    84.8343  84.9364  85.0476  85.2528  85.2747  85.3637  85.4264  85.4390
    86.0209  86.0405  86.2016  86.2128  86.4405  86.5922  86.6103  86.8512
    86.9008  86.9041  86.9169  87.3572  87.4803  87.5606  87.7552  87.8689
    88.2385  88.3056  88.5718  88.5963  88.7158  88.8522  89.0052  89.2608
    89.4628  89.6293  89.7307  89.7553  89.8887  89.9018  89.9052  90.3802
    90.3974  90.4826  90.6021  90.9409  91.0880  91.1543  91.1741  91.3216
    91.4106  91.5938  91.6190  91.6389  91.8896  92.1757  92.2355  92.3847
    92.3916  92.5277  92.8744  92.9357  92.9500  93.2136  93.3349  93.3524
    93.6327  93.7689  93.7848  93.8559  93.9309  94.0671  94.1397  94.4528
    94.5012  94.5039  94.7845  94.9567  95.0377  95.1022  95.2386  95.3840
    95.7585  96.0189  96.2648  96.3429  96.5478  96.5997  96.6054  96.7157
    96.9993  97.0477  97.0504  97.6479  97.7723  98.1040  98.1666  98.3377
    98.5016  98.5222  98.6738  98.9607  98.9706  99.1161  99.2944  99.5047
    99.6102  99.9987 100.1210 100.2098 100.2115 100.4007 100.6412 100.6497
   100.8490 100.9406 100.9989 101.2947 101.3052 101.3624 101.4258 101.8665
   102.0791 102.2575 102.3104 102.7956 102.8430 102.8749 102.9068 103.0583
   103.1260 103.2732 103.4940 103.6062 103.8595 103.9938 104.2746 104.5999
   104.8072 104.8520 104.9896 105.3276 105.4217 105.6316 105.8499 105.9593
   106.0634 106.2263 106.2398 106.4150 106.7426 106.8559 106.9275 106.9500
   107.2389 107.2887 107.4570 107.5847 107.8283 107.9943 108.0700 108.3935
   108.4662 108.4789 108.8003 108.8229 108.9964 109.1981 109.4722 109.5228
   109.5530 110.0384 110.0386 110.1779 110.2676 110.4217 110.7743 110.9864
   111.0006 111.2851 111.3716 111.5400 111.6663 111.7831 111.8941 112.4709
   112.6067 112.7941 112.7985 112.9422 113.0200 113.1203 113.2172 113.4574
   113.8696 113.8732 113.9587 114.1398 114.3292 114.5708 114.7616 114.8151
   114.8277 114.9758 115.0285 115.2208 115.2991 115.4733 115.5120 115.7011
   116.0340 116.0582 116.2594 116.5973 116.6459 116.6645 116.8530 116.8594
   116.8807 117.1341 117.2321 117.3574 117.4323 117.5446 117.5477 117.6957
   117.7020 117.7752 118.0639 118.1304 118.1920 118.2732 118.5911 118.7180
   118.7747 118.9819 119.0711 119.3727 119.3879 119.4462 119.6278 119.6324
   119.6717 119.7343 119.8676 119.9268 119.9333 120.0789 120.2463 120.2616
   120.3949 120.4295 120.6228 120.7461 120.8046 120.8354 120.9612 121.1793
   121.2015 121.2277 121.3273 121.4690 121.5583 121.6349 121.9314 121.9958
   122.0204 122.1648 122.3069 122.4078 122.5429 122.5946 122.7624 122.8155
   122.8495 122.9661 123.0832 123.1388 123.1712 123.2984 123.4234 123.4611
   123.4923 123.8742 123.8754 123.9895 124.0401 124.1907 124.2249 124.2591
   124.3110 124.5873 124.6047 124.6266 124.6902 125.0015 125.0425 125.1101
   125.2042 125.2438 125.4970 125.5351 125.6330 125.6612 125.8223 125.8438
   126.2434 126.3053 126.3135 126.6379 126.8659 127.3737 127.4689 127.6717
   127.7097 127.8380 127.8836 128.1156 128.1965 128.4131 128.5222 128.7348
   128.8001 128.8242 128.9920 129.0096 129.0824 129.2927 129.3854 129.5460
   129.5856 129.7007 129.8137 129.8362 129.9202 129.9344 130.0472 130.1062
   130.1374 130.2582 130.2874 130.4660 130.4835 130.5153 130.5579 130.6874
   130.9715 131.1161 131.4049 131.4492 131.5720 131.7272 131.7283 131.7323
   131.8888 132.0212 132.1003 132.1631 132.2011 132.2045 132.2277 132.3636
   132.4097 132.7094 132.8561 132.8712 132.8879 133.0148 133.0337 133.2444
   133.2889 133.3183 133.4488 133.5473 133.6034 133.6057 133.8511 133.9384
   134.1652 134.3170 134.3243 134.3667 134.5946 134.6497 134.6871 134.7365
   134.7672 134.8192 135.0639 135.2444 135.3741 135.4563 135.4704 135.5196
   135.5534 135.6463 135.6850 135.8602 135.9603 136.0779 136.0985 136.1507
   136.3219 136.3568 136.4247 136.4248 136.5860 136.7432 136.8419 136.9329
   136.9832 137.1444 137.2607 137.4409 137.5844 137.6581 137.7734 137.9173
   137.9367 138.0753 138.2095 138.4006 138.4429 138.5080 138.7761 138.8450
   138.8493 138.8543 139.1437 139.3923 139.4873 139.5556 139.7479 139.8605
   140.1039 140.1682 140.2072 140.3107 140.4002 140.4513 140.5132 140.7845
   140.8202 140.9249 141.0203 141.2336 141.2404 141.4188 141.6847 141.6933
   141.6955 141.7806 141.8672 141.8889 141.9311 142.0628 142.0771 142.1894
   142.2760 142.3273 142.5457 142.6220 142.6862 142.7250 143.0408 143.1364
   143.1535 143.2794 143.3917 143.5478 143.5557 143.7016 143.8419 143.9718
   144.0320 144.0421 144.2457 144.3635 144.3981 144.3999 144.5680 144.6502
   144.6877 144.7262 144.9845 145.0054 145.1156 145.2056 145.2304 145.3073
   145.3189 145.4538 145.4825 145.5556 145.5601 145.5807 145.8061 145.9454
   145.9705 146.0521 146.2069 146.3620 146.5352 146.5449 146.6713 146.7893
   146.9033 146.9260 147.0858 147.0996 147.3609 147.3674 147.4195 147.4470
   147.4993 147.6124 147.6782 147.7102 147.7197 147.7794 147.9320 147.9350
   148.1745 148.1949 148.2151 148.3318 148.3751 148.4622 148.4654 148.5311
   148.5585 148.6277 148.6311 148.7530 148.9170 149.4010 149.4780 149.5227
   149.5591 149.5684 149.9584 149.9883 150.1338 150.2267 150.2504 150.3369
   150.4897 150.5307 150.6249 150.6707 150.7069 150.8452 151.0072 151.0347
   151.0960 151.1851 151.2134 151.3541 151.5391 151.5954 151.7976 151.8026
   151.8262 151.9931 152.1353 152.2495 152.2804 152.3492 152.3668 152.5400
   152.5845 152.6670 152.8402 152.9173 152.9341 152.9507 153.0262 153.1087
   153.1680 153.2986 153.3538 153.4569 153.5031 153.5624 153.7287 153.8109
   153.8177 154.0087 154.2836 154.3155 154.4208 154.4827 154.5239 154.8653
   154.9513 155.0345 155.0543 155.1001 155.1449 155.3397 155.4442 155.4584
   155.6397 155.6739 155.7341 155.8523 155.8784 156.0016 156.0625 156.2059
   156.2376 156.2469 156.6366 156.6690 156.7755 156.7823 157.0092 157.1636
   157.2279 157.2297 157.2440 157.3504 157.4494 157.4815 157.6648 157.6753
   157.9245 157.9274 158.1312 158.1335 158.1636 158.1795 158.4185 158.5417
   158.7914 158.8584 159.0482 159.1198 159.1323 159.2827 159.4261 159.4749
   159.4992 159.6252 159.6540 159.6720 159.7006 159.8044 159.8820 159.8860
   159.9348 160.1301 160.1496 160.1818 160.3261 160.4000 160.5638 160.6125
   160.6351 160.7621 160.8370 160.9515 161.1400 161.1760 161.2077 161.2236
   161.4328 161.6643 161.6880 161.7124 162.0393 162.0947 162.1840 162.4092
   162.4124 162.4433 162.4476 162.4738 162.6416 162.8254 162.9169 162.9861
   163.0824 163.1636 163.4860 163.6292 163.6824 163.8202 163.8844 164.0272
   164.0727 164.1103 164.3185 164.3988 164.4761 164.5834 164.6518 164.6668
   164.7404 164.7671 164.8554 164.8710 164.8939 165.0458 165.1067 165.2476
   165.3314 165.5883 165.7792 165.8000 165.8109 166.0214 166.0246 166.0771
   166.1477 166.3894 166.6530 166.6873 166.8769 166.9841 167.0693 167.2434
   167.3191 167.3514 167.4248 167.5252 167.5416 167.6379 167.6753 167.8426
   167.9087 167.9779 168.0131 168.3870 168.5106 168.6103 168.7422 168.7627
   168.8490 168.9659 169.0183 169.0922 169.1442 169.3571 169.4912 169.7166
   169.7906 170.0029 170.0103 170.1442 170.2507 170.2977 170.5309 170.7106
   170.7183 170.8489 170.8499 171.2768 171.2927 171.6428 171.6901 171.7102
   171.7331 171.8141 171.8539 172.0029 172.0112 172.1551 172.4080 172.5669
   172.6427 172.6548 172.8161 172.8866 172.9573 173.0477 173.1562 173.1735

          k = 0.0000 0.3849 0.0000 (  8438 PWs)   bands (ev):

   -61.9147 -36.0920 -36.0329 -35.9523 -14.0523 -13.6125  -5.9523  -5.0749
    -4.9063  -3.5089  -2.7368  -2.0947  -2.0633   0.8460   0.9031   1.8935
     2.7576   5.3394   5.7160   6.0907   6.4126   6.8045   7.2617   7.2817
     8.2928   8.7834   9.7789   9.8950  11.0047  11.0078  11.7792  11.8110
    12.4290  12.5663  13.0941  13.4597  13.7343  13.8582  14.2591  14.6550
    14.7935  15.1430  15.8896  16.0857  16.6468  16.7076  16.9406  17.3557
    17.9725  18.2985  18.5287  18.5547  18.6175  18.9730  19.0906  19.5086
    19.5863  19.6844  19.7313  20.0691  20.1911  21.3089  21.3588  21.6306
    21.6704  22.1086  22.4484  23.0538  23.1626  23.5327  23.8598  23.8749
    23.9604  23.9612  24.8020  24.8317  25.3620  25.4855  25.5123  26.3265
    26.5454  26.5465  27.1766  27.4813  27.7407  27.7716  28.3706  28.4975
    28.5596  28.9025  29.3626  29.5960  29.8813  30.2017  30.5214  30.5981
    30.7627  30.8031  30.8739  31.1300  31.3153  31.4175  31.6954  31.8512
    32.2891  32.4642  32.5948  33.2128  33.4716  33.4833  33.7787  33.9166
    34.1365  34.6052  34.8279  35.0340  35.2204  35.4851  35.5699  35.7041
    35.8882  36.0033  36.2445  36.4425  36.6734  36.8029  37.3427  37.3470
    37.3831  37.7644  37.9048  38.1830  38.4479  38.6658  38.7440  39.2016
    39.2341  39.3837  39.5975  40.0413  40.2334  40.2571  40.4121  40.8122
    41.2544  41.2702  41.5106  41.6749  41.6912  41.7381  41.9709  42.2535
    42.3695  42.5529  42.5685  42.8420  42.8839  43.0106  43.0540  43.1703
    43.6034  43.6042  43.6484  43.8409  44.0503  44.1697  44.2774  44.5986
    45.0275  45.0469  45.2449  45.5984  45.7831  45.8163  46.1817  46.3876
    46.5205  46.6179  46.6817  47.3084  47.4522  47.4547  47.5677  47.9297
    48.0568  48.1121  48.2819  48.3681  48.7237  48.7297  49.1245  49.3306
    49.8277  49.8793  50.3801  50.4816  50.7192  50.9383  50.9674  51.2980
    51.6291  51.8091  52.1913  52.2314  52.3001  52.7631  52.7649  52.9634
    53.1769  53.2998  53.3528  53.9448  53.9534  53.9933  54.2472  54.2587
    54.2818  54.6100  54.8631  55.0586  55.2256  55.3574  55.4287  55.6099
    56.0120  56.1825  56.4183  56.5092  56.7318  56.8227  57.0306  57.2395
    57.5680  57.9973  58.1049  58.6286  58.7835  58.8351  58.9742  59.2647
    59.2978  59.4964  59.6012  59.7698  59.9474  60.0218  60.4321  60.4548
    60.4616  60.5311  60.6328  60.7967  60.9437  60.9438  60.9465  61.1353
    61.2536  61.3706  61.9119  61.9296  61.9764  62.2080  62.3175  62.4595
    62.5868  62.9470  63.0830  63.1354  63.2273  63.3302  63.7279  64.3078
    64.3154  64.3270  64.4741  64.5661  64.6174  64.8515  64.8937  65.2418
    65.2742  65.3340  65.6159  65.6219  65.7693  65.8319  66.5456  66.5676
    66.6250  66.7526  66.7819  66.9335  67.0467  67.0887  67.2069  67.3686
    67.4276  67.6460  67.7238  67.8115  67.8611  68.2723  68.2970  68.3409
    68.5002  68.7577  68.8566  68.9274  69.2899  69.3832  69.5073  69.7142
    69.9300  69.9876  70.1794  70.2293  70.2552  70.3436  70.6103  70.7284
    70.8567  70.8608  71.3179  71.3337  71.3901  71.4222  71.6871  71.9206
    72.0828  72.1391  72.2020  72.3145  72.5327  72.7668  73.1864  73.2728
    73.4130  73.4386  73.8696  73.9472  73.9499  74.3262  74.5687  74.7087
    74.9779  74.9893  75.3390  75.4539  75.4606  75.5054  75.6030  75.7744
    76.3412  76.3429  76.4760  76.7039  76.8070  77.1059  77.3358  77.3403
    77.5425  77.5731  77.7112  77.8779  78.1593  78.2574  78.3492  78.4463
    78.7266  78.8120  78.8581  79.0516  79.0890  79.2571  79.2915  79.4486
    79.4607  79.5979  79.6996  79.7316  80.2054  80.2982  80.3017  80.5396
    80.6707  80.6841  80.7913  81.1457  81.2605  81.3294  81.5620  81.8197
    81.8883  81.9668  82.2307  82.3539  82.5034  82.5143  82.6467  82.9103
    82.9624  83.3471  83.3766  83.4782  83.5777  83.7438  83.8934  84.0599
    84.1063  84.2421  84.2934  84.4346  84.4786  84.4917  84.8901  85.1682
    85.1730  85.3276  85.3932  85.8045  85.9760  85.9888  86.1094  86.4564
    86.5115  86.9316  87.1185  87.1661  87.2361  87.5284  87.8333  87.9880
    88.1408  88.3591  88.4304  88.5013  88.5372  88.6218  88.6932  89.2192
    89.2269  89.2439  89.4808  89.5047  89.5262  89.8451  89.9137  90.1923
    90.1936  90.4395  90.5121  90.6000  90.7923  90.9931  91.0092  91.2987
    91.3698  91.4397  91.5315  91.5415  91.5435  91.9047  91.9139  91.9330
    91.9992  92.2686  92.2945  92.4284  92.6523  92.7869  92.9306  93.0549
    93.2063  93.3487  93.3951  93.5135  93.7506  93.9605  94.1684  94.2511
    94.3271  94.3455  94.6696  94.6952  94.7573  94.9196  95.0818  95.2916
    95.3711  95.4301  95.4929  95.5829  95.9629  95.9824  96.0750  96.2687
    96.4780  96.4907  96.6858  96.7357  96.8906  96.9383  96.9941  97.0450
    97.0843  97.3562  97.6310  97.9852  98.1189  98.1704  98.4923  98.6837
    98.7799  98.9171  99.4267  99.5867  99.7544  99.7804  99.7981  99.8559
   100.2402 100.3340 100.7516 100.8165 100.8356 100.8783 101.1181 101.1280
   101.1496 101.2360 101.5355 101.6684 101.8030 101.9350 101.9765 102.2616
   102.3126 102.4776 102.4981 102.6512 102.9229 102.9516 103.1093 103.2287
   103.2396 103.3764 103.4541 103.5244 103.5531 103.5960 103.6419 103.8914
   104.0464 104.0992 104.1777 104.2405 104.2538 104.2993 104.4531 104.5060
   104.5668 104.6691 104.7484 104.8718 104.8724 105.4325 105.5477 105.6064
   105.7452 105.8515 105.8520 106.1641 106.1968 106.2841 106.3049 106.4481
   106.5466 106.6345 106.7480 106.9812 107.0184 107.0557 107.4846 107.5800
   107.6303 107.7238 107.7641 107.9889 108.1097 108.1211 108.3738 108.4267
   108.4466 108.6329 108.8204 108.8757 108.9567 108.9622 109.1614 109.1875
   109.2253 109.4226 109.4753 109.6260 109.7098 109.7890 109.8328 109.9458
   110.0824 110.1202 110.1816 110.3288 110.3925 110.4067 110.5927 110.6571
   110.8656 111.0908 111.1407 111.3973 111.5838 111.6529 111.7779 111.8375
   112.0468 112.0482 112.0918 112.1811 112.4070 112.4775 112.5333 112.6232
   112.7332 112.7556 112.8217 112.9897 113.0996 113.1649 113.6544 113.6765
   113.6965 113.7372 114.1148 114.1193 114.2484 114.2535 114.5103 114.5494
   114.6259 114.8244 114.8490 114.9742 115.2182 115.3635 115.3958 115.4054
   115.5858 115.6897 115.7720 115.7954 116.1731 116.2988 116.4564 116.5471
   116.6407 116.6778 116.7356 116.9101 117.0683 117.2410 117.3798 117.5697
   117.6706 117.7787 117.8661 117.9774 118.1443 118.1804 118.3226 118.4591
   118.7185 118.9807 119.0333 119.1151 119.2505 119.3509 119.5149 119.6594
   119.8976 119.9901 120.1452 120.2535 120.4473 120.4617 120.5556 120.5966
   120.8432 120.8466 121.0164 121.1735 121.2392 121.2636 121.7868 121.8032
   121.9799 122.0154 122.1814 122.2702 122.3931 122.4183 122.7185 122.7985
   123.0158 123.3542 123.4173 123.6065 123.6235 123.6943 123.9218 124.0399
   124.2413 124.3680 124.4279 124.4555 124.6708 124.7354 124.7555 125.0277
   125.1176 125.4231 125.4329 125.5023 125.5541 125.6778 125.8748 125.8895
   125.8978 126.2095 126.2192 126.3420 126.5066 126.6322 126.6744 126.7368
   126.8632 126.8974 127.1409 127.2834 127.3004 127.4657 127.5846 127.6180
   127.6703 127.7354 127.9385 127.9498 128.0371 128.3045 128.4484 128.7054
   128.7117 128.7528 128.7801 128.9608 129.2777 129.5820 129.6660 129.8604
   129.9016 129.9886 130.0817 130.1679 130.2393 130.3166 130.6220 130.7096
   130.8048 130.8761 130.9410 131.0755 131.1764 131.1994 131.3240 131.3928
   131.6695 131.7071 131.8791 132.0481 132.1002 132.2040 132.2998 132.3696
   132.3708 132.5355 132.6720 132.8988 132.9137 132.9610 133.1483 133.2231
   133.4663 133.4734 133.5086 133.7193 133.7409 133.7792 133.9298 134.0055
   134.1433 134.1747 134.3524 134.3841 134.4765 134.5493 134.7246 134.7987
   134.8623 134.9692 135.0460 135.2576 135.3081 135.3284 135.5187 135.6326
   135.7887 135.8232 135.8894 135.9666 136.0195 136.2672 136.3109 136.4195
   136.4627 136.7476 136.9701 136.9846 137.0052 137.1946 137.2238 137.3016
   137.4853 137.6697 137.7221 137.7243 137.8559 137.9128 138.0405 138.4554
   138.5102 138.5999 138.9357 139.0093 139.0143 139.0801 139.2584 139.3510
   139.4806 139.4820 139.5925 139.6116 139.7976 139.8004 139.9517 140.0409
   140.1133 140.1343 140.2081 140.3439 140.5425 140.7107 140.7802 140.8330
   141.0294 141.0583 141.0810 141.0971 141.2852 141.4798 141.7363 141.9239
   142.0701 142.2207 142.3558 142.4755 142.4923 142.6528 142.7008 142.7291
   142.9442 142.9629 143.1827 143.2252 143.2603 143.3666 143.4943 143.5312
   143.6213 143.7447 143.7544 143.8835 143.9888 144.3472 144.4121 144.5607
   144.6159 144.6922 144.7629 144.8701 144.9648 145.1390 145.1491 145.1621
   145.3925 145.4504 145.5101 145.5114 145.5725 145.8409 145.9295 145.9390
   146.1416 146.2058 146.3159 146.3705 146.5023 146.5717 146.7666 146.8066
   146.8488 147.0284 147.0519 147.4301 147.5110 147.6054 147.8122 147.8591
   148.0055 148.3216 148.3490 148.5114 148.5980 148.7208 148.8679 148.9960
   148.9999 149.3603 149.4544 149.5050 149.5509 149.7339 149.9476 150.0579
   150.0775 150.1237 150.1960 150.2774 150.5432 150.6184 150.6466 150.6964
   150.8275 150.8716 151.1090 151.2209 151.5625 151.5700 151.5895 151.7732
   151.8501 151.9326 151.9363 152.0841 152.1225 152.2136 152.2412 152.3300
   152.3368 152.4401 152.4956 152.5247 152.5388 152.5822 152.6747 152.8360
   152.9906 153.0156 153.0702 153.2946 153.3921 153.5927 153.7500 154.1447
   154.1520 154.3916 154.6403 154.6817 154.6844 154.8568 155.1553 155.1893
   155.2996 155.3057 155.3554 155.3737 155.6819 155.6939 155.7330 155.7416
   155.8654 155.8714 156.2763 156.3325 156.3819 156.4864 156.7551 156.8156
   156.8565 156.8605 157.2278 157.2395 157.2774 157.3575 157.4979 157.5185
   157.5548 157.6048 157.7453 157.7828 157.8096 157.8143 158.0950 158.0999
   158.1892 158.2635 158.4716 158.6004 158.6384 158.7105 158.7240 158.9738
   158.9993 159.0198 159.0642 159.2129 159.2630 159.2795 159.3441 159.3696
   159.5798 159.6002 159.7779 159.8919 159.8968 160.0720 160.2439 160.2489
   160.2897 160.3657 160.5213 160.5896 160.6266 160.6733 160.6983 160.7386
   160.8877 160.9369 160.9943 161.2855 161.3184 161.3933 161.4307 161.5631
   161.5839 161.5860 161.7161 162.0887 162.0922 162.2018 162.2973 162.4875
   162.5071 162.5395 162.6596 162.9960 163.0706 163.2124 163.2580 163.4037
   163.4419 163.5956 163.6278 163.6528 163.6659 163.7680 163.9073 164.0326
   164.0362 164.0798 164.3035 164.3134 164.4221 164.5204 164.5582 164.7244
   164.7307 164.8986 164.9098 165.0264 165.1865 165.2114 165.2718 165.3194
   165.3706 165.3994 165.5016 165.6019 165.6773 165.8418 165.8878 166.1615
   166.2132 166.3654 166.4359 166.5474 166.8597 166.9668 166.9781 167.0358
   167.0368 167.2689 167.3265 167.3581 167.3725 167.5263 167.6287 167.7821
   167.9288 167.9884 168.0618 168.0822 168.3503 168.4815 168.6522 168.6556
   168.6993 168.7180 168.8662 169.0069 169.0447 169.1437 169.2344 169.3056
   169.4013 169.4745 169.5320 169.5629 169.5640 169.8150 169.8292 169.8594
   170.0199 170.0325 170.1567 170.4921 170.5191 170.5708 170.7336 170.8252
   170.8652 170.9329 171.2507 171.2837 171.4282 171.4992 171.5209 171.5453
   171.5881 171.5930 171.8697 172.0781 172.1707 172.4195 172.5108 172.5514
   172.7880 172.8504 172.8548 172.8668 173.0672 173.1262 173.1984 173.2519
   173.4534 173.8517 173.8565 173.9626 173.9815 174.1939 174.3566 174.3912

          k = 0.0000-0.5774 0.0000 (  8446 PWs)   bands (ev):

   -61.9092 -36.1514 -36.0201 -35.9663 -13.5222 -13.3389  -6.6875  -5.7956
    -4.8803  -3.8188  -2.9652  -1.7792  -1.7387   0.7935   1.2099   2.4385
     2.9095   4.3526   6.2920   6.3194   7.0243   7.8608   8.2292   8.6076
     8.8975   9.1420   9.2105   9.6724   9.7002   9.9412  10.5085  10.7146
    11.1391  11.5850  12.6456  12.8225  13.1430  14.1644  14.3827  15.1409
    15.2797  15.3735  15.6826  16.2039  17.2221  17.4977  17.5513  17.8029
    17.8888  17.9548  18.0933  18.2711  18.3024  18.4494  18.7661  19.0124
    19.2585  19.2809  19.5441  19.6049  20.1583  20.9739  20.9744  21.1364
    21.2159  21.6101  21.6307  21.6543  22.0565  22.6148  22.7090  23.3016
    23.5547  24.0949  24.1227  24.5197  24.7987  25.6288  26.4417  26.5663
    26.6020  27.2730  27.2882  27.5554  27.7523  28.1773  28.5155  29.4091
    29.4940  29.8935  30.0350  30.1143  30.4504  30.7861  30.8988  31.0362
    31.4779  31.9430  32.1096  32.3855  32.6238  32.9288  33.3255  33.6934
    33.8483  34.0508  34.5434  34.9222  35.4281  35.4357  35.4758  35.7853
    36.0393  36.0663  36.0837  36.1936  36.2055  36.2774  36.4214  36.4728
    36.5711  36.6500  36.8402  36.9532  37.0365  37.0818  37.3215  37.4022
    37.6764  37.8513  37.8543  38.1014  38.5355  38.5627  38.7631  38.9443
    39.0575  39.2714  39.5194  39.5438  39.6773  40.2679  40.4881  40.5807
    40.6897  41.0770  41.2345  41.3045  41.3670  41.5702  41.6137  42.1811
    42.2031  42.4755  42.4791  42.8484  43.0097  43.1828  43.1917  43.6432
    43.6992  43.7046  43.9382  44.2424  44.5260  44.5480  44.7518  45.0733
    45.1536  45.1622  45.4529  45.4833  45.5164  45.5538  45.7233  45.7295
    46.2168  46.2779  46.2974  46.4238  46.4816  46.6059  47.0544  47.3450
    47.4513  47.7265  47.8088  48.0835  48.1832  48.4228  48.5310  48.7709
    48.8867  48.9755  49.1581  49.5512  49.5630  49.7072  50.1029  50.1549
    50.2543  50.5799  50.7679  50.8347  51.0175  51.0403  51.1554  51.7269
    51.7569  51.9194  51.9867  52.0564  52.8690  52.9221  52.9721  53.2238
    53.3114  53.7119  53.8920  54.1148  54.2172  54.2224  54.4106  54.5824
    54.7595  55.2721  55.7285  55.7914  55.9240  56.1450  56.2724  56.8562
    57.1675  57.2677  57.4673  57.8417  57.9372  58.0360  58.2104  58.2372
    58.5953  58.6208  58.8456  59.0096  59.2942  59.4081  59.4371  59.5423
    59.5782  60.1450  60.2703  60.8969  60.9337  61.2718  61.5568  61.6207
    61.7919  62.1678  62.4585  62.5928  62.8761  63.0752  63.1646  63.2167
    63.4370  63.4471  63.5461  63.5660  63.6566  63.7295  63.7585  63.7869
    63.8139  64.2339  64.2711  64.2807  64.2826  64.3600  64.5160  64.5856
    64.7005  64.8016  64.8191  64.9883  65.0768  65.1773  65.5384  65.5571
    65.6639  65.8611  66.0650  66.1246  66.2757  66.3804  66.5647  66.5670
    66.6556  66.6981  66.7142  66.9727  67.1711  67.6531  67.7802  67.8955
    68.1279  68.1618  68.5310  68.5525  68.8146  68.9996  69.2834  69.2986
    69.4188  69.6796  69.7261  69.9650  70.0680  70.1067  70.3107  70.6473
    70.7196  70.8022  70.9308  71.2951  71.5782  71.7605  71.8770  71.9125
    72.1472  72.1663  72.3692  72.4384  72.5875  72.6467  72.6784  72.7952
    72.8528  73.3878  73.6386  73.6746  73.8047  73.9804  74.4339  74.5203
    74.6938  75.0668  75.0929  75.3054  75.4119  75.5592  75.6776  75.9945
    76.1752  76.3363  76.5239  76.6964  76.7100  76.9963  77.0686  77.1985
    77.3490  77.6062  77.6786  77.7691  78.0867  78.3877  79.0693  79.1453
    79.3724  79.3842  79.5286  79.6664  79.8811  79.9619  80.0938  80.3023
    80.5395  80.5598  80.7780  80.8944  80.9407  81.2467  81.7056  81.7547
    81.9158  81.9660  82.4655  82.5414  82.8708  82.8847  82.9004  82.9510
    83.2366  83.3150  83.5785  83.6406  83.9339  84.1674  84.1863  84.3359
    84.7489  84.8630  84.9459  84.9553  85.0301  85.0543  85.1684  85.5198
    85.6130  85.7673  85.8009  85.9605  86.2252  86.2318  86.3994  87.0347
    87.0956  87.1427  87.1597  87.7118  87.9871  88.0816  88.1836  88.8060
    89.0443  89.1496  89.1985  89.5270  89.5842  89.7112  90.1778  90.2946
    90.4711  90.4904  90.5226  90.5366  90.7170  90.7820  90.8489  90.9315
    90.9780  91.1964  91.2137  91.2513  91.4213  91.4547  91.5782  91.6715
    91.6861  91.7664  91.8205  91.8564  92.0873  92.0890  92.1470  92.2328
    92.2547  92.2679  92.3839  92.5920  92.6701  92.8093  92.8737  93.0775
    93.1949  93.2070  93.4751  93.4998  93.5335  93.7521  93.8609  93.9182
    93.9791  94.0093  94.0634  94.0983  94.1011  94.3661  94.4720  94.5125
    94.7037  94.8886  94.9982  95.0914  95.6453  95.9160  96.0177  96.0216
    96.1785  96.2001  96.3798  96.4189  96.6265  96.7257  96.7537  97.0506
    97.1928  97.5156  97.5995  97.6673  98.1242  98.2350  98.2813  98.3382
    98.5794  98.6545  98.8297  98.9826  99.0357  99.1464  99.1708  99.2666
    99.4250  99.6147  99.6801  99.7105  99.7541  99.7889  99.7930  99.8596
   100.0665 100.0827 100.2068 100.2291 100.2938 100.4984 100.5015 100.5642
   100.6495 100.7113 100.7230 100.7424 100.8477 100.9233 100.9535 100.9771
   101.0114 101.1259 101.1411 101.2927 101.4460 101.5627 101.7423 101.8506
   101.9262 102.0910 102.2650 102.2679 102.4443 102.5217 102.5693 102.6656
   102.6947 102.8593 102.9276 103.0373 103.0617 103.2978 103.4009 103.4329
   103.5151 103.5676 103.6177 103.6761 103.7214 103.7853 103.8132 103.8413
   103.8533 103.9079 104.0945 104.1921 104.3523 104.6047 104.6578 105.0182
   105.1282 105.2565 105.4546 105.4936 105.7292 105.8367 105.9780 106.0079
   106.0335 106.1796 106.2392 106.6276 106.6822 106.8045 106.9605 107.1422
   107.2629 107.3513 107.8379 107.9733 108.1192 108.2941 108.3120 108.5384
   108.5853 108.7213 108.7228 109.0593 109.1394 109.1436 109.2630 109.2633
   109.4172 109.4779 109.6194 109.8421 110.1672 110.1774 110.1855 110.1932
   110.3193 110.4745 110.6683 110.8099 110.9967 111.1484 111.4577 111.6526
   111.6643 111.7387 111.7440 111.9423 112.1788 112.4194 112.4249 112.4619
   112.5138 112.5412 112.6326 112.8282 112.8591 112.9251 113.0258 113.0512
   113.0812 113.3802 113.4392 113.4774 113.5459 113.6816 113.6917 113.9168
   113.9869 114.3241 114.3411 114.7773 114.8134 115.3452 115.5297 115.7991
   115.9273 116.4475 116.4860 116.5399 116.7987 116.8336 116.8718 117.0776
   117.1804 117.2040 117.5916 117.6515 117.7241 117.8232 117.9701 118.1119
   118.1665 118.1928 118.2338 118.2996 118.4129 118.4178 118.5492 118.6176
   118.8023 118.9546 119.0847 119.1978 119.2765 119.3235 119.3379 119.4679
   119.5202 119.6541 119.7496 119.7742 119.8203 119.9878 120.0295 120.2186
   120.2280 120.5147 120.6578 120.6730 120.7596 120.8112 120.8761 120.9527
   121.0368 121.0585 121.1417 121.2335 121.5416 121.5438 121.7976 121.8955
   122.1170 122.2293 122.3834 122.3987 122.4415 122.6860 122.7992 122.9633
   123.0440 123.2274 123.2536 123.4122 123.5735 123.6035 124.0244 124.2710
   124.3234 124.3574 124.4232 124.5051 124.5660 124.6728 124.8569 125.0016
   125.3327 125.5023 125.5107 125.5490 125.5746 125.7585 126.0889 126.1055
   126.2716 126.3982 126.7392 126.7563 126.8253 126.8689 126.9211 126.9328
   127.1689 127.1949 127.3547 127.3733 127.4316 127.4402 127.4846 127.8290
   127.8789 127.9163 127.9724 127.9807 128.0299 128.1643 128.2269 128.2847
   128.3354 128.5648 128.6028 128.8146 128.9806 129.0579 129.2360 129.3164
   129.3669 129.4432 129.4891 129.7398 129.8959 130.0246 130.0782 130.1067
   130.2847 130.3584 130.4935 130.5482 130.5760 130.6022 130.6584 130.8280
   130.8586 131.2800 131.3498 131.5573 131.6031 131.7662 131.7981 131.8177
   131.9068 132.0063 132.1009 132.3733 132.3828 132.4453 132.7643 132.8708
   132.8916 133.1090 133.1610 133.3871 133.6545 133.7254 133.7801 133.7960
   134.1394 134.1919 134.2408 134.4830 134.5320 134.5891 134.6783 135.0830
   135.1152 135.3008 135.3184 135.5474 135.5644 135.9669 136.1923 136.2293
   136.2865 136.5014 136.5265 136.5295 136.6328 136.6843 136.9049 136.9231
   137.1211 137.3039 137.5324 137.7602 137.9813 138.0210 138.2926 138.3578
   138.5581 138.5869 138.5991 138.7364 138.8204 139.0725 139.0741 139.1262
   139.5489 139.6591 139.7089 139.7770 139.8491 140.1233 140.1618 140.2135
   140.2942 140.2967 140.4110 140.4549 140.5714 140.6369 140.7686 140.7909
   140.8715 140.9223 141.1893 141.2072 141.3004 141.4321 141.5606 141.6753
   141.8446 142.4451 142.4864 142.8932 143.0333 143.3142 143.5387 143.5485
   143.5867 143.7542 143.9702 144.2004 144.3086 144.4830 144.5666 144.7216
   144.8482 144.8973 144.9393 145.0774 145.1057 145.1267 145.2581 145.3161
   145.4158 145.4169 145.4252 145.5592 145.6631 145.7155 145.7239 145.7948
   145.8777 145.9808 146.0033 146.0078 146.1937 146.2826 146.3419 146.4804
   146.4811 146.5096 146.5431 146.5984 146.6053 146.7453 146.7692 146.9991
   147.0911 147.1789 147.1805 147.2598 147.3295 147.6982 147.7105 147.7569
   147.8446 147.8678 147.9487 147.9604 148.1126 148.1664 148.2732 148.2853
   148.5106 148.5179 148.5184 148.5198 148.5348 148.6599 148.8789 148.9080
   148.9128 149.0800 149.1028 149.2896 149.3831 149.4061 149.5275 149.5593
   149.6056 149.7277 149.8384 149.8459 150.4097 150.5535 150.6374 150.6817
   150.7651 150.8120 150.9857 151.0415 151.1448 151.3056 151.3450 151.3597
   151.6202 151.7332 151.7621 151.7669 151.8072 151.9868 152.1213 152.2516
   152.3741 152.7048 152.8133 153.0177 153.0257 153.3412 153.6067 153.6826
   153.8701 154.0354 154.0960 154.1793 154.1925 154.2308 154.3007 154.5714
   154.6119 154.6600 154.6689 154.7506 154.8602 155.0244 155.0657 155.4223
   155.5059 155.5971 155.6817 155.9386 155.9438 156.2191 156.3400 156.4749
   156.5467 156.6194 156.9304 156.9596 156.9867 157.0047 157.0809 157.3248
   157.3271 157.7401 157.7451 157.9334 157.9450 157.9899 158.1406 158.2340
   158.2476 158.2666 158.2877 158.3007 158.6085 158.6320 158.6617 158.8323
   158.8606 159.4624 159.6487 159.8360 160.0056 160.1780 160.4402 160.5781
   160.6262 160.6515 160.8155 160.8559 160.8722 160.8912 161.2082 161.3140
   161.3796 161.4229 161.5083 161.5512 161.7900 162.0093 162.0446 162.1658
   162.1813 162.3159 162.3876 162.4977 162.5181 162.6109 162.9211 162.9460
   163.0558 163.2194 163.2267 163.5156 163.5279 163.8247 163.9993 164.1167
   164.1347 164.1742 164.2721 164.4595 164.4833 164.6096 164.6281 164.7796
   164.8036 164.9459 165.0407 165.1003 165.1206 165.2309 165.5635 165.6687
   165.9695 165.9841 166.0488 166.0567 166.2123 166.2539 166.2648 166.5109
   166.7145 166.7937 167.0355 167.2008 167.4310 167.4339 167.4758 167.6783
   167.8290 167.8723 167.9824 167.9962 168.1360 168.4099 168.4392 168.4439
   168.5611 168.8127 168.9313 168.9884 169.3268 169.3273 169.5176 169.8243
   169.9344 170.2566 170.3379 170.5560 170.6723 170.6775 170.7186 170.8473
   171.0978 171.3306 171.5634 171.6609 171.7750 171.7983 171.9096 171.9188
   171.9200 172.0847 172.3475 172.4222 172.4602 172.5603 172.6183 172.7379
   172.8194 172.8950 172.9289 172.9382 172.9782 173.0469 173.1487 173.1724
   173.2214 173.2755 173.2964 173.4129 173.4695 173.4993 173.5098 173.6239
   173.6393 173.6660 173.6708 173.7759 173.8447 173.8523 173.8669 174.0425
   174.1682 174.3461 174.3743 174.4942 174.5908 174.7593 174.8716 174.9222
   174.9477 175.0087 175.0119 175.0633 175.0938 175.1052 175.1876 175.2710
   175.4273 175.4858 175.5978 175.6641 175.7582 175.8366 175.8401 175.8766

          k = 0.1667 0.2887 0.0000 (  8427 PWs)   bands (ev):

   -61.9174 -36.0507 -36.0393 -35.9568 -14.2882 -13.7356  -5.6082  -4.8060
    -4.4592  -3.9716  -2.7885  -2.0924  -1.8003   0.5356   1.0976   1.2072
     2.7447   5.1194   5.3465   5.9828   6.6780   7.0789   7.4113   8.2737
     8.6657   8.7019   9.3215  10.0737  10.1314  10.4473  11.0236  11.7914
    11.8351  13.0041  13.5185  14.2219  14.5837  14.6610  14.9430  15.0466
    15.1295  15.2523  15.4886  15.9342  16.0819  16.6064  16.7578  16.8023
    16.9628  18.0128  18.2611  18.4619  18.7505  18.9272  19.1617  19.5110
    19.7436  20.3905  20.9175  21.1997  21.3465  21.5146  21.8431  22.0063
    22.8634  23.0877  23.3135  23.6391  23.7078  23.9722  24.1127  24.2354
    24.3023  24.3803  24.6174  24.7549  25.2055  25.2817  25.3964  25.9864
    26.2097  26.2432  26.3655  26.7941  27.1607  27.2432  27.6719  27.7474
    27.9543  28.4260  28.4292  28.6295  29.0941  29.1695  29.4014  30.1115
    30.6168  30.6365  30.9941  31.3444  31.6311  32.0626  32.1027  32.3381
    32.5732  32.8284  32.8932  32.9613  33.2428  33.2483  33.4626  33.4896
    33.8309  33.9089  34.0298  34.1222  34.1281  34.3796  34.5874  34.8073
    34.9398  35.0808  35.3564  35.5407  36.0812  36.1339  36.3375  36.5286
    36.8140  37.2973  37.3890  37.5475  37.6320  37.8785  38.2858  38.2880
    38.3547  38.8893  39.1644  39.6957  39.7193  39.8186  40.5060  40.5129
    40.6971  40.9894  41.1871  41.4435  41.6100  41.8591  42.1980  42.2157
    42.2660  42.6450  42.6992  42.7432  43.0044  43.1671  43.3739  43.4467
    43.5470  43.9427  44.1178  44.4070  44.6066  44.6804  45.2156  45.3133
    45.7064  45.9925  46.0547  46.2990  46.4409  46.6000  46.7213  46.7854
    47.0584  47.4590  47.5406  47.8955  48.3330  48.3381  48.5346  48.9403
    49.0353  49.6103  49.6967  49.8862  50.0178  50.2308  50.2688  50.5378
    50.7127  51.0509  51.1555  51.1855  51.3901  51.5437  51.7406  51.7494
    51.9214  52.0156  52.1592  52.2464  52.4021  52.5278  52.6544  52.8609
    53.0015  53.5366  53.5384  53.7777  53.9386  54.0066  54.1897  54.2460
    54.5008  54.9239  55.0204  55.3166  55.3712  55.4854  55.5628  55.8139
    56.1361  56.5071  56.5287  56.6737  56.9410  57.1209  57.3041  57.3041
    57.4711  57.6557  57.9223  58.1184  58.4345  58.6314  58.8970  59.0370
    59.3338  59.5569  59.6977  59.7767  60.0259  60.1726  60.1857  60.2773
    60.4640  60.5153  60.5154  60.7823  60.8009  61.1941  61.2612  61.4289
    61.4946  61.6497  61.7384  61.8956  61.9418  62.1179  62.4739  62.6105
    62.6394  62.7333  62.8320  62.9084  63.0267  63.2844  63.5046  63.8501
    63.8588  64.1285  64.1318  64.2719  64.4125  64.6319  64.7584  64.8661
    65.0660  65.1090  65.5445  65.5656  65.8226  65.9674  66.0256  66.1576
    66.2429  66.6843  66.8795  67.2147  67.2565  67.5588  67.6361  67.8392
    68.0649  68.2457  68.6291  68.8523  69.0508  69.0601  69.1489  69.1955
    69.2606  69.5293  69.5331  69.7171  69.8351  69.9799  70.0720  70.0950
    70.1130  70.5082  70.5263  70.7387  70.8187  70.8429  71.0899  71.1960
    71.2340  71.2768  71.6297  71.8068  71.8721  72.1890  72.2541  72.3367
    72.3670  72.4036  72.6636  72.9291  73.1109  73.1842  73.2112  73.5336
    73.5867  73.9131  73.9900  73.9970  74.0162  74.4708  74.5085  74.7895
    75.0062  75.0718  75.1176  75.4124  75.5514  75.8479  75.8895  76.1486
    76.5443  76.6674  76.8823  77.0398  77.2506  77.2865  77.5638  77.5953
    77.6177  77.9922  78.0758  78.2132  78.2733  78.3401  78.4075  78.5474
    78.6136  78.7997  78.8013  78.8173  78.9566  78.9687  79.0808  79.0939
    79.2138  79.3243  79.5193  79.5936  79.6494  79.7609  79.8664  79.9051
    80.0696  80.0702  80.2113  80.4530  80.4669  80.6346  80.7310  81.0441
    81.1388  81.2231  81.5022  81.5052  81.6669  81.6709  81.8140  81.8672
    82.0135  82.2342  82.2778  82.4578  82.5738  82.6171  82.7685  82.9829
    82.9877  83.2790  83.4881  83.4891  83.6584  83.7635  83.8243  84.1612
    84.1693  84.3129  84.4861  84.7973  84.8581  84.9563  85.1730  85.1824
    85.4718  86.0009  86.1064  86.1121  86.4125  86.6157  86.8892  86.9004
    86.9944  87.1059  87.3875  87.4971  87.5870  87.7770  87.8696  88.1536
    88.2872  88.3341  88.4309  88.5005  88.6713  88.7482  88.8788  89.2673
    89.3432  89.4443  89.5930  89.7312  89.7988  89.8579  90.1660  90.2067
    90.6208  90.6261  90.7199  90.8125  91.0587  91.0672  91.1136  91.3801
    91.3820  91.7599  91.7845  91.9493  92.1071  92.1185  92.3386  92.6793
    92.8833  92.8991  92.9416  93.2157  93.3599  93.7528  93.8067  94.0323
    94.2648  94.7545  94.8142  94.9639  95.2404  95.3090  95.4986  95.6522
    96.0061  96.0111  96.1336  96.2640  96.3866  96.6429  96.6671  96.7646
    96.8397  96.8666  96.9082  97.0506  97.1869  97.1908  97.4166  97.7126
    97.7290  97.7594  97.8415  97.9699  98.0472  98.0506  98.1934  98.2604
    98.4090  98.4266  98.4572  98.5662  98.6539  98.7930  99.1384  99.2680
    99.3359  99.5725  99.6318  99.7017  99.8168  99.8618  99.8703  99.9980
   100.2382 100.5645 100.7517 100.7642 100.7876 100.9705 101.0644 101.2964
   101.4830 101.5860 101.7560 101.9958 102.0699 102.0818 102.1962 102.3616
   102.5392 102.7894 102.8966 103.2100 103.2155 103.5613 103.6718 103.8851
   104.2353 104.3667 104.5802 104.6303 104.7682 105.0384 105.2932 105.4164
   105.5435 105.6184 105.6925 105.8395 105.8842 105.9547 106.1228 106.1506
   106.3470 106.4068 106.4371 106.5906 106.7122 106.7406 106.7714 106.8035
   106.9868 107.0470 107.1065 107.1409 107.1890 107.5395 107.6323 107.6391
   107.7669 107.7766 108.0094 108.0479 108.1130 108.4585 108.4751 108.5722
   108.6707 108.6964 108.8169 109.0079 109.0242 109.1971 109.4217 109.4399
   109.5536 109.5613 109.6596 109.7322 109.8611 109.8634 109.8885 110.0520
   110.4047 110.4110 110.6373 110.7263 110.8003 111.0453 111.2909 111.3280
   111.6445 111.7142 111.8246 111.9355 112.1298 112.2849 112.3556 112.6352
   113.1676 113.1740 113.4789 113.6127 113.6437 113.9002 113.9714 114.1250
   114.2874 114.3381 114.5051 114.5246 114.7831 114.8855 114.9898 114.9926
   115.1704 115.2309 115.2402 115.4925 115.5157 115.5569 115.5696 115.8501
   115.9865 116.1084 116.1445 116.2531 116.3363 116.3389 116.4968 116.6387
   116.9103 116.9716 117.1077 117.2323 117.3871 117.5289 117.5866 117.6433
   117.6502 117.7094 117.7134 117.8485 117.9437 118.1126 118.1816 118.2811
   118.3182 118.3407 118.5987 118.7653 118.8076 118.8583 119.0215 119.0429
   119.0929 119.2222 119.2578 119.4623 119.6003 119.6044 119.6362 119.8439
   119.8942 119.9511 120.1216 120.3495 120.4135 120.6187 120.6486 120.7565
   120.8147 121.4228 121.4259 121.5120 121.5816 121.7710 122.0947 122.1554
   122.3531 122.5720 122.7112 122.8271 123.0759 123.0915 123.2436 123.3841
   123.5837 123.6267 123.6917 123.7320 123.8224 123.8477 124.2474 124.3148
   124.4052 124.5021 124.5629 124.6029 124.7262 124.7668 124.8918 125.0178
   125.1170 125.1241 125.2593 125.3117 125.4499 125.4907 125.6095 125.6152
   125.6598 125.6702 125.8503 125.8796 125.9540 126.1718 126.4133 126.4142
   126.5296 126.8041 126.8440 126.8558 127.0260 127.1153 127.1659 127.1975
   127.3853 127.4847 127.5122 127.7019 127.7270 127.8244 127.9143 128.0200
   128.0525 128.1849 128.2739 128.3261 128.4044 128.7467 128.8512 129.0953
   129.2988 129.3635 129.6054 129.6918 129.7559 129.8922 130.0315 130.1487
   130.2311 130.3309 130.4286 130.4995 130.7145 130.9839 131.0565 131.3041
   131.5396 131.5849 131.6965 131.7137 131.9918 131.9944 132.0645 132.2347
   132.4322 132.5254 132.5546 132.9098 133.0174 133.0626 133.0751 133.2242
   133.3152 133.4201 133.6168 133.6173 133.6574 133.7194 134.0058 134.1547
   134.2669 134.4360 134.6388 134.6825 134.7961 134.9079 135.1078 135.3674
   135.3777 135.4113 135.4304 135.5500 135.7492 135.8531 135.9709 136.0281
   136.0697 136.1446 136.3745 136.5249 136.6997 136.7562 136.8501 136.9091
   137.0821 137.2967 137.3609 137.4190 137.5877 137.6635 137.9285 137.9602
   138.0631 138.1976 138.4893 138.6857 138.9068 139.0143 139.3091 139.3614
   139.4716 139.5340 139.6672 139.7924 139.8215 140.2172 140.2651 140.3378
   140.5575 140.8483 140.8917 141.1646 141.2589 141.3590 141.4080 141.5831
   141.6701 141.7446 141.8069 141.8542 141.8613 141.9157 142.0915 142.1688
   142.2969 142.3275 142.3571 142.3759 142.4402 142.5184 142.6008 142.6568
   142.7869 142.9981 143.0338 143.1718 143.2371 143.2513 143.2749 143.3113
   143.3748 143.3829 143.5373 143.5763 143.7136 143.7618 143.7713 143.8493
   143.8896 144.0027 144.0821 144.2487 144.2498 144.4162 144.4444 144.5482
   144.6290 144.8538 144.9207 144.9723 145.0903 145.1049 145.1517 145.2851
   145.3262 145.3479 145.4265 145.4342 145.4403 145.5432 145.6005 145.7240
   145.8507 145.8701 146.1715 146.3923 146.6417 146.6813 146.8159 146.9434
   147.0961 147.2671 147.2784 147.3689 147.3811 147.6789 147.7242 147.7376
   147.8412 147.9019 148.1002 148.1662 148.2639 148.4192 148.6561 148.8071
   148.9080 149.0156 149.1209 149.2235 149.3953 149.4375 149.5533 149.5917
   149.7747 149.9914 150.0963 150.1500 150.2112 150.2666 150.3366 150.6988
   150.7399 150.7823 150.9434 150.9859 151.0201 151.1161 151.1802 151.2609
   151.3706 151.4142 151.5222 151.6994 151.7476 151.7627 151.8868 151.8885
   152.0376 152.0554 152.2052 152.2213 152.2740 152.3942 152.3992 152.5267
   152.6655 152.6807 152.8531 152.8896 152.9568 153.0593 153.1776 153.2118
   153.2606 153.3864 153.4828 153.5250 153.6576 153.7517 153.8138 154.0223
   154.0975 154.2093 154.2915 154.3337 154.4146 154.4914 154.5654 154.6328
   154.8686 154.8761 154.9957 155.0322 155.0645 155.1990 155.3089 155.4304
   155.4715 155.5101 155.5871 155.6502 155.8511 155.8558 156.1016 156.4331
   156.4682 156.5043 156.5961 156.7411 156.8496 156.8505 157.1760 157.1818
   157.2675 157.4657 157.6200 157.7941 157.7960 157.9856 158.2611 158.3528
   158.4484 158.4508 158.6420 158.7409 158.8951 158.8957 159.0355 159.1536
   159.1592 159.3787 159.3909 159.6695 159.7159 159.9864 159.9900 160.0312
   160.2701 160.3039 160.3991 160.4971 160.5916 160.6642 160.8386 160.8525
   160.9218 160.9792 161.0404 161.0815 161.2720 161.3077 161.3924 161.4295
   161.5472 161.5847 161.7090 161.7616 161.9220 161.9750 162.0227 162.1923
   162.2203 162.2690 162.5357 162.5392 162.6993 162.7134 162.7612 162.9732
   163.0913 163.1591 163.3157 163.4378 163.5537 163.5752 163.6459 163.7409
   163.8165 163.8350 163.8902 163.9401 164.0597 164.1046 164.1565 164.2321
   164.2661 164.4352 164.4446 164.5216 164.6608 164.7662 164.8693 164.9874
   164.9924 165.0589 165.1137 165.1948 165.3524 165.4974 165.5656 165.7005
   165.8629 166.1234 166.1343 166.2923 166.4489 166.4809 166.6700 166.7676
   166.9500 167.1428 167.2329 167.4149 167.5455 167.5677 167.8311 167.9532
   168.1216 168.2364 168.2473 168.3677 168.7328 168.7662 168.8259 168.8925
   169.0216 169.0752 169.1708 169.2536 169.4716 169.5032 169.5597 169.5892
   169.6370 169.7216 169.8288 169.9134 170.0473 170.1119 170.1581 170.1770
   170.2718 170.4313 170.5837 170.6582 170.6926 170.7560 170.7849 170.8062
   170.8926 170.9413 170.9745 171.0959 171.2094 171.2479 171.3431 171.3444
   171.4022 171.5261 171.7622 171.8467 171.9556 171.9613 172.0789 172.1986
   172.3149 172.3657 172.5785 172.7107 172.7484 172.8011 172.9499 173.0386
   173.1344 173.1620 173.2429 173.3000 173.4053 173.7425 173.7524 173.7879

          k = 0.1667 0.4811 0.0000 (  8441 PWs)   bands (ev):

   -61.9092 -36.1212 -36.0201 -35.9973 -13.5460 -13.3353  -6.1816  -5.6851
    -4.7288  -4.0860  -3.3276  -2.7996  -1.4733   0.7928   1.2601   1.8290
     2.8862   5.2138   6.7447   6.8107   7.7609   8.0314   8.0603   8.5075
     8.7344   9.1575   9.4346  10.2066  10.3013  10.8187  11.1676  11.2198
    11.5837  12.0983  12.3599  12.8786  13.2118  13.3514  13.6114  13.6181
    14.1168  14.1983  14.6555  15.1088  15.3337  15.4814  15.7845  16.5099
    17.2596  17.3418  17.4796  17.7253  18.1543  18.8106  19.3044  19.5772
    19.6700  20.1391  20.2742  20.6870  20.8340  21.2047  21.6993  22.1301
    22.2412  22.6994  22.9802  23.2124  23.3888  23.6838  24.0502  24.1642
    24.6717  24.7235  25.0428  25.4500  25.6228  26.1455  26.3434  26.4043
    27.0681  27.0913  27.7018  27.8355  28.1395  28.2891  28.5639  28.8269
    29.0168  29.1713  29.3991  29.4135  29.7711  30.1957  30.2130  30.6970
    30.8831  30.9915  31.4612  31.7416  31.9910  32.0794  32.4394  32.6805
    32.6854  32.8346  33.4792  33.6392  33.9744  34.3016  34.7431  34.9236
    34.9690  35.1290  35.3708  35.4477  35.6907  35.8437  36.1025  36.2854
    36.3663  36.6325  36.7949  37.1775  37.2184  37.3510  37.7649  37.7733
    37.8708  38.1770  38.4003  38.5525  38.8186  38.8726  39.1536  39.2549
    39.4585  39.4997  39.9211  39.9226  40.3402  40.5011  40.6369  41.0517
    41.0951  41.2512  41.2577  41.3714  41.5949  41.8739  41.8907  42.1868
    42.2525  42.4680  42.4899  42.9216  43.0724  43.4231  43.4659  43.7591
    43.9494  44.0855  44.1062  44.3983  44.4241  44.4721  44.7669  44.9159
    45.1475  45.2851  45.4397  45.6673  45.7138  45.8774  46.1159  46.4253
    46.4588  46.8705  47.0142  47.0481  47.2432  47.2620  47.6261  48.0601
    48.2713  48.3476  48.5896  48.7266  48.9637  49.1267  49.2661  49.4054
    49.8010  49.8222  50.1930  50.3604  50.5027  50.7388  50.7664  50.9254
    51.1032  51.2140  51.2355  51.4694  51.7034  51.8224  52.0641  52.0891
    52.4326  52.5665  52.6332  52.8812  53.1012  53.1197  53.3350  53.5093
    53.7220  53.7414  53.8639  53.9837  54.4165  54.5025  54.7721  54.7900
    55.1581  55.2671  55.3942  55.5552  55.7065  55.8090  56.0795  56.1840
    56.2865  56.4730  56.5043  56.6499  56.7405  56.8842  57.0665  57.0943
    57.2689  57.4041  57.4134  57.7183  57.7222  57.9653  58.0142  58.3846
    58.4802  58.7612  58.9024  59.1307  59.1991  59.3275  59.5341  59.7923
    59.9671  60.1685  60.3308  60.3956  60.5942  60.9639  61.0569  61.4482
    61.5583  61.7722  62.0787  62.1469  62.2568  62.3230  62.3813  62.7426
    62.9872  63.0290  63.3304  63.4501  63.4574  63.8307  63.9503  64.1488
    64.3341  64.4414  64.7082  64.8086  65.0670  65.1901  65.5490  65.8721
    65.9869  66.0624  66.4003  66.4024  66.7580  67.0595  67.2111  67.2680
    67.6598  67.7181  68.0390  68.0878  68.4236  68.6601  69.0405  69.1121
    69.4047  69.4229  69.7562  69.9109  70.1992  70.2313  70.3811  70.6114
    70.6257  70.7235  71.1183  71.2116  71.4327  71.5502  71.7313  71.8525
    71.9127  71.9355  72.3235  72.3578  72.4028  72.7495  72.8026  72.9767
    73.0855  73.1987  73.2136  73.4601  73.7657  73.9239  74.1047  74.2290
    74.3803  74.6496  74.6691  74.9920  74.9971  75.1909  75.2098  75.4538
    75.6252  75.7443  75.8783  76.0079  76.1635  76.3608  76.5687  76.6264
    76.7215  76.9815  77.3043  77.4401  77.5018  77.6255  77.8413  77.8656
    78.1539  78.2656  78.3621  78.6265  78.7620  79.0296  79.1810  79.1811
    79.5476  79.5560  79.7844  79.8429  80.0258  80.2733  80.2809  80.4730
    80.7285  80.7639  80.9832  81.1221  81.2284  81.2717  81.4904  81.6171
    81.6445  81.8099  81.9952  82.1240  82.4010  82.4099  82.6262  82.7549
    82.9259  83.1145  83.3136  83.5195  83.6190  83.6763  83.8035  83.8622
    84.1694  84.3208  84.4023  84.6816  84.7571  84.8797  85.2010  85.2235
    85.4405  85.6339  85.7808  85.8355  85.9434  86.1370  86.1860  86.3876
    86.4570  86.7460  86.8189  86.9406  86.9462  87.0617  87.3566  87.4340
    87.7007  87.7777  87.9140  87.9629  88.0894  88.1217  88.3003  88.4895
    88.6801  88.8115  88.9642  89.2134  89.4403  89.4495  89.6853  89.7237
    89.8705  89.9783  90.0162  90.1538  90.3145  90.4548  90.4806  90.6758
    90.7877  91.0419  91.0499  91.2247  91.2583  91.3911  91.4073  91.5853
    91.8704  91.9750  92.1999  92.3143  92.4944  92.5027  92.5423  92.6883
    92.7942  92.9446  92.9561  93.1491  93.2056  93.3188  93.4118  93.4967
    93.7088  93.7604  93.9169  93.9527  94.1771  94.3299  94.3756  94.4060
    94.5788  94.6547  94.9523  95.0556  95.0984  95.2653  95.4799  95.5386
    95.7357  95.8031  95.8796  95.8964  96.1253  96.1992  96.3294  96.3851
    96.6341  96.6503  96.7048  96.8693  97.0283  97.0609  97.3222  97.3674
    97.4610  97.6304  97.8633  97.9988  98.0024  98.1765  98.3464  98.4801
    98.6141  98.6455  98.8014  98.8945  98.9632  99.1421  99.1990  99.2304
    99.2916  99.6752  99.6910  99.9387  99.9976 100.3225 100.4035 100.5190
   100.5639 100.8401 100.8665 101.0493 101.2250 101.2826 101.4630 101.6390
   101.7315 101.7604 102.0350 102.1717 102.1909 102.2579 102.2976 102.4512
   102.5233 102.6343 102.8449 102.9599 103.1966 103.2272 103.4612 103.4826
   103.6349 103.7513 104.0562 104.0700 104.2447 104.2807 104.4271 104.6179
   104.6611 104.8059 104.8062 104.9755 105.0040 105.0285 105.1451 105.2094
   105.5016 105.5347 105.7675 105.8068 105.9728 106.0501 106.1475 106.3485
   106.4037 106.4669 106.6373 106.7778 106.8734 106.9640 107.0911 107.1813
   107.2872 107.3706 107.6543 107.7106 107.8059 107.9148 108.0757 108.1064
   108.2355 108.4943 108.5131 108.6903 108.7107 108.9207 109.0009 109.0905
   109.2620 109.4228 109.4545 109.7891 109.8949 109.9198 109.9424 110.2676
   110.3286 110.4516 110.5968 110.7440 110.7665 111.0007 111.0900 111.2044
   111.2676 111.3557 111.4358 111.6300 111.6720 111.8059 111.8417 111.9986
   112.1531 112.1839 112.2995 112.3219 112.6048 112.7104 112.9224 113.0110
   113.0121 113.1286 113.3420 113.5931 113.6529 113.7086 113.8107 113.8764
   113.9043 114.0104 114.0688 114.0953 114.1761 114.2613 114.3496 114.5179
   114.5496 114.6705 114.7646 114.8385 114.9311 115.0123 115.0521 115.2764
   115.2907 115.3769 115.4147 115.5413 115.5920 115.8460 115.9363 115.9907
   116.1636 116.3229 116.5152 116.5397 116.6530 116.7760 116.9561 117.0567
   117.0968 117.1759 117.2560 117.4005 117.4694 117.7038 117.7174 117.8238
   117.9007 118.0247 118.0926 118.2457 118.2606 118.5458 118.5677 118.8903
   119.0835 119.1248 119.2634 119.3592 119.4172 119.5692 119.6172 119.6992
   119.7713 119.9781 120.0080 120.1652 120.2110 120.3805 120.6300 120.8361
   120.8974 121.0253 121.0816 121.3359 121.3370 121.5068 121.7032 121.8885
   122.0413 122.2016 122.2213 122.3810 122.5687 122.5773 122.7925 122.8856
   123.0282 123.0319 123.1638 123.2379 123.2482 123.3799 123.5580 123.6225
   123.7014 123.8214 123.9062 123.9874 124.0037 124.2595 124.5582 124.6608
   124.8039 125.2428 125.4291 125.5564 125.7259 125.7557 125.8895 126.0104
   126.2589 126.2812 126.3878 126.4022 126.5645 126.6331 126.7692 126.9222
   126.9653 127.0410 127.1122 127.2489 127.3013 127.3198 127.4489 127.5894
   127.8230 127.9174 127.9462 127.9701 128.1653 128.1701 128.3780 128.5140
   128.5366 128.8785 128.9492 128.9802 129.1552 129.1631 129.2041 129.2869
   129.4421 129.5236 129.6620 129.8302 129.8732 129.9915 130.0723 130.1930
   130.2772 130.4044 130.5119 130.5712 130.6809 131.0326 131.1251 131.3567
   131.3890 131.5429 131.6356 131.6427 131.8537 131.9916 132.1209 132.1257
   132.1686 132.3010 132.4485 132.5306 132.6325 132.8596 132.9428 133.0441
   133.1017 133.3593 133.6443 133.6515 133.8023 133.8124 133.9616 134.1696
   134.2318 134.4849 134.4908 134.7116 134.8599 134.8866 134.9532 135.1225
   135.1894 135.3105 135.3595 135.5382 135.5584 135.5672 135.6810 135.9128
   136.0752 136.0999 136.3647 136.4046 136.5713 136.5833 136.6947 136.7395
   136.8857 136.9747 137.1116 137.2222 137.2596 137.3273 137.5337 137.5829
   137.6073 137.8539 137.9447 138.0213 138.0994 138.2167 138.2252 138.3542
   138.3587 138.5539 138.5803 138.7244 138.8592 139.0245 139.1011 139.2617
   139.3110 139.5730 139.6066 139.8971 139.9494 140.1195 140.2464 140.4685
   140.5538 140.6756 140.7064 140.9584 141.0566 141.2051 141.3175 141.3659
   141.4502 141.6624 141.8354 141.8432 141.9841 142.0431 142.1768 142.1971
   142.2493 142.2757 142.5106 142.5156 142.7246 142.9450 143.1093 143.1833
   143.2895 143.3284 143.3952 143.6718 143.9018 143.9810 144.1338 144.1659
   144.3387 144.3717 144.5042 144.5477 144.6794 144.7356 144.8386 144.9928
   145.1039 145.1533 145.4111 145.4322 145.6397 145.6837 145.7884 145.8420
   146.1373 146.1684 146.3156 146.3469 146.5168 146.6119 146.7894 146.9360
   146.9600 147.1099 147.2239 147.2317 147.4779 147.6703 147.6863 147.7662
   147.8256 147.9274 147.9887 148.2571 148.3552 148.3781 148.4313 148.6660
   148.8669 148.9452 149.0607 149.2137 149.2975 149.3662 149.8231 149.9088
   150.0367 150.0878 150.2075 150.2106 150.3838 150.4069 150.6097 150.8259
   150.8912 151.0098 151.1662 151.1921 151.3108 151.3194 151.4614 151.5094
   151.6642 151.8497 151.9862 152.2689 152.4486 152.6244 152.7228 152.8747
   152.9174 153.0721 153.2031 153.3917 153.4586 153.7116 153.7456 153.8171
   153.9170 154.0016 154.1704 154.1728 154.3391 154.3928 154.4413 154.6528
   154.7592 154.8254 154.8931 154.9569 155.3580 155.4549 155.6516 155.9049
   156.0178 156.2008 156.2218 156.4200 156.4697 156.6202 156.6362 156.7054
   156.7543 156.9300 156.9647 157.0105 157.1912 157.2703 157.3652 157.3695
   157.4993 157.5945 157.6448 157.6661 157.7461 157.8644 157.9551 158.2211
   158.2417 158.4953 158.5297 158.6759 158.6837 159.0052 159.0344 159.0965
   159.1332 159.1963 159.3770 159.4205 159.6114 159.6513 159.7311 159.7541
   159.9633 159.9643 160.0983 160.2193 160.3185 160.3663 160.4159 160.7369
   160.8583 160.9963 161.1151 161.3973 161.4985 161.5862 161.7164 161.7960
   161.8995 161.9782 162.0121 162.0388 162.1730 162.2999 162.3057 162.5039
   162.5400 162.6585 162.6589 162.7783 162.8147 162.9228 162.9499 163.1376
   163.1791 163.2683 163.3435 163.5485 163.6377 163.6554 163.7157 163.7864
   163.8511 163.9337 164.0056 164.2743 164.3944 164.4731 164.7127 164.7515
   165.0034 165.0546 165.1466 165.2872 165.4155 165.5118 165.6084 165.6133
   165.7380 165.7841 165.8039 166.0228 166.1135 166.1556 166.3204 166.4393
   166.5728 166.6417 166.8074 166.8628 166.9071 167.0789 167.0901 167.2734
   167.3401 167.3788 167.5945 167.6579 167.8161 167.9302 168.0824 168.1015
   168.2971 168.5061 168.5824 168.7487 168.8389 168.9868 169.0140 169.1250
   169.1494 169.2659 169.2848 169.4059 169.4524 169.6610 169.7060 169.7648
   169.8122 169.8664 169.9724 170.0592 170.0681 170.2100 170.3043 170.3919
   170.4002 170.6461 170.8000 170.9261 170.9276 171.0872 171.1305 171.3210
   171.3689 171.5781 171.6522 171.8164 171.8202 171.9010 172.0001 172.1352
   172.1457 172.2733 172.3997 172.4734 172.6344 172.6347 172.8710 172.8951
   173.1223 173.1233 173.2894 173.2965 173.6091 173.6113 173.6745 173.8469
   173.9394 174.0981 174.1488 174.1911 174.2378 174.2912 174.4112 174.4730
   174.6067 174.6651 174.7671 174.7864 174.8450 175.0202 175.0820 175.2075
   175.3028 175.3075 175.4484 175.4617 175.5296 175.6437 175.7954 175.8594

          k = 0.3333 0.5774 0.0000 (  8433 PWs)   bands (ev):

   -61.9065 -36.0924 -36.0635 -36.0137 -13.2761 -13.1765  -6.0630  -5.5613
    -5.0151  -4.4672  -4.0000  -3.1967  -1.0784   0.3880   1.4877   1.9628
     3.2546   5.4556   5.7248   7.8350   8.5700   8.8942   9.5468   9.6327
     9.9489  10.3516  10.4882  10.5641  10.6045  10.7352  11.0405  11.0982
    11.1490  11.5348  11.7341  11.8283  12.1200  12.3188  12.7171  12.8411
    12.8501  13.0256  14.0687  14.3520  14.5311  14.7384  15.1093  15.4159
    15.9753  16.6687  16.8293  17.1087  17.3497  17.3766  18.2936  19.5504
    19.6150  20.0753  20.2694  20.7249  22.0388  22.1218  22.3583  22.6773
    23.1839  23.5627  23.5923  24.1906  24.3761  24.6893  25.1430  25.7772
    25.8793  25.8913  26.5400  26.5885  27.1067  27.5311  27.6239  27.6603
    28.0840  28.1458  28.2696  28.6053  28.6551  28.6636  28.7042  28.7480
    29.0707  29.1637  29.2188  29.3104  29.5781  29.8591  29.9698  30.0500
    30.4454  30.8001  31.1349  31.2412  31.5287  31.7383  32.0230  32.1005
    32.1880  32.3366  32.3847  32.7299  32.8227  33.4882  33.5748  33.5904
    33.6582  33.6919  34.1937  34.2560  34.5756  35.0328  35.4025  35.5130
    35.5267  35.6180  36.0240  36.8999  37.0067  37.1623  37.4308  37.8983
    38.0306  38.0393  38.2937  38.4932  38.5077  38.8812  38.9968  39.1473
    39.5607  39.8464  40.2530  40.3389  40.4100  40.9022  41.2123  41.3269
    41.9385  42.2590  42.5799  43.0053  43.5727  43.7243  43.7641  43.7883
    44.3149  44.3425  44.8175  45.1944  45.2708  45.5925  45.6481  45.7183
    45.7344  46.0215  46.2039  46.2160  46.2586  46.3920  46.4672  46.4713
    46.5851  46.7193  46.8767  46.8786  46.9054  46.9276  47.0111  47.1007
    47.1607  47.1741  47.3956  47.4359  47.5151  47.5562  47.6205  47.7609
    47.7886  47.9761  48.0258  48.0901  48.4558  48.4916  48.6681  48.8061
    49.0047  49.1216  49.1685  49.6730  49.6742  49.7647  49.8932  49.9187
    49.9200  50.1819  50.2470  50.5167  50.5682  50.6012  50.7007  50.7043
    50.9374  51.2612  51.4969  51.6118  51.6794  51.9306  51.9488  52.0376
    52.4116  52.4227  52.4477  52.4984  52.6924  52.8276  52.8420  52.9347
    52.9685  53.6331  54.1587  54.2386  54.5024  54.5256  54.5671  55.1930
    55.3478  55.3635  55.4358  55.4453  55.6182  55.9753  56.1201  56.1940
    56.2647  56.7474  56.7910  57.2793  57.3468  57.4933  57.7621  57.9985
    58.0355  58.4269  58.4660  58.5957  58.6724  58.8477  59.1458  59.1967
    59.4943  59.5583  59.6581  59.7127  59.9572  60.0544  60.5774  60.7787
    60.9373  61.3093  61.3449  61.6976  62.0520  62.0625  62.1479  62.4065
    62.5895  62.8713  63.1947  63.2324  63.5477  63.5895  63.7262  63.9046
    64.1747  64.2354  64.4386  64.6598  64.7585  65.1193  65.2515  65.6375
    65.6641  65.6934  66.0766  66.1183  66.7809  67.0770  67.1708  67.2483
    67.2670  67.4277  67.8577  67.9799  68.1443  68.4135  68.4843  68.5595
    68.9763  69.0507  69.0583  69.3033  69.3695  69.4283  69.6196  69.6749
    69.8683  70.0042  70.4792  70.5259  70.6324  70.8645  71.8562  71.9263
    72.1258  72.1500  72.4190  72.5152  72.8122  72.9250  73.6184  73.6736
    74.0320  74.1482  74.2578  74.6171  74.7189  74.9545  75.0346  75.1003
    75.1836  75.4648  75.6231  75.6301  75.9683  76.1807  76.3569  76.4233
    76.5119  76.5814  76.9095  76.9471  77.5957  77.6158  77.7018  78.1458
    78.3690  78.7437  79.0451  79.2591  79.5102  79.6439  79.9196  79.9808
    80.5203  81.1050  81.1119  81.1421  81.2343  81.3124  81.3226  81.5085
    81.6098  81.7409  81.8456  81.8578  82.3468  82.3944  82.5179  82.7019
    82.7535  82.7978  82.9374  82.9831  83.0667  83.0681  83.2160  83.2188
    83.3441  83.3587  83.3667  83.3854  83.4266  83.6064  83.6193  83.7359
    83.9245  83.9514  84.1570  84.1755  84.2359  84.2360  84.2608  84.2938
    84.4055  84.4664  84.5755  84.5879  84.7251  84.9488  85.1440  85.1920
    85.3229  85.3407  85.3847  85.5571  85.7316  85.7406  85.8125  85.8196
    85.9106  86.0231  86.0348  86.0446  86.2312  86.4023  86.4250  86.6920
    86.7501  86.7780  86.9896  87.0661  87.1758  87.4539  87.6340  87.7652
    87.9194  87.9203  88.0344  88.0426  88.2399  88.3358  88.5147  88.5834
    88.7240  88.9959  89.0299  89.2249  89.2617  89.6180  89.9538  90.0531
    90.0612  90.0644  90.4093  90.4163  90.5331  90.7485  90.7510  91.2597
    91.3817  91.4196  91.5116  91.7998  91.8937  91.9331  92.1092  92.2774
    92.3969  92.7450  92.7937  92.8561  92.9563  93.0438  93.1100  93.2555
    93.3008  93.3040  93.4230  93.4928  93.6863  93.9503  94.4896  94.6302
    94.6697  94.7456  94.7763  94.7843  95.0999  95.1068  95.4345  95.4510
    95.5567  95.7434  95.8083  95.8514  95.9104  96.0407  96.1260  96.2730
    96.3868  96.4193  96.5125  96.5971  96.7838  96.8027  96.8028  96.8902
    97.2314  97.6524  97.8278  98.2155  98.3215  98.7000  99.0533  99.1103
    99.1381  99.4808  99.6400  99.6407  99.8816  99.9365 100.0325 100.2170
   100.4311 100.6148 100.6871 100.8391 100.9401 100.9650 101.0260 101.0731
   101.2644 101.2849 101.3721 101.4517 101.5300 101.5402 101.6350 101.7792
   101.7802 101.8245 101.9032 102.3467 102.3917 102.4299 102.4508 102.5197
   102.5631 102.6110 102.6500 102.6578 102.7359 102.8792 102.9068 102.9875
   103.1142 103.3754 103.3927 103.4006 103.4711 103.6315 103.8455 104.1054
   104.1349 104.1805 104.3526 104.3578 104.4273 104.4415 104.6007 104.6582
   104.7895 104.8062 104.8488 105.0588 105.0633 105.4524 105.5595 105.5798
   105.6249 105.6281 105.6698 105.8248 106.0345 106.0760 106.4120 106.4124
   106.5995 106.7294 106.9406 107.0528 107.1174 107.1322 107.1597 107.4354
   108.2090 108.2645 108.3015 108.3175 108.5007 108.5096 108.7702 108.8855
   109.1988 109.5589 109.6802 109.8502 109.9555 110.1180 110.4290 110.5300
   110.6129 110.6518 110.9001 110.9806 111.0431 111.2354 111.2617 111.4726
   111.5946 111.6226 111.6281 111.6299 111.6838 112.0811 112.1207 112.2781
   112.3211 112.4918 112.5868 112.5915 112.6416 112.7164 113.1046 113.1992
   113.2209 113.2894 113.4166 113.5476 113.8228 113.8738 113.9122 114.0164
   114.0485 114.3895 114.3996 114.4048 114.7714 114.8844 114.9803 115.1060
   115.2544 115.8536 115.9993 116.1417 116.2295 116.3621 116.4176 116.7143
   116.8708 117.0505 117.1010 117.1095 117.3501 117.4067 117.4195 117.5228
   117.8896 117.9500 118.1651 118.3147 118.3147 118.5070 118.5572 118.6028
   118.6302 118.7760 119.0007 119.0416 119.3646 119.3682 119.4270 119.4366
   119.4806 119.5791 119.6694 119.6923 119.7373 119.7710 119.8046 119.8450
   119.8514 119.8594 120.0171 120.0444 120.1789 120.3603 120.4710 120.4799
   120.5603 120.6031 120.6093 120.6334 120.6555 120.6835 120.7463 120.7660
   120.8165 120.8888 120.9708 121.1030 121.3564 121.4846 121.5004 121.5919
   121.8165 121.9393 121.9972 122.2154 122.2178 122.2390 122.2679 122.3501
   122.3541 122.3938 122.4836 122.4847 122.5411 122.5812 122.5950 123.0405
   123.2480 123.3659 123.3935 123.4690 123.5708 123.6218 123.6585 123.6593
   123.6627 123.7033 123.8968 123.9188 124.0966 124.1433 124.1540 124.3570
   124.3783 124.5833 124.7219 124.8842 124.9665 125.0089 125.0595 125.1139
   125.2741 125.3077 125.3702 125.3859 125.3885 125.4815 125.5175 125.5291
   125.7390 126.0158 126.5687 126.9222 127.1323 127.1758 127.2394 127.2452
   127.2674 127.3988 127.5882 127.8433 127.8501 127.8609 127.9986 128.0873
   128.1838 128.2221 128.3561 128.3991 128.5746 128.8667 128.8711 128.8827
   128.9794 129.0305 129.2499 129.2535 129.3484 129.8475 129.9917 130.0499
   130.0602 130.1654 130.2938 130.3292 130.4585 130.4609 130.5321 130.8279
   131.0018 131.1382 131.3697 131.3911 131.4726 131.6810 131.7295 131.7691
   131.8665 131.8864 131.9642 132.0749 132.2953 132.4259 132.5578 132.6112
   132.7003 132.7098 132.7376 132.8644 132.9319 133.0468 133.0915 133.1192
   133.3382 133.3463 133.4077 133.4540 133.4975 134.0825 134.2034 134.2532
   134.7255 134.8123 134.9005 134.9054 135.0910 135.3638 135.5481 136.0422
   136.1221 136.2353 136.3347 136.3941 136.6329 136.6417 136.6713 136.7442
   136.8092 136.8234 136.9569 137.0829 137.2518 137.4336 137.7671 137.9206
   137.9845 138.0591 138.1749 138.1887 138.1927 138.5452 138.6376 138.8237
   138.8341 138.9366 138.9949 139.0412 139.2403 139.4888 139.7675 140.0349
   140.1643 140.4931 140.6549 140.7055 140.7599 140.8994 140.9096 140.9694
   141.0601 141.1919 141.4757 141.5898 141.6040 141.6362 141.6387 141.8981
   141.9266 141.9823 142.0063 142.2201 142.2553 142.3597 142.3961 142.4159
   142.4359 142.5708 142.6634 143.3094 143.7824 143.9241 144.1400 144.1620
   144.2270 144.9517 145.2052 145.2076 145.3218 145.3301 145.5380 145.8011
   145.8033 145.9574 145.9923 146.2112 146.5000 146.6160 147.0807 147.1657
   147.2464 147.3810 147.4488 147.5525 147.6223 147.7589 147.7974 147.9098
   147.9129 147.9301 147.9852 148.0455 148.4364 148.5553 148.5715 148.6052
   148.7168 148.8120 148.8248 149.0905 149.1138 149.2067 149.4090 149.6132
   150.0155 150.1689 150.2093 150.5615 150.7648 150.7891 150.8807 150.9887
   151.0010 151.0198 151.0283 151.1937 151.2236 151.2377 151.5392 151.6878
   151.8674 152.0711 152.1103 152.1261 152.4505 152.4562 152.6078 152.6155
   152.8598 152.9628 153.0199 153.3537 153.5190 153.6137 153.8367 153.8884
   153.9934 154.0734 154.1071 154.1748 154.3292 154.3709 154.4030 154.5370
   154.8926 154.9090 155.0357 155.0477 155.1559 155.2230 155.5384 155.9010
   155.9864 156.0122 156.0436 156.1511 156.1719 156.1837 156.2724 156.2740
   156.3187 156.3421 156.4780 156.6669 156.7566 156.7586 156.7709 156.8529
   156.8928 156.9111 157.2541 157.3104 157.3303 157.3497 157.3783 157.4532
   157.4810 157.5997 157.7395 157.7916 157.8805 157.9003 158.1095 158.4156
   158.8118 158.9121 159.0611 159.0895 159.1824 159.2174 159.2470 159.2776
   159.5433 159.6772 159.7343 159.7418 159.8628 159.9420 160.0422 160.1020
   160.2385 160.4394 160.4902 160.5121 160.6878 160.7440 160.8802 160.9682
   161.0384 161.1008 161.3157 161.6256 161.6593 161.7225 161.7343 161.8100
   161.8581 161.9606 162.0262 162.1537 162.2350 162.2882 162.4610 162.5947
   163.0136 163.0986 163.1157 163.1681 163.3757 163.4005 163.5132 164.0384
   164.0683 164.0797 164.1064 164.2293 164.2894 164.4047 164.5978 164.6113
   164.6188 164.6647 164.8294 164.8566 164.9375 164.9749 164.9783 165.1678
   165.2575 165.3001 165.3282 165.4160 165.8082 165.9537 165.9961 166.1095
   166.1902 166.2185 166.3999 166.5587 166.5593 166.7057 166.8874 167.2480
   167.5141 167.5903 167.6271 167.7813 167.8013 167.8876 167.9118 167.9964
   168.1164 168.1299 168.2721 168.3721 168.4808 168.4918 168.5052 168.7582
   168.7746 168.9295 169.0454 169.0472 169.0659 169.1449 169.3429 169.3454
   169.4749 169.5181 171.2445 171.3008 171.4075 171.5053 171.5554 171.5995
   171.6978 171.8334 171.9345 172.3268 172.3639 172.3999 172.5341 172.6110
   172.6684 172.8379 172.9050 172.9543 172.9820 173.0412 173.0472 173.0837
   173.2030 173.2674 173.2937 173.5176 173.6011 173.6071 173.6506 173.7765
   173.8655 173.9238 173.9308 174.0772 174.2044 174.2293 174.2572 174.3924
   174.4118 174.4187 174.4220 174.5492 174.5523 174.5581 174.5833 174.5936
   174.7075 174.7923 174.8388 174.8623 174.9297 174.9419 175.2051 175.2164
   175.2280 175.2360 175.2528 175.3055 175.3519 175.4021 175.5452 175.6038
   175.6178 175.6225 175.6972 175.7600 175.8165 175.8374 175.8415 175.9254

     the Fermi energy is    -0.6389 ev
     (compare with:    -0.9195 eV, computed in scf)

     Writing all to output data dir out/MoSe2.save/
 
     init_run     :      0.18s CPU      0.20s WALL (       1 calls)
     electrons    :    405.93s CPU    416.28s WALL (       1 calls)

     Called by init_run:
     wfcinit      :      0.00s CPU      0.00s WALL (       1 calls)
     potinit      :      0.02s CPU      0.02s WALL (       1 calls)
     hinit0       :      0.06s CPU      0.07s WALL (       1 calls)

     Called by electrons:
     c_bands      :    405.93s CPU    416.27s WALL (       1 calls)
     v_of_rho     :      0.02s CPU      0.02s WALL (       1 calls)

     Called by c_bands:
     init_us_2    :      0.00s CPU      0.00s WALL (       7 calls)
     init_us_2:cp :      0.00s CPU      0.00s WALL (       7 calls)
     paro_k       :    393.07s CPU    403.01s WALL (       7 calls)

     Called by paro_*:
     h_psi        :     23.40s CPU     23.74s WALL (    1210 calls)
     g_psi        :      0.27s CPU      0.29s WALL (  109480 calls)

     Called by h_psi:
     h_psi:calbec :      0.73s CPU      0.75s WALL (    1210 calls)
     vloc_psi     :     21.94s CPU     22.24s WALL (    1210 calls)
     add_vuspsi   :      0.57s CPU      0.57s WALL (    1210 calls)

     General routines
     calbec       :      0.73s CPU      0.75s WALL (    1210 calls)
     fft          :      0.01s CPU      0.02s WALL (      10 calls)
     fftw         :     20.44s CPU     20.73s WALL (  175948 calls)
 
     Parallel routines
 
     PWSCF        :   6m47.26s CPU   6m58.38s WALL

 
   This run was terminated on:  10:41:51   5Apr2024            

=------------------------------------------------------------------------------=
   JOB DONE.
=------------------------------------------------------------------------------=
