
     Program PWSCF v.7.1 starts on 30Nov2023 at 20:20:53 

     This program is part of the open-source Quantum ESPRESSO suite
     for quantum simulation of materials; please cite
         "P. Giannozzi et al., J. Phys.:Condens. Matter 21 395502 (2009);
         "P. Giannozzi et al., J. Phys.:Condens. Matter 29 465901 (2017);
         "P. Giannozzi et al., J. Chem. Phys. 152 154105 (2020);
          URL http://www.quantum-espresso.org", 
     in publications or presentations arising from this work. More details at
     http://www.quantum-espresso.org/quote

     Parallel version (MPI), running on     8 processors

     MPI processes distributed on     1 nodes
     120804 MiB available memory on the printing compute node when the environment starts
 
     Reading input from pw_mp-12558_nscf_k10_E69.in
Warning: card &IONS ignored
Warning: card / ignored
Warning: card &CELL ignored
Warning: card / ignored

     Current dimensions of program PWSCF are:
     Max number of different atomic species (ntypx) = 10
     Max number of k-points (npk) =  40000
     Max angular momentum in pseudopotentials (lmaxx) =  4

     Atomic positions and unit cell read from directory:
     out/mp-12558.save/
     Atomic positions from file used, from input discarded
 
 
     R & G space division:  proc/nbgrp/npool/nimage =       8
     Subspace diagonalization in iterative solution of the eigenvalue problem:
     one sub-group per band group will be used
     scalapack distributed-memory algorithm (size of sub-group:  2*  2 procs)

 
     Parallelization info
     --------------------
     sticks:   dense  smooth     PW     G-vecs:    dense   smooth      PW
     Min         160     160     45                 3807     3807     579
     Max         161     161     46                 3809     3809     582
     Sum        1285    1285    367                30467    30467    4645
 
     Using Slab Decomposition
 


     bravais-lattice index     =            2
     lattice parameter (alat)  =      11.6335  a.u.
     unit-cell volume          =     393.6194 (a.u.)^3
     number of atoms/cell      =            3
     number of atomic types    =            3
     number of electrons       =        18.00
     number of Kohn-Sham states=         1200
     kinetic-energy cutoff     =      69.0000  Ry
     charge density cutoff     =     276.0000  Ry
     Exchange-correlation= PBE
                           (   1   4   3   4   0   0   0)

     celldm(1)=  11.633547  celldm(2)=   0.000000  celldm(3)=   0.000000
     celldm(4)=   0.000000  celldm(5)=   0.000000  celldm(6)=   0.000000

     crystal axes: (cart. coord. in units of alat)
               a(1) = (  -0.500000   0.000000   0.500000 )  
               a(2) = (   0.000000   0.500000   0.500000 )  
               a(3) = (  -0.500000   0.500000   0.000000 )  

     reciprocal axes: (cart. coord. in units 2 pi/alat)
               b(1) = ( -1.000000 -1.000000  1.000000 )  
               b(2) = (  1.000000  1.000000  1.000000 )  
               b(3) = ( -1.000000  1.000000 -1.000000 )  


     PseudoPot. # 1 for As read from file:
     /usr/scratch4/magr4985/MG/HTDF/pseudo/SG15/As.upf
     MD5 check sum: a2ff92a4799c87c945fff9e6739df4dd
     Pseudo is Norm-conserving, Zval =  5.0
     Generated using ONCVPSP code by D. R. Hamann
     Using radial grid of  602 points,  6 beta functions with: 
                l(1) =   0
                l(2) =   0
                l(3) =   1
                l(4) =   1
                l(5) =   2
                l(6) =   2

     PseudoPot. # 2 for Li read from file:
     /usr/scratch4/magr4985/MG/HTDF/pseudo/SG15/Li.upf
     MD5 check sum: c91dd4cee9943b136ac3b62641658f95
     Pseudo is Norm-conserving, Zval =  3.0
     Generated using ONCVPSP code by D. R. Hamann
     Using radial grid of  602 points,  4 beta functions with: 
                l(1) =   0
                l(2) =   0
                l(3) =   1
                l(4) =   1

     PseudoPot. # 3 for Mg read from file:
     /usr/scratch4/magr4985/MG/HTDF/pseudo/SG15/Mg.upf
     MD5 check sum: 330956729b1f868fdecd9f5113f6a961
     Pseudo is Norm-conserving, Zval = 10.0
     Generated using ONCVPSP code by D. R. Hamann
     Using radial grid of  602 points,  4 beta functions with: 
                l(1) =   0
                l(2) =   0
                l(3) =   1
                l(4) =   1

     atomic species   valence    mass     pseudopotential
        As             5.00    74.92160     As( 1.00)
        Li             3.00     6.94100     Li( 1.00)
        Mg            10.00    24.30500     Mg( 1.00)

     24 Sym. Ops. (no inversion) found



   Cartesian axes

     site n.     atom                  positions (alat units)
         1           Li  tau(   1) = (   0.0000000   0.0000000   0.0000000  )
         2           Mg  tau(   2) = (  -0.5000000   0.5000000   0.5000000  )
         3           As  tau(   3) = (  -0.2500000   0.2500000   0.2500001  )

     number of k points=     3  Gaussian smearing, width (Ry)=  0.0005
                       cart. coord. in units 2pi/alat
        k(    1) = (   0.0000000   0.0000000   0.0000000), wk =   0.2500000
        k(    2) = (   0.5000000  -0.5000000   0.5000000), wk =   1.0000000
        k(    3) = (   0.0000000  -1.0000000   0.0000000), wk =   0.7500000

     Dense  grid:    30467 G-vectors     FFT dimensions: (  45,  45,  45)

     Estimated max dynamical RAM per process >     142.09 MB

     Estimated total dynamical RAM >       1.11 GB

     The potential is recalculated from file :
     out/mp-12558.save/charge-density

     Starting wfcs are random

     Band Structure Calculation
     Davidson diagonalization with overlap

     ethr =  5.00E-06,  avg # of iterations = 10.7

     total cpu time spent up to now is      413.9 secs

     End of band structure calculation

          k = 0.0000 0.0000 0.0000 (  3839 PWs)   bands (ev):

   -70.6254 -40.8263 -37.4014 -37.4014 -37.4014  -5.7159   4.6940   4.6940
     4.6940   6.4157   8.8462   8.8462   8.8462  12.8577  12.8577  13.5783
    13.5783  13.5783  14.7147  18.6093  24.1218  24.1218  24.1218  26.4156
    26.4156  26.4156  27.5464  27.5464  28.6280  28.6280  28.6280  34.4290
    34.4290  34.4290  36.8318  36.8318  38.0043  38.6851  38.6851  38.6851
    39.0137  39.0137  39.0137  39.1466  39.1466  39.8168  39.8168  39.8168
    40.8973  40.8973  40.8973  41.3076  41.3318  41.3318  41.3318  43.3038
    43.3038  43.3038  44.1117  45.8477  45.8477  45.8477  51.9267  54.1103
    57.3448  57.3448  58.7130  58.7130  58.7131  63.7788  63.7788  63.7788
    64.1633  66.0146  66.0146  66.0146  66.3358  66.3358  66.3358  66.3934
    66.3934  69.4160  69.4160  69.4160  70.5961  70.5961  70.8226  70.8226
    70.8226  71.7931  71.7931  71.7931  72.7944  72.7944  73.9158  73.9158
    73.9158  74.7979  75.1993  75.1993  75.1993  75.7474  75.7474  75.7474
    76.2741  76.2741  76.2741  77.6577  77.6577  77.6605  77.6605  77.6605
    77.7692  77.7692  77.7692  77.9634  80.4164  85.0920  85.0920  85.0920
    87.7553  87.7553  87.7553  88.4125  88.7132  88.7132  89.5724  89.8939
    89.8939  89.8939  90.8454  90.8454  90.8454  91.3325  91.3325  91.3326
    91.5147  91.5147  91.5147  91.9491  91.9491  96.2487  96.2487  99.0822
    99.0822  99.0822  99.5874 100.7895 100.8110 100.8110 100.8110 101.8341
   101.8433 101.8433 102.1134 102.1134 102.1134 103.4468 103.4468 103.4468
   103.5135 103.5135 103.5135 104.0046 104.0046 104.0046 104.7827 104.7827
   104.7827 105.7255 105.7255 105.7255 112.2130 115.3566 116.7205 116.7205
   116.7205 117.5284 117.5284 117.5284 118.0989 118.0989 119.2048 123.0134
   123.0134 123.0134 123.6984 123.6984 123.6984 126.0787 126.0787 126.9953
   126.9953 126.9954 128.1276 128.4815 128.4815 128.4815 129.6881 129.6881
   129.6881 130.3480 130.3480 130.3480 130.8089 130.8089 132.0187 132.0187
   132.0187 133.2553 133.6575 133.6575 133.6575 133.6802 133.6802 134.1616
   134.1616 134.1616 134.4541 134.4541 134.6598 134.6598 134.6598 134.8441
   134.8441 134.8441 135.5128 135.5128 135.5128 136.1401 136.2143 136.2143
   136.2143 136.2151 136.2151 136.2151 136.2216 136.2679 136.2679 136.4135
   136.4135 136.4135 136.6353 139.8089 139.8089 139.8335 139.8335 139.8335
   139.8535 139.8535 139.8535 139.9050 139.9050 139.9050 140.0047 140.0047
   140.1497 140.1497 140.1497 142.8404 145.3263 145.3263 145.3263 146.3377
   146.3377 150.0604 150.0604 150.0604 152.2781 152.4687 152.4687 152.4687
   153.1900 153.1900 153.1900 153.5336 153.5336 153.5336 154.3510 154.3510
   154.3510 156.1769 156.2668 156.2668 156.3437 156.3437 156.3437 156.4662
   157.9853 157.9853 157.9853 161.6891 161.6891 161.9407 162.2827 162.2827
   162.2827 163.5435 163.5435 163.5435 163.8653 163.8653 163.8653 164.5721
   164.5721 164.5721 164.5990 164.5990 164.9270 164.9270 164.9270 168.1646
   168.1646 168.1646 168.6021 168.6021 169.3399 169.3399 169.3399 169.9338
   169.9338 169.9338 169.9986 170.0710 170.0710 170.0710 170.8228 170.8228
   170.8228 171.1352 171.1352 175.0009 175.0009 175.0009 176.6595 181.2896
   181.2896 181.2896 181.6956 183.8638 183.8638 183.8638 184.5147 187.1074
   187.1074 187.8783 187.8783 187.8783 188.0777 188.0777 188.0777 188.3290
   188.3290 188.3380 190.8082 190.8083 190.8083 191.9623 191.9623 191.9623
   192.3827 192.3827 192.8698 192.8698 192.8698 193.2648 193.3190 193.3190
   193.3190 193.9269 193.9269 193.9269 194.8025 194.8025 195.3387 196.7036
   197.8227 197.8227 197.8227 197.8617 197.8617 197.8617 198.0232 198.0232
   198.0232 198.1905 198.1905 198.1905 198.2807 198.2807 198.2807 200.8943
   200.8943 200.8943 201.2564 201.2564 201.6761 201.6761 201.6761 201.8742
   201.8742 201.8742 201.9538 201.9538 201.9538 202.0700 202.0700 202.1012
   202.1012 202.1012 202.2253 205.4899 205.6290 205.6290 205.6290 206.5153
   206.5153 206.5154 207.6548 209.6884 209.6884 210.5406 210.5406 210.5406
   211.1121 211.1121 211.1121 211.9137 211.9137 211.9137 212.5505 212.5505
   212.5505 213.8627 213.8627 215.0057 215.2975 215.2975 215.2975 216.4769
   216.4769 216.9568 216.9568 216.9568 217.3828 217.3828 217.3828 217.7211
   217.7211 217.7211 218.3969 218.3969 218.3969 218.4795 218.4795 218.9662
   219.0779 219.0779 219.0779 219.5316 219.5316 219.5316 219.8384 219.8384
   219.8384 220.0606 220.9918 222.9117 222.9117 223.9035 223.9035 223.9035
   224.4765 225.4219 225.4219 225.4219 225.4247 225.4247 225.4247 225.6395
   225.6395 225.6395 225.8215 225.8215 226.0139 226.0139 226.0139 226.0665
   226.1725 226.1725 226.1725 229.3997 229.3997 229.3997 229.6087 229.6087
   229.6185 229.6185 229.6185 230.1435 230.1435 230.1435 230.1965 230.1965
   230.1965 230.3954 230.3954 230.5281 230.5281 230.5281 230.5631 230.5631
   230.5631 230.5640 230.5640 230.5640 230.6282 230.6282 230.6921 230.7200
   230.7200 230.7200 230.7988 230.9174 230.9174 230.9174 231.1000 231.1000
   231.1556 231.1556 231.1556 240.6576 240.6576 240.6576 242.5432 245.1360
   245.1360 247.7403 247.7403 247.7403 249.2279 250.9856 250.9856 250.9856
   252.1160 252.1435 252.1435 253.8889 253.8889 253.8890 255.8779 255.8779
   255.8779 256.1752 256.3815 256.3815 256.3815 256.5517 256.5517 256.5517
   256.7654 256.7654 257.3418 257.6690 257.6690 257.6690 258.4133 258.4133
   258.4133 258.8518 258.8518 258.8518 259.2589 259.2589 260.5849 264.2224
   264.2224 264.2224 264.2789 264.2789 264.2789 264.3224 264.3224 264.3224
   264.4211 264.4211 264.4211 265.9840 265.9840 266.0666 266.0666 266.0666
   266.2747 266.2747 266.2747 266.2917 266.2917 266.2917 266.3490 266.3490
   266.3775 266.3775 266.3775 267.2252 267.2252 267.2572 267.2572 267.2572
   267.3257 269.6938 269.6938 269.6938 270.9287 272.4732 272.4732 272.4732
   272.5217 272.5217 273.1203 273.1203 273.1203 275.8865 275.8865 276.1518
   276.1518 276.1518 277.1294 278.2274 278.2274 278.2274 278.6939 278.6939
   278.6939 279.2055 279.2055 279.2055 279.3165 279.3165 279.3165 279.7397
   279.7397 279.7397 280.6454 281.1084 281.1084 281.1084 281.1609 281.1609
   282.0234 282.1227 282.1227 282.1227 282.9216 282.9216 283.0348 283.0348
   283.0348 285.2886 286.5131 286.5131 286.5131 287.8412 287.8412 287.8412
   288.2884 288.3862 288.3862 288.4222 288.4222 288.4222 288.4674 288.4674
   288.4674 288.5647 288.6036 288.6036 288.6036 292.4078 292.4078 292.4078
   292.4184 292.4184 292.4184 292.4395 292.4395 292.4707 292.4707 292.4707
   292.5472 292.7878 292.7878 292.8151 292.8151 292.8151 293.3006 293.3006
   293.3006 293.5138 293.5138 293.5138 293.7225 294.7672 295.6793 295.6793
   295.6793 295.8006 295.8006 295.8006 296.1547 296.1547 296.2112 296.2112
   296.2112 296.5129 296.5129 296.5129 296.8516 297.0240 297.0240 297.0240
   297.1883 297.1883 297.2141 297.2141 297.2141 306.3515 306.3515 306.3515
   306.9043 309.0250 309.0250 309.4094 309.4094 309.4094 310.4758 310.4758
   310.4758 310.5630 310.5630 310.5630 310.8830 310.8830 310.8830 311.0944
   311.0944 311.0944 311.4053 311.5223 311.5223 311.7570 311.7570 311.7570
   311.9669 312.6007 312.6007 313.3924 313.3924 313.3924 313.7786 314.6676
   314.6676 314.6676 316.3574 316.3574 316.3574 316.4455 316.6275 316.6275
   316.6275 316.9503 316.9503 317.2551 317.2551 317.2551 318.2397 318.7004
   318.7004 318.7004 319.2267 319.2267 319.2267 319.2758 319.2758 320.1269
   320.1269 321.4237 321.4237 321.4237 322.7143 322.7143 322.7143 322.7667
   322.7667 322.7667 323.0337 323.2225 323.2225 323.2225 323.3676 323.3676
   323.3676 323.4700 323.4700 323.9714 323.9714 323.9714 323.9805 323.9805
   325.2858 325.2858 325.2858 325.5363 325.5364 325.5364 325.5364 325.5444
   325.5444 325.5444 325.5701 325.7594 325.7594 325.7594 325.7809 325.7809
   325.7809 325.9885 325.9885 325.9885 325.9937 325.9937 326.2172 326.4113
   326.4113 326.4113 326.7642 326.7642 326.7642 327.0559 327.0559 327.0559
   327.0686 327.0686 327.0686 327.5290 327.5290 329.3014 329.3014 329.5090
   329.5090 329.5090 329.9782 330.1462 330.1462 330.1462 330.2316 330.2316
   330.2316 330.3805 330.3805 330.3805 330.5454 330.5454 330.5454 330.7375
   330.7375 330.8788 330.8788 330.8788 330.9918 332.8989 334.3459 334.3459
   334.3459 334.6051 334.6051 334.6051 336.2805 344.8788 344.8788 344.8852
   344.8852 344.8852 344.9139 344.9139 344.9139 344.9918 344.9918 344.9918
   345.0741 345.0741 345.0899 345.0899 345.0899 347.3127 347.3127 347.3127
   348.6526 349.0502 349.0502 351.2875 351.2875 351.2875 351.4250 351.4250
   351.4250 351.5239 351.5239 351.5239 351.5921 351.5921 351.6281 351.6955
   351.6955 351.6955 351.9508 351.9508 351.9508 356.6561 356.6561 356.6561
   356.6615 356.6615 356.6615 356.7459 356.7459 356.7459 356.8260 356.8260
   356.8260 357.1095 357.1095 357.1369 357.1369 357.1369 357.1743 357.1743
   357.1842 357.2355 357.2355 357.2355 357.3140 366.8500 366.8500 366.8500
   368.4800 369.4855 369.4855 369.4855 370.6090 371.2545 371.2545 371.7303
   371.7303 371.7304 371.8358 371.8358 371.8358 372.1990 372.1990 372.1990
   372.2955 372.2955 372.2955 372.3253 372.4272 372.4272 374.3285 374.3285
   374.3285 375.0783 375.0783 375.0783 377.0709 377.0709 377.1678 377.1678
   377.1678 377.8891 378.2600 378.2600 378.2600 378.9833 378.9833 378.9833
   379.3341 381.8365 381.8365 382.1771 382.1771 382.1771 382.4053 382.4053
   382.4053 382.5859 382.5859 382.5860 382.9160 384.9290 384.9290 384.9290
   384.9754 384.9754 385.5642 385.5642 385.5642 385.6608 385.6608 385.6879
   385.6879 385.6879 386.0475 386.0475 386.0475 386.2070 386.5980 386.5980
   386.5980 386.7020 386.8222 386.8222 386.8222 387.5678 387.5678 387.5678
   388.2491 388.2491 388.5885 388.8948 388.8948 388.8948 388.9280 388.9280
   388.9883 388.9883 388.9883 388.9909 388.9909 388.9909 388.9942 388.9942
   388.9942 389.1317 389.1317 390.8779 390.8779 390.8779 391.1312 391.2698
   391.2698 391.2698 391.4487 391.4487 391.4487 391.4966 391.4966 392.0221
   392.0797 392.0797 392.0797 392.1141 392.1141 392.1141 392.1590 392.1590
   392.1590 392.1792 392.1792 396.5756 396.5756 396.5756 396.7808 396.7808
   396.8380 399.9801 399.9801 399.9801 400.2975 400.2975 400.2975 400.4729
   400.4729 400.4729 400.7483 400.7483 401.2291 403.4195 403.4195 403.4195
   403.4543 403.6157 403.6157 403.6157 403.7618 403.7618 403.7618 403.8060
   403.8060 405.2591 405.2591 405.2591 405.7267 405.7267 405.7267 405.8712
   405.8712 405.8712 406.5442 406.6864 406.6864 407.1016 407.1016 407.1016
   407.7625 407.7625 407.7625 407.7981 407.7981 407.7981 408.1234 408.1234
   408.1234 408.6196 408.6196 408.6225 408.6225 408.6225 408.7500 408.7500
   408.7500 408.8516 408.8516 408.8516 408.9359 410.1768 410.1768 410.2095
   410.2095 410.2095 410.2654 411.7069 412.1435 412.1435 412.1435 413.6458
   413.6458 413.6458 414.1787 414.1787 415.0906 415.4501 415.4501 415.4501
   415.6334 415.6334 415.6334 416.1666 416.1666 416.1666 416.5093 416.5093
   416.5547 416.5547 416.5547 416.8262 417.2732 417.3455 417.3455 417.3455
   417.7768 417.7768 417.7768 418.0273 418.0273 418.0273 418.0709 418.0709
   418.2536 418.2536 418.2536 418.4239 418.4239 418.4540 418.4540 418.4540
   418.5330 418.5330 418.5330 418.7175 418.8329 418.8329 418.8329 418.8906
   418.8906 418.8906 419.0644 419.0644 419.0644 419.2200 419.2200 419.2507

          k = 0.5000-0.5000 0.5000 (  3798 PWs)   bands (ev):

   -70.6252 -40.8260 -37.4022 -37.4015 -37.4015  -4.9630   0.7169   4.0688
     4.0688   7.4869   8.9330   8.9330  11.2254  14.3238  14.3238  14.8373
    15.5217  15.5217  16.3236  19.6856  22.3762  22.3762  23.4573  23.7029
    23.7029  25.9446  26.8239  26.8239  27.7234  28.4354  28.4354  30.2536
    30.6610  30.6610  32.1706  32.1706  32.9421  33.6356  36.3160  37.4251
    37.4251  39.1570  39.1570  39.2446  41.3581  43.1697  43.3065  43.3065
    44.9963  44.9963  45.7475  45.7475  46.8400  47.7879  47.7879  48.7606
    49.4934  49.4934  50.1577  51.8940  51.8940  52.5971  52.5971  53.3291
    54.3966  54.3966  55.5011  56.0077  56.0102  56.0102  56.1135  56.8970
    56.8970  58.2891  60.5901  61.7620  61.7620  61.9298  62.5446  62.5446
    63.7241  65.5938  65.5938  65.9104  67.9489  67.9489  68.0562  69.2778
    69.2778  70.5082  71.3497  71.3497  71.9419  73.0549  74.0146  74.0146
    74.8693  74.8693  75.6098  75.6098  76.1343  76.3565  77.1208  77.7762
    77.7762  78.1031  78.1031  78.5445  79.0436  79.9742  80.5726  80.5726
    82.4359  82.4359  84.6447  85.3322  85.3322  85.8991  85.8991  86.8917
    87.0529  87.5949  87.7161  87.7161  88.7317  88.9114  88.9114  90.2235
    90.3550  90.3550  90.6815  91.0413  91.0413  93.5230  93.5230  93.8251
    93.8251  94.0245  94.5748  95.4991  95.9156  95.9156  96.7153  96.7153
    97.7399  97.9416  98.8472  98.8472 101.0778 101.0778 101.7854 101.7854
   102.4065 103.5970 103.5970 103.6151 103.6253 104.3451 104.3451 104.7675
   106.1751 106.1751 106.4745 107.0835 107.0835 108.3780 108.6445 108.6445
   109.1659 109.6626 110.1515 110.1515 112.9525 112.9525 113.9555 114.4651
   114.5361 114.5361 115.4248 115.5110 115.5110 116.3746 117.9663 118.0570
   119.0633 119.0633 119.6868 119.7777 119.7777 120.7105 120.7105 121.6664
   121.6664 122.5192 122.8947 124.0217 124.0217 124.3452 124.3453 124.5784
   124.5784 124.7564 124.9273 124.9273 125.1349 125.8896 125.8896 126.0679
   126.1570 126.1570 126.3911 128.6254 129.1956 129.1956 129.4031 129.5174
   129.5174 130.5811 131.3323 131.3323 131.9523 132.3008 132.3008 132.8036
   132.8036 133.2277 133.8099 133.8099 134.5509 135.0681 135.0681 136.5449
   137.1047 137.1816 137.1816 139.3119 139.3779 140.7007 140.7007 140.7943
   141.9038 141.9038 142.1141 142.4388 142.4388 142.4552 142.7666 142.7666
   142.8584 144.4941 144.4941 144.9274 145.2222 145.2222 145.6959 146.4193
   146.8850 146.8850 148.0349 148.0349 148.6856 150.8512 150.8512 150.8519
   151.0788 151.1524 151.1524 151.5730 151.5730 151.6187 152.1278 152.1278
   153.3664 153.6933 153.6933 155.4313 156.9325 156.9325 159.2444 159.2444
   159.4581 159.8892 160.5164 160.5164 160.8863 161.3843 161.6942 161.6942
   162.7534 162.7534 162.8358 163.7466 164.0878 164.0878 164.5109 164.5109
   164.7332 164.7332 164.8259 165.1559 165.1559 165.3004 165.3137 165.8215
   166.1707 166.8751 166.8751 167.1337 167.1337 167.8305 168.2692 168.2692
   169.0921 169.0922 169.3182 169.3182 169.6127 169.6127 169.7304 170.3370
   172.3346 172.9120 172.9120 173.0457 173.0457 173.0903 173.2796 173.3019
   173.5965 173.5965 173.6442 173.6442 174.9870 174.9989 176.3772 176.3772
   177.6010 178.3327 178.7313 178.7313 180.8968 180.8968 181.1425 181.5034
   181.5034 182.0982 182.0982 182.5947 182.7561 182.7561 183.3172 184.4963
   184.4963 184.7086 184.9969 184.9969 185.2018 185.8671 185.8671 186.5369
   186.6587 186.6587 187.1551 187.1551 188.0583 188.4391 188.4391 188.8331
   189.7553 189.7553 189.8716 189.8716 190.0205 190.2234 190.5638 190.8923
   190.8923 191.8853 193.0614 193.0614 193.6028 194.1231 194.1231 194.9313
   194.9313 195.0206 195.1035 195.1035 195.2472 195.6971 195.7457 195.7457
   196.1543 198.3027 198.5594 198.5594 199.1478 199.1478 199.5215 200.9085
   201.1943 201.4310 201.4310 201.8264 201.8264 201.9332 203.2621 203.2621
   203.2804 203.6959 203.6959 203.7048 207.1957 207.1957 207.3957 207.6127
   207.6127 208.7703 208.7703 209.0402 209.5806 210.4052 210.4052 210.7427
   210.7427 210.7946 211.5495 211.5495 211.6413 211.7782 211.9905 212.2447
   212.2447 212.5944 212.8134 212.8134 213.5518 214.1037 214.1037 214.2974
   214.2974 215.4344 215.4344 216.4361 216.8183 216.8183 217.2122 217.2592
   217.2592 218.0674 218.0674 218.4446 218.8068 218.8068 218.8805 219.3536
   219.3536 219.6240 220.1569 221.5099 221.5099 222.1078 222.1384 222.1384
   222.2950 222.6175 222.6175 223.2449 223.2449 223.4424 224.4449 226.6048
   226.6048 227.2104 227.2104 227.3802 227.3911 227.3911 228.0087 228.0087
   228.4729 228.5133 228.6101 230.5205 230.5205 230.8804 231.1819 231.3656
   231.3656 231.8060 232.5560 232.5560 232.7136 232.7136 233.1090 233.2059
   233.2152 233.9352 233.9352 234.1233 234.1233 234.3237 234.6859 234.6859
   235.2682 235.6790 235.6790 235.8532 236.9191 237.3262 237.3262 238.1060
   238.1060 238.2230 239.8774 239.9040 239.9040 240.4202 240.4202 240.7231
   241.7340 243.0232 243.6990 243.6990 243.9513 243.9513 244.1635 244.2042
   244.2042 244.2688 244.2688 244.3421 244.6327 244.7474 244.7474 244.9811
   245.1364 245.1364 245.2071 245.2071 245.4841 245.4841 245.4942 245.6733
   247.4189 247.6179 247.6179 247.8548 247.8656 247.8656 248.3803 248.3803
   248.6185 248.8741 248.8741 249.5604 249.8680 249.9305 249.9986 249.9986
   250.1067 250.1067 252.3348 252.3348 252.4077 252.4077 252.6889 252.7181
   254.1060 255.5126 255.5770 255.5770 256.2966 256.2966 256.4355 256.7237
   258.2636 258.2636 258.6151 258.6151 258.6719 258.9990 261.3014 261.3014
   261.4595 261.4595 262.8281 262.9856 262.9856 264.0278 265.2031 265.2031
   265.8775 266.0830 266.0830 266.2813 266.2874 266.2874 266.5657 266.5657
   266.5940 266.5940 267.1199 267.1432 268.0031 268.0567 268.0567 268.0735
   268.0735 268.5183 269.2473 269.2473 269.4571 270.0312 270.0372 270.5743
   270.5743 271.6344 271.9018 271.9018 272.0320 272.0320 273.7007 273.9794
   273.9872 273.9872 274.3364 274.3364 275.4978 275.8022 276.7007 276.7007
   276.7212 276.7212 276.9833 276.9833 277.1637 277.2173 277.2920 277.8253
   277.8253 279.9765 280.2823 280.4996 280.4996 281.0529 281.0529 281.4933
   282.5335 282.8191 283.0105 283.0105 283.1646 283.1646 284.1908 284.1908
   284.6050 284.6050 284.7047 284.7047 284.7307 284.7307 285.5601 285.7008
   286.3240 286.4281 287.2237 287.2237 287.4178 287.8007 287.8007 287.9827
   287.9827 288.6497 288.6497 288.9675 289.1643 289.7379 289.7379 290.3270
   290.3270 290.4561 290.5510 290.5510 290.5773 290.7376 290.7376 290.8967
   292.6321 292.6321 292.6819 292.6982 292.6982 292.7563 293.6610 293.6610
   293.6976 293.6976 293.7433 293.8625 295.5139 295.5139 295.8141 296.0764
   296.0764 296.2556 297.8185 298.5049 298.5049 298.7244 298.7244 298.7381
   298.8065 298.8065 298.8703 299.0757 299.0902 299.0902 300.0139 302.0558
   302.4155 302.4155 302.6946 302.6946 302.8187 302.8187 303.1353 303.1353
   303.2598 303.3453 303.6760 303.8343 303.8343 303.9732 303.9732 304.0585
   304.6497 305.5682 305.5682 306.5018 306.5018 307.0401 307.6847 308.0477
   308.0477 308.2503 308.3595 308.3595 308.4256 308.4256 308.5380 308.5742
   308.7027 308.7027 308.9403 309.1597 309.5087 309.7430 309.7430 310.5913
   310.6652 310.6652 311.6044 311.6044 311.6659 311.6659 312.4309 312.9903
   313.1438 313.1438 313.2311 313.2311 313.5232 313.5853 313.6420 313.6420
   313.6961 313.6961 314.4684 315.0960 316.9941 316.9941 317.0944 317.1578
   317.1578 317.4507 322.4661 323.0642 323.0642 323.1668 323.3252 323.3252
   323.5651 323.6083 323.6083 323.6639 323.6639 323.7203 324.4091 324.4091
   324.4290 324.4290 325.0158 325.0158 325.5040 326.5088 326.5088 327.0054
   327.6739 328.7408 328.7408 328.9296 328.9296 329.3240 329.5747 329.5747
   329.6733 329.7658 329.7658 329.8701 330.0178 330.0178 330.1034 330.1443
   330.1443 330.2424 330.2613 330.5155 330.5155 330.6053 330.6053 331.5050
   332.2105 332.2105 332.2288 332.2288 332.2533 332.3081 333.6054 333.8875
   333.8875 334.5767 334.5968 334.5968 335.3596 337.4538 337.7700 337.7700
   338.1096 338.1096 339.3102 339.3102 339.3170 339.3170 339.3352 339.3580
   340.0317 340.0571 340.0571 340.1188 340.1188 340.1360 342.1996 342.2777
   342.4207 342.4207 342.5600 342.5600 342.8778 342.8778 342.9522 343.0408
   343.0408 343.2319 343.2319 343.2666 343.2666 343.4062 343.4424 343.5220
   346.9635 346.9635 347.0183 347.0183 347.2290 347.5492 347.5596 348.1168
   349.0310 349.0310 349.2737 350.1162 350.1162 350.2128 350.9099 350.9099
   351.6080 351.8261 351.8261 352.6364 353.0699 353.0699 353.1186 353.2297
   353.2297 353.3076 353.8624 353.9388 353.9388 354.0007 354.0007 354.1527
   355.3897 355.3897 355.5977 355.7946 355.7946 355.8028 355.9483 356.2789
   356.2789 356.4748 356.4748 357.1772 358.2665 358.2665 358.3806 358.3806
   358.6602 358.9053 360.6186 361.0636 361.1539 361.1539 361.2413 361.2413
   361.2588 361.2888 361.7285 361.7285 361.7473 361.7473 363.1668 363.1668
   363.1839 363.1839 363.3267 363.3614 363.8594 363.9031 363.9031 363.9253
   363.9517 363.9517 364.1448 364.1448 364.2105 364.2105 364.3849 364.4279
   367.0668 367.4337 367.5084 367.5084 367.8174 367.8174 369.6158 369.6158
   369.7170 369.7170 369.8537 370.1774 370.3222 370.3222 370.5243 370.5387
   370.8140 370.8140 370.9385 370.9385 371.2236 371.2236 371.2346 371.4822
   374.3173 374.8104 374.8384 374.8384 375.3595 375.5544 375.5544 375.9438
   376.5473 376.5473 376.5898 376.5898 376.6640 376.9232 377.2996 377.4827
   377.4827 377.6457 377.6457 377.8107 378.3124 378.3124 378.3525 378.3525
   378.7575 379.0095 379.0095 379.1280 379.1280 379.3444 379.4248 379.7192
   379.7192 379.8354 379.8354 379.8772 381.5239 382.0104 382.7757 382.7757
   382.9436 383.0432 383.0432 383.0745 383.7653 383.7653 384.1498 384.1498
   384.2808 384.2808 384.4953 384.4953 384.5398 384.7076 385.2565 385.2565
   385.3127 385.3127 385.3312 385.4673 386.5931 386.5971 386.8873 386.8873
   386.9244 386.9244 389.8108 389.8108 389.8310 389.8310 389.8332 389.8332
   390.0759 390.4485 390.4485 390.5357 390.8017 390.8031 392.8058 393.1588
   393.1588 393.3902 393.3902 393.4424 395.6020 396.2031 396.2031 396.6287
   396.6287 397.5346 398.3940 398.9812 399.7561 399.7561 399.7703 400.0839
   400.0839 400.2791 400.4021 400.4021 400.5554 400.6443 400.6443 401.0068
   401.1340 401.1340 401.1932 401.1932 401.2781 401.2781 401.3016 401.4642
   401.4642 401.5252 401.5401 401.6400 401.6478 401.6478 401.7948 401.8393
   401.8393 402.1091 404.8052 404.8052 405.0190 405.0210 405.0210 405.1422
   405.3205 405.3205 405.3618 405.5620 405.5620 405.5898 406.0739 406.0739
   406.1863 406.1863 406.3250 406.4999 406.6138 406.6138 406.7625 406.7625
   406.8568 406.9523 407.1375 407.3903 407.3903 407.5699 407.5699 407.6692
   410.3484 410.4979 410.4979 410.9259 410.9259 411.1045 411.1810 411.1810
   411.2270 411.2270 411.5699 411.6101 411.6101 411.6241 411.6241 411.6425
   411.8279 411.9646 411.9646 412.1865 412.1865 412.2713 413.8759 413.9443
   413.9443 414.2549 414.2549 414.4023 419.3132 419.3132 419.3279 419.3279
   419.3626 419.4014 422.4083 422.6506 422.6506 422.8980 422.8980 423.1566
   423.1566 423.2392 423.2392 423.2663 423.3530 423.3535 424.0930 424.4168
   424.4496 424.4496 424.7025 424.7025 424.8829 424.8829 425.0067 425.0067
   425.0543 425.1647 427.0155 428.8348 428.8348 429.4596 429.4597 430.2702

          k = 0.0000-1.0000 0.0000 (  3812 PWs)   bands (ev):

   -70.6252 -40.8259 -37.4022 -37.4017 -37.4017  -4.7125   1.1841   2.9618
     2.9618   6.0335   7.8651  13.7151  13.7151  14.7987  15.4052  15.4052
    16.2210  16.5789  16.8079  19.1608  19.7784  19.7784  21.3289  21.6967
    21.6967  23.1365  24.7243  29.1011  29.1407  29.1407  29.4913  30.8596
    30.8596  31.1135  31.9042  34.0451  34.4332  35.9918  36.2764  36.2764
    36.8526  36.8526  37.0949  38.1707  41.2756  43.5960  43.5960  45.3720
    45.6024  45.6104  45.6104  47.1429  47.8768  48.0949  48.0949  50.2019
    50.9473  51.0201  51.0201  51.8258  51.8718  52.1574  52.1574  52.4876
    52.4876  52.9025  52.9114  53.4601  58.6829  59.2454  59.2454  60.3331
    60.6335  60.7725  61.3826  62.4408  62.4408  62.7771  62.7771  63.1717
    63.5863  64.3350  64.3350  64.4815  64.7295  66.2167  66.2167  66.2189
    66.3116  67.9392  67.9392  68.3370  69.0237  69.0963  69.0963  71.7670
    72.7470  74.4873  75.8894  75.8894  76.3565  77.4804  77.4804  78.4128
    78.4128  78.9912  79.2831  79.4459  79.4784  79.4784  79.9552  80.4180
    81.4502  81.4502  81.5832  81.8483  83.8349  85.2164  85.2164  86.2401
    88.9684  89.1293  89.7565  89.7565  91.3898  92.3196  92.3196  92.7183
    93.0133  94.1243  94.1243  94.2722  94.4804  95.1312  95.7661  95.7661
    96.6729  97.6211  97.9987  97.9987  98.0351  98.1916  98.5209  98.5640
    98.6741  98.6741  99.0515  99.5922  99.7109  99.7109 100.0270 100.3426
   100.4375 100.4375 102.7173 106.1006 106.3911 106.3911 106.4370 107.3010
   107.6686 107.6686 107.7854 108.9541 108.9541 109.3559 109.5478 109.5478
   109.5928 109.6829 109.9178 110.7276 110.8921 110.8921 111.4181 111.4181
   112.7345 112.8548 112.9972 113.2314 113.8774 113.8774 114.2241 114.6280
   114.7493 114.7493 115.2310 115.2571 115.2571 115.5448 115.9135 117.1570
   117.1570 119.6096 120.2603 120.8494 121.3112 121.6434 121.6434 122.7199
   123.2068 123.4287 123.4287 123.4346 124.1361 124.1361 125.6581 126.1901
   126.1901 126.3035 126.7313 128.1599 128.1599 129.3345 130.2360 130.2360
   130.2799 130.6301 130.7985 130.8626 131.2509 131.2509 132.1107 132.1107
   132.9166 134.4676 136.1312 136.7383 138.3769 139.5157 139.9073 139.9073
   140.2491 140.7990 141.2961 141.2961 141.7695 141.8475 141.8475 142.0274
   142.4943 143.5864 144.8057 145.1038 145.1323 145.1323 145.3901 145.4002
   145.4002 145.4473 146.0992 146.3547 146.3547 146.8042 146.8042 147.1188
   147.1188 147.7990 150.6384 150.6712 150.8169 150.8169 151.6107 152.5264
   152.6230 152.6230 154.0677 154.1033 154.1033 154.7961 155.1343 155.9437
   155.9640 155.9640 156.3544 156.5074 156.5074 157.0979 157.1028 157.3753
   157.3753 157.4276 157.4624 157.5663 157.5663 157.7103 157.8299 158.1427
   158.2658 158.2658 158.4414 158.5158 159.8051 159.8051 160.6819 161.1268
   161.5284 161.5284 161.8437 162.0093 162.0093 162.0537 164.6051 166.2738
   166.2738 167.0668 167.2617 167.2617 168.7276 168.7704 169.2596 170.0234
   170.0234 170.3303 171.5417 171.6977 173.0442 173.0442 173.0477 173.2335
   173.2335 173.4631 173.6648 173.8348 174.1108 174.1108 174.3042 174.3042
   174.3702 174.3702 174.7605 174.8004 174.8099 175.4505 176.7129 176.7129
   179.0457 179.0618 179.0817 179.0817 179.0990 179.3103 179.3103 179.7268
   179.7354 181.0956 181.8427 183.2248 183.3023 183.5215 183.5215 184.0580
   184.3013 184.5992 184.9920 184.9963 184.9963 185.9162 185.9162 186.4795
   186.4795 186.7269 186.9963 187.5323 187.7557 188.2913 188.4752 188.4752
   189.2572 189.6266 189.6321 189.6321 190.1390 190.2916 190.2916 191.1097
   191.6866 191.8567 192.0566 192.0566 193.7908 194.9156 194.9495 194.9495
   195.0635 195.0635 195.0702 195.0903 195.1103 195.7576 196.6225 196.6225
   197.3819 197.4492 200.8312 200.9474 200.9474 201.6108 202.6254 202.6254
   202.8446 203.3076 203.4609 203.4609 203.5610 203.5610 204.0186 204.3526
   205.0271 205.0271 205.6025 205.9692 206.0960 206.0960 206.1836 206.2303
   206.6595 206.9132 206.9132 206.9985 207.0561 207.0617 207.0617 207.5509
   207.5509 207.5853 207.7059 207.7964 207.8247 207.8339 207.9443 207.9443
   208.2387 208.2387 208.5363 208.7109 208.7781 208.8309 208.8849 208.8849
   209.6556 210.0715 210.0715 210.1833 211.3609 213.6014 214.2309 214.2309
   215.7613 215.7613 216.1690 216.6742 218.1553 218.3687 219.7389 219.7389
   219.7885 219.7885 221.7563 221.8258 222.5158 222.5158 223.5882 223.7479
   224.1836 224.2924 224.2924 224.3860 225.6531 225.9562 225.9562 228.0133
   228.2113 228.3155 228.6883 228.6883 228.9977 228.9977 229.2925 229.6817
   230.3778 230.3778 230.4464 230.6099 230.8246 232.1106 232.1106 232.3017
   232.7426 233.1064 233.4935 233.4935 234.6721 234.7735 235.2972 235.2972
   236.3389 236.3389 236.9659 237.3364 237.5897 237.7839 237.7935 237.7935
   239.0103 239.6010 239.8161 239.8161 240.0475 240.0475 240.0878 240.3100
   240.6400 240.6535 240.7180 240.7349 240.7349 240.9121 240.9121 241.1750
   241.8597 241.8969 241.8969 242.0012 244.2364 244.5236 244.8210 244.8210
   246.7438 247.2175 247.2175 247.4113 247.4337 248.1360 248.4835 248.4835
   248.7274 249.4441 249.5214 249.5214 249.7795 249.9692 250.0497 250.0497
   250.2189 250.3238 250.7667 250.9190 250.9190 250.9528 251.3017 251.5855
   251.6040 251.7397 251.9004 251.9004 252.1708 252.1708 252.7606 252.7673
   252.7673 253.1207 253.1530 253.2858 253.2858 253.6174 253.7460 253.9395
   255.5816 255.7707 255.8821 255.8821 255.9619 255.9619 256.1449 256.3843
   256.5606 256.5606 256.7002 256.9856 256.9856 257.1465 257.2145 257.5601
   257.6557 257.6557 257.7989 257.7989 261.0656 261.5071 262.3524 262.3524
   262.4448 262.4448 263.0775 263.0775 263.3332 263.5943 264.1775 264.7746
   265.7209 265.7209 265.8747 265.9548 266.8010 267.2850 267.2850 267.4628
   267.5726 267.5726 267.8446 267.8553 268.0546 268.0779 268.3142 268.3142
   268.4724 268.4724 268.5256 268.5747 268.9895 269.6242 269.6317 269.6505
   269.6505 269.7857 269.7857 270.1212 273.9168 273.9168 274.0024 274.0313
   274.0763 274.0763 274.1873 274.2013 274.3743 274.3743 274.8816 275.0721
   276.5512 276.5512 278.2550 278.8095 280.0468 280.4900 282.0384 282.0384
   282.2535 282.5665 282.6382 282.6382 282.6868 282.8495 283.1468 283.4631
   283.4631 283.4868 284.2377 284.2377 284.3553 284.3553 284.4214 284.4214
   284.4276 284.5105 284.5529 285.1348 285.1766 285.6792 285.7856 285.7856
   285.9697 285.9697 286.1977 286.2130 287.7432 288.3438 288.3438 288.6146
   288.7020 288.7791 288.7791 288.8314 289.4325 289.4325 289.4603 289.4603
   289.8301 289.8329 289.8780 289.8789 290.4952 290.7925 290.7925 291.3421
   292.2500 292.2500 292.5751 293.4023 295.9704 296.4811 296.4811 296.7958
   297.1246 297.1444 297.1444 297.4683 297.7192 297.7192 297.7774 298.4294
   299.5107 299.6270 299.6270 299.6802 299.9248 300.0124 300.0124 300.0872
   301.3797 301.3875 301.4013 301.4013 301.6117 301.6127 301.6140 301.6140
   301.6953 301.7074 301.7074 301.7572 303.7520 303.7549 303.7549 303.9014
   305.7842 305.7930 305.7930 305.8031 306.8985 309.0569 310.3604 310.3604
   311.1661 311.6627 311.6627 311.9252 311.9252 311.9523 312.0876 312.5376
   312.9899 313.1460 313.4349 313.4349 313.7588 314.6185 314.6700 314.8626
   314.8626 314.9327 315.1309 315.1309 315.2600 315.3055 315.4281 315.6040
   315.6040 315.6167 315.9348 315.9348 315.9696 316.1477 316.4167 316.5173
   316.5173 316.5660 317.2332 318.4935 318.4935 318.5369 318.5404 318.5404
   318.6099 318.6672 318.6874 318.6874 319.2444 319.3794 321.1619 321.8309
   323.3814 323.3814 323.4364 323.4811 323.6589 323.6589 324.3582 324.8229
   326.4960 326.4960 326.6952 328.1564 328.1957 328.1957 328.8166 329.4086
   330.9100 331.0002 331.0002 331.4162 331.4162 331.5350 332.0328 332.0328
   332.1254 332.2213 332.2213 332.3987 332.5588 332.5822 332.6513 332.6513
   332.9966 333.1526 333.1526 333.1619 334.3435 334.5584 334.5584 334.6233
   334.6593 334.7597 334.7606 335.2271 335.2271 335.3322 335.7382 335.8339
   335.8845 335.8845 335.9026 336.0313 336.0313 336.1305 340.7132 340.7211
   340.7211 341.2152 342.0468 342.0527 342.1697 342.2752 342.2752 342.3306
   342.5816 342.7597 342.7597 342.9126 343.0241 343.0241 343.3356 343.4687
   343.6273 343.6421 344.2240 344.2240 344.3875 344.3875 344.7418 344.9126
   345.5378 345.5378 345.6167 345.6167 345.8899 346.0983 346.3706 346.3706
   346.4992 346.4992 346.6294 346.6779 346.8419 347.4788 347.4788 347.5199
   347.7514 347.7514 347.8877 347.9567 348.2106 348.3112 348.3208 348.4145
   348.4145 348.4817 348.8962 348.8962 348.9560 349.5536 349.6289 350.3260
   350.7176 350.7176 350.8161 350.8161 350.9989 350.9989 351.0743 351.1218
   351.1409 351.1686 351.2015 351.2301 351.2301 351.2415 352.6010 352.6085
   352.6086 352.6607 352.6607 352.6721 352.6721 352.6956 353.4889 353.4889
   353.4939 353.5003 353.5692 353.5862 353.5862 353.6140 359.4480 359.4480
   359.7894 359.8189 360.0104 360.1008 360.1008 360.2108 361.8985 361.9485
   362.0021 362.0021 362.0821 362.0821 362.1559 362.1587 362.1770 362.1770
   362.2083 363.1823 363.3817 364.1369 364.1369 364.2853 364.9215 365.0212
   365.4187 365.4187 365.7260 365.9612 365.9612 366.3983 366.5650 366.5650
   366.8207 367.0714 367.2528 367.3003 367.3003 367.3103 367.7092 367.8050
   367.8050 367.8713 368.1051 368.1738 368.1738 368.2788 373.1516 373.4517
   373.4517 373.5150 374.2867 374.8469 374.8469 375.1730 375.6586 376.0835
   376.5064 376.5064 376.5692 376.6749 376.6749 377.0378 377.2979 377.5571
   377.5571 377.6763 378.6915 378.6927 378.8261 378.8427 379.0001 379.0001
   379.0248 379.0248 381.0664 381.0664 381.6692 381.9780 382.0425 382.0684
   382.0998 382.0998 382.5341 382.5470 382.6874 382.6874 382.6907 382.7366
   382.7366 382.7686 384.1013 384.1013 384.2025 384.2039 384.3659 384.3659
   384.3742 384.3742 384.5810 384.5836 384.5848 385.5316 385.6959 386.5116
   388.3698 388.4080 388.4080 389.2547 389.2547 389.5981 389.5981 389.7002
   390.0514 390.8898 391.0025 391.4025 391.4025 391.6101 391.7937 392.0908
   392.2469 392.7367 392.7367 392.7983 392.7983 392.8726 393.0255 393.2711
   393.3446 393.3446 394.0020 394.0670 395.2641 395.3446 395.3446 395.3885
   395.5641 395.5777 395.8814 395.9130 396.1591 396.1591 396.2208 396.2783
   396.2783 396.3274 396.3848 396.4557 396.4557 396.5192 396.7907 396.7952
   397.3610 397.3610 397.3642 397.3642 397.9085 397.9090 398.1971 398.1971
   398.2437 398.2554 399.4044 399.4044 399.7029 399.8985 400.7028 400.7028
   400.7079 400.7079 404.2335 404.2335 404.7602 405.0965 405.4989 405.6455
   406.1235 406.1390 406.1619 406.1619 406.3069 406.3069 406.4811 406.4811
   406.5892 406.5957 408.8597 408.9733 408.9733 409.1612 409.1965 409.3401
   409.3401 409.5036 410.6336 410.6864 410.6864 410.7940 410.8618 410.8618
   410.8711 411.0962 411.3937 411.3937 411.9335 412.4953 412.9123 413.6746
   413.7012 413.7012 413.9492 413.9492 414.0915 414.1595 414.5066 414.6945
   414.6945 414.8575 415.0878 415.1451 415.1451 415.2622 415.3506 415.3774
   415.3873 415.3873 419.6009 420.7973 420.7973 420.9298 421.2476 421.4248
   421.7483 421.7483 421.9087 422.1876 423.0297 423.0297 423.1240 423.1240
   423.5529 424.8802 424.9289 425.1787 425.7664 425.7664 425.7938 425.8662
   425.9753 425.9753 426.0992 426.1124 426.2396 426.3186 426.3186 426.5149
   426.5650 426.5733 426.5733 426.6234 426.6234 427.0481 427.0506 427.0506

     the Fermi energy is     5.6394 ev
     (compare with:     5.8899 eV, computed in scf)

     Writing all to output data dir out/mp-12558.save/
 
     init_run     :      0.06s CPU      0.15s WALL (       1 calls)
     electrons    :    383.48s CPU    413.43s WALL (       1 calls)

     Called by init_run:
     wfcinit      :      0.00s CPU      0.03s WALL (       1 calls)
     potinit      :      0.01s CPU      0.03s WALL (       1 calls)
     hinit0       :      0.03s CPU      0.06s WALL (       1 calls)

     Called by electrons:
     c_bands      :    383.48s CPU    413.43s WALL (       1 calls)
     v_of_rho     :      0.01s CPU      0.01s WALL (       1 calls)

     Called by c_bands:
     init_us_2    :      0.00s CPU      0.00s WALL (       3 calls)
     init_us_2:cp :      0.00s CPU      0.00s WALL (       3 calls)
     cegterg      :    375.64s CPU    405.12s WALL (       3 calls)

     Called by *egterg:
     cdiaghg      :    352.67s CPU    381.71s WALL (      35 calls)
     h_psi        :      6.67s CPU      6.90s WALL (      38 calls)
     g_psi        :      0.05s CPU      0.05s WALL (      32 calls)

     Called by h_psi:
     h_psi:calbec :      0.12s CPU      0.13s WALL (      38 calls)
     vloc_psi     :      6.41s CPU      6.62s WALL (      38 calls)
     add_vuspsi   :      0.09s CPU      0.09s WALL (      38 calls)

     General routines
     calbec       :      0.12s CPU      0.13s WALL (      38 calls)
     fft          :      0.01s CPU      0.04s WALL (      10 calls)
     fftw         :      5.81s CPU      6.00s WALL (   45560 calls)
 
     Parallel routines
 
     PWSCF        :   6m23.95s CPU   6m54.29s WALL

 
   This run was terminated on:  20:27:48  30Nov2023            

=------------------------------------------------------------------------------=
   JOB DONE.
=------------------------------------------------------------------------------=
