
     Program PWSCF v.7.1 starts on 15Nov2023 at 16:28:51 

     This program is part of the open-source Quantum ESPRESSO suite
     for quantum simulation of materials; please cite
         "P. Giannozzi et al., J. Phys.:Condens. Matter 21 395502 (2009);
         "P. Giannozzi et al., J. Phys.:Condens. Matter 29 465901 (2017);
         "P. Giannozzi et al., J. Chem. Phys. 152 154105 (2020);
          URL http://www.quantum-espresso.org", 
     in publications or presentations arising from this work. More details at
     http://www.quantum-espresso.org/quote

     Parallel version (MPI), running on     8 processors

     MPI processes distributed on     1 nodes
     123784 MiB available memory on the printing compute node when the environment starts
 
     Reading input from pw_mp-804_nscf_k70_E71.in
Warning: card &IONS ignored
Warning: card / ignored
Warning: card &CELL ignored
Warning: card / ignored

     Current dimensions of program PWSCF are:
     Max number of different atomic species (ntypx) = 10
     Max number of k-points (npk) =  40000
     Max angular momentum in pseudopotentials (lmaxx) =  4

     Atomic positions and unit cell read from directory:
     out/mp-804.save/
     Atomic positions from file used, from input discarded
 
 
     R & G space division:  proc/nbgrp/npool/nimage =       8
     Subspace diagonalization in iterative solution of the eigenvalue problem:
     one sub-group per band group will be used
     scalapack distributed-memory algorithm (size of sub-group:  2*  2 procs)

 
     Parallelization info
     --------------------
     sticks:   dense  smooth     PW     G-vecs:    dense   smooth      PW
     Min          87      87     25                 3105     3105     496
     Max          88      88     32                 3110     3110     497
     Sum         703     703    211                24875    24875    3971
 
     Using Slab Decomposition
 


     bravais-lattice index     =            4
     lattice parameter (alat)  =       6.0262  a.u.
     unit-cell volume          =     308.5900 (a.u.)^3
     number of atoms/cell      =            4
     number of atomic types    =            2
     number of electrons       =        36.00
     number of Kohn-Sham states=         1200
     kinetic-energy cutoff     =      71.0000  Ry
     charge density cutoff     =     284.0000  Ry
     Exchange-correlation= PBE
                           (   1   4   3   4   0   0   0)

     celldm(1)=   6.026205  celldm(2)=   0.000000  celldm(3)=   1.628244
     celldm(4)=   0.000000  celldm(5)=   0.000000  celldm(6)=   0.000000

     crystal axes: (cart. coord. in units of alat)
               a(1) = (   1.000000   0.000000   0.000000 )  
               a(2) = (  -0.500000   0.866025   0.000000 )  
               a(3) = (   0.000000   0.000000   1.628244 )  

     reciprocal axes: (cart. coord. in units 2 pi/alat)
               b(1) = (  1.000000  0.577350  0.000000 )  
               b(2) = (  0.000000  1.154701  0.000000 )  
               b(3) = (  0.000000  0.000000  0.614159 )  


     PseudoPot. # 1 for Ga read from file:
     /usr/scratch4/magr4985/MG/HTDF/pseudo/SG15/Ga.upf
     MD5 check sum: 9961a622ff199abf6dfec9a0a10b8555
     Pseudo is Norm-conserving, Zval = 13.0
     Generated using ONCVPSP code by D. R. Hamann
     Using radial grid of  602 points,  6 beta functions with: 
                l(1) =   0
                l(2) =   0
                l(3) =   1
                l(4) =   1
                l(5) =   2
                l(6) =   2

     PseudoPot. # 2 for N  read from file:
     /usr/scratch4/magr4985/MG/HTDF/pseudo/SG15/N.upf
     MD5 check sum: c233fa8df51455e992258b7c3dee8a9f
     Pseudo is Norm-conserving, Zval =  5.0
     Generated using ONCVPSP code by D. R. Hamann
     Using radial grid of  602 points,  4 beta functions with: 
                l(1) =   0
                l(2) =   0
                l(3) =   1
                l(4) =   1

     atomic species   valence    mass     pseudopotential
        Ga            13.00    69.72300     Ga( 1.00)
        N              5.00    14.00670     N ( 1.00)

      6 Sym. Ops. (no inversion) found



   Cartesian axes

     site n.     atom                  positions (alat units)
         1           Ga  tau(   1) = (   0.0000000   0.5773502   0.8126302  )
         2           Ga  tau(   2) = (   0.5000000   0.2886752   1.6267523  )
         3           N   tau(   3) = (   0.0000000   0.5773502   1.4262057  )
         4           N   tau(   4) = (   0.5000000   0.2886752   0.6120835  )

     number of k points=     8  Gaussian smearing, width (Ry)=  0.0005
                       cart. coord. in units 2pi/alat
        k(    1) = (   0.0000000   0.0000000   0.0000000), wk =   0.0625000
        k(    2) = (   0.0000000   0.0000000  -0.3070793), wk =   0.0625000
        k(    3) = (   0.0000000   0.2886751   0.0000000), wk =   0.3750000
        k(    4) = (   0.0000000   0.2886751  -0.3070793), wk =   0.3750000
        k(    5) = (   0.0000000  -0.5773503   0.0000000), wk =   0.1875000
        k(    6) = (   0.0000000  -0.5773503  -0.3070793), wk =   0.1875000
        k(    7) = (   0.2500000   0.4330127   0.0000000), wk =   0.3750000
        k(    8) = (   0.2500000   0.4330127  -0.3070793), wk =   0.3750000

     Dense  grid:    24875 G-vectors     FFT dimensions: (  36,  36,  54)

     Estimated max dynamical RAM per process >     163.62 MB

     Estimated total dynamical RAM >       1.28 GB

     The potential is recalculated from file :
     out/mp-804.save/charge-density

     Starting wfcs are random

     Band Structure Calculation
     Davidson diagonalization with overlap

     ethr =  5.00E-06,  avg # of iterations = 10.2

     total cpu time spent up to now is     1012.6 secs

     End of band structure calculation

          k = 0.0000 0.0000 0.0000 (  3039 PWs)   bands (ev):

    -5.2217  -4.3614  -2.8388  -2.8290  -2.8290  -2.7698  -2.7698  -2.5816
    -2.5816  -2.4857  -2.4857  -1.1931   3.6873   9.6808   9.6808  10.6722
    10.7076  10.7076  12.6658  14.9955  19.9128  20.6392  20.6392  21.4804
    22.4463  22.4463  25.3432  26.3934  26.3934  28.6447  28.6447  28.8998
    28.9601  32.4115  34.8787  34.8787  37.4965  38.8047  38.8047  39.8139
    39.8139  39.8408  43.5037  43.5037  45.2415  47.3443  47.3443  49.1697
    49.1697  49.2961  51.9674  52.3521  56.8444  57.7418  57.7418  59.8576
    60.4477  60.6011  60.6011  62.2900  62.4957  62.4957  65.5043  65.5043
    66.1513  66.1513  66.3296  66.3692  66.4830  66.4830  67.8620  69.5000
    69.5000  70.1303  70.5263  70.5263  72.9969  72.9969  73.8065  74.8687
    74.8838  74.8838  77.8193  77.8193  78.0258  78.5700  78.5700  78.6550
    79.8359  80.1324  80.3007  80.3007  80.7866  80.7866  80.8372  81.1591
    81.6152  81.6152  82.8421  82.8421  84.4400  84.8509  85.9332  85.9332
    87.0375  88.0529  88.0529  88.3379  88.8079  91.0067  91.0067  96.8225
    96.8225  97.5883  97.5883  98.2197  99.4762  99.6643 101.1861 101.1861
   101.1905 103.0693 103.7093 103.7093 105.1656 105.1656 105.3950 105.3950
   106.0756 106.0756 106.3700 107.1418 107.1418 107.2890 107.7594 107.8609
   107.8609 108.1114 109.4176 109.4176 109.8710 109.8710 113.3628 113.3628
   114.4771 114.8323 120.6410 120.7673 120.7673 121.6712 124.9125 124.9125
   125.5689 125.5689 127.0347 127.0545 127.0545 127.7636 128.9452 129.3462
   130.3949 130.4293 130.4293 130.5689 131.4222 131.4222 131.7031 133.7820
   133.9763 133.9763 135.1347 136.2909 136.2909 136.8629 138.1592 138.1592
   139.3850 139.3865 139.3865 139.9867 140.0778 140.0778 140.4525 141.6425
   141.6425 142.3157 142.3157 142.3719 143.7384 144.3161 144.3161 144.4674
   144.7608 144.9618 144.9618 145.0272 145.0272 145.4627 145.4627 146.1265
   146.1265 146.4879 146.7601 146.7601 147.2121 147.3823 149.0667 150.2180
   150.2180 151.6716 151.6716 151.8180 153.1347 153.8374 153.8374 153.9269
   154.8590 155.0376 155.0376 155.8711 155.8711 155.9296 156.3670 157.4201
   157.4201 158.0183 158.0183 158.1812 158.1812 158.8639 158.8639 158.9695
   159.1613 159.5666 159.5666 160.3977 160.4611 160.8485 160.8485 161.1400
   161.9292 161.9292 162.5436 163.6431 163.6431 164.0937 165.2415 165.2415
   165.5878 165.5878 165.9247 166.1448 166.3894 166.6095 166.6095 170.5768
   170.5768 171.2048 172.5280 172.5280 173.8443 174.6267 174.6267 174.6446
   175.3131 175.3965 176.5575 176.5575 178.4390 178.4390 179.4629 180.4161
   180.4161 180.5165 180.5165 181.0343 182.0239 182.3677 182.9671 182.9671
   183.5464 183.7057 183.7057 183.8920 183.8920 183.8932 185.8500 185.8500
   186.8740 186.9279 187.0246 187.0246 187.4799 187.4799 188.2261 188.3543
   189.3272 189.3272 190.7068 190.7068 191.6584 193.5970 193.5970 194.0259
   194.6874 195.1568 195.1568 195.1582 195.1582 195.4286 195.4286 195.4305
   195.4769 195.4769 195.7977 197.1004 197.3525 197.3729 197.7045 197.7045
   199.5962 200.1783 200.1783 202.3526 207.4695 207.4695 208.0096 208.2561
   210.5394 210.5394 212.7753 212.7753 213.5161 213.5161 213.5505 214.4141
   214.4147 214.4147 215.0673 215.9280 215.9280 216.9770 217.0448 217.0448
   217.2501 217.2791 217.2791 218.5712 218.5712 218.9579 218.9579 220.3518
   220.4452 220.5784 220.5784 220.8478 220.9568 220.9568 220.9977 221.5923
   221.5923 221.7088 222.3095 222.9741 222.9741 223.5498 223.8933 223.8933
   224.7565 224.7565 225.6686 226.5304 226.5304 226.6330 226.6330 226.9339
   227.1094 227.1094 227.1183 227.2610 227.7920 228.7370 228.7370 228.9951
   228.9951 228.9977 229.9942 231.6708 231.6709 232.9477 232.9477 234.1279
   235.2713 235.2713 236.0972 236.0972 236.4858 236.4858 239.0819 239.4416
   240.3649 241.9151 242.2420 242.2420 246.2469 246.2469 247.8664 247.9743
   249.0644 249.4212 249.6520 249.6520 250.2251 250.2251 250.4285 250.4285
   251.7241 251.9115 252.1836 252.1836 252.4166 252.4166 252.4739 252.5711
   252.8604 252.8604 254.2569 254.2569 254.5338 254.8353 254.9511 254.9511
   255.3046 255.6906 255.6906 255.7831 255.7831 256.2162 256.6098 256.6098
   256.9237 256.9237 257.5575 257.5575 257.6032 257.8334 257.9774 257.9774
   258.3585 258.5320 258.9209 259.9034 259.9034 259.9450 259.9450 260.2184
   261.5010 261.6659 261.6659 261.8490 261.8490 262.0823 262.3052 262.4948
   262.8721 262.8721 263.2353 263.2353 263.3485 264.1395 264.7703 264.7703
   265.2055 265.2055 265.6958 267.3574 267.3574 267.8957 267.8957 268.8471
   268.9043 270.0589 270.0589 270.5966 270.5966 271.6186 271.6186 271.7078
   271.7246 271.7384 272.1658 272.5973 272.5973 272.8000 273.3398 273.6606
   273.9385 273.9385 274.3085 274.8394 275.0315 275.0315 275.1136 275.1136
   275.1790 276.0487 276.0487 276.2555 276.2555 276.7137 276.7137 276.9326
   276.9326 277.2884 277.4017 277.4017 277.8458 277.9566 278.0151 278.0622
   278.0622 278.1912 278.2006 278.2014 278.2014 278.2163 278.2163 278.6351
   279.2230 279.2230 279.7260 279.7260 280.0660 280.1101 280.5920 280.5920
   282.0619 282.0619 282.1885 282.1885 282.3032 282.6331 284.9910 287.1581
   287.1642 287.1643 287.6288 287.6288 287.9993 287.9993 290.0600 290.0600
   290.7291 292.2753 292.2753 293.3468 293.3468 293.6916 295.8638 296.7408
   297.8577 297.8577 299.1087 299.1087 299.8949 301.9556 302.2558 302.5664
   302.7239 302.7239 303.8169 303.8169 304.2629 304.2629 304.9707 304.9707
   305.1945 305.1945 305.3015 305.4202 305.4211 305.6902 305.6902 306.5111
   308.5177 308.5177 309.5913 309.5913 310.0975 310.0975 310.4818 310.4818
   310.5026 310.7803 311.7593 311.7593 311.7958 311.9471 311.9522 311.9522
   312.1949 314.6933 314.6933 314.7811 315.0421 315.9762 315.9762 316.3152
   317.0394 318.9554 318.9554 319.2869 319.2869 320.0491 320.1091 320.1169
   320.1169 320.2684 320.7830 320.7830 320.9952 320.9952 321.4960 324.4053
   324.8967 324.8967 325.1651 325.8663 325.8663 327.1071 327.1071 327.5701
   327.5701 328.4057 328.4057 328.4798 328.4798 329.1097 329.1322 329.3972
   329.3972 330.8493 330.9258 331.6088 331.6088 332.0336 332.0336 332.2374
   333.1677 333.1677 333.4247 334.0488 334.3707 334.3798 335.1023 335.1023
   335.7835 336.1433 336.1433 336.1735 336.4940 336.6947 336.6947 336.8505
   336.8505 338.0112 338.0112 338.0886 338.0886 338.4141 338.4141 339.2133
   339.2281 339.2603 339.7008 339.7008 340.9080 340.9080 341.0017 341.2933
   341.5497 341.5497 341.6152 341.7192 342.4658 343.0606 343.0804 343.0804
   343.9113 343.9113 344.3433 344.3709 344.5977 344.5977 345.8057 345.8057
   346.6955 346.6955 347.5743 348.5687 348.5687 349.2536 349.3017 349.3017
   349.6143 350.6375 351.4165 351.4165 354.9438 354.9438 355.1510 355.1510
   355.5910 355.6523 356.2447 356.2447 359.3769 360.0483 360.8954 361.5420
   361.5420 361.5980 362.4191 362.4191 362.7002 362.7002 363.3697 363.6015
   363.9029 364.4772 364.4772 367.3803 367.3803 367.6379 367.6379 367.6556
   367.6556 367.7236 367.9304 368.7049 368.7049 369.4721 369.7729 369.7729
   369.8056 370.0691 370.1031 370.5045 370.5045 370.7951 370.7952 370.7979
   370.7979 370.8683 371.7497 371.7497 372.3187 372.3188 372.3467 372.3467
   372.9646 372.9646 373.0163 373.1946 373.2871 374.4190 374.4190 374.6630
   375.9432 375.9595 375.9595 376.0749 376.4006 376.4006 377.2605 377.2605
   377.2946 377.2946 377.4811 377.6781 378.1967 378.7770 378.7770 380.3948
   380.3948 381.4909 381.4909 381.5635 381.6451 381.9361 382.1877 382.1877
   383.4283 383.4283 384.1264 385.2973 386.2265 386.2265 386.8857 386.8857
   387.6457 388.5822 388.5822 388.9150 388.9150 388.9551 390.1727 390.4182
   390.7540 390.7864 390.8191 390.8191 391.1645 391.4310 391.9502 391.9502
   392.4981 392.4981 393.0057 393.0057 393.8863 393.8863 393.9368 394.1595
   394.1595 394.2211 394.2211 394.4576 394.7090 394.7659 394.8103 394.8103
   394.9957 394.9957 395.0873 395.3140 395.3140 395.8311 396.0963 396.5908
   396.5908 397.8158 397.8158 398.4503 398.4503 398.4746 399.6516 399.6516
   399.8168 399.8168 399.8962 400.0137 400.1849 401.5169 401.5169 401.9391
   402.1516 402.3805 402.3805 402.8834 402.8834 404.1256 404.1256 404.3260
   404.4253 404.4446 404.7413 404.7413 405.2570 405.8663 405.9178 405.9178
   406.1670 406.1670 407.2469 408.5116 408.5116 408.7312 408.7312 409.1706
   409.1706 409.6316 409.8515 410.1226 410.1226 410.3517 410.5703 410.5703
   410.8263 410.8263 411.6471 411.6578 411.8234 412.1780 412.1780 412.2706
   412.2706 412.8879 412.8879 412.9742 413.0208 413.0208 413.3316 413.3316
   413.5244 414.1336 414.1336 414.2373 414.2373 414.3927 414.3927 415.0579
   415.4691 415.5343 415.6290 416.1804 416.2728 416.2728 416.2784 416.2784
   416.6813 416.8343 418.0979 418.0979 418.2624 419.2809 419.3037 419.4794
   419.4794 420.4301 420.4301 420.7021 421.7764 422.0359 422.0359 422.7167
   422.7167 422.9612 423.1637 423.1637 423.4650 423.4650 423.5585 423.7742
   424.6784 424.6784 425.1490 425.1490 425.6001 426.6408 426.7586 426.7586
   428.5546 428.8473 428.8473 430.1583 430.2401 430.2401 430.5463 430.5463
   431.1678 431.1678 431.3998 431.3998 431.5028 431.5673 431.7911 431.8626
   431.8721 431.8721 432.5946 432.5946 433.0076 433.0076 433.2558 433.2558
   433.5981 433.7042 433.7042 433.7636 433.7636 433.8048 433.9166 433.9987
   434.7618 434.7618 434.8989 434.9430 434.9430 435.1329 435.8893 436.2117
   436.2117 437.5471 438.3390 440.2443 440.2443 442.9246 443.2657 444.0781
   444.0781 444.2673 444.5547 444.5547 444.7247 444.7623 444.7623 444.8698
   445.5234 445.5234 445.6505 445.6505 445.8293 446.7199 448.5522 448.5522
   448.5828 449.1966 449.7714 449.7714 450.2061 451.1914 451.2031 451.4361
   451.4361 451.4515 451.4515 451.6149 452.6828 453.1572 453.1572 453.9566
   453.9566 454.2368 454.2403 454.4289 454.4289 454.5220 454.5220 454.6190
   454.6190 454.6708 455.2009 455.2009 455.4516 455.4516 455.5451 455.5451
   455.7263 455.7388 455.7539 456.1255 456.1255 456.3114 456.3979 456.4734
   456.4734 456.7896 457.4217 457.4218 457.8251 457.9607 457.9607 458.4469
   459.0455 459.0455 459.5939 459.5939 460.2421 460.3131 460.4986 460.4986
   461.0486 461.0486 461.9501 462.0807 462.1936 462.1936 462.2347 462.2979
   462.8169 462.8169 462.8813 462.8813 463.6551 463.6551 463.8416 463.9435
   464.0283 464.8052 464.8052 465.3035 465.3035 466.6021 470.0788 470.0788
   470.3483 470.4588 470.4588 473.9198 473.9198 476.7323 476.7323 476.7771
   476.7771 477.2194 479.6762 479.8346 479.9642 479.9642 482.2828 482.2828
   482.3927 482.3927 485.3555 485.3555 485.5139 486.2243 486.2243 486.4808
   486.6833 486.6833 487.1616 487.6578 487.9511 487.9628 488.7813 490.6241
   490.6241 491.4029 491.4029 492.0748 492.0748 492.7976 492.8723 492.8723
   493.4007 493.4007 493.6842 493.8221 493.8221 494.3740 494.4210 494.4210
   495.0605 495.0605 495.1701 495.2380 495.2415 495.9466 497.6881 497.6881
   497.7215 497.9649 497.9649 498.7375 498.8748 499.0822 499.0822 499.3027
   499.3027 499.3876 499.4535 499.5407 499.5407 499.8118 499.8118 499.9171
   499.9171 500.3699 500.3699 500.4485 500.4599 502.2808 502.2808 503.1644
   503.2738 503.2738 503.5208 503.5208 503.8654 503.8887 504.0172 504.0172
   504.2335 504.2335 504.2621 505.0646 505.2256 505.2256 505.3626 505.3626
   505.6878 505.6878 505.7344 505.8640 506.9123 506.9123 507.0237 507.9308

          k = 0.0000 0.0000-0.3071 (  3098 PWs)   bands (ev):

    -4.6790  -4.6790  -2.8096  -2.8096  -2.8096  -2.8096  -2.5256  -2.5256
    -2.5256  -2.5256  -2.4706  -2.4706   6.8828   6.8828  10.1807  10.1807
    10.1808  10.1808  14.9903  14.9903  19.2069  19.2069  21.1542  21.1542
    21.1542  21.1542  27.0467  27.0468  29.1422  29.1422  29.1422  29.1422
    33.4904  33.4904  33.4904  33.4904  33.9428  33.9428  36.9978  36.9978
    43.1727  43.1727  43.1727  43.1727  43.4925  43.4925  52.8483  52.8484
    52.8484  52.8484  55.9261  55.9261  55.9261  55.9261  57.1026  57.1027
    57.9771  57.9771  58.8342  58.8342  58.8342  58.8342  62.1477  62.1477
    65.7861  65.7861  67.8969  67.8969  67.8970  67.8970  69.9662  69.9662
    70.1396  70.1396  70.1396  70.1396  70.9600  70.9600  75.8171  75.8171
    76.0262  76.0262  76.0262  76.0262  77.6373  77.6373  79.3456  79.3456
    79.3456  79.3456  82.3892  82.3892  82.3892  82.3892  84.1150  84.1150
    86.6615  86.6615  86.6615  86.6615  88.5938  88.5938  88.9981  88.9981
    88.9981  88.9981  89.4556  89.4556  89.4556  89.4556  90.6043  90.6043
    92.7374  92.7374  93.0394  93.0394  93.0394  93.0394  93.5804  93.5804
    95.2853  95.2853  95.2853  95.2853 101.2600 101.2600 106.1430 106.1430
   106.1430 106.1430 108.7799 108.7799 111.0992 111.0992 111.4749 111.4749
   111.4749 111.4749 116.2803 116.2803 117.8172 117.8172 118.4079 118.4079
   118.4079 118.4079 123.6235 123.6235 123.6235 123.6235 124.6495 124.6495
   124.6495 124.6495 125.4756 125.4756 128.4794 128.4794 128.4794 128.4794
   130.1832 130.1832 131.2940 131.2940 131.7178 131.7178 131.7178 131.7178
   133.0416 133.0416 133.0416 133.0416 133.9501 133.9501 136.9279 136.9279
   138.3274 138.3274 138.7200 138.7200 138.7200 138.7200 139.9026 139.9026
   139.9026 139.9026 141.1175 141.1175 142.5999 142.5999 142.5999 142.5999
   144.2177 144.2177 144.2177 144.2177 144.3886 144.3886 145.3836 145.3836
   146.1680 146.1680 146.5725 146.5725 146.5725 146.5725 147.0378 147.0378
   147.7524 147.7524 147.7524 147.7524 150.0405 150.0405 150.0405 150.0405
   151.3266 151.3266 151.5697 151.5697 151.5697 151.5697 153.8918 153.8918
   157.1006 157.1006 162.0547 162.0547 162.0547 162.0547 163.5481 163.5481
   165.3114 165.3114 165.3115 165.3115 167.0610 167.0610 167.0610 167.0610
   167.0928 167.0928 167.5848 167.5848 168.3743 168.3743 168.3743 168.3743
   170.3909 170.3909 170.5834 170.5834 171.8372 171.8372 171.8372 171.8372
   173.1679 173.1679 173.2308 173.2308 173.2308 173.2308 173.5987 173.5987
   174.5135 174.5135 174.5135 174.5135 174.6591 174.6591 176.6384 176.6384
   176.6384 176.6384 179.0148 179.0148 182.1279 182.1279 182.1279 182.1279
   183.9045 183.9045 183.9045 183.9045 184.8232 184.8232 186.0483 186.0483
   187.1096 187.1096 187.1096 187.1096 188.0226 188.0226 188.0551 188.0551
   188.0551 188.0551 188.9290 188.9290 188.9290 188.9290 190.2476 190.2476
   190.2476 190.2476 190.2789 190.2789 191.4811 191.4811 196.5027 196.5028
   197.4129 197.4129 197.4129 197.4129 200.1507 200.1507 200.3505 200.3505
   200.3505 200.3505 202.7591 202.7591 202.9246 202.9246 202.9246 202.9246
   206.2368 206.2368 206.2368 206.2368 206.4346 206.4346 208.2231 208.2231
   209.3074 209.3074 209.3074 209.3074 209.8406 209.8406 210.4736 210.4736
   210.4736 210.4736 216.6328 216.6328 219.2697 219.2697 219.2697 219.2697
   223.7540 223.7540 223.7791 223.7791 223.7791 223.7791 224.5939 224.5939
   224.5939 224.5939 226.4519 226.4519 228.2337 228.2337 230.3116 230.3116
   231.1348 231.1348 231.1349 231.1349 232.8251 232.8251 232.8251 232.8251
   236.0910 236.0910 238.1397 238.1397 238.7857 238.7857 238.7857 238.7857
   240.4888 240.4888 240.6398 240.6398 240.6398 240.6398 241.6154 241.6154
   241.9618 241.9618 242.6291 242.6291 242.6291 242.6291 243.1926 243.1926
   243.1926 243.1926 243.7934 243.7934 244.4215 244.4215 244.4215 244.4215
   245.9483 245.9483 245.9991 245.9991 245.9991 245.9991 246.6561 246.6561
   246.9985 246.9985 246.9985 246.9985 247.9934 247.9934 248.9984 248.9984
   248.9984 248.9984 249.5116 249.5116 250.2862 250.2862 250.2862 250.2862
   250.6827 250.6827 250.7966 250.7966 250.7966 250.7966 251.9282 251.9282
   253.2019 253.2019 253.3255 253.3255 253.3255 253.3255 253.9385 253.9385
   253.9385 253.9385 254.5640 254.5640 254.5640 254.5640 254.7550 254.7550
   255.5236 255.5236 255.5236 255.5236 255.6655 255.6655 256.9288 256.9288
   256.9288 256.9288 260.2340 260.2340 262.3149 262.3149 262.3149 262.3149
   263.8353 263.8353 264.0121 264.0121 264.9377 264.9377 264.9377 264.9377
   266.6551 266.6551 266.6551 266.6551 267.9156 267.9156 267.9156 267.9156
   267.9736 267.9736 268.0031 268.0031 268.4420 268.4420 268.4420 268.4420
   268.9204 268.9204 269.4077 269.4077 272.7205 272.7205 272.7205 272.7205
   276.1451 276.1451 280.5478 280.5478 280.5478 280.5478 283.3269 283.3269
   283.3269 283.3269 284.4927 284.4927 285.0775 285.0775 285.5219 285.5219
   285.5219 285.5219 286.9524 286.9524 287.3894 287.3894 288.3050 288.3050
   288.3050 288.3050 289.0274 289.0274 289.0274 289.0274 289.2382 289.2382
   289.2382 289.2382 290.0273 290.0273 290.0428 290.0428 290.3446 290.3446
   290.3446 290.3446 292.8008 292.8008 292.8008 292.8008 292.8363 292.8363
   295.3845 295.3845 297.2664 297.2664 297.2664 297.2664 299.2592 299.2592
   299.2592 299.2592 299.3191 299.3191 301.1182 301.1182 301.1182 301.1182
   301.1481 301.1481 301.2706 301.2706 302.6383 302.6383 302.8191 302.8191
   302.8191 302.8191 306.2593 306.2593 306.2593 306.2593 306.3788 306.3788
   306.7180 306.7180 306.7180 306.7181 307.3741 307.3741 308.9090 308.9090
   309.1596 309.1596 309.1596 309.1596 310.4940 310.4940 310.7586 310.7586
   310.7586 310.7586 311.8112 311.8112 311.8112 311.8112 312.9045 312.9045
   312.9045 312.9045 312.9811 312.9811 314.6343 314.6343 317.7289 317.7289
   319.8712 319.8712 319.8712 319.8712 319.8729 319.8729 320.6082 320.6082
   321.6655 321.6655 321.6655 321.6655 322.2130 322.2130 322.2130 322.2130
   323.0259 323.0259 323.0259 323.0259 323.4628 323.4628 324.0764 324.0764
   325.1679 325.1679 325.4040 325.4040 325.4040 325.4040 327.8444 327.8444
   328.3178 328.3178 328.3178 328.3178 329.5894 329.5894 329.5894 329.5894
   333.0535 333.0535 333.0536 333.0536 335.7924 335.7924 339.2698 339.2698
   339.2698 339.2698 340.1399 340.1399 341.1134 341.1134 341.4130 341.4130
   341.4130 341.4130 343.6006 343.6006 343.9204 343.9204 343.9204 343.9204
   344.9431 344.9431 345.2107 345.2107 345.2107 345.2107 346.2536 346.2536
   347.2121 347.2121 347.2121 347.2121 348.7051 348.7051 349.5554 349.5554
   349.5554 349.5554 355.9208 355.9208 357.3209 357.3209 357.3209 357.3209
   360.7182 360.7182 360.7182 360.7182 362.3929 362.3929 362.4228 362.4229
   362.6993 362.6993 362.6993 362.6993 363.6216 363.6216 363.6216 363.6216
   363.6519 363.6519 363.7072 363.7072 365.0965 365.0965 365.8476 365.8476
   365.8476 365.8476 366.2059 366.2059 366.2059 366.2059 367.2871 367.2871
   367.3383 367.3383 367.3383 367.3383 367.9988 367.9988 368.4135 368.4135
   368.4135 368.4135 368.4528 368.4528 369.0668 369.0668 369.0668 369.0668
   369.9846 369.9846 369.9846 369.9846 371.1354 371.1354 371.1354 371.1354
   371.1967 371.1967 372.9590 372.9590 373.0878 373.0878 373.0878 373.0878
   374.0532 374.0532 374.3669 374.3670 374.6523 374.6523 374.6523 374.6523
   376.9658 376.9658 377.6563 377.6563 377.6563 377.6563 378.7344 378.7344
   378.7344 378.7344 378.9363 378.9363 380.7162 380.7162 380.7162 380.7162
   380.8688 380.8688 381.3246 381.3246 381.8106 381.8106 382.8721 382.8721
   382.8721 382.8721 384.7291 384.7291 384.7291 384.7291 385.2463 385.2463
   385.8532 385.8532 385.8533 385.8533 385.9107 385.9108 388.2155 388.2155
   388.2155 388.2155 388.2778 388.2778 390.2504 390.2504 390.2504 390.2504
   391.3521 391.3521 391.8782 391.8782 391.8782 391.8782 396.5340 396.5340
   396.5340 396.5340 397.5429 397.5429 397.8948 397.8948 398.2860 398.2860
   399.5329 399.5329 399.5329 399.5329 402.0840 402.0840 402.5408 402.5408
   402.5408 402.5408 402.5998 402.5998 403.3481 403.3481 403.3481 403.3481
   404.2107 404.2107 404.3564 404.3564 404.3564 404.3564 405.5195 405.5195
   406.3592 406.3592 406.5668 406.5668 406.5668 406.5668 407.2744 407.2744
   407.2744 407.2744 407.6992 407.6992 408.1165 408.1165 408.1391 408.1391
   408.1391 408.1391 410.4205 410.4205 411.2069 411.2069 411.2069 411.2069
   411.7339 411.7339 412.1002 412.1002 412.1002 412.1002 412.2808 412.2808
   412.2808 412.2808 412.5204 412.5204 414.5804 414.5804 415.1727 415.1727
   415.1727 415.1727 416.4660 416.4660 416.4660 416.4660 417.6791 417.6791
   417.6791 417.6791 418.3759 418.3759 419.3350 419.3350 419.3350 419.3350
   420.0460 420.0460 420.7515 420.7515 420.9042 420.9042 421.2132 421.2132
   421.2132 421.2132 421.7995 421.7995 421.7995 421.7995 422.9512 422.9512
   422.9512 422.9512 423.4272 423.4272 423.8489 423.8489 424.4152 424.4152
   424.4152 424.4152 424.6464 424.6464 424.7193 424.7193 424.7582 424.7582
   424.7582 424.7582 424.9259 424.9259 424.9259 424.9259 425.0733 425.0734
   425.2664 425.2664 425.2664 425.2664 426.4520 426.4520 428.6506 428.6506
   428.6506 428.6506 430.5910 430.5910 432.5428 432.5428 432.5428 432.5428
   434.3162 434.3162 434.6898 434.6898 434.6898 434.6898 436.5780 436.5780
   438.1234 438.1234 438.1234 438.1234 439.4004 439.4004 439.7899 439.7899
   439.7899 439.7899 440.6729 440.6729 441.2165 441.2165 441.2165 441.2165
   441.5394 441.5394 441.9515 441.9515 441.9516 441.9516 442.5721 442.5721
   442.5721 442.5721 444.2020 444.2020 444.8617 444.8617 446.1206 446.1206
   446.5780 446.5780 446.5780 446.5780 446.6386 446.6386 447.0219 447.0219
   447.0219 447.0219 447.2293 447.2293 447.6168 447.6168 447.6168 447.6168
   449.7519 449.7520 451.0249 451.0249 451.0249 451.0249 452.0612 452.0612
   452.0612 452.0612 452.0678 452.0678 458.2962 458.2962 458.2962 458.2962
   460.3968 460.3968 460.3968 460.3968 461.2377 461.2377 462.0185 462.0185
   462.0185 462.0185 464.5642 464.5642 466.1572 466.1572 466.1572 466.1572
   466.8379 466.8379 466.9852 466.9853 467.7082 467.7082 467.7082 467.7082
   471.3450 471.3450 471.3450 471.3451 472.1634 472.1634 474.3680 474.3680
   475.3000 475.3000 475.3000 475.3000 475.6549 475.6549 475.6549 475.6549
   476.3285 476.3285 476.8839 476.8839 477.8322 477.8322 477.8322 477.8322
   478.2638 478.2638 478.8093 478.8093 478.8093 478.8093 478.9646 478.9646
   478.9646 478.9646 479.2806 479.2806 479.3252 479.3252 479.3543 479.3543
   479.3543 479.3543 480.2479 480.2479 480.2479 480.2479 480.5084 480.5084
   481.0773 481.0773 481.2906 481.2906 482.7761 482.7761 482.7761 482.7761
   483.2946 483.2946 483.2946 483.2946 484.0001 484.0001 484.0884 484.0884
   484.0884 484.0884 485.1471 485.1471 485.3449 485.3449 485.3450 485.3450
   486.3459 486.3459 486.4354 486.4354 486.6158 486.6158 486.6158 486.6158
   487.1862 487.1862 487.1863 487.1863 487.6414 487.6414 488.2856 488.2856
   488.2856 488.2856 488.4983 488.4983 488.6636 488.6636 488.7852 488.7852
   488.7852 488.7852 490.0848 490.0848 490.0848 490.0848 490.4087 490.4087
   490.5959 490.5959 490.5959 490.5959 490.9181 490.9181 491.7960 491.7960
   498.1541 498.1541 498.1541 498.1541 498.6881 498.6882 500.3089 500.3089
   500.3089 500.3089 501.3254 501.3254 502.8517 502.8517 508.6912 508.6912

          k = 0.0000 0.2887 0.0000 (  3126 PWs)   bands (ev):

    -4.7381  -4.2623  -2.7866  -2.7707  -2.7066  -2.6717  -2.6198  -2.5928
    -2.5685  -2.4818  -2.4762  -0.8124   4.4922   6.7339   7.8483   8.7379
    10.0074  10.2134  15.0236  16.6689  18.1128  19.2534  20.8841  21.4671
    22.1582  23.4228  23.5193  26.3319  27.0411  30.0567  32.3155  32.8192
    33.1957  33.8421  34.9791  36.4447  37.3099  37.5668  38.2877  38.8240
    39.8486  41.3935  41.9792  44.3427  46.8753  46.9609  47.4477  48.1743
    50.4390  50.8996  51.3173  52.3462  52.9062  54.4637  54.7703  55.1349
    55.3448  58.9626  59.7929  61.0182  61.9339  62.1951  63.2045  63.8965
    64.8262  65.7682  66.0714  66.4805  66.6302  66.8260  67.9958  68.4105
    68.5885  68.9523  69.4783  70.1135  71.6709  72.2467  72.7493  73.5521
    73.6349  74.2709  74.7197  75.4591  75.5581  77.3507  77.6984  79.3662
    79.9302  80.6505  80.9516  81.0075  81.7585  82.6587  83.5582  84.5028
    84.6903  85.2367  86.3570  87.2802  88.2867  89.0623  89.8164  90.2559
    91.4027  92.2455  93.1759  93.5011  93.5803  94.5455  94.6993  95.0616
    95.4474  95.8791  96.8135  97.9291  98.4277  99.3422  99.5649 100.1911
   100.6465 101.6564 102.0223 103.6161 104.4659 104.5119 105.3702 105.9478
   107.0155 107.8993 108.3139 109.4256 109.5944 110.1158 110.1446 110.5744
   111.0786 111.9393 112.2182 112.7864 113.2444 113.4703 114.5254 115.4686
   116.1289 117.1347 118.0667 118.3644 118.9101 119.1744 119.1970 119.6560
   120.7609 121.1527 121.5374 122.2276 122.6999 122.7716 123.0065 124.2523
   124.3734 125.0697 125.1968 126.8797 127.0195 127.7397 128.6272 130.0378
   130.5834 131.8177 131.9805 132.9639 133.3648 133.7099 134.4487 134.5400
   136.5045 136.7233 137.5057 137.8123 138.0548 138.3372 138.8864 138.9055
   139.6557 140.4532 141.2307 141.8081 141.9692 142.8248 143.3324 143.7846
   144.2963 144.5512 145.6402 146.1718 146.5372 146.7099 147.4170 147.7803
   148.4087 148.6371 148.6773 149.5551 149.9249 150.0850 150.7787 151.2145
   151.7046 151.7614 152.0945 152.6670 153.3717 153.4968 153.6017 154.7769
   154.7905 155.7234 155.9350 156.7974 157.0310 157.1951 157.8808 158.4611
   158.8146 158.9387 159.2003 159.7757 160.1170 160.3604 160.6689 160.7408
   161.2042 161.6849 161.8274 162.7053 162.8212 163.0170 163.5960 163.8743
   164.0918 164.2855 164.3187 164.4922 165.1002 165.3639 165.6224 165.8465
   166.1154 166.3870 167.9321 168.0927 168.5357 169.0051 169.1310 169.3731
   169.5389 170.2049 170.8029 170.8969 172.5143 173.6569 174.1306 174.9536
   175.4294 176.2051 176.6727 177.1205 177.5549 178.0244 179.0197 179.6003
   180.5479 180.6839 181.1289 181.4544 181.8824 182.1326 182.6958 182.7693
   183.7273 183.9044 184.8425 185.0024 185.1681 185.9873 186.5130 187.2658
   187.5736 189.0794 189.5624 189.9841 190.8157 191.6410 192.4750 192.7555
   192.7947 193.7016 194.0156 194.0218 194.8905 195.3009 196.0453 196.4972
   197.3560 197.5342 197.7055 198.6874 199.3090 199.5358 199.5611 200.6181
   201.0832 201.4902 202.4713 202.4792 202.5411 202.6221 202.8336 203.2201
   203.8731 204.4243 204.7617 205.0390 205.5349 206.2524 206.7338 206.9921
   207.2101 207.8155 208.2701 208.6327 209.4364 209.5793 210.0717 210.3307
   210.5285 210.9080 211.0005 211.5915 211.7529 212.1311 212.3903 212.6590
   212.6917 213.0891 213.8392 213.9605 214.1574 214.5361 214.6595 214.9825
   215.4196 216.0418 216.7705 217.4625 218.6732 219.0665 219.1069 220.4490
   220.4854 222.1421 222.1749 222.7941 223.1315 223.3637 223.8405 223.8976
   224.2411 225.0331 225.1543 225.6296 226.2601 226.4523 226.5583 227.3298
   227.4907 227.5936 227.9681 228.6259 228.6648 229.5523 229.8511 230.2957
   230.6884 230.7966 231.3921 231.9466 232.0266 232.8575 232.8886 234.0453
   234.3424 234.9482 235.0510 236.1536 236.5888 237.1281 237.7029 237.8560
   238.3318 239.3545 239.8238 240.0762 240.1110 240.2821 241.4893 241.6725
   242.0942 242.1849 242.8341 243.1150 243.2666 243.3446 243.4643 244.0023
   244.6610 245.4429 245.6788 246.4999 246.8852 247.5302 247.9039 248.2467
   248.7496 249.1959 249.5911 249.6201 250.4067 250.4340 250.5350 251.1605
   251.1705 251.3861 251.9731 252.1390 252.3820 252.8596 252.9716 253.0695
   253.6978 253.8259 254.6026 254.6303 255.0041 255.1376 255.1703 255.2958
   255.8367 256.4527 256.7715 257.1807 257.4160 258.1970 258.5253 258.6141
   259.0000 259.3562 260.9520 261.2955 261.5502 262.4469 262.8845 263.3461
   264.1080 264.3133 264.5374 265.7596 265.9157 266.1816 266.4212 266.5819
   267.1911 267.3728 267.7358 268.1354 268.8146 268.8236 269.4426 269.4586
   269.8751 270.0705 270.6104 270.7819 271.2238 271.5569 271.9209 272.1696
   272.8326 273.4744 273.6160 273.8143 274.0342 274.5825 275.0015 275.8965
   276.1606 276.2245 277.4851 277.5607 278.2345 278.3394 278.3728 278.7831
   279.2776 279.6465 280.3530 280.7346 281.3653 281.8075 282.0928 282.3165
   282.4429 283.1238 283.2604 283.3642 283.7551 284.2432 284.4069 284.4667
   284.8889 284.9392 285.3777 285.3833 285.7615 285.8763 285.8766 286.2360
   286.5188 286.9487 287.5141 287.9326 287.9405 288.1151 288.2503 288.5282
   288.7036 289.5659 290.1819 290.5349 290.6906 291.2716 291.5610 291.6336
   291.7816 291.8337 292.5053 292.5801 293.0392 293.0667 293.6781 293.7848
   293.9833 294.1389 294.6302 294.8101 295.2458 296.1662 296.4100 296.5077
   296.9677 297.6197 297.8138 298.0119 298.0936 298.2915 298.7167 299.4099
   299.7459 300.0968 300.2174 300.5330 301.1837 301.5688 301.8570 302.0153
   302.1448 302.1464 302.4816 302.7734 303.0300 303.4047 303.8528 303.9393
   306.3420 306.5224 308.0672 308.5040 308.8997 309.4803 309.9253 310.1819
   310.3733 310.5966 311.3845 311.4530 311.8914 311.8978 312.1796 312.3258
   312.9974 313.2588 313.7919 314.2869 314.7000 314.8409 315.2314 315.3475
   315.9525 316.4815 317.0231 317.2235 317.3677 317.8321 318.1546 318.7651
   318.9789 319.2914 319.5817 320.1529 320.5159 320.8021 321.8189 323.4597
   323.6405 323.7539 324.2338 324.4257 325.0589 325.7806 326.4079 326.8788
   327.1298 327.7297 327.7428 327.7851 328.1386 329.1922 329.3894 329.7217
   329.8578 330.1699 330.3373 330.7852 331.2189 331.6980 331.9699 332.1589
   332.5683 332.6833 333.1253 333.6628 333.8319 334.0620 334.0900 334.6717
   335.7308 336.1817 336.3684 336.8870 337.7356 337.9148 339.1027 339.2495
   339.3795 339.6016 339.6303 340.2407 340.3127 340.6436 340.7292 341.1699
   341.3351 341.5465 341.6271 341.9380 342.0155 342.4067 342.5443 342.8451
   343.3942 343.8153 343.8754 344.1115 345.1808 345.2888 345.3531 345.6118
   345.8011 346.4878 346.8188 346.9866 347.1363 348.2480 348.7762 349.2468
   349.5042 350.2159 350.5868 351.1504 351.5158 351.9253 352.2843 352.5709
   352.7786 352.8712 353.1131 353.4196 353.6571 354.0553 354.2401 354.4225
   354.9461 355.0835 355.2387 355.9304 355.9748 356.6474 356.7522 357.7158
   357.7270 358.2929 358.3348 358.6629 359.0992 359.5723 359.6507 359.8125
   360.1648 360.3432 360.5025 360.5211 360.9407 361.3598 361.7343 361.7942
   362.4754 362.8099 363.0770 363.3024 363.7464 364.3029 365.0924 365.1451
   365.3391 365.5616 366.2633 366.4075 367.1080 367.3452 367.4594 367.9178
   368.0541 368.8242 368.9012 368.9200 369.0001 369.1818 369.2675 369.8621
   370.0210 370.4652 370.4867 371.1273 371.3717 371.4786 371.7255 371.8175
   372.6739 373.2035 373.6718 374.6240 375.1143 375.2522 376.3617 376.4626
   377.0450 377.1899 377.4258 377.4735 377.4890 378.2335 378.2488 378.6425
   378.7542 378.8438 378.9422 379.7131 379.7189 379.9335 380.2217 380.3670
   380.5558 380.9628 381.1646 381.2995 381.6443 382.0255 382.6494 383.0623
   383.1224 383.2042 383.7514 384.2939 384.4159 384.9667 385.0187 385.5269
   385.7345 385.7894 386.0404 386.6183 386.7836 387.2436 387.3914 387.7939
   387.8830 388.1918 388.3017 388.3557 388.6802 388.8787 389.2586 389.4337
   390.1858 390.7203 390.7990 391.0353 391.4560 391.8299 392.1691 392.1960
   392.6201 393.0807 393.6614 394.3068 394.6247 395.8610 396.0287 396.4929
   396.9673 397.1583 397.9340 397.9927 398.1226 398.6998 398.8197 399.2296
   399.6279 399.8919 400.2239 400.2485 400.4533 400.7070 400.9716 401.2061
   401.6157 402.0326 402.3255 402.4189 402.7409 402.8661 403.1302 403.4261
   403.6116 403.7090 403.8493 404.0375 404.1898 404.6251 404.7554 405.1773
   405.9727 406.2315 406.6411 407.1896 407.4831 408.3471 408.5839 408.8222
   409.7645 410.4402 410.9308 411.2002 411.5056 411.5378 412.7919 412.8176
   413.1513 413.2013 413.4694 413.7933 413.8944 414.1373 414.5521 414.6926
   414.8693 415.0202 415.1612 415.3069 416.4019 416.9264 416.9505 417.4907
   417.5442 417.8047 418.2000 418.2705 418.4708 418.8384 419.0013 419.3957
   419.5281 419.8993 419.9033 420.1796 420.3716 420.6257 420.8203 421.0676
   421.2035 421.2720 421.5607 421.8588 422.1011 422.1972 422.3720 422.5235
   422.6368 423.0374 423.4536 423.8521 423.9340 424.1660 424.2182 424.5115
   424.8227 425.1608 425.3713 425.5397 425.7189 426.4800 426.5508 426.6574
   426.7395 426.8491 427.3599 427.4431 427.6384 427.6733 428.1314 428.2126
   428.6101 428.7168 428.7339 429.2158 429.5750 429.7032 430.0599 430.0954
   430.2322 430.8860 431.0107 431.4280 431.8961 432.1151 432.1486 432.6531
   432.8025 432.8316 432.9544 433.2274 433.4940 433.7068 433.8317 434.4339
   434.4580 434.4959 434.8031 435.1242 435.1870 435.3965 436.0767 436.2483
   437.6453 438.0952 438.4137 438.8426 439.1398 439.6774 440.1205 440.1539
   441.6143 441.6385 441.7586 442.3946 442.5148 443.0613 443.2758 443.5413
   443.6150 444.8724 445.4457 445.5102 445.9646 446.2351 446.6451 446.7125
   446.8756 447.9285 447.9352 448.4232 448.7922 449.2287 449.4013 449.5604
   449.9159 450.7358 451.3739 451.6313 451.8701 452.3060 452.7644 453.0329
   453.1879 453.9774 454.3286 454.6812 455.2635 455.7703 455.9719 456.2046
   456.8835 457.1630 457.8870 458.0094 458.2072 458.5811 459.1443 459.6376
   459.6396 460.2137 460.2592 460.7489 461.0945 461.1648 461.2511 461.9142
   461.9652 462.3468 462.5807 462.7214 462.7961 463.1606 463.2514 463.2919
   463.3785 463.5810 463.8145 463.9215 464.0844 464.2324 464.2590 464.3174
   464.4345 464.6484 464.7627 465.2224 465.4761 465.6864 466.2199 466.3662
   466.5707 466.6638 467.2629 467.4370 467.6011 468.3293 468.3607 469.0414
   469.8905 469.9915 470.2336 470.5122 470.6396 471.1446 471.1629 471.7363
   471.7962 472.0848 472.3749 472.6947 472.8591 473.0526 473.4684 474.0883
   474.2237 474.4558 474.4950 474.5675 474.6517 474.9053 475.0162 475.3167
   475.5356 475.7642 476.1886 476.8062 476.8897 476.9863 477.6363 477.9519
   478.2141 478.4474 478.5669 478.6062 479.1182 479.1399 479.1465 479.5614
   480.1023 480.3730 481.2111 481.4323 482.2438 482.4102 482.8983 483.2824
   483.6723 483.9258 484.0735 484.4123 485.3040 485.7993 485.8124 486.0542
   486.0733 487.2349 487.7561 487.8791 488.3592 488.4437 488.9549 489.0428
   489.4544 489.4737 489.6566 489.6824 490.1131 490.2577 490.2647 490.8764
   490.9455 491.2148 491.2313 491.5815 492.0868 492.8660 492.8725 493.1271
   493.3911 493.4151 493.5352 493.6341 493.9034 494.0859 494.2202 494.4565
   494.7720 495.1184 496.0209 496.8042 497.0840 497.3097 498.2811 498.4736
   498.9181 499.1427 499.7699 500.1167 500.4296 500.6910 500.6911 500.9520
   501.4697 501.8775 502.1666 502.2738 502.3549 502.6063 503.1925 503.4040
   503.6328 503.8250 504.0163 504.6405 504.8035 504.9230 505.3180 505.7121

          k = 0.0000 0.2887-0.3071 (  3114 PWs)   bands (ev):

    -4.4068  -4.4068  -2.7649  -2.7649  -2.7229  -2.7229  -2.6087  -2.6087
    -2.5222  -2.5222  -1.9771  -1.9771   6.1603   6.1603   8.6472   8.6472
     9.4268   9.4268  15.9783  15.9783  18.3715  18.3715  20.7423  20.7423
    22.3454  22.3454  25.9377  25.9377  29.1079  29.1079  31.2898  31.2898
    33.4912  33.4912  36.2343  36.2343  38.3310  38.3310  39.1487  39.1487
    41.4761  41.4761  42.0847  42.0848  45.1882  45.1882  48.0136  48.0136
    49.0981  49.0981  52.4166  52.4166  54.8570  54.8570  56.6667  56.6667
    57.7534  57.7534  60.1141  60.1141  60.1835  60.1835  61.8514  61.8514
    63.6940  63.6940  66.2341  66.2341  66.9281  66.9281  67.9178  67.9178
    70.0497  70.0497  71.8680  71.8680  72.2354  72.2354  74.0075  74.0075
    74.1198  74.1198  75.3616  75.3616  76.4978  76.4978  80.3507  80.3507
    80.5887  80.5887  81.1019  81.1019  82.9921  82.9921  83.8733  83.8733
    85.0996  85.0997  85.5797  85.5797  87.9592  87.9592  89.1245  89.1245
    91.2111  91.2111  91.5397  91.5397  93.9147  93.9147  94.0025  94.0025
    95.3507  95.3507  97.3994  97.3994  99.0494  99.0494  99.5051  99.5052
   101.5222 101.5222 102.6574 102.6574 102.8671 102.8671 105.4508 105.4508
   107.5698 107.5698 107.8761 107.8761 108.8744 108.8744 109.4449 109.4449
   111.9469 111.9469 112.0607 112.0607 115.1428 115.1429 115.4125 115.4125
   117.9882 117.9882 119.3928 119.3928 120.1280 120.1280 122.9752 122.9752
   123.4799 123.4799 124.2021 124.2021 125.1050 125.1050 125.5585 125.5585
   126.5491 126.5491 126.9962 126.9962 127.7601 127.7602 128.5544 128.5544
   130.3441 130.3441 131.8173 131.8173 131.8345 131.8345 133.5979 133.5979
   134.5456 134.5457 134.7579 134.7579 136.7385 136.7385 137.3557 137.3557
   139.4746 139.4746 139.9040 139.9040 141.5224 141.5224 141.9611 141.9611
   143.3999 143.3999 144.2392 144.2392 144.5617 144.5617 145.8845 145.8845
   146.4667 146.4667 147.3121 147.3121 149.5844 149.5844 149.9240 149.9240
   151.6906 151.6906 152.7573 152.7573 154.2024 154.2024 154.5397 154.5397
   155.0270 155.0270 155.6007 155.6007 156.7507 156.7507 156.8358 156.8358
   159.0236 159.0236 160.0962 160.0962 160.1158 160.1159 160.8269 160.8269
   162.4648 162.4648 162.5336 162.5336 164.8631 164.8631 165.0133 165.0133
   165.9567 165.9567 167.5485 167.5485 167.5694 167.5694 168.5539 168.5539
   168.8272 168.8272 170.0963 170.0963 171.8490 171.8490 172.8976 172.8976
   173.2210 173.2210 174.9502 174.9502 175.0351 175.0351 175.6789 175.6789
   176.3047 176.3047 176.5261 176.5261 178.3261 178.3261 178.8190 178.8190
   179.9274 179.9274 180.3730 180.3730 181.5578 181.5578 181.9679 181.9679
   183.4866 183.4866 184.0983 184.0983 184.8059 184.8059 185.7140 185.7140
   187.7458 187.7458 187.9341 187.9341 189.7881 189.7881 190.2431 190.2431
   190.7397 190.7397 191.7884 191.7884 193.3500 193.3500 193.9315 193.9315
   194.5408 194.5408 196.4415 196.4415 196.5326 196.5326 197.7995 197.7995
   198.0221 198.0221 198.7505 198.7505 200.2151 200.2151 201.0451 201.0451
   202.1123 202.1123 203.0662 203.0663 204.3620 204.3620 204.3949 204.3950
   206.9520 206.9520 208.2604 208.2604 208.6078 208.6078 209.6894 209.6894
   211.3361 211.3361 211.5358 211.5358 214.2396 214.2396 214.7595 214.7595
   215.8579 215.8579 217.9986 217.9986 218.5045 218.5045 218.9663 218.9663
   220.0488 220.0488 221.2431 221.2431 221.9322 221.9322 222.1681 222.1681
   223.1704 223.1704 223.5205 223.5205 224.4061 224.4061 224.7987 224.7987
   226.2617 226.2617 227.0647 227.0648 228.0367 228.0367 228.7267 228.7267
   228.8363 228.8363 229.5167 229.5167 229.8341 229.8341 230.7264 230.7264
   230.7352 230.7352 231.7030 231.7030 232.0342 232.0342 233.9372 233.9372
   234.1977 234.1977 235.0754 235.0754 235.4719 235.4719 236.8002 236.8002
   237.7813 237.7814 238.5851 238.5851 238.9283 238.9283 240.2246 240.2246
   240.5073 240.5073 240.9775 240.9776 242.6650 242.6650 243.0040 243.0040
   243.8639 243.8639 244.1101 244.1101 245.8280 245.8280 247.4194 247.4194
   247.5140 247.5140 248.4154 248.4154 248.7725 248.7725 250.1875 250.1875
   250.9972 250.9972 251.6421 251.6421 253.9181 253.9181 254.2751 254.2751
   255.4296 255.4296 255.5874 255.5874 256.1612 256.1612 256.4897 256.4897
   258.1147 258.1147 258.2402 258.2402 259.2367 259.2367 259.3956 259.3956
   260.3328 260.3328 260.9830 260.9830 262.0207 262.0207 262.0900 262.0900
   262.7802 262.7802 264.3796 264.3796 265.6048 265.6048 265.6629 265.6629
   266.6333 266.6333 266.7579 266.7579 267.9400 267.9400 268.0955 268.0955
   268.9737 268.9737 270.6615 270.6616 270.9190 270.9191 271.7995 271.7995
   272.5864 272.5864 273.1675 273.1675 274.3797 274.3797 274.3840 274.3840
   275.0565 275.0565 275.6845 275.6845 276.1174 276.1174 277.0749 277.0749
   277.6760 277.6760 277.9470 277.9470 279.2058 279.2058 279.6903 279.6903
   280.3146 280.3146 280.3941 280.3941 281.8060 281.8061 281.8346 281.8346
   283.6593 283.6593 285.5966 285.5966 285.7111 285.7111 286.2829 286.2829
   288.6116 288.6116 288.6594 288.6594 288.9763 288.9763 289.2498 289.2498
   290.2284 290.2284 291.2254 291.2254 291.7618 291.7618 293.0805 293.0805
   293.1015 293.1015 294.2279 294.2279 295.1953 295.1953 295.5759 295.5759
   296.2299 296.2299 296.9791 296.9791 297.6958 297.6958 298.3318 298.3318
   299.2099 299.2099 299.5092 299.5092 300.9193 300.9193 301.4042 301.4042
   301.5091 301.5091 302.0330 302.0330 302.4467 302.4467 303.4289 303.4289
   303.6447 303.6447 305.1291 305.1291 305.4818 305.4818 306.2205 306.2205
   306.3889 306.3889 307.9253 307.9253 308.1945 308.1945 308.5709 308.5709
   310.1478 310.1478 310.9950 310.9950 312.0925 312.0925 312.7204 312.7204
   312.9248 312.9248 314.0896 314.0896 314.1363 314.1363 315.4879 315.4879
   316.4831 316.4831 317.4943 317.4943 318.5713 318.5713 320.8003 320.8003
   321.1394 321.1394 322.2401 322.2401 322.2741 322.2741 323.4301 323.4301
   324.0616 324.0616 324.9328 324.9328 325.1342 325.1342 326.0360 326.0360
   326.1645 326.1645 327.4545 327.4545 327.4801 327.4801 328.3228 328.3228
   329.2253 329.2253 329.3321 329.3321 330.0185 330.0185 330.9249 330.9249
   331.4028 331.4028 331.5676 331.5676 332.3663 332.3663 332.4037 332.4037
   333.8643 333.8643 333.9061 333.9061 335.0341 335.0342 335.2799 335.2799
   336.9904 336.9904 337.2487 337.2487 338.5019 338.5019 339.0970 339.0970
   340.4467 340.4467 341.7918 341.7918 341.9328 341.9328 342.6950 342.6950
   343.7084 343.7084 344.0274 344.0274 344.6677 344.6677 345.1928 345.1928
   345.4691 345.4691 345.8824 345.8824 347.3096 347.3096 347.5705 347.5705
   348.6770 348.6770 349.5387 349.5387 349.6086 349.6086 351.4710 351.4710
   351.8834 351.8834 352.3690 352.3690 353.2566 353.2566 354.6191 354.6191
   354.8589 354.8589 355.9689 355.9689 356.6608 356.6608 357.1738 357.1738
   357.9499 357.9499 358.3236 358.3236 359.1512 359.1512 360.6618 360.6618
   361.0411 361.0411 361.9915 361.9915 362.3162 362.3162 363.8186 363.8187
   364.3931 364.3931 364.7371 364.7371 366.0099 366.0099 366.6395 366.6395
   367.5524 367.5524 368.0320 368.0320 368.4947 368.4947 369.0080 369.0080
   369.6482 369.6482 369.9010 369.9010 370.4749 370.4749 371.2720 371.2720
   371.5916 371.5916 372.3880 372.3880 372.4014 372.4014 373.4762 373.4762
   373.7758 373.7758 374.7885 374.7885 375.5080 375.5080 375.7965 375.7965
   376.7298 376.7298 376.7981 376.7981 377.8386 377.8386 378.2471 378.2471
   378.4644 378.4644 379.7211 379.7211 380.0321 380.0322 380.3597 380.3598
   381.3173 381.3173 381.5439 381.5439 382.3582 382.3582 383.2075 383.2075
   384.3137 384.3137 384.6124 384.6124 385.5562 385.5562 385.6572 385.6572
   387.8685 387.8685 388.3728 388.3728 388.9263 388.9263 389.0184 389.0184
   389.8580 389.8580 389.9679 389.9680 390.8289 390.8289 391.3195 391.3195
   391.6388 391.6388 392.4836 392.4836 393.3291 393.3291 394.1721 394.1721
   394.9464 394.9464 395.1446 395.1446 395.8114 395.8114 396.1308 396.1308
   396.7783 396.7783 396.8340 396.8340 397.2757 397.2757 397.5162 397.5162
   398.1179 398.1179 398.1897 398.1897 398.8688 398.8688 399.0217 399.0217
   399.6432 399.6432 399.8751 399.8751 400.3800 400.3800 401.6597 401.6597
   401.7926 401.7926 402.2813 402.2813 403.0729 403.0729 403.4090 403.4090
   403.9346 403.9346 403.9852 403.9852 405.1136 405.1136 405.5750 405.5751
   407.0950 407.0950 407.4834 407.4834 407.9841 407.9841 408.5832 408.5832
   409.3034 409.3034 410.0061 410.0061 410.8426 410.8426 411.8353 411.8353
   412.3174 412.3174 413.1185 413.1185 413.9714 413.9714 414.5353 414.5353
   414.9394 414.9394 415.2563 415.2563 416.3653 416.3653 417.1530 417.1530
   418.2715 418.2715 418.4134 418.4134 419.4332 419.4332 420.3199 420.3199
   420.4330 420.4330 421.9449 421.9449 422.4846 422.4846 423.3457 423.3457
   424.3786 424.3786 424.6106 424.6106 425.4297 425.4297 425.9143 425.9143
   426.4635 426.4635 427.1770 427.1770 427.5397 427.5397 429.2779 429.2779
   429.3592 429.3592 430.0304 430.0304 430.3238 430.3238 431.0678 431.0678
   432.3295 432.3295 433.0150 433.0150 433.3170 433.3170 434.0436 434.0436
   434.8699 434.8699 435.3871 435.3871 436.2264 436.2264 436.4193 436.4193
   437.1185 437.1185 437.3948 437.3948 438.2570 438.2570 438.6399 438.6399
   439.3173 439.3173 439.8668 439.8668 440.2797 440.2797 440.7312 440.7312
   441.0066 441.0066 441.4834 441.4834 441.4942 441.4942 442.7078 442.7078
   443.1235 443.1235 443.5260 443.5260 444.4027 444.4027 444.7329 444.7329
   445.0075 445.0075 445.3968 445.3968 445.5960 445.5960 446.1911 446.1911
   447.3162 447.3162 447.4514 447.4514 448.3217 448.3217 449.6939 449.6940
   449.7451 449.7451 451.0216 451.0216 451.0660 451.0660 451.8282 451.8282
   452.5273 452.5273 453.0286 453.0286 453.0548 453.0548 453.6700 453.6700
   454.4733 454.4733 455.0257 455.0257 456.4799 456.4799 456.8736 456.8736
   456.9546 456.9546 457.7047 457.7048 457.8146 457.8146 458.2684 458.2684
   458.6281 458.6281 458.7183 458.7183 459.9776 459.9777 460.6710 460.6710
   460.6837 460.6837 461.5324 461.5324 462.6035 462.6035 462.9030 462.9030
   463.8742 463.8742 464.1020 464.1020 465.0493 465.0493 465.1030 465.1030
   465.5158 465.5158 466.1885 466.1885 466.9477 466.9477 467.8351 467.8351
   467.9939 467.9939 468.2843 468.2843 468.7725 468.7725 469.6467 469.6467
   470.1604 470.1604 470.8149 470.8149 471.5498 471.5498 471.8676 471.8676
   472.6864 472.6864 473.3037 473.3037 474.6534 474.6534 474.8387 474.8387
   475.4031 475.4031 475.4435 475.4435 476.2063 476.2063 476.5007 476.5007
   476.8814 476.8814 477.2136 477.2136 478.2118 478.2118 478.2431 478.2431
   479.7088 479.7088 479.8408 479.8408 480.2673 480.2673 480.5177 480.5177
   480.7627 480.7627 483.2885 483.2885 484.5931 484.5931 485.0058 485.0058
   487.1896 487.1896 487.4851 487.4851 488.6421 488.6421 488.6737 488.6737
   489.9186 489.9186 490.7699 490.7699 490.8311 490.8311 492.2007 492.2007
   492.9108 492.9108 493.0394 493.0394 493.9393 493.9393 495.0178 495.0178
   495.5670 495.5670 496.4971 496.4971 496.7090 496.7090 497.5683 497.5683
   497.6143 497.6143 498.2716 498.2716 498.5479 498.5479 499.1992 499.1992
   499.2707 499.2707 499.7104 499.7104 500.2494 500.2494 500.4323 500.4323
   501.7898 501.7898 502.7453 502.7453 503.5090 503.5090 504.4791 504.4791
   504.8992 504.8992 505.5689 505.5689 505.6659 505.6659 507.0707 507.0707

          k = 0.0000-0.5774 0.0000 (  3118 PWs)   bands (ev):

    -4.3704  -4.2116  -2.7791  -2.7551  -2.6589  -2.6215  -2.5794  -2.5666
    -2.4980  -2.4619  -1.3042  -0.7502   4.2804   5.4406   6.5325   7.9844
     8.5242   9.7165  15.7989  16.2971  16.7833  19.3107  21.0637  21.1426
    23.1599  24.0350  24.7270  27.5557  28.2679  30.0757  32.1256  34.1568
    34.6540  34.7573  36.0902  37.0744  37.1892  39.0911  39.7053  41.5956
    41.6498  42.8987  43.1518  44.1434  44.4777  45.5648  45.8177  48.3650
    48.5079  51.3145  51.5392  51.5677  52.6859  53.2466  55.5229  55.5421
    55.9536  57.1188  57.1277  57.9853  58.1169  58.9493  60.3922  61.7049
    61.7613  61.9802  63.1887  63.8400  64.6197  65.3849  65.7729  66.0256
    67.1149  68.2685  69.0434  69.5046  71.7114  71.7610  72.2069  72.4040
    73.7195  75.4510  75.7448  77.0198  77.2582  78.7966  81.3759  82.0619
    82.0847  83.5404  84.4656  84.5749  84.7466  84.9768  86.6215  86.8683
    87.3450  87.3956  88.8300  89.4152  90.4175  90.7068  91.3346  91.3618
    91.7941  92.9994  93.7822  93.8026  94.3005  95.4688  96.4219  96.6961
    97.3259  98.5755  98.9124  99.5757  99.8672 100.5270 101.0588 101.1177
   102.3988 103.0258 103.1606 103.3998 103.6464 104.9458 105.3448 105.8691
   106.6266 108.6356 108.7399 108.7439 109.6408 109.8775 110.4238 110.6885
   110.9047 110.9176 111.1664 112.7729 113.3263 113.3844 114.0494 114.5604
   115.0790 115.3588 115.4874 117.8572 117.9298 118.3534 118.4371 119.0729
   119.2580 120.0925 120.9653 121.6032 121.8781 122.3016 122.3849 122.5971
   122.7120 123.2059 124.3286 125.0536 125.2634 125.8434 126.1421 127.1233
   128.2539 128.3978 128.8556 129.2704 129.6933 130.4676 132.1772 132.4352
   134.0904 135.1733 136.0990 136.2795 136.8796 137.5239 137.9919 138.5411
   138.8225 139.5232 139.5534 140.2383 140.4687 140.9099 141.5644 142.4597
   142.4951 143.5270 143.5933 144.0645 145.2776 145.9835 146.6412 146.8091
   148.3519 148.8447 148.8928 149.1454 149.4863 149.8350 150.3202 150.4316
   150.7829 151.2049 151.4942 151.6780 151.8048 152.2348 152.3718 152.6435
   152.6749 152.9086 152.9209 153.5861 153.6264 153.7475 154.5201 154.5896
   154.8446 155.7254 155.9285 156.4134 158.3378 158.6051 158.6562 159.9220
   161.2413 161.7403 162.2128 164.7920 166.6179 167.6563 169.1309 169.2475
   169.2805 169.3796 169.7708 170.0704 170.8860 171.0348 171.4356 171.8150
   171.9636 172.1110 172.8368 173.0128 173.2570 173.7834 174.0567 174.6422
   176.1135 176.1497 177.0350 177.1088 177.1744 177.7494 178.2351 178.3129
   178.5783 178.8970 179.2786 179.4592 179.6503 179.9657 180.2202 180.5136
   180.9853 182.0525 182.4107 183.0330 183.4235 183.7157 185.1704 185.4908
   186.3109 186.9520 187.5022 188.4046 188.4349 188.7617 188.9234 188.9697
   189.8718 190.4043 190.8234 190.8301 190.9526 190.9789 191.5480 191.9384
   192.1993 192.2303 194.6587 195.3902 196.4217 196.5145 196.8981 196.9618
   197.3096 197.8100 197.8403 197.9417 198.5125 198.5190 198.5905 199.3491
   199.4682 199.4742 199.4869 199.5790 199.8266 200.3829 201.2800 201.5436
   202.0085 202.0865 202.5048 203.7719 203.8198 203.8783 204.0324 204.5909
   205.6564 206.5603 206.5720 207.7322 207.7386 207.8087 208.0289 208.1755
   208.4483 209.0115 209.3371 209.7033 210.6148 210.6599 211.3910 211.4282
   211.7353 212.1372 212.2653 213.1664 213.2546 213.3322 213.4673 213.8745
   215.6581 216.0078 217.0308 217.5541 217.6642 218.9625 219.0040 219.5356
   220.1588 220.4037 221.0053 221.3751 222.8992 224.9308 225.1073 225.8484
   226.2615 226.6421 226.8742 227.0547 227.6473 227.8558 228.0275 228.2337
   228.5924 228.9199 229.6953 229.8309 229.9289 230.0737 230.3325 230.4155
   230.9397 231.5010 231.9105 232.0092 232.3032 232.4932 232.8826 233.2612
   233.5623 233.6064 233.9510 234.5846 234.6157 234.9926 235.2397 235.4743
   235.5255 235.9037 236.4726 237.1612 237.4797 237.4922 237.5692 238.1845
   238.4614 238.5988 238.6895 239.0020 239.3498 240.0743 240.1449 240.1600
   240.6400 240.6699 240.9186 241.1266 241.1845 241.7282 242.3915 242.4092
   243.1234 243.6437 243.6448 244.1052 244.1442 245.3234 245.8747 245.8913
   246.3256 246.5768 248.0294 248.5206 248.6104 249.1322 252.3466 252.6870
   252.7878 253.9658 253.9736 255.1378 255.8902 256.0064 256.1879 256.6752
   257.0608 257.0901 257.1929 257.8727 258.9466 259.1819 259.8560 259.9387
   260.0151 260.1865 260.3780 260.6155 261.2498 261.3798 261.8765 262.0516
   262.2902 262.8723 263.0483 263.7952 264.8314 264.8610 264.9019 265.4329
   266.1093 266.1923 266.9747 267.1959 267.4059 267.4245 267.7627 268.3985
   268.6058 270.1350 270.1926 271.4647 271.6741 271.8892 272.8486 274.2058
   274.2224 275.6865 275.7836 275.8724 276.2104 276.2363 278.3970 278.7443
   278.7669 279.3767 279.4719 279.6228 280.2295 280.5518 280.6805 280.9417
   282.0535 283.0367 283.2068 283.3430 283.8729 284.3197 284.3432 284.5906
   285.2234 285.5450 285.8348 285.8835 286.4835 286.7821 287.1363 287.2238
   287.5699 287.5817 288.0781 288.2041 288.3141 288.5214 289.2512 289.5138
   289.8895 289.8922 290.3160 290.4413 290.5132 290.6499 291.3970 291.4588
   291.5983 292.3250 292.4266 292.9838 293.1684 293.3962 293.4852 293.6405
   294.1170 294.5322 294.9171 297.0358 297.0653 297.1909 297.3526 297.6472
   297.7100 298.3220 298.3954 298.4085 298.5953 298.6075 299.3180 299.3255
   300.1127 300.1727 300.2150 300.5414 300.7677 300.8824 301.1911 301.2071
   301.9988 302.6100 302.9347 303.1262 303.2373 303.6936 303.8197 304.7814
   306.1704 306.4114 306.7250 306.8371 307.1536 307.2047 307.2406 308.2041
   309.5905 309.9055 310.0992 310.2090 310.5783 311.6239 311.9003 312.3665
   313.4672 313.6321 314.1967 314.2049 314.8814 314.9202 315.0323 315.2270
   315.2280 315.6819 315.8752 316.7820 316.9652 317.3416 317.8345 318.3917
   318.4153 318.5211 318.8951 318.9139 319.6929 320.2449 320.3261 320.6388
   320.9243 321.2112 321.5849 321.6851 322.1028 322.1623 322.6708 322.9334
   323.2255 323.4932 323.5227 324.2241 324.6914 325.1631 325.5688 325.7182
   325.8085 326.1232 326.1745 326.1894 326.2865 326.7335 327.1677 327.4281
   328.3043 328.3627 328.9332 328.9946 329.0219 329.1432 329.3240 329.6025
   329.6128 329.7028 329.7150 329.9158 330.0148 330.0557 330.1689 330.2267
   330.2319 330.7978 331.0854 331.2801 331.5836 331.6285 332.0130 332.9535
   333.1522 334.4765 334.5361 334.7368 335.7544 336.0997 336.3465 336.5453
   337.5958 337.7015 337.8889 338.5947 339.4672 339.5461 342.0532 342.2163
   343.4283 343.4472 343.8608 344.2241 344.7956 345.1929 345.2183 345.4643
   345.4782 345.8201 346.4270 346.4350 347.5343 347.5702 348.2327 348.6431
   348.7354 349.1254 349.3853 349.6208 349.7880 349.8104 349.9280 350.4225
   350.5827 351.2101 351.2851 351.3154 351.3215 351.4900 351.5043 352.3514
   353.1557 354.0656 354.1636 354.2965 354.9082 355.2598 355.4353 356.2409
   356.8291 357.0960 357.1070 357.3596 357.4486 357.6984 357.8020 358.7280
   359.0790 360.6024 360.6677 361.4059 361.6714 362.1604 362.2390 362.6346
   362.8723 362.9167 363.0147 363.6080 363.6295 364.3293 364.7149 364.9463
   364.9843 365.5817 366.1008 366.2142 366.3910 366.9270 367.6544 367.7032
   367.9458 368.2473 368.5792 368.9308 369.1646 369.8401 369.9388 370.3966
   371.1500 371.4653 371.6358 372.1725 372.4716 373.0872 373.1172 373.3529
   373.6025 373.7408 373.7411 374.3462 374.9975 375.2286 375.2463 375.4391
   376.1098 376.4083 376.4788 376.7189 376.8268 376.9164 377.0338 377.2015
   377.2652 377.4387 377.5542 377.7959 378.0105 378.3887 378.4374 378.5496
   378.5715 379.0526 379.3656 379.3792 379.5011 379.7344 381.1264 381.3578
   381.9548 382.2407 382.4192 382.6074 382.7095 382.7848 383.3640 383.9450
   384.0512 384.3009 384.5097 385.3716 385.3749 385.4098 385.8124 386.0761
   386.1402 386.3725 386.9986 387.1612 387.2075 387.6442 387.9667 388.4038
   388.5114 388.9242 389.1450 389.8181 389.8386 389.8799 389.9405 390.0853
   390.1325 390.6441 391.0852 391.2450 391.4758 391.5294 391.6765 392.1447
   392.3436 393.1804 393.3949 394.0774 394.3591 394.4122 394.8580 394.9006
   395.2641 395.3486 396.4381 396.5396 396.8694 396.8837 397.0510 398.3405
   398.4969 398.9521 399.2120 399.2964 399.3345 399.6216 400.3445 400.9809
   401.6909 402.1950 402.8281 403.2118 403.2887 404.1685 404.8662 405.0850
   405.7343 405.8613 405.8629 405.9945 406.1510 406.5246 406.9017 407.5744
   407.5927 407.7129 407.9257 408.4980 408.7402 409.0758 409.4493 410.2177
   410.4906 411.1960 411.2736 411.3958 412.2012 412.2566 412.4150 412.8740
   413.5216 413.5389 413.7896 414.4909 414.9277 414.9685 415.0243 415.2349
   415.5181 415.6873 416.1051 416.3271 416.4478 416.6981 416.7355 416.7435
   417.2718 417.3357 417.4769 418.3814 418.4303 419.4891 420.2256 420.4957
   420.5523 421.0904 421.8913 422.4852 422.6824 422.7816 422.8091 423.5287
   423.9822 425.7614 426.2073 426.2481 427.5512 429.1844 429.2834 430.4771
   430.7862 430.8979 431.8724 432.4716 433.1101 433.1856 433.7929 433.9991
   434.1385 434.1680 435.2511 435.3488 435.6190 435.7965 436.3297 436.5365
   436.5961 437.6606 437.6917 437.7692 438.1550 438.1752 438.6151 438.9201
   439.1263 439.4309 439.6858 440.0883 440.1102 440.4635 440.4723 440.4765
   440.8251 441.0451 441.1588 441.2022 441.7411 442.0138 442.1706 442.2679
   442.3069 442.5211 442.6338 442.8739 443.1135 443.4612 443.5026 443.7332
   444.0945 444.2614 444.3906 444.7390 445.0407 445.1712 445.5404 445.6980
   445.9388 446.0864 446.3129 446.3218 446.5174 446.6696 447.1006 447.1634
   447.2475 447.5494 447.9998 448.0845 449.0011 449.0737 449.1869 449.9062
   450.4308 450.6541 450.7105 451.0466 451.1505 451.5780 451.8312 452.0089
   452.3443 452.3463 452.7134 452.7771 452.9821 453.0198 453.2825 453.4495
   453.7119 453.8957 454.1431 454.6119 454.7549 455.0195 455.1271 455.3141
   455.6241 455.6418 455.7904 456.2195 456.5227 456.9902 458.7418 459.0397
   459.4803 459.6922 460.1832 460.8836 461.1661 461.9871 462.0728 462.1652
   462.3852 462.5230 462.5582 462.5838 462.8870 462.9806 463.0429 463.1383
   463.3269 463.3450 463.4594 463.5119 463.5708 464.3107 464.6290 464.7679
   464.7978 465.0678 465.5896 465.8938 465.9409 466.4192 466.6910 466.8778
   466.9063 466.9396 467.1233 467.1788 467.2660 468.5582 468.9858 469.4844
   469.8276 470.5687 470.8098 471.1790 471.5329 471.5716 471.7579 472.3697
   472.8695 473.3987 473.5183 473.5822 473.9791 474.3505 474.4592 474.5518
   474.7958 474.9558 474.9999 475.0187 475.4725 475.5770 475.7458 475.9236
   475.9603 476.0347 476.4554 476.4967 476.6951 476.8655 477.3032 477.3188
   477.5901 477.5907 478.0439 478.7354 478.7789 478.9568 479.1785 479.5127
   479.8874 480.3354 480.3928 480.6709 480.9320 480.9847 481.2205 481.3703
   481.5509 482.0399 482.3079 482.9478 483.0392 483.0439 483.7989 483.8981
   484.2895 484.3693 484.4574 484.6221 485.0243 485.5468 486.5528 487.3383
   487.4584 487.4744 488.0795 488.1450 489.2179 489.6405 489.9175 491.0237
   491.0446 491.1259 491.5499 491.7139 491.9749 492.4004 492.7206 492.7372
   493.1344 493.4042 493.4312 493.6235 494.0116 494.2243 494.4555 494.6380
   494.6464 494.8258 494.9697 495.2415 495.4793 495.5498 495.7790 495.8970
   496.0621 496.2010 496.4376 496.8648 497.2090 497.2291 497.5903 497.8278
   498.1615 498.2239 498.3558 498.3926 498.6985 499.8796 500.0110 500.7490
   501.0602 501.5041 501.8398 501.9003 502.1461 502.3807 502.9317 502.9475

          k = 0.0000-0.5774-0.3071 (  3128 PWs)   bands (ev):

    -4.2407  -4.2407  -2.7802  -2.7802  -2.6607  -2.6607  -2.5506  -2.5506
    -2.4898  -2.4897  -1.0685  -1.0685   4.1358   4.1358   8.7791   8.7791
     8.8311   8.8311  15.1471  15.1471  18.4902  18.4902  20.6910  20.6910
    22.9591  22.9591  25.9714  25.9714  31.6364  31.6365  31.8907  31.8908
    34.7101  34.7101  35.4530  35.4530  38.9705  38.9705  42.1128  42.1128
    43.0229  43.0229  44.4928  44.4928  46.4073  46.4073  46.7155  46.7155
    48.4586  48.4586  49.0544  49.0544  51.0677  51.0677  53.5152  53.5152
    54.5645  54.5645  55.7280  55.7280  60.0773  60.0773  62.1783  62.1783
    65.0645  65.0645  66.3929  66.3929  67.7377  67.7378  67.7670  67.7670
    68.4263  68.4263  69.3240  69.3240  72.6050  72.6050  72.9860  72.9860
    74.2143  74.2143  75.1657  75.1657  76.4706  76.4706  78.9036  78.9036
    80.5022  80.5022  80.8237  80.8237  82.5204  82.5204  84.4345  84.4345
    87.2569  87.2569  90.0540  90.0541  90.2967  90.2967  92.9055  92.9055
    94.5549  94.5550  96.5849  96.5849  97.7317  97.7317  99.2415  99.2415
    99.2539  99.2539 100.4867 100.4867 101.3028 101.3028 101.5892 101.5892
   101.9098 101.9098 102.6073 102.6073 103.7689 103.7689 105.3396 105.3396
   105.4642 105.4642 105.8355 105.8355 107.8551 107.8551 108.8065 108.8065
   110.1895 110.1895 113.0757 113.0757 113.0909 113.0909 113.5316 113.5316
   114.5020 114.5021 116.4535 116.4535 118.4855 118.4856 119.2495 119.2495
   120.7007 120.7007 122.2980 122.2981 124.3749 124.3749 124.5575 124.5575
   125.6957 125.6957 125.7804 125.7804 127.0452 127.0452 127.4249 127.4249
   127.9551 127.9551 129.7535 129.7535 130.4965 130.4966 132.4599 132.4599
   132.5651 132.5651 133.6244 133.6244 135.3790 135.3790 135.4239 135.4239
   137.3570 137.3570 137.3899 137.3899 139.9200 139.9200 140.8563 140.8563
   140.9009 140.9009 143.0227 143.0227 143.8910 143.8910 145.3640 145.3640
   145.6909 145.6909 148.1811 148.1811 149.0921 149.0921 150.6618 150.6618
   151.5051 151.5051 152.1168 152.1168 153.3086 153.3086 154.5993 154.5993
   156.1263 156.1263 156.7756 156.7756 157.7295 157.7295 157.9622 157.9622
   159.3816 159.3816 160.4566 160.4566 160.9944 160.9945 162.6939 162.6939
   163.0598 163.0598 164.1942 164.1942 165.0487 165.0488 165.4452 165.4452
   166.7798 166.7798 166.9918 166.9918 168.1811 168.1811 169.1856 169.1856
   169.7962 169.7962 171.1371 171.1371 172.1816 172.1816 172.3330 172.3331
   174.7386 174.7387 175.9715 175.9715 176.2046 176.2046 176.8714 176.8714
   178.3980 178.3980 179.5806 179.5806 180.3365 180.3365 182.7199 182.7199
   183.3366 183.3366 183.6250 183.6250 184.0431 184.0431 185.3983 185.3983
   186.9276 186.9276 187.1034 187.1034 188.2191 188.2191 189.7411 189.7411
   190.3611 190.3611 191.1933 191.1933 192.1593 192.1594 192.4460 192.4460
   193.1206 193.1206 193.4774 193.4774 195.8304 195.8304 195.8608 195.8608
   197.2936 197.2936 198.0384 198.0384 198.9159 198.9159 199.9033 199.9033
   200.2315 200.2315 202.0255 202.0255 202.1276 202.1276 202.8785 202.8785
   203.9208 203.9208 204.2665 204.2665 204.4091 204.4091 205.2520 205.2520
   206.0018 206.0018 207.1669 207.1669 207.8795 207.8795 208.5828 208.5828
   210.0063 210.0063 210.4456 210.4456 211.2579 211.2579 211.3358 211.3358
   211.9865 211.9865 213.2497 213.2497 213.4435 213.4435 215.2801 215.2801
   215.4047 215.4047 217.3078 217.3078 217.7375 217.7375 217.8462 217.8462
   218.6308 218.6308 219.8882 219.8882 220.8423 220.8423 221.1301 221.1301
   222.0598 222.0598 222.8776 222.8776 224.1549 224.1549 224.2763 224.2763
   224.8635 224.8635 225.9916 225.9916 227.1834 227.1834 227.7113 227.7113
   228.6939 228.6940 230.7362 230.7362 231.3611 231.3611 232.2952 232.2952
   232.3491 232.3491 233.9081 233.9081 235.3365 235.3365 235.7496 235.7496
   237.7042 237.7042 238.7925 238.7925 240.2082 240.2082 240.4742 240.4742
   241.2783 241.2783 241.3635 241.3635 243.2230 243.2230 243.7083 243.7083
   243.9325 243.9325 244.9800 244.9800 245.0905 245.0905 246.2800 246.2800
   246.9930 246.9930 247.4738 247.4738 248.2170 248.2170 248.6784 248.6784
   249.6181 249.6181 250.1879 250.1879 251.7587 251.7587 252.6432 252.6432
   252.9089 252.9089 253.5873 253.5873 255.8243 255.8243 256.0597 256.0597
   256.6429 256.6429 257.1071 257.1071 257.7338 257.7338 259.1065 259.1065
   259.4604 259.4604 260.6102 260.6102 260.6388 260.6388 262.4209 262.4209
   262.6546 262.6546 263.5407 263.5407 265.4604 265.4604 266.4575 266.4575
   266.9161 266.9161 267.6807 267.6807 267.9019 267.9019 268.4288 268.4288
   269.2254 269.2254 269.9225 269.9225 270.0933 270.0933 271.5477 271.5477
   272.4589 272.4589 273.8287 273.8287 274.5083 274.5083 275.3172 275.3172
   275.3260 275.3260 276.0651 276.0651 276.5712 276.5712 276.7368 276.7368
   277.5333 277.5333 277.8988 277.8988 279.0005 279.0005 280.3406 280.3406
   282.5944 282.5944 284.6247 284.6247 286.0822 286.0823 287.0356 287.0356
   288.1464 288.1464 288.7378 288.7378 288.8839 288.8839 289.7693 289.7693
   290.3846 290.3846 290.5725 290.5725 291.5552 291.5552 291.8819 291.8819
   292.4174 292.4174 292.5047 292.5047 293.1742 293.1742 294.0658 294.0658
   295.4610 295.4610 296.5710 296.5710 296.9200 296.9200 297.7063 297.7063
   298.9358 298.9358 299.5242 299.5242 301.0304 301.0304 301.8621 301.8621
   302.3083 302.3083 303.2694 303.2694 303.4006 303.4006 304.0238 304.0238
   304.3783 304.3783 305.7797 305.7797 305.9829 305.9829 306.2792 306.2792
   307.1286 307.1286 308.3000 308.3000 308.6198 308.6198 309.4276 309.4276
   310.0019 310.0019 310.5452 310.5452 310.7732 310.7732 311.2763 311.2763
   311.7670 311.7670 312.4715 312.4715 313.3852 313.3852 314.8906 314.8906
   315.4457 315.4457 316.4403 316.4403 316.4782 316.4782 317.5377 317.5377
   317.7484 317.7484 318.9406 318.9407 319.2858 319.2858 319.9349 319.9349
   321.0169 321.0170 321.0822 321.0822 321.5383 321.5383 322.2008 322.2008
   322.2241 322.2241 323.1015 323.1015 323.6528 323.6528 324.7246 324.7246
   325.2538 325.2538 325.2832 325.2832 326.7984 326.7984 326.9594 326.9594
   327.5532 327.5533 328.4045 328.4045 329.4163 329.4163 330.2648 330.2648
   330.3243 330.3243 331.9441 331.9441 333.1931 333.1931 333.5313 333.5313
   334.9256 334.9256 335.8555 335.8555 336.0771 336.0771 337.6801 337.6802
   338.7175 338.7175 338.8201 338.8201 339.8825 339.8825 340.8165 340.8165
   341.1024 341.1024 341.4648 341.4648 341.9626 341.9626 342.1301 342.1301
   342.6268 342.6268 343.4027 343.4027 343.6188 343.6188 344.4554 344.4554
   345.0131 345.0131 345.4605 345.4605 346.4850 346.4850 347.0126 347.0126
   347.4025 347.4025 347.5586 347.5586 348.2722 348.2722 348.7139 348.7139
   349.5684 349.5684 350.4929 350.4929 350.6510 350.6510 351.7997 351.7997
   352.7625 352.7625 353.1696 353.1696 353.6332 353.6332 353.7357 353.7357
   355.3170 355.3170 355.5310 355.5310 356.9316 356.9316 357.2038 357.2038
   357.8770 357.8770 358.1713 358.1713 358.7379 358.7379 359.0762 359.0762
   359.4393 359.4393 360.1022 360.1022 361.1807 361.1807 361.6379 361.6379
   361.8894 361.8894 363.1309 363.1309 363.2727 363.2727 363.9477 363.9477
   364.7206 364.7206 365.1735 365.1735 366.0138 366.0138 366.8312 366.8312
   367.5098 367.5098 368.2787 368.2787 369.0429 369.0429 370.6841 370.6841
   371.2811 371.2811 372.3158 372.3158 372.8366 372.8366 373.0440 373.0441
   374.4088 374.4088 374.4224 374.4224 375.3150 375.3150 375.4941 375.4941
   375.6602 375.6602 376.0372 376.0372 378.3158 378.3158 379.2960 379.2960
   379.6766 379.6766 380.5229 380.5229 381.6380 381.6380 382.0627 382.0627
   383.6871 383.6871 384.7194 384.7194 384.7328 384.7328 385.8325 385.8325
   386.1856 386.1856 386.6742 386.6742 387.1242 387.1242 387.1702 387.1702
   388.5809 388.5809 388.9914 388.9914 389.8374 389.8374 390.6693 390.6693
   391.1763 391.1763 391.6192 391.6192 393.1388 393.1388 393.2159 393.2159
   394.5859 394.5859 395.5062 395.5062 395.5989 395.5989 395.6979 395.6979
   396.2892 396.2892 396.4681 396.4681 397.5953 397.5953 398.7885 398.7885
   399.0360 399.0360 399.4395 399.4395 400.3614 400.3614 401.0486 401.0486
   401.0697 401.0697 402.5037 402.5037 402.5940 402.5940 403.2745 403.2745
   403.3807 403.3807 404.1521 404.1521 405.7411 405.7411 406.1883 406.1883
   406.9617 406.9617 407.0267 407.0267 407.3739 407.3739 408.2680 408.2680
   408.9116 408.9116 409.2092 409.2092 410.0265 410.0265 410.4431 410.4431
   410.6421 410.6421 411.6414 411.6415 412.9001 412.9001 413.0641 413.0641
   413.4735 413.4735 413.7737 413.7737 413.8339 413.8339 415.1680 415.1680
   416.1894 416.1894 416.9827 416.9827 418.4431 418.4431 418.7642 418.7642
   419.2296 419.2296 419.3466 419.3466 420.2556 420.2556 420.9454 420.9454
   421.1670 421.1670 421.6121 421.6121 422.2612 422.2612 423.0214 423.0214
   424.3760 424.3760 425.5772 425.5772 425.7203 425.7204 426.1554 426.1554
   426.5871 426.5871 427.0519 427.0519 428.9544 428.9544 430.1186 430.1186
   430.7268 430.7268 431.1700 431.1700 431.7433 431.7433 432.0010 432.0010
   432.7376 432.7376 433.7206 433.7206 433.9593 433.9593 435.8599 435.8599
   436.5929 436.5929 437.5382 437.5382 437.5678 437.5678 438.0319 438.0319
   439.2108 439.2108 439.5131 439.5131 440.2179 440.2179 440.4519 440.4519
   440.5102 440.5103 440.7905 440.7905 441.1250 441.1250 441.1528 441.1528
   442.4701 442.4701 442.5063 442.5063 443.3106 443.3106 443.8476 443.8476
   444.3808 444.3808 444.7965 444.7965 445.0685 445.0685 445.4480 445.4480
   446.2244 446.2244 448.3892 448.3892 449.2500 449.2500 449.9021 449.9021
   450.5643 450.5643 452.1367 452.1367 452.6713 452.6713 452.7356 452.7356
   453.9646 453.9646 454.2513 454.2513 455.4929 455.4929 455.8663 455.8663
   455.9293 455.9293 456.8624 456.8624 456.8664 456.8664 457.5058 457.5058
   457.7634 457.7634 457.8793 457.8793 457.9295 457.9295 458.4957 458.4957
   458.4979 458.4979 459.9483 459.9483 460.3385 460.3385 461.1835 461.1835
   462.0917 462.0917 462.5407 462.5407 462.5791 462.5791 463.1244 463.1244
   464.1355 464.1355 464.3561 464.3561 465.1496 465.1496 465.5801 465.5801
   465.6206 465.6206 466.6010 466.6010 467.1913 467.1913 467.4024 467.4024
   467.5466 467.5466 467.6450 467.6450 468.6017 468.6017 468.9153 468.9153
   469.4622 469.4622 469.8927 469.8927 470.7067 470.7067 471.4426 471.4426
   471.7085 471.7085 472.4183 472.4183 473.1314 473.1314 473.4621 473.4621
   474.0745 474.0745 474.3782 474.3782 474.5962 474.5962 474.8324 474.8324
   476.5521 476.5521 476.6751 476.6751 477.3317 477.3317 477.8327 477.8327
   478.1425 478.1425 478.1522 478.1522 478.4419 478.4419 478.4789 478.4789
   478.9814 478.9814 478.9881 478.9881 481.3198 481.3198 481.6924 481.6924
   483.0827 483.0827 485.2245 485.2245 485.4370 485.4370 486.2738 486.2738
   486.5289 486.5289 486.9494 486.9494 487.5163 487.5163 487.7721 487.7721
   488.3461 488.3461 488.4542 488.4542 488.9927 488.9927 489.9366 489.9366
   490.9459 490.9459 491.9409 491.9409 492.5874 492.5874 492.6267 492.6267
   493.4982 493.4982 493.9335 493.9335 494.0947 494.0947 494.3940 494.3940
   496.1993 496.1993 496.5040 496.5040 496.7127 496.7127 497.0119 497.0119
   497.5380 497.5380 498.2456 498.2456 499.0333 499.0333 499.1648 499.1648
   499.7215 499.7215 501.0647 501.0647 501.5623 501.5623 501.9669 501.9669
   502.5344 502.5344 503.8666 503.8666 504.1994 504.1994 504.5340 504.5340

          k = 0.2500 0.4330 0.0000 (  3122 PWs)   bands (ev):

    -4.3538  -4.2179  -2.8092  -2.6890  -2.6397  -2.6273  -2.6123  -2.5803
    -2.5275  -2.4986  -1.5040  -0.4945   5.0025   5.6109   6.6692   6.7689
     8.6281   8.8142  16.5048  17.3790  18.5105  18.6015  20.2999  21.0926
    21.7518  24.4157  24.5994  26.6576  30.4054  30.8704  31.4232  32.3111
    33.2475  35.5310  35.6198  37.2007  37.2466  38.0266  39.2922  41.0821
    41.9035  43.5936  45.0847  45.6092  46.0091  47.1808  47.2148  47.6972
    48.2456  50.4455  50.6849  52.2249  53.8621  53.8680  54.7615  54.7971
    55.3623  56.2258  56.5318  57.3435  58.0237  58.9317  59.5899  59.6354
    60.1283  60.8721  61.1102  63.1478  64.3718  65.4448  66.6285  66.7742
    68.0257  68.0628  69.3414  70.8829  72.4469  73.1746  73.3887  74.0626
    74.7223  75.5445  76.7914  76.8654  79.2263  79.9352  80.5125  82.3037
    82.5146  83.0014  83.5009  83.8803  84.3832  85.0667  85.0796  85.9837
    86.4624  88.5648  89.1062  89.6223  89.7264  90.4026  90.8917  91.4533
    91.9682  92.6727  93.0319  93.3965  95.6283  97.1302  97.4897  97.7394
    98.3522  98.4372  98.9343  99.6099  99.7586 100.0519 100.1520 100.5801
   101.4777 101.7580 102.4756 102.5237 103.4567 104.1482 104.7706 104.9495
   105.3624 106.8611 106.9609 107.0068 107.5936 107.8842 109.3683 110.0678
   110.7981 111.1649 111.9253 111.9728 113.4131 113.4215 114.7681 115.1412
   115.5793 116.1991 117.4946 117.8042 118.4850 118.8009 119.2986 119.4738
   120.5599 120.9891 121.4072 122.7053 123.6968 124.0842 124.5131 125.0764
   125.3338 126.2316 126.7415 126.8434 127.5270 127.9647 128.8789 129.4504
   129.5324 130.0025 130.0498 131.0760 131.5513 131.7087 132.5514 132.7769
   132.9949 133.1978 133.4556 134.2921 134.8099 135.1243 135.1824 136.1843
   136.5952 136.8577 137.9628 138.3240 138.5942 138.8046 139.8560 139.9378
   140.6261 140.8258 141.9172 142.0223 142.2243 143.1654 143.3447 143.6124
   145.0690 145.5025 146.3186 146.8505 147.3569 148.1297 148.4983 148.8028
   149.7374 150.0354 150.8621 150.8724 151.4212 152.6012 154.2826 155.1698
   155.3852 156.2343 156.6536 157.1418 157.7483 158.1904 158.9321 159.1331
   159.5941 159.6815 159.8868 160.5174 160.6137 161.6949 161.7700 162.6431
   163.2347 163.2719 163.6762 164.2560 164.4806 164.8050 167.1171 167.3765
   167.6675 168.1674 168.9968 169.2893 170.0059 171.0148 171.2070 171.5098
   172.3287 172.4793 173.3655 173.5334 173.7847 173.8136 174.3627 174.5612
   175.5203 175.9111 176.4536 176.6508 176.7828 177.0858 177.2662 177.4464
   177.9301 178.0864 178.5269 178.6401 179.9261 179.9829 180.1761 180.9613
   181.0296 182.4069 182.9115 183.2988 183.5346 183.6663 183.9856 184.6219
   185.1523 185.8170 186.0357 186.1053 186.5502 187.8803 188.3543 189.1460
   189.5121 189.8083 189.9898 190.0517 190.2981 190.9718 191.0976 192.3926
   192.5037 192.5739 193.2089 193.4412 194.6655 195.3739 195.9094 196.2847
   196.9265 197.2494 197.8157 198.2375 198.4287 198.7103 199.0401 199.0626
   199.3386 199.4303 200.0834 200.2626 200.9287 201.6236 201.8083 201.9318
   202.4874 202.9364 203.1725 203.6613 204.1492 204.8177 205.0132 206.1172
   206.4884 206.8114 206.9919 207.8907 208.4802 208.7257 208.9605 209.1042
   209.7756 210.1053 211.0502 211.4029 211.7638 212.3363 213.5999 213.6591
   214.0429 214.6401 214.7183 215.8972 216.1031 216.3317 216.5637 216.7255
   216.8246 217.2669 218.1921 218.2600 218.4547 218.8888 219.4599 219.7274
   220.1689 220.2685 220.6873 221.1113 221.2644 221.3281 221.4900 221.7726
   222.4340 222.9308 223.2445 223.3847 223.4014 224.1967 225.1026 225.2230
   225.4854 225.6704 226.1279 226.1736 226.5532 226.8349 227.3940 228.8842
   229.0837 229.2747 229.4875 229.8783 230.1197 230.3468 231.0060 231.6908
   231.8844 232.5522 232.9969 233.3043 234.2169 234.6174 234.7513 235.0449
   235.6910 235.9845 236.3359 236.6826 237.8268 238.2027 238.3997 238.6588
   239.5145 240.0635 240.6115 240.8701 241.2976 241.4993 241.8935 242.1989
   242.4078 242.9034 243.0078 243.5786 243.8201 245.0245 245.3645 245.3892
   246.7122 246.8248 247.2385 247.3957 247.7659 247.9795 248.1357 248.7594
   249.3471 249.7073 250.3235 250.8182 251.1637 251.6480 251.7912 252.2906
   252.4727 253.0181 253.6955 254.0647 254.2518 254.3570 255.7728 256.8922
   256.9632 257.4149 258.1829 258.6917 258.8513 259.2024 260.0897 260.4489
   260.7329 261.2025 262.0947 262.3065 262.5783 262.9331 263.4367 263.6664
   263.8009 264.2516 264.5408 264.5996 265.0247 265.3721 265.6624 266.1530
   266.1650 266.3875 266.8963 267.1605 267.8816 267.9187 268.4216 268.8345
   269.1767 269.4447 270.2715 270.3266 270.7290 270.8777 271.1200 271.5039
   272.1037 272.9891 273.6279 273.9078 274.0332 274.3509 274.6065 274.9535
   274.9902 275.2010 275.8057 276.1599 276.8632 277.5511 278.5016 278.7183
   279.5484 280.0353 280.2546 280.8849 281.0705 281.2152 281.4792 281.8595
   282.4418 282.4445 282.9364 283.2878 283.9252 284.3256 286.4810 286.9540
   287.1900 287.4899 288.0222 288.1629 288.7909 288.8199 288.8608 290.1640
   290.1719 290.6160 290.8225 291.1034 291.1208 291.8052 291.8133 292.2271
   292.3902 292.5282 293.0646 293.2397 293.8206 294.0278 294.2459 294.4445
   294.8512 294.9014 295.1453 295.8618 296.6727 296.7480 297.9383 298.3354
   299.1952 299.5278 299.8603 300.7068 300.9963 301.1436 301.8130 302.0064
   302.2936 302.5482 302.8384 302.9407 303.1925 303.5669 304.5348 304.5637
   304.6965 305.4360 305.8374 305.9059 306.1854 306.7229 306.7623 307.0201
   307.3194 307.7881 307.9319 308.4305 308.6262 309.1067 309.5238 309.7037
   310.0828 310.6573 311.0692 311.2208 311.4457 311.7869 311.9405 311.9517
   312.2217 312.6803 312.8747 313.1020 313.5667 313.6939 313.7138 314.1092
   314.2274 314.5129 314.8309 314.9323 315.6156 315.7578 316.4793 316.5832
   316.6683 317.2847 317.6379 317.7321 318.0009 318.2193 318.6513 318.8643
   319.6658 319.9988 320.0609 320.7137 321.2316 321.2321 321.7872 321.8773
   321.8918 322.0758 322.1497 322.7196 322.7371 322.8213 323.4910 323.7032
   323.8286 323.9457 324.3333 324.3463 324.5250 324.8554 325.0291 326.3957
   326.4868 326.6504 326.9039 327.6443 327.9466 328.2319 328.9897 330.0548
   330.2398 330.7872 331.2433 332.2871 332.6589 332.9504 333.1850 333.2606
   333.9901 334.7650 334.9917 335.2870 336.1891 336.3700 337.2364 337.5048
   337.6375 337.7243 338.2133 338.2459 338.6513 338.9896 339.4386 340.0419
   340.2485 340.5527 340.9309 341.1104 341.6441 342.3264 342.6588 342.9245
   343.3045 343.3144 343.6987 344.1203 344.3126 344.4833 344.5156 345.2160
   345.6969 345.7181 346.3824 346.4601 347.1726 347.5028 347.7811 348.8229
   348.9805 349.1271 349.8725 349.9116 350.4045 350.7048 350.7637 350.8886
   351.1210 351.1851 351.6310 351.9430 351.9594 352.3712 352.3982 352.6579
   352.6614 352.7116 352.7853 353.1344 353.3140 353.3854 353.4472 354.0841
   354.5759 354.9827 355.6696 355.7289 356.0629 356.5825 357.1199 357.1960
   357.5478 358.0627 358.6337 358.7790 359.0668 359.2542 359.8296 360.0495
   360.3064 360.4437 361.0969 361.6028 361.6863 362.0101 362.3684 362.4022
   362.9836 363.3581 363.8285 364.2139 364.3671 364.5912 364.8037 364.8049
   364.8604 365.4091 365.4434 366.0554 366.4080 366.4116 366.5538 366.7331
   366.8883 368.6256 369.0020 369.2322 369.6069 369.9998 370.7182 371.2007
   371.7963 371.9444 372.1405 372.9373 373.4987 373.7099 373.9332 374.4844
   374.7837 375.2945 375.5570 375.7021 375.8419 376.5562 376.7780 376.8143
   377.1960 377.7636 377.8700 378.3118 378.4016 378.6613 379.0229 379.4190
   379.5283 379.6762 380.1194 380.7478 380.8356 381.2266 381.3311 381.3343
   381.7809 382.1144 382.3019 382.4644 382.9974 383.4031 384.0915 384.1364
   384.3209 384.5184 385.0069 385.2897 386.7248 386.7376 387.3284 387.8045
   387.8740 388.1695 388.3293 388.9277 389.3563 389.9142 390.3590 390.5716
   390.5876 391.0930 391.5200 392.0640 392.1776 392.4728 392.7994 392.9292
   393.5336 393.8403 394.0626 394.2459 394.6915 395.0292 395.4414 395.7666
   396.2129 396.3783 396.6422 397.0075 397.1362 397.1733 397.3128 397.8053
   397.9964 398.2594 398.7056 398.9121 399.1901 399.2805 399.8191 399.9787
   400.6856 400.7760 401.4337 401.7587 401.8270 402.0508 402.2543 402.8629
   402.8702 403.1061 403.1142 403.5833 403.8787 404.0077 404.4393 404.4906
   404.6098 404.9600 405.0532 405.4595 405.7055 405.9330 406.5062 407.0023
   407.3339 407.4327 407.7994 408.0532 408.2826 408.5917 408.9480 409.0305
   410.4334 410.6358 411.1497 411.2624 411.7756 411.9746 412.2128 412.8199
   413.0507 413.5835 413.6147 413.8986 415.0379 415.5099 415.5340 416.1386
   416.7587 417.1064 417.6670 418.0231 418.3075 418.6663 419.0177 419.0707
   419.3413 419.6737 420.4708 420.7321 421.6166 421.7898 421.9782 422.6155
   422.6784 422.8867 423.4396 423.6675 424.0884 424.1651 424.4518 424.6609
   424.7057 424.7995 425.4377 426.2089 426.2541 426.9927 427.4940 427.7106
   428.1023 428.3860 428.5147 428.5253 428.6085 428.9015 429.0444 430.1111
   430.5242 430.7705 431.1209 431.3623 431.5966 432.1830 432.5598 433.1810
   433.8352 433.8610 434.2868 435.0621 435.1574 435.4180 435.4422 435.8202
   435.8220 436.5638 437.0954 437.8617 438.3190 438.6192 438.6332 439.1174
   439.2036 439.6298 439.6488 439.6790 439.7880 439.9723 440.1788 440.3945
   440.4502 440.7825 440.9186 441.1937 441.4919 441.6845 442.0161 442.1262
   442.2277 442.5050 442.7439 443.0370 443.3934 443.6110 443.9795 444.1958
   444.3153 444.8139 445.2265 446.0282 446.1333 446.3592 447.0924 447.5504
   447.9027 448.0874 448.1588 448.3243 448.4969 448.6715 448.7087 449.1854
   449.5434 449.8225 449.9360 449.9446 450.2286 451.0925 451.1141 451.5168
   451.8101 452.2675 452.6258 452.7410 453.2604 453.4767 453.6553 453.9739
   454.2940 454.6071 454.6716 454.7071 454.7930 454.9867 455.0809 455.8428
   456.0244 456.0565 457.0963 457.4207 458.4033 458.6299 459.0476 459.1718
   459.3839 460.0154 460.7852 460.9786 461.1036 461.3370 461.8029 461.9428
   462.0615 462.2785 462.3031 462.8129 463.0256 463.0971 463.5746 463.7829
   464.4344 464.5632 464.6508 464.7152 465.1276 465.3125 465.4845 465.8392
   465.9151 466.2437 466.3486 466.3814 467.1435 467.1435 467.3285 467.3629
   467.8830 467.9776 467.9916 468.6196 468.8002 468.9792 469.4241 469.9253
   470.3949 470.4541 470.8176 471.2312 471.2554 471.7871 472.0125 472.0470
   472.1909 472.2465 472.7552 472.7754 472.8744 473.0993 473.8181 474.3322
   475.0683 475.3663 475.9161 476.3282 476.8474 476.8531 477.1296 477.1813
   477.6108 477.9196 478.0859 478.1178 478.3638 478.3691 478.8528 479.4225
   479.5066 479.9592 480.2569 480.6977 480.9749 481.3128 481.3884 481.6319
   482.0686 482.4731 482.7089 483.0279 483.0300 483.6981 484.0247 484.4335
   484.5467 484.8139 485.0169 485.2339 485.3673 485.3759 485.7140 486.2740
   486.3419 486.4940 487.1388 487.2700 487.3770 487.4874 487.7594 488.3328
   488.3346 488.5044 488.5863 489.2186 489.3231 489.7782 489.8733 489.9537
   490.3121 490.3657 490.5772 490.7916 491.0963 491.3727 491.7787 491.8208
   492.1489 492.2439 492.5730 492.7443 492.8337 493.0576 493.1915 493.2502
   493.2800 493.4478 493.7160 493.9099 494.1366 494.4576 494.9708 494.9889
   495.1649 495.8092 495.9397 496.2293 496.3220 496.4989 496.9701 497.3556
   498.0539 498.3605 498.6016 498.9549 499.5010 499.6049 500.0432 500.3641
   500.5442 500.9897 501.3596 501.4507 501.7398 502.1421 502.1548 502.6217

          k = 0.2500 0.4330-0.3071 (  3134 PWs)   bands (ev):

    -4.2332  -4.2332  -2.7299  -2.7299  -2.6868  -2.6868  -2.5971  -2.5970
    -2.5081  -2.5081  -1.0879  -1.0879   4.7903   4.7903   7.3410   7.3411
     9.0828   9.0828  16.5869  16.5869  18.7128  18.7128  19.7003  19.7003
    23.2114  23.2114  25.7779  25.7779  29.3847  29.3847  32.8921  32.8921
    35.2862  35.2862  37.0624  37.0624  39.8247  39.8247  40.0949  40.0949
    42.3434  42.3434  43.9196  43.9196  45.3022  45.3022  47.5509  47.5509
    48.5865  48.5865  50.9005  50.9005  52.9437  52.9437  54.0567  54.0567
    54.6065  54.6065  56.7983  56.7983  59.1585  59.1585  60.8143  60.8143
    61.5459  61.5459  63.6851  63.6851  65.9346  65.9346  68.0298  68.0298
    68.8568  68.8568  69.6825  69.6825  72.4324  72.4324  73.5431  73.5431
    75.6226  75.6226  76.5941  76.5941  79.9682  79.9682  80.7683  80.7683
    81.9969  81.9969  82.6705  82.6705  85.5203  85.5203  86.0037  86.0037
    86.5154  86.5154  88.4544  88.4544  88.7897  88.7897  89.6370  89.6370
    92.0587  92.0587  93.0770  93.0770  93.9575  93.9575  95.6456  95.6456
    97.0663  97.0664  99.4032  99.4032  99.9189  99.9189 101.1106 101.1106
   102.3743 102.3743 104.8509 104.8509 106.4980 106.4980 108.0516 108.0516
   108.3001 108.3001 109.2049 109.2049 109.5623 109.5623 110.7836 110.7836
   111.8494 111.8495 112.3167 112.3167 112.5251 112.5251 115.7454 115.7454
   116.7309 116.7309 117.2942 117.2942 118.2848 118.2848 119.2184 119.2184
   120.3041 120.3041 120.9345 120.9345 121.9638 121.9638 122.3636 122.3636
   123.0663 123.0663 124.3499 124.3499 125.4831 125.4831 126.2192 126.2192
   127.7577 127.7577 128.9376 128.9376 131.0884 131.0884 132.2337 132.2337
   133.2817 133.2817 134.3702 134.3702 135.7614 135.7614 136.7295 136.7295
   138.7050 138.7050 139.3688 139.3688 140.9274 140.9274 141.4110 141.4110
   143.0933 143.0933 143.5023 143.5023 144.3757 144.3757 144.9869 144.9869
   146.4766 146.4766 147.3854 147.3854 147.7280 147.7280 148.5563 148.5563
   149.5231 149.5231 150.8363 150.8363 151.8289 151.8289 152.7953 152.7953
   154.2720 154.2720 155.7216 155.7216 157.3741 157.3741 158.5832 158.5832
   159.1799 159.1799 160.3418 160.3418 160.6468 160.6468 162.6288 162.6288
   163.1174 163.1175 164.5018 164.5018 165.1645 165.1645 166.4802 166.4802
   167.1363 167.1363 167.9005 167.9005 169.1509 169.1509 169.8521 169.8521
   170.8679 170.8679 172.5809 172.5809 173.4531 173.4531 175.7021 175.7021
   175.8810 175.8810 176.4783 176.4783 176.9766 176.9766 178.2322 178.2322
   178.5846 178.5846 179.2931 179.2931 180.5515 180.5515 181.2416 181.2416
   181.8481 181.8481 183.9238 183.9238 184.3662 184.3662 185.1444 185.1444
   186.0357 186.0357 187.4251 187.4251 189.1559 189.1559 189.7257 189.7257
   190.3374 190.3374 190.6163 190.6163 191.8616 191.8616 192.3039 192.3039
   192.6456 192.6456 193.0283 193.0283 194.7151 194.7151 195.7870 195.7871
   196.2243 196.2243 197.1433 197.1433 197.8059 197.8059 198.9144 198.9144
   200.2875 200.2875 200.4145 200.4145 201.0402 201.0402 201.7080 201.7080
   202.4983 202.4983 203.1145 203.1145 204.7574 204.7574 205.4201 205.4201
   206.2976 206.2976 208.0870 208.0870 208.8048 208.8048 209.7877 209.7877
   210.5981 210.5981 210.9402 210.9402 211.3949 211.3949 211.8212 211.8212
   212.7005 212.7005 213.1818 213.1818 213.6649 213.6650 215.2559 215.2559
   215.9852 215.9852 216.6021 216.6021 217.4430 217.4430 218.5404 218.5404
   219.5168 219.5168 220.2313 220.2314 220.6725 220.6725 221.2070 221.2070
   221.3770 221.3770 221.9135 221.9135 223.4070 223.4070 223.7961 223.7961
   224.6636 224.6636 225.1698 225.1698 226.4287 226.4287 227.1581 227.1581
   229.5225 229.5225 231.5487 231.5487 232.3317 232.3317 233.3955 233.3955
   234.8680 234.8681 235.1440 235.1440 236.0220 236.0220 237.0023 237.0024
   237.5550 237.5550 238.5420 238.5420 239.8034 239.8034 240.3992 240.3992
   241.0730 241.0730 242.0841 242.0841 242.6192 242.6192 243.3302 243.3302
   243.8618 243.8618 244.5742 244.5742 244.9945 244.9945 245.5488 245.5488
   246.1289 246.1289 246.9802 246.9802 247.5900 247.5900 248.6696 248.6696
   249.9520 249.9520 250.3144 250.3144 251.7139 251.7139 252.6533 252.6533
   253.3703 253.3703 253.9755 253.9756 254.9502 254.9502 255.1247 255.1247
   255.8569 255.8569 256.3744 256.3744 257.2055 257.2055 258.5374 258.5374
   259.7487 259.7487 260.9084 260.9084 261.8762 261.8762 263.0101 263.0101
   264.1346 264.1346 264.5573 264.5573 265.3779 265.3779 265.7782 265.7782
   266.3936 266.3936 267.7558 267.7558 268.3776 268.3776 269.7305 269.7305
   270.3151 270.3151 270.6454 270.6454 271.0829 271.0829 272.6546 272.6547
   273.9851 273.9851 274.4092 274.4092 275.4143 275.4143 275.7731 275.7731
   276.5598 276.5598 277.3897 277.3897 277.7726 277.7726 278.5383 278.5383
   278.9381 278.9381 279.2062 279.2062 280.0547 280.0547 281.0374 281.0374
   281.6562 281.6562 282.6954 282.6954 283.2388 283.2388 284.0029 284.0029
   284.6611 284.6611 285.1705 285.1705 286.1401 286.1401 286.6840 286.6840
   288.1215 288.1215 288.7248 288.7248 289.2542 289.2542 290.4529 290.4529
   291.3595 291.3595 291.8699 291.8699 292.3749 292.3749 293.3481 293.3482
   293.6950 293.6950 294.9226 294.9226 295.7990 295.7990 297.7099 297.7099
   298.1712 298.1712 298.8767 298.8767 300.2768 300.2768 300.8771 300.8771
   301.6465 301.6465 302.4874 302.4874 303.4503 303.4503 304.1451 304.1451
   304.8719 304.8720 306.0640 306.0640 306.7751 306.7751 307.3069 307.3069
   307.7163 307.7163 308.5139 308.5140 309.7191 309.7191 310.2326 310.2326
   310.8543 310.8543 311.7302 311.7302 312.5517 312.5517 312.9798 312.9798
   313.7292 313.7292 314.0490 314.0490 314.8406 314.8406 315.0069 315.0069
   315.7815 315.7815 316.2711 316.2711 316.9572 316.9572 318.3542 318.3542
   318.8517 318.8517 319.3201 319.3201 320.6125 320.6125 321.0806 321.0806
   321.9087 321.9087 322.2743 322.2743 322.8332 322.8332 323.9688 323.9688
   324.4563 324.4563 325.2701 325.2701 326.2335 326.2335 327.1718 327.1718
   327.4078 327.4079 327.6277 327.6277 328.3077 328.3077 328.7463 328.7463
   329.5062 329.5062 329.9013 329.9013 330.1873 330.1873 330.8808 330.8808
   331.8727 331.8727 332.7572 332.7572 333.0304 333.0304 334.1568 334.1568
   334.6547 334.6547 335.1029 335.1029 335.6405 335.6405 336.4329 336.4329
   336.6671 336.6672 338.0162 338.0163 338.5558 338.5558 338.8145 338.8145
   339.3232 339.3232 339.7496 339.7496 340.4461 340.4461 341.0031 341.0031
   341.4406 341.4406 342.2106 342.2106 342.8148 342.8148 343.5028 343.5028
   344.2786 344.2786 344.7055 344.7055 345.0473 345.0473 346.1596 346.1596
   346.4997 346.4997 347.3152 347.3152 347.9287 347.9287 348.1672 348.1672
   349.2301 349.2301 349.8282 349.8282 350.7871 350.7871 351.3834 351.3834
   351.7119 351.7119 352.2412 352.2412 352.7896 352.7896 353.1762 353.1762
   354.0321 354.0321 354.3055 354.3055 355.1249 355.1249 355.6637 355.6637
   356.4817 356.4817 357.4222 357.4222 357.9216 357.9216 358.8062 358.8062
   359.7629 359.7629 360.2775 360.2776 361.1488 361.1488 361.9777 361.9778
   362.8334 362.8334 363.3482 363.3482 364.3015 364.3015 364.5494 364.5494
   364.7896 364.7896 365.8084 365.8084 366.8208 366.8208 367.1922 367.1922
   368.2727 368.2727 368.5786 368.5786 369.2263 369.2263 370.0685 370.0685
   370.3973 370.3973 370.8849 370.8849 371.2940 371.2941 372.1627 372.1627
   373.0044 373.0044 373.4190 373.4190 374.3396 374.3396 375.1876 375.1876
   375.9740 375.9740 376.4031 376.4031 378.1325 378.1325 378.8896 378.8896
   379.7374 379.7374 380.3274 380.3274 381.0048 381.0048 381.5382 381.5382
   382.4234 382.4234 382.9952 382.9952 383.6043 383.6043 384.4132 384.4132
   384.8088 384.8088 385.6815 385.6815 386.1947 386.1947 386.6861 386.6861
   387.4960 387.4960 388.4499 388.4499 389.0950 389.0950 389.5197 389.5197
   389.9114 389.9114 390.7374 390.7374 391.5231 391.5231 392.0340 392.0340
   393.6477 393.6477 394.5986 394.5986 395.7941 395.7941 397.0859 397.0859
   397.8619 397.8619 398.7437 398.7438 399.6435 399.6435 399.8362 399.8362
   400.4269 400.4269 400.7991 400.7991 401.8351 401.8351 402.7633 402.7633
   403.4987 403.4987 404.7689 404.7689 406.1453 406.1453 406.7217 406.7217
   407.0656 407.0656 408.1366 408.1366 408.5627 408.5627 408.9193 408.9193
   409.6791 409.6791 410.0502 410.0502 410.6637 410.6637 411.0545 411.0545
   411.4649 411.4649 411.8237 411.8238 412.4513 412.4513 412.8088 412.8088
   413.2197 413.2197 413.3390 413.3390 413.7902 413.7902 414.4215 414.4215
   414.8877 414.8878 415.9991 415.9991 416.2910 416.2910 416.7780 416.7780
   418.1366 418.1366 418.3682 418.3682 418.6508 418.6508 419.3039 419.3039
   419.8229 419.8229 420.5370 420.5370 420.7121 420.7121 421.3487 421.3487
   421.9123 421.9123 422.2428 422.2428 422.9236 422.9236 423.2676 423.2676
   424.4203 424.4203 425.3827 425.3827 425.5371 425.5371 426.8553 426.8553
   427.0108 427.0108 427.8458 427.8458 427.9708 427.9708 428.7674 428.7674
   429.0617 429.0617 429.8569 429.8569 430.5665 430.5665 431.0246 431.0246
   431.2630 431.2630 431.8592 431.8592 432.5108 432.5108 432.8772 432.8772
   433.0957 433.0957 433.7332 433.7332 434.2632 434.2632 435.0944 435.0944
   436.3826 436.3827 437.1699 437.1699 437.5459 437.5459 437.9399 437.9399
   438.2459 438.2459 438.4276 438.4276 439.0789 439.0789 439.6132 439.6132
   439.8416 439.8416 440.2879 440.2879 440.7187 440.7187 440.9771 440.9771
   441.7326 441.7326 441.9479 441.9479 442.9995 442.9995 444.4967 444.4967
   444.8815 444.8815 445.3953 445.3953 445.9855 445.9855 446.7699 446.7699
   447.4040 447.4040 448.0792 448.0792 449.5354 449.5354 449.9161 449.9161
   450.8553 450.8553 451.6123 451.6124 452.0550 452.0550 452.4978 452.4978
   453.0463 453.0463 453.5447 453.5447 454.0921 454.0921 454.4137 454.4137
   455.2322 455.2322 456.1362 456.1362 457.4310 457.4310 458.0729 458.0729
   458.7549 458.7549 459.5607 459.5607 460.1734 460.1734 461.1546 461.1546
   462.0030 462.0030 462.1255 462.1255 462.9519 462.9519 463.3913 463.3913
   463.9603 463.9603 464.1714 464.1714 464.9545 464.9545 466.1641 466.1642
   466.4502 466.4502 466.9864 466.9864 467.6734 467.6734 468.4385 468.4385
   469.2492 469.2492 469.5344 469.5344 470.3910 470.3910 471.3428 471.3428
   472.3020 472.3021 472.6770 472.6770 473.3782 473.3782 474.1662 474.1662
   474.7078 474.7078 475.1630 475.1630 475.7525 475.7525 476.3832 476.3832
   476.8912 476.8912 477.9291 477.9291 478.2698 478.2698 479.5516 479.5516
   480.2251 480.2251 480.9762 480.9762 481.4017 481.4017 481.8835 481.8835
   482.4214 482.4214 482.6611 482.6611 483.4763 483.4763 483.7835 483.7835
   483.9483 483.9483 484.3818 484.3818 485.0194 485.0194 485.5307 485.5307
   485.8377 485.8377 486.1980 486.1981 487.1161 487.1161 487.5638 487.5638
   487.6968 487.6968 488.1584 488.1584 488.3085 488.3085 488.6671 488.6671
   488.9173 488.9173 489.0874 489.0874 489.7367 489.7367 490.1301 490.1301
   490.3457 490.3457 491.0547 491.0547 491.6110 491.6110 493.0154 493.0154
   493.4926 493.4926 493.8296 493.8297 494.5929 494.5929 495.2387 495.2387
   495.3615 495.3615 496.0787 496.0787 496.2431 496.2431 496.9468 496.9468
   497.1880 497.1880 498.0990 498.0990 498.3299 498.3300 498.6731 498.6731
   499.0585 499.0585 499.3109 499.3109 500.5246 500.5246 500.6895 500.6895
   502.2432 502.2432 503.2709 503.2709 503.6861 503.6861 504.3090 504.3090

     the Fermi energy is    10.7795 ev
     (compare with:    10.8390 eV, computed in scf)

     Writing all to output data dir out/mp-804.save/
 
     init_run     :      0.05s CPU      0.09s WALL (       1 calls)
     electrons    :    939.06s CPU   1012.23s WALL (       1 calls)

     Called by init_run:
     wfcinit      :      0.00s CPU      0.00s WALL (       1 calls)
     potinit      :      0.01s CPU      0.01s WALL (       1 calls)
     hinit0       :      0.02s CPU      0.05s WALL (       1 calls)

     Called by electrons:
     c_bands      :    939.05s CPU   1012.22s WALL (       1 calls)
     v_of_rho     :      0.01s CPU      0.01s WALL (       1 calls)

     Called by c_bands:
     init_us_2    :      0.00s CPU      0.00s WALL (       8 calls)
     init_us_2:cp :      0.00s CPU      0.00s WALL (       8 calls)
     cegterg      :    919.88s CPU    991.91s WALL (       8 calls)

     Called by *egterg:
     cdiaghg      :    875.80s CPU    946.99s WALL (      90 calls)
     h_psi        :     11.05s CPU     11.49s WALL (      98 calls)
     g_psi        :      0.09s CPU      0.10s WALL (      82 calls)

     Called by h_psi:
     h_psi:calbec :      0.36s CPU      0.40s WALL (      98 calls)
     vloc_psi     :     10.28s CPU     10.68s WALL (      98 calls)
     add_vuspsi   :      0.31s CPU      0.31s WALL (      98 calls)

     General routines
     calbec       :      0.36s CPU      0.40s WALL (      98 calls)
     fft          :      0.00s CPU      0.03s WALL (      10 calls)
     fftw         :      9.19s CPU      9.54s WALL (  116630 calls)
 
     Parallel routines
 
     PWSCF        :  15m39.89s CPU  16m53.52s WALL

 
   This run was terminated on:  16:45:45  15Nov2023            

=------------------------------------------------------------------------------=
   JOB DONE.
=------------------------------------------------------------------------------=
