
     Program PWSCF v.7.1 starts on 16Nov2023 at  5:55:30 

     This program is part of the open-source Quantum ESPRESSO suite
     for quantum simulation of materials; please cite
         "P. Giannozzi et al., J. Phys.:Condens. Matter 21 395502 (2009);
         "P. Giannozzi et al., J. Phys.:Condens. Matter 29 465901 (2017);
         "P. Giannozzi et al., J. Chem. Phys. 152 154105 (2020);
          URL http://www.quantum-espresso.org", 
     in publications or presentations arising from this work. More details at
     http://www.quantum-espresso.org/quote

     Parallel version (MPI), running on    24 processors

     MPI processes distributed on     1 nodes
     123427 MiB available memory on the printing compute node when the environment starts
 
     Reading input from pw_mp-804_scf_k3000_E71.in
Warning: card &CELL ignored
Warning: card / ignored

     Current dimensions of program PWSCF are:
     Max number of different atomic species (ntypx) = 10
     Max number of k-points (npk) =  40000
     Max angular momentum in pseudopotentials (lmaxx) =  4
 
     R & G space division:  proc/nbgrp/npool/nimage =      24
     Subspace diagonalization in iterative solution of the eigenvalue problem:
     a serial algorithm will be used

 
     Parallelization info
     --------------------
     sticks:   dense  smooth     PW     G-vecs:    dense   smooth      PW
     Min          29      29      8                 1033     1033     164
     Max          30      30      9                 1040     1040     171
     Sum         703     703    211                24875    24875    3995
 
     Using Slab Decomposition
 


     bravais-lattice index     =            4
     lattice parameter (alat)  =       6.0262  a.u.
     unit-cell volume          =     308.5900 (a.u.)^3
     number of atoms/cell      =            4
     number of atomic types    =            2
     number of electrons       =        36.00
     number of Kohn-Sham states=           36
     kinetic-energy cutoff     =      71.0000  Ry
     charge density cutoff     =     284.0000  Ry
     scf convergence threshold =      1.0E-10
     mixing beta               =       0.7000
     number of iterations used =            8  plain     mixing
     Exchange-correlation= PBE
                           (   1   4   3   4   0   0   0)

     celldm(1)=   6.026205  celldm(2)=   0.000000  celldm(3)=   1.628244
     celldm(4)=   0.000000  celldm(5)=   0.000000  celldm(6)=   0.000000

     crystal axes: (cart. coord. in units of alat)
               a(1) = (   1.000000   0.000000   0.000000 )  
               a(2) = (  -0.500000   0.866025   0.000000 )  
               a(3) = (   0.000000   0.000000   1.628244 )  

     reciprocal axes: (cart. coord. in units 2 pi/alat)
               b(1) = (  1.000000  0.577350  0.000000 )  
               b(2) = (  0.000000  1.154701  0.000000 )  
               b(3) = (  0.000000  0.000000  0.614159 )  


     PseudoPot. # 1 for Ga read from file:
     /usr/scratch4/magr4985/MG/HTDF/pseudo/SG15/Ga.upf
     MD5 check sum: 9961a622ff199abf6dfec9a0a10b8555
     Pseudo is Norm-conserving, Zval = 13.0
     Generated using ONCVPSP code by D. R. Hamann
     Using radial grid of  602 points,  6 beta functions with: 
                l(1) =   0
                l(2) =   0
                l(3) =   1
                l(4) =   1
                l(5) =   2
                l(6) =   2

     PseudoPot. # 2 for N  read from file:
     /usr/scratch4/magr4985/MG/HTDF/pseudo/SG15/N.upf
     MD5 check sum: c233fa8df51455e992258b7c3dee8a9f
     Pseudo is Norm-conserving, Zval =  5.0
     Generated using ONCVPSP code by D. R. Hamann
     Using radial grid of  602 points,  4 beta functions with: 
                l(1) =   0
                l(2) =   0
                l(3) =   1
                l(4) =   1

     atomic species   valence    mass     pseudopotential
        Ga            13.00    69.72300     Ga( 1.00)
        N              5.00    14.00670     N ( 1.00)

      6 Sym. Ops. (no inversion) found



   Cartesian axes

     site n.     atom                  positions (alat units)
         1           Ga  tau(   1) = (   0.0000000   0.5773502   0.8126302  )
         2           Ga  tau(   2) = (   0.5000000   0.2886752   1.6267523  )
         3           N   tau(   3) = (   0.0000000   0.5773502   1.4262057  )
         4           N   tau(   4) = (   0.5000000   0.2886752   0.6120835  )

     number of k points=    72  Gaussian smearing, width (Ry)=  0.0005
                       cart. coord. in units 2pi/alat
        k(    1) = (   0.0000000   0.0000000   0.0000000), wk =   0.0033333
        k(    2) = (   0.0000000   0.0000000   0.1023598), wk =   0.0066667
        k(    3) = (   0.0000000   0.0000000   0.2047195), wk =   0.0066667
        k(    4) = (   0.0000000   0.0000000  -0.3070793), wk =   0.0033333
        k(    5) = (   0.0000000   0.1154701   0.0000000), wk =   0.0200000
        k(    6) = (   0.0000000   0.1154701   0.1023598), wk =   0.0200000
        k(    7) = (   0.0000000   0.1154701   0.2047195), wk =   0.0200000
        k(    8) = (   0.0000000   0.1154701  -0.3070793), wk =   0.0200000
        k(    9) = (   0.0000000   0.2309401   0.0000000), wk =   0.0200000
        k(   10) = (   0.0000000   0.2309401   0.1023598), wk =   0.0200000
        k(   11) = (   0.0000000   0.2309401   0.2047195), wk =   0.0200000
        k(   12) = (   0.0000000   0.2309401  -0.3070793), wk =   0.0200000
        k(   13) = (   0.0000000   0.3464102   0.0000000), wk =   0.0200000
        k(   14) = (   0.0000000   0.3464102   0.1023598), wk =   0.0200000
        k(   15) = (   0.0000000   0.3464102   0.2047195), wk =   0.0200000
        k(   16) = (   0.0000000   0.3464102  -0.3070793), wk =   0.0200000
        k(   17) = (   0.0000000   0.4618802   0.0000000), wk =   0.0200000
        k(   18) = (   0.0000000   0.4618802   0.1023598), wk =   0.0200000
        k(   19) = (   0.0000000   0.4618802   0.2047195), wk =   0.0200000
        k(   20) = (   0.0000000   0.4618802  -0.3070793), wk =   0.0200000
        k(   21) = (   0.0000000  -0.5773503   0.0000000), wk =   0.0100000
        k(   22) = (   0.0000000  -0.5773503   0.1023598), wk =   0.0200000
        k(   23) = (   0.0000000  -0.5773503   0.2047195), wk =   0.0200000
        k(   24) = (   0.0000000  -0.5773503  -0.3070793), wk =   0.0100000
        k(   25) = (   0.1000000   0.1732051   0.0000000), wk =   0.0200000
        k(   26) = (   0.1000000   0.1732051   0.1023598), wk =   0.0400000
        k(   27) = (   0.1000000   0.1732051   0.2047195), wk =   0.0400000
        k(   28) = (   0.1000000   0.1732051  -0.3070793), wk =   0.0200000
        k(   29) = (   0.1000000   0.2886751   0.0000000), wk =   0.0400000
        k(   30) = (   0.1000000   0.2886751   0.1023598), wk =   0.0400000
        k(   31) = (   0.1000000   0.2886751   0.2047195), wk =   0.0400000
        k(   32) = (   0.1000000   0.2886751  -0.3070793), wk =   0.0400000
        k(   33) = (   0.1000000   0.4041452   0.0000000), wk =   0.0400000
        k(   34) = (   0.1000000   0.4041452   0.1023598), wk =   0.0400000
        k(   35) = (   0.1000000   0.4041452   0.2047195), wk =   0.0400000
        k(   36) = (   0.1000000   0.4041452  -0.3070793), wk =   0.0400000
        k(   37) = (   0.1000000   0.5196152   0.0000000), wk =   0.0400000
        k(   38) = (   0.1000000   0.5196152   0.1023598), wk =   0.0400000
        k(   39) = (   0.1000000   0.5196152   0.2047195), wk =   0.0400000
        k(   40) = (   0.1000000   0.5196152  -0.3070793), wk =   0.0400000
        k(   41) = (   0.2000000   0.3464102   0.0000000), wk =   0.0200000
        k(   42) = (   0.2000000   0.3464102   0.1023598), wk =   0.0400000
        k(   43) = (   0.2000000   0.3464102   0.2047195), wk =   0.0400000
        k(   44) = (   0.2000000   0.3464102  -0.3070793), wk =   0.0200000
        k(   45) = (   0.2000000   0.4618802   0.0000000), wk =   0.0400000
        k(   46) = (   0.2000000   0.4618802   0.1023598), wk =   0.0400000
        k(   47) = (   0.2000000   0.4618802   0.2047195), wk =   0.0400000
        k(   48) = (   0.2000000   0.4618802  -0.3070793), wk =   0.0400000
        k(   49) = (   0.2000000   0.5773503   0.0000000), wk =   0.0200000
        k(   50) = (   0.2000000   0.5773503   0.1023598), wk =   0.0400000
        k(   51) = (   0.2000000   0.5773503   0.2047195), wk =   0.0400000
        k(   52) = (   0.2000000   0.5773503  -0.3070793), wk =   0.0200000
        k(   53) = (   0.3000000   0.5196152   0.0000000), wk =   0.0200000
        k(   54) = (   0.3000000   0.5196152   0.1023598), wk =   0.0400000
        k(   55) = (   0.3000000   0.5196152   0.2047195), wk =   0.0400000
        k(   56) = (   0.3000000   0.5196152  -0.3070793), wk =   0.0200000
        k(   57) = (   0.0000000  -0.1154701   0.1023598), wk =   0.0200000
        k(   58) = (   0.0000000  -0.1154701   0.2047195), wk =   0.0200000
        k(   59) = (   0.0000000  -0.2309401   0.1023598), wk =   0.0200000
        k(   60) = (   0.0000000  -0.2309401   0.2047195), wk =   0.0200000
        k(   61) = (   0.0000000  -0.3464102   0.1023598), wk =   0.0200000
        k(   62) = (   0.0000000  -0.3464102   0.2047195), wk =   0.0200000
        k(   63) = (   0.0000000  -0.4618802   0.1023598), wk =   0.0200000
        k(   64) = (   0.0000000  -0.4618802   0.2047195), wk =   0.0200000
        k(   65) = (  -0.1000000  -0.2886751   0.1023598), wk =   0.0400000
        k(   66) = (  -0.1000000  -0.2886751   0.2047195), wk =   0.0400000
        k(   67) = (  -0.1000000  -0.4041452   0.1023598), wk =   0.0400000
        k(   68) = (  -0.1000000  -0.4041452   0.2047195), wk =   0.0400000
        k(   69) = (  -0.1000000  -0.5196152   0.1023598), wk =   0.0400000
        k(   70) = (  -0.1000000  -0.5196152   0.2047195), wk =   0.0400000
        k(   71) = (  -0.2000000  -0.4618802   0.1023598), wk =   0.0400000
        k(   72) = (  -0.2000000  -0.4618802   0.2047195), wk =   0.0400000

     Dense  grid:    24875 G-vectors     FFT dimensions: (  36,  36,  54)

     Estimated max dynamical RAM per process >       4.16 MB

     Estimated total dynamical RAM >      99.78 MB

     Initial potential from superposition of free atoms

     starting charge      35.8431, renormalised to      36.0000
     Starting wfcs are random

     total cpu time spent up to now is        2.8 secs

     Self-consistent Calculation

     iteration #  1     ecut=    71.00 Ry     beta= 0.70
     Davidson diagonalization with overlap
     ethr =  1.00E-02,  avg # of iterations = 10.1

     total cpu time spent up to now is        7.6 secs

     total energy              =    -302.02633853 Ry
     estimated scf accuracy    <       1.04832017 Ry

     iteration #  2     ecut=    71.00 Ry     beta= 0.70
     Davidson diagonalization with overlap
     ethr =  2.91E-03,  avg # of iterations =  2.0

     total cpu time spent up to now is        8.9 secs

     total energy              =    -302.33514327 Ry
     estimated scf accuracy    <       1.02091488 Ry

     iteration #  3     ecut=    71.00 Ry     beta= 0.70
     Davidson diagonalization with overlap
     ethr =  2.84E-03,  avg # of iterations =  1.9

     total cpu time spent up to now is       10.2 secs

     total energy              =    -302.52429490 Ry
     estimated scf accuracy    <       0.00561375 Ry

     iteration #  4     ecut=    71.00 Ry     beta= 0.70
     Davidson diagonalization with overlap
     ethr =  1.56E-05,  avg # of iterations =  5.7

     total cpu time spent up to now is       12.3 secs

     total energy              =    -302.52574048 Ry
     estimated scf accuracy    <       0.00024493 Ry

     iteration #  5     ecut=    71.00 Ry     beta= 0.70
     Davidson diagonalization with overlap
     ethr =  6.80E-07,  avg # of iterations =  3.1

     total cpu time spent up to now is       13.7 secs

     total energy              =    -302.52577274 Ry
     estimated scf accuracy    <       0.00002544 Ry

     iteration #  6     ecut=    71.00 Ry     beta= 0.70
     Davidson diagonalization with overlap
     ethr =  7.07E-08,  avg # of iterations =  2.0

     total cpu time spent up to now is       15.0 secs

     total energy              =    -302.52577610 Ry
     estimated scf accuracy    <       0.00000090 Ry

     iteration #  7     ecut=    71.00 Ry     beta= 0.70
     Davidson diagonalization with overlap
     ethr =  2.49E-09,  avg # of iterations =  2.0

     total cpu time spent up to now is       16.4 secs

     total energy              =    -302.52577631 Ry
     estimated scf accuracy    <       0.00000073 Ry

     iteration #  8     ecut=    71.00 Ry     beta= 0.70
     Davidson diagonalization with overlap
     ethr =  2.04E-09,  avg # of iterations =  1.0

     total cpu time spent up to now is       17.6 secs

     total energy              =    -302.52577640 Ry
     estimated scf accuracy    <       0.00000014 Ry

     iteration #  9     ecut=    71.00 Ry     beta= 0.70
     Davidson diagonalization with overlap
     ethr =  3.85E-10,  avg # of iterations =  1.0

     total cpu time spent up to now is       18.7 secs

     total energy              =    -302.52577641 Ry
     estimated scf accuracy    <       0.00000002 Ry

     iteration # 10     ecut=    71.00 Ry     beta= 0.70
     Davidson diagonalization with overlap
     ethr =  4.92E-11,  avg # of iterations =  1.8

     total cpu time spent up to now is       19.9 secs

     total energy              =    -302.52577641 Ry
     estimated scf accuracy    <          5.2E-10 Ry

     iteration # 11     ecut=    71.00 Ry     beta= 0.70
     Davidson diagonalization with overlap
     ethr =  1.43E-12,  avg # of iterations =  2.0

     total cpu time spent up to now is       21.4 secs

     End of self-consistent calculation

          k = 0.0000 0.0000 0.0000 (  3039 PWs)   bands (ev):

    -5.2217  -4.3614  -2.8388  -2.8290  -2.8290  -2.7698  -2.7698  -2.5815
    -2.5815  -2.4857  -2.4857  -1.1931   3.6873   9.6808   9.6808  10.6722
    10.7076  10.7076  12.6658  14.9955  19.9128  20.6392  20.6392  21.4804
    22.4463  22.4463  25.3432  26.3934  26.3934  28.6447  28.6447  28.8998
    28.9601  32.4114  34.8787  34.8787

          k = 0.0000 0.0000 0.1024 (  3080 PWs)   bands (ev):

    -5.1424  -4.3880  -2.8279  -2.8279  -2.8149  -2.7766  -2.7766  -2.5734
    -2.5734  -2.4903  -2.4903  -1.4725   4.1860   9.7462   9.7462   9.8686
    10.6351  10.6351  13.3414  15.0509  19.7212  20.6717  20.6717  20.8363
    22.1959  22.1960  25.6206  26.7652  26.7652  28.6917  29.1007  29.1007
    30.0009  32.4652  33.9443  33.9443

          k = 0.0000 0.0000 0.2047 (  3062 PWs)   bands (ev):

    -4.9329  -4.4851  -2.8220  -2.8220  -2.7920  -2.7920  -2.7161  -2.5510
    -2.5510  -2.5036  -2.5036  -2.0200   5.3858   8.4376   9.9275   9.9275
    10.4410  10.4410  14.3347  15.1403  19.3265  19.7789  20.8198  20.8198
    21.6622  21.6622  26.2213  27.7791  27.7791  27.9826  29.8660  29.8660
    32.3785  32.6931  32.6931  33.0837

          k = 0.0000 0.0000-0.3071 (  3098 PWs)   bands (ev):

    -4.6790  -4.6790  -2.8096  -2.8096  -2.8096  -2.8096  -2.5256  -2.5256
    -2.5256  -2.5256  -2.4706  -2.4706   6.8828   6.8828  10.1807  10.1807
    10.1807  10.1807  14.9903  14.9903  19.2069  19.2069  21.1542  21.1542
    21.1542  21.1542  27.0467  27.0467  29.1422  29.1422  29.1422  29.1422
    33.4904  33.4904  33.4904  33.4904

          k = 0.0000 0.1155 0.0000 (  3102 PWs)   bands (ev):

    -5.1262  -4.3385  -2.8298  -2.8153  -2.7957  -2.7591  -2.7517  -2.5904
    -2.5831  -2.5020  -2.4839  -1.1232   3.8292   8.9668   9.4764   9.8806
    10.5743  10.6183  13.4190  15.5926  19.6145  20.0135  20.8948  21.5623
    22.0207  22.6603  24.4475  25.9042  27.2388  28.5461  29.7659  29.8565
    30.1727  33.1468  34.3521  34.8310

          k = 0.0000 0.1155 0.1024 (  3095 PWs)   bands (ev):

    -5.0508  -4.3611  -2.8235  -2.8135  -2.7798  -2.7632  -2.7582  -2.5773
    -2.5746  -2.5080  -2.4887  -1.3945   4.3067   9.0405   9.4153   9.5478
    10.4015  10.5360  13.8658  15.6393  19.3957  19.9623  20.9301  20.9611
    21.8691  22.4208  25.0894  26.3279  27.4471  28.7318  29.7780  30.1170
    30.7838  33.0007  33.8314  34.2783

          k = 0.0000 0.1155 0.2047 (  3093 PWs)   bands (ev):

    -4.8538  -4.4461  -2.8130  -2.8062  -2.7823  -2.7740  -2.6936  -2.5523
    -2.5404  -2.5230  -2.5031  -1.9319   5.4522   8.2472   9.3116   9.7461
    10.0619  10.3161  14.7278  15.6895  18.9351  19.4349  20.6276  21.0839
    21.5098  21.9111  26.1245  27.4440  27.8702  28.5759  30.0253  30.3281
    31.8902  32.7760  32.8964  34.7648

          k = 0.0000 0.1155-0.3071 (  3096 PWs)   bands (ev):

    -4.6199  -4.6199  -2.7993  -2.7993  -2.7923  -2.7923  -2.5765  -2.5765
    -2.5259  -2.5259  -2.3667  -2.3667   6.8565   6.8565   9.6662   9.6662
    10.0257  10.0257  15.4409  15.4409  18.8478  18.8478  21.0110  21.0111
    21.4180  21.4180  27.1219  27.1220  28.9779  28.9779  29.5021  29.5021
    32.3567  32.3567  34.0992  34.0992

          k = 0.0000 0.2309 0.0000 (  3130 PWs)   bands (ev):

    -4.8811  -4.2875  -2.7997  -2.7846  -2.7316  -2.7021  -2.6662  -2.6107
    -2.5785  -2.5268  -2.4792  -0.9332   4.2295   7.4863   8.5316   9.0014
    10.2578  10.3699  14.5354  16.5240  18.5498  19.4719  20.9791  21.3666
    22.1848  23.1222  23.4696  25.8775  27.2057  30.2055  31.5441  31.7870
    31.9422  33.0685  34.8491  36.3363

          k = 0.0000 0.2309 0.1024 (  3101 PWs)   bands (ev):

    -4.8182  -4.3013  -2.7981  -2.7803  -2.7400  -2.7087  -2.6604  -2.5852
    -2.5707  -2.5190  -2.4848  -1.1795   4.6233   7.6058   8.2592   9.0841
    10.1280  10.2673  14.7159  16.5757  18.4558  19.2517  20.8265  21.4344
    21.7387  22.9395  24.0861  26.2594  27.5104  30.2092  30.7448  32.0357
    32.6772  33.2124  33.8251  35.7740

          k = 0.0000 0.2309 0.2047 (  3100 PWs)   bands (ev):

    -4.6587  -4.3571  -2.7896  -2.7678  -2.7558  -2.7264  -2.6415  -2.5804
    -2.5507  -2.5012  -2.4157  -1.6900   5.5380   7.4294   8.1731   9.3154
     9.6183   9.9961  15.2600  16.5417  18.1888  18.8793  20.4989  21.3524
    21.6542  22.5078  25.1025  27.3250  27.4021  30.3555  30.7939  31.0081
    32.3528  33.3006  34.0468  35.9952

          k = 0.0000 0.2309-0.3071 (  3094 PWs)   bands (ev):

    -4.4803  -4.4802  -2.7734  -2.7734  -2.7482  -2.7482  -2.6095  -2.6095
    -2.5250  -2.5250  -2.1445  -2.1445   6.5565   6.5565   8.8444   8.8444
     9.6459   9.6459  16.0073  16.0073  18.3661  18.3661  20.8119  20.8119
    22.0319  22.0319  26.3381  26.3381  28.9115  28.9115  31.0291  31.0291
    32.4429  32.4429  35.4941  35.4941

          k = 0.0000 0.3464 0.0000 (  3114 PWs)   bands (ev):

    -4.6064  -4.2418  -2.7779  -2.7614  -2.6855  -2.6415  -2.6221  -2.5849
    -2.5527  -2.4728  -2.3046  -0.6969   4.7280   6.1076   7.2023   8.4912
     9.6960  10.0577  15.4168  16.5736  17.7123  19.1630  20.9499  21.4380
    22.1857  23.7470  23.7841  26.9765  27.0451  29.5112  32.5690  33.9357
    34.4675  34.6128  35.2532  36.7852

          k = 0.0000 0.3464 0.1024 (  3122 PWs)   bands (ev):

    -4.5625  -4.2473  -2.7808  -2.7531  -2.7020  -2.6490  -2.6171  -2.5829
    -2.5483  -2.4793  -2.2523  -0.8927   4.8440   6.3685   7.0287   8.5835
     9.7281   9.9363  15.2454  16.6438  17.8214  19.0305  20.7600  21.5983
    21.9578  23.6217  23.8015  27.3124  27.3579  29.5699  32.1827  33.4643
    34.0384  34.9937  35.2756  36.3826

          k = 0.0000 0.3464 0.2047 (  3117 PWs)   bands (ev):

    -4.4553  -4.2742  -2.7806  -2.7334  -2.7304  -2.6699  -2.6087  -2.5853
    -2.5354  -2.4959  -2.0815  -1.3306   5.1604   6.1905   7.5460   8.8431
     9.4530   9.6199  15.2473  16.4632  17.9968  18.8464  20.5364  21.3021
    22.0263  23.1833  24.4515  27.0162  28.1372  30.3225  31.3529  31.8925
    34.3104  34.9925  35.7947  37.5434

          k = 0.0000 0.3464-0.3071 (  3120 PWs)   bands (ev):

    -4.3439  -4.3439  -2.7640  -2.7640  -2.6998  -2.6998  -2.5965  -2.5965
    -2.5166  -2.5166  -1.7693  -1.7693   5.6340   5.6340   8.6117   8.6117
     9.2175   9.2175  15.7806  15.7806  18.4671  18.4671  20.7023  20.7023
    22.6011  22.6011  25.7060  25.7060  29.5124  29.5124  31.3791  31.3791
    34.6321  34.6321  36.7852  36.7853

          k = 0.0000 0.4619 0.0000 (  3130 PWs)   bands (ev):

    -4.4267  -4.2180  -2.7758  -2.7553  -2.6655  -2.6184  -2.5959  -2.5787
    -2.5154  -2.4657  -1.7480  -0.6055   4.5436   5.7307   6.3550   8.1192
     8.9671   9.8094  15.7870  16.3414  17.0252  19.2189  21.0515  21.2404
    22.7954  23.9959  24.4570  27.2629  28.5881  28.8737  32.3411  34.2453
    35.0228  35.9412  36.0461  36.2893

          k = 0.0000 0.4619 0.1024 (  3129 PWs)   bands (ev):

    -4.3983  -4.2182  -2.7819  -2.7434  -2.6787  -2.6337  -2.6040  -2.5534
    -2.5140  -2.4721  -1.7017  -0.7161   4.3949   5.5906   6.7268   8.2176
     9.1715   9.6764  15.3732  16.1366  17.7418  18.9145  20.9582  21.4695
    22.2128  23.9876  24.2487  27.8177  29.0058  29.0828  31.7140  34.3432
    34.4207  35.4710  36.0406  36.7477

          k = 0.0000 0.4619 0.2047 (  3138 PWs)   bands (ev):

    -4.3308  -4.2277  -2.7882  -2.7330  -2.7120  -2.6299  -2.6023  -2.5439
    -2.5091  -2.4862  -1.5559  -0.9920   4.3449   5.0756   7.7240   8.4948
     9.2878   9.3313  14.9804  15.9491  18.1836  18.7473  20.7897  21.1087
    22.0803  23.6771  24.5940  27.1911  29.7315  30.4632  31.6120  32.4255
    34.6282  35.5330  36.1586  36.7416

          k = 0.0000 0.4619-0.3071 (  3124 PWs)   bands (ev):

    -4.2643  -4.2643  -2.7742  -2.7742  -2.6697  -2.6696  -2.5641  -2.5641
    -2.4996  -2.4996  -1.3067  -1.3067   4.5945   4.5945   8.7434   8.7434
     8.8965   8.8965  15.3315  15.3315  18.5301  18.5301  20.6886  20.6886
    22.8882  22.8882  25.7726  25.7726  30.8500  30.8500  31.5411  31.5411
    35.1181  35.1181  36.4451  36.4451

          k = 0.0000-0.5774 0.0000 (  3118 PWs)   bands (ev):

    -4.3704  -4.2116  -2.7791  -2.7551  -2.6589  -2.6215  -2.5794  -2.5666
    -2.4980  -2.4619  -1.3042  -0.7502   4.2804   5.4406   6.5324   7.9844
     8.5242   9.7165  15.7989  16.2971  16.7833  19.3106  21.0637  21.1426
    23.1599  24.0350  24.7270  27.5557  28.2679  30.0756  32.1255  34.1568
    34.6540  34.7573  36.0902  37.0747

          k = 0.0000-0.5774 0.1024 (  3118 PWs)   bands (ev):

    -4.3473  -4.2100  -2.7858  -2.7422  -2.6701  -2.6402  -2.5884  -2.5387
    -2.4974  -2.4681  -1.2785  -0.7942   4.1195   5.1385   6.9899   8.0849
     8.8189   9.5793  15.4213  15.8406  17.7715  18.8944  21.0441  21.3926
    22.2180  24.2390  24.4901  28.2882  28.7290  30.2752  31.4091  34.1478
    34.6573  35.0778  35.1763  36.7333

          k = 0.0000-0.5774 0.2047 (  3134 PWs)   bands (ev):

    -4.2931  -4.2141  -2.7933  -2.7360  -2.7075  -2.6169  -2.5964  -2.5270
    -2.4951  -2.4805  -1.1993  -0.9148   3.9801   4.5764   7.9415   8.3680
     9.1554   9.2247  14.8684  15.7234  18.3175  18.6143  20.9173  20.9494
    22.0630  23.8437  24.8510  27.4133  30.6722  30.8784  31.3568  33.2859
    34.2351  35.0666  35.1211  36.0608

          k = 0.0000-0.5774-0.3071 (  3128 PWs)   bands (ev):

    -4.2407  -4.2407  -2.7802  -2.7802  -2.6607  -2.6607  -2.5506  -2.5506
    -2.4898  -2.4897  -1.0685  -1.0685   4.1358   4.1358   8.7791   8.7791
     8.8310   8.8310  15.1471  15.1471  18.4902  18.4902  20.6909  20.6909
    22.9591  22.9591  25.9714  25.9714  31.6364  31.6365  31.8907  31.8907
    34.7101  34.7101  35.4530  35.4530

          k = 0.1000 0.1732 0.0000 (  3108 PWs)   bands (ev):

    -4.9555  -4.3017  -2.8057  -2.7948  -2.7404  -2.7403  -2.6908  -2.6024
    -2.5831  -2.5252  -2.4791  -0.9925   4.1014   8.0414   8.6149   9.3257
    10.3545  10.3726  14.2797  16.4255  19.1194  19.1611  21.3864  21.4332
    21.5063  23.0813  24.2166  24.8497  28.8752  29.0730  30.0189  31.1848
    32.3614  32.8572  34.7344  35.6764

          k = 0.1000 0.1732 0.1024 (  3100 PWs)   bands (ev):

    -4.8884  -4.3181  -2.8032  -2.7913  -2.7461  -2.7396  -2.6860  -2.5768
    -2.5756  -2.5321  -2.4829  -1.2475   4.5279   8.1627   8.4369   9.2389
    10.2375  10.2551  14.5434  16.4639  18.8529  19.1621  20.9195  21.3126
    21.5885  22.8061  24.9134  25.1770  28.8724  29.2712  30.4754  31.0354
    32.0566  32.9247  34.0636  36.0416

          k = 0.1000 0.1732 0.2047 (  3104 PWs)   bands (ev):

    -4.7166  -4.3825  -2.7943  -2.7809  -2.7607  -2.7463  -2.6557  -2.5721
    -2.5420  -2.5132  -2.4582  -1.7677   5.5356   7.7423   8.5211   9.3220
     9.7868   9.9948  15.2172  16.4459  18.3707  18.9565  20.4381  21.2145
    21.6369  22.3208  25.9997  26.1356  28.3150  29.7692  30.4583  31.2652
    31.9512  32.4301  34.2416  36.0693

          k = 0.1000 0.1732-0.3071 (  3096 PWs)   bands (ev):

    -4.5208  -4.5208  -2.7795  -2.7795  -2.7627  -2.7627  -2.6060  -2.6060
    -2.5255  -2.5255  -2.2164  -2.2164   6.7026   6.7026   9.0746   9.0746
     9.6765   9.6765  15.9944  15.9944  18.4256  18.4256  20.7798  20.7798
    21.8808  21.8808  26.8048  26.8048  28.3727  28.3727  31.1040  31.1040
    32.3008  32.3008  34.6681  34.6681

          k = 0.1000 0.2887 0.0000 (  3120 PWs)   bands (ev):

    -4.6955  -4.2554  -2.7771  -2.7728  -2.7013  -2.6788  -2.6194  -2.5698
    -2.5610  -2.5061  -2.4189  -0.7713   4.5747   6.7527   7.5087   8.5667
     9.9457   9.9531  15.3089  17.1515  18.0744  18.8508  20.7097  21.4107
    21.7594  23.7591  24.0702  25.3449  28.5260  30.4005  31.0605  32.5475
    34.1597  34.1819  35.0339  36.0945

          k = 0.1000 0.2887 0.1024 (  3113 PWs)   bands (ev):

    -4.6447  -4.2634  -2.7748  -2.7692  -2.7125  -2.6868  -2.6109  -2.5830
    -2.5496  -2.5040  -2.3773  -0.9893   4.8411   6.9339   7.3683   8.5642
     9.8034   9.9564  15.3259  17.2024  17.9749  18.8181  20.5572  21.2626
    21.8168  23.3855  24.4168  25.7250  28.5462  30.3688  31.4955  32.1307
    33.1021  34.2566  35.5852  36.4998

          k = 0.1000 0.2887 0.2047 (  3111 PWs)   bands (ev):

    -4.5191  -4.2992  -2.7714  -2.7499  -2.7319  -2.7024  -2.6124  -2.6008
    -2.5346  -2.5078  -2.2210  -1.4618   5.4301   6.7121   7.7526   8.7278
     9.4451   9.6393  15.5919  16.9659  17.9501  18.7285  20.2818  20.9931
    22.0046  22.8982  25.1086  26.4007  28.2044  29.9088  31.4088  32.0685
    33.6395  34.3801  35.1254  36.7418

          k = 0.1000 0.2887-0.3071 (  3118 PWs)   bands (ev):

    -4.3856  -4.3856  -2.7550  -2.7550  -2.7237  -2.7236  -2.6135  -2.6135
    -2.5197  -2.5197  -1.9148  -1.9148   6.0842   6.0842   8.6603   8.6603
     9.1479   9.1479  16.2354  16.2354  18.3525  18.3525  20.5085  20.5085
    22.4124  22.4124  26.1171  26.1171  28.5460  28.5460  32.0909  32.0909
    34.0326  34.0326  35.7623  35.7624

          k = 0.1000 0.4041 0.0000 (  3124 PWs)   bands (ev):

    -4.4748  -4.2247  -2.7778  -2.7527  -2.6598  -2.6286  -2.6174  -2.5801
    -2.5326  -2.4803  -1.9781  -0.5825   4.8254   5.8757   6.5913   7.8877
     9.3050   9.5793  16.1025  16.9389  17.2221  19.0621  20.5735  21.4261
    22.0360  24.1140  24.4830  26.5824  28.5650  29.6167  32.0824  34.1919
    34.5044  35.0407  35.8528  36.5403

          k = 0.1000 0.4041 0.1024 (  3123 PWs)   bands (ev):

    -4.4417  -4.2260  -2.7709  -2.7543  -2.6813  -2.6313  -2.6153  -2.5749
    -2.5254  -2.4881  -1.9260  -0.7322   4.7309   5.9837   6.7362   7.9620
     9.3617   9.5196  15.7359  16.9258  17.6049  18.9554  20.5108  21.1786
    22.0960  23.7879  24.5911  26.8070  28.6820  29.9775  31.8250  33.1702
    34.5661  35.1965  36.3179  37.0856

          k = 0.1000 0.4041 0.2047 (  3119 PWs)   bands (ev):

    -4.3628  -4.2395  -2.7704  -2.7350  -2.7143  -2.6525  -2.6056  -2.5734
    -2.5163  -2.4992  -1.7601  -1.0872   4.7778   5.5741   7.6095   8.2642
     8.9980   9.4911  15.4962  16.6048  18.0473  18.9298  20.3848  20.6554
    22.2642  23.3864  24.9554  26.6926  28.8721  30.3412  31.6718  32.5001
    34.8951  35.5581  36.2290  36.9747

          k = 0.1000 0.4041-0.3071 (  3120 PWs)   bands (ev):

    -4.2843  -4.2843  -2.7573  -2.7572  -2.6860  -2.6860  -2.5897  -2.5897
    -2.5070  -2.5070  -1.4696  -1.4696   5.0889   5.0889   8.4199   8.4199
     8.9378   8.9378  15.8971  15.8971  18.6153  18.6153  20.3434  20.3434
    22.8001  22.8001  25.8054  25.8054  29.5704  29.5705  32.2077  32.2077
    35.4138  35.4138  36.5310  36.5310

          k = 0.1000 0.5196 0.0000 (  3114 PWs)   bands (ev):

    -4.3649  -4.2134  -2.7856  -2.7468  -2.6447  -2.6209  -2.5863  -2.5740
    -2.5103  -2.4728  -1.3923  -0.6426   4.4471   5.5706   6.5129   7.5861
     8.6171   9.3645  16.4039  16.6574  16.7981  19.2265  20.7196  21.0848
    23.0437  24.1681  24.4762  27.8269  28.5213  29.6158  31.8533  33.9539
    34.6996  35.4177  36.0704  36.6139

          k = 0.1000 0.5196 0.1024 (  3113 PWs)   bands (ev):

    -4.3421  -4.2112  -2.7789  -2.7477  -2.6665  -2.6262  -2.5976  -2.5472
    -2.5082  -2.4809  -1.3572  -0.7046   4.2879   5.2968   6.9104   7.7406
     8.8724   9.2283  15.7515  16.5245  17.7322  18.8752  20.6835  20.9390
    22.7095  24.0771  24.5628  27.9146  28.9200  30.0321  31.4731  33.4539
    34.6579  35.3300  36.2541  36.7589

          k = 0.1000 0.5196 0.2047 (  3122 PWs)   bands (ev):

    -4.2887  -4.2136  -2.7782  -2.7284  -2.7164  -2.6250  -2.5933  -2.5389
    -2.5047  -2.4930  -1.2500  -0.8698   4.1613   4.7595   7.6075   8.2868
     8.7228   9.2983  15.2957  16.2891  18.2978  18.7767  20.2539  20.6417
    22.5714  23.7364  25.0337  27.1367  29.7191  31.0189  31.6804  32.3561
    34.6932  35.1664  36.3519  36.5987

          k = 0.1000 0.5196-0.3071 (  3130 PWs)   bands (ev):

    -4.2381  -4.2381  -2.7662  -2.7662  -2.6699  -2.6699  -2.5596  -2.5596
    -2.4995  -2.4995  -1.0755  -1.0755   4.3258   4.3258   8.1858   8.1858
     9.0316   9.0316  15.5983  15.5983  18.6646  18.6646  20.2574  20.2574
    23.0684  23.0684  25.9831  25.9831  30.6302  30.6302  32.0698  32.0698
    35.0560  35.0560  36.4117  36.4117

          k = 0.2000 0.3464 0.0000 (  3122 PWs)   bands (ev):

    -4.4931  -4.2278  -2.7896  -2.7294  -2.6715  -2.6432  -2.6254  -2.5693
    -2.5389  -2.4973  -2.0479  -0.5766   4.9331   6.3722   6.3771   7.7103
     9.2691   9.4516  16.3623  17.2943  18.1778  18.3198  20.4654  21.0761
    21.5608  24.5113  24.6579  25.5527  30.2792  30.4631  30.6105  33.1315
    33.7878  35.1834  35.3569  36.8945

          k = 0.2000 0.3464 0.1024 (  3110 PWs)   bands (ev):

    -4.4582  -4.2294  -2.7776  -2.7381  -2.6790  -2.6643  -2.5971  -2.5884
    -2.5245  -2.5074  -1.9947  -0.7405   4.9208   6.2403   6.8154   7.6590
     9.1028   9.5873  16.2081  17.2318  18.2984  18.4072  20.3381  20.6877
    21.7901  24.1370  24.8334  25.8435  29.4597  30.7798  31.7613  31.7644
    34.0521  35.4210  36.1432  36.8676

          k = 0.2000 0.3464 0.2047 (  3129 PWs)   bands (ev):

    -4.3748  -4.2442  -2.7476  -2.7471  -2.7004  -2.6812  -2.6104  -2.5920
    -2.5148  -2.5109  -1.8250  -1.1220   5.0489   5.8471   7.7866   7.7870
     8.6993   9.5413  16.1005  16.9528  18.4895  18.5628  20.0978  20.2473
    22.1196  23.4432  25.3059  26.2053  29.0254  29.4850  32.5950  32.6655
    34.3631  35.7105  36.2351  36.5377

          k = 0.2000 0.3464-0.3071 (  3118 PWs)   bands (ev):

    -4.2917  -4.2917  -2.7374  -2.7374  -2.7016  -2.7016  -2.6115  -2.6115
    -2.5083  -2.5083  -1.5243  -1.5243   5.3862   5.3862   8.1538   8.1538
     8.8975   8.8975  16.4372  16.4372  18.6015  18.6015  20.0350  20.0350
    22.7066  22.7066  25.9349  25.9349  28.9227  28.9227  32.8741  32.8741
    35.4045  35.4045  36.4169  36.4169

          k = 0.2000 0.4619 0.0000 (  3115 PWs)   bands (ev):

    -4.3554  -4.2171  -2.8057  -2.7041  -2.6319  -2.6248  -2.6103  -2.5807
    -2.5256  -2.4941  -1.4903  -0.5134   4.8747   5.6558   6.5995   6.9127
     8.7265   8.8051  16.5279  17.2615  17.9727  18.9243  20.3117  21.0963
    22.0392  24.3245  24.5890  26.8886  30.0511  30.3934  31.4375  32.6360
    33.9830  35.4083  35.7366  36.8475

          k = 0.2000 0.4619 0.1024 (  3125 PWs)   bands (ev):

    -4.3330  -4.2140  -2.7910  -2.7177  -2.6587  -2.6271  -2.5996  -2.5750
    -2.5170  -2.5059  -1.4453  -0.5994   4.6985   5.4970   6.7465   7.2479
     8.5415   9.0617  16.4359  17.2405  18.0586  18.8645  20.2305  20.5025
    22.3546  24.2780  24.7786  26.7352  29.5628  30.5001  31.6285  32.6631
    34.2733  35.3301  36.5545  36.8519

          k = 0.2000 0.4619 0.2047 (  3128 PWs)   bands (ev):

    -4.2813  -4.2134  -2.7542  -2.7331  -2.6964  -2.6452  -2.5955  -2.5731
    -2.5188  -2.5046  -1.3085  -0.8205   4.5636   5.0854   7.0017   7.9872
     8.2640   9.3655  16.2168  16.9907  18.3310  18.9653  19.6712  20.1021
    22.6801  23.8815  25.2585  26.3851  29.2096  29.9860  32.5384  32.7787
    34.8668  35.1804  36.6904  37.1329

          k = 0.2000 0.4619-0.3071 (  3128 PWs)   bands (ev):

    -4.2339  -4.2339  -2.7366  -2.7366  -2.6842  -2.6842  -2.5896  -2.5896
    -2.5075  -2.5075  -1.0861  -1.0861   4.7091   4.7091   7.4703   7.4703
     9.0791   9.0791  16.4171  16.4171  18.7739  18.7739  19.7299  19.7299
    23.1930  23.1930  25.8309  25.8309  29.5253  29.5253  32.7465  32.7465
    35.2606  35.2606  37.0859  37.0859

          k = 0.2000 0.5774 0.0000 (  3104 PWs)   bands (ev):

    -4.3069  -4.2182  -2.8124  -2.6999  -2.6189  -2.6176  -2.5914  -2.5808
    -2.5299  -2.4920  -1.0816  -0.6447   4.6878   5.5565   6.3086   7.1950
     8.2823   8.5786  16.2278  17.6326  17.8420  19.0911  20.4201  20.8556
    23.3277  23.5026  24.3093  28.6257  28.6938  30.4350  31.1459  32.2572
    35.2167  36.0108  36.1291  36.9940

          k = 0.2000 0.5774 0.1024 (  3122 PWs)   bands (ev):

    -4.2894  -4.2129  -2.7967  -2.7133  -2.6537  -2.6070  -2.6041  -2.5505
    -2.5286  -2.5049  -1.0571  -0.6748   4.5285   5.2665   6.3900   7.6413
     8.3059   8.6881  16.2109  17.7720  17.8280  18.7423  20.2203  20.5767
    23.2239  23.7786  24.6386  27.9776  28.5123  30.7416  31.1859  32.5918
    35.1019  35.4930  36.9718  37.0085

          k = 0.2000 0.5774 0.2047 (  3122 PWs)   bands (ev):

    -4.2496  -4.2057  -2.7580  -2.7252  -2.7044  -2.6315  -2.5823  -2.5474
    -2.5233  -2.5165  -0.9850  -0.7597   4.3400   4.7592   6.7069   7.8134
     8.5063   9.1854  16.1011  17.2387  18.3425  18.5365  19.7747  20.1286
    23.2277  23.9116  25.2517  26.7241  28.7692  30.2812  32.2472  32.5844
    35.2573  35.2864  37.0892  37.6486

          k = 0.2000 0.5774-0.3071 (  3120 PWs)   bands (ev):

    -4.2157  -4.2157  -2.7375  -2.7375  -2.6824  -2.6824  -2.5650  -2.5650
    -2.5169  -2.5169  -0.8760  -0.8760   4.4062   4.4062   7.2189   7.2189
     9.1710   9.1710  16.3788  16.3788  18.7579  18.7579  19.6441  19.6441
    23.5474  23.5474  25.8739  25.8739  29.5127  29.5127  32.5664  32.5664
    35.4422  35.4422  37.4658  37.4658

          k = 0.3000 0.5196 0.0000 (  3114 PWs)   bands (ev):

    -4.2765  -4.2283  -2.8247  -2.6501  -2.6189  -2.6172  -2.6015  -2.5889
    -2.5446  -2.5036  -0.9872  -0.6066   5.1823   5.3080   5.9063   7.3313
     8.1284   8.1560  16.0103  18.1787  18.6862  18.9510  20.4028  20.7487
    22.6940  23.8606  23.9029  28.1391  29.7631  30.1673  31.4308  32.5509
    33.9406  35.8665  36.2785  36.8698

          k = 0.3000 0.5196 0.1024 (  3117 PWs)   bands (ev):

    -4.2620  -4.2204  -2.8074  -2.6767  -2.6500  -2.6192  -2.5787  -2.5754
    -2.5382  -2.5199  -0.9637  -0.6311   4.9361   5.1822   5.8838   7.7666
     7.9235   8.5217  16.3205  17.8504  18.5399  18.8790  20.1561  20.2358
    23.1265  24.1557  24.1958  27.5820  29.0503  29.5917  32.4346  32.7548
    34.5308  35.5894  37.1489  37.2396

          k = 0.3000 0.5196 0.2047 (  3122 PWs)   bands (ev):

    -4.2303  -4.2066  -2.7603  -2.7074  -2.6904  -2.6379  -2.5725  -2.5649
    -2.5384  -2.5271  -0.8965  -0.7010   4.6218   4.8172   6.1650   7.3370
     8.6505   9.1079  16.9302  17.1965  18.0717  18.6915  19.6912  19.9554
    23.5578  24.5114  24.7979  26.2430  28.6379  29.2883  32.9510  32.9515
    35.4683  35.5432  37.5091  37.5772

          k = 0.3000 0.5196-0.3071 (  3128 PWs)   bands (ev):

    -4.2068  -4.2068  -2.7167  -2.7167  -2.6910  -2.6910  -2.5732  -2.5732
    -2.5271  -2.5271  -0.7997  -0.7997   4.5729   4.5729   6.7010   6.7010
     9.2209   9.2209  16.9525  16.9525  18.2832  18.2832  19.7230  19.7230
    24.0939  24.0939  25.3910  25.3910  28.9254  28.9254  32.9906  32.9906
    35.6809  35.6809  37.5357  37.5357

          k = 0.0000-0.1155 0.1024 (  3095 PWs)   bands (ev):

    -5.0508  -4.3611  -2.8235  -2.8135  -2.7798  -2.7632  -2.7582  -2.5773
    -2.5746  -2.5080  -2.4887  -1.3945   4.3067   9.0405   9.4153   9.5478
    10.4015  10.5360  13.8658  15.6393  19.3958  19.9623  20.9301  20.9611
    21.8691  22.4208  25.0894  26.3279  27.4471  28.7318  29.7780  30.1170
    30.7838  33.0007  33.8314  34.2783

          k = 0.0000-0.1155 0.2047 (  3093 PWs)   bands (ev):

    -4.8538  -4.4461  -2.8130  -2.8062  -2.7823  -2.7740  -2.6936  -2.5523
    -2.5404  -2.5230  -2.5031  -1.9319   5.4522   8.2472   9.3116   9.7461
    10.0619  10.3161  14.7278  15.6895  18.9351  19.4349  20.6276  21.0839
    21.5098  21.9111  26.1245  27.4440  27.8702  28.5759  30.0253  30.3281
    31.8902  32.7760  32.8964  34.7648

          k = 0.0000-0.2309 0.1024 (  3101 PWs)   bands (ev):

    -4.8182  -4.3013  -2.7981  -2.7803  -2.7400  -2.7087  -2.6604  -2.5852
    -2.5707  -2.5190  -2.4848  -1.1795   4.6233   7.6058   8.2592   9.0841
    10.1280  10.2673  14.7159  16.5757  18.4558  19.2517  20.8265  21.4344
    21.7387  22.9395  24.0861  26.2594  27.5104  30.2092  30.7448  32.0357
    32.6772  33.2124  33.8251  35.7739

          k = 0.0000-0.2309 0.2047 (  3100 PWs)   bands (ev):

    -4.6587  -4.3571  -2.7896  -2.7678  -2.7559  -2.7264  -2.6415  -2.5804
    -2.5507  -2.5012  -2.4157  -1.6900   5.5380   7.4294   8.1731   9.3154
     9.6183   9.9961  15.2600  16.5417  18.1888  18.8793  20.4989  21.3524
    21.6542  22.5078  25.1025  27.3250  27.4021  30.3555  30.7939  31.0081
    32.3528  33.3006  34.0468  35.9952

          k = 0.0000-0.3464 0.1024 (  3122 PWs)   bands (ev):

    -4.5625  -4.2473  -2.7808  -2.7531  -2.7020  -2.6490  -2.6171  -2.5829
    -2.5483  -2.4793  -2.2523  -0.8927   4.8440   6.3685   7.0287   8.5835
     9.7281   9.9363  15.2454  16.6438  17.8214  19.0305  20.7600  21.5983
    21.9578  23.6217  23.8015  27.3124  27.3579  29.5699  32.1827  33.4643
    34.0384  34.9937  35.2756  36.3825

          k = 0.0000-0.3464 0.2047 (  3117 PWs)   bands (ev):

    -4.4553  -4.2742  -2.7806  -2.7334  -2.7304  -2.6699  -2.6087  -2.5853
    -2.5354  -2.4959  -2.0815  -1.3306   5.1604   6.1905   7.5460   8.8431
     9.4530   9.6199  15.2473  16.4632  17.9968  18.8464  20.5364  21.3021
    22.0263  23.1833  24.4515  27.0162  28.1372  30.3225  31.3529  31.8925
    34.3104  34.9925  35.7947  37.5433

          k = 0.0000-0.4619 0.1024 (  3129 PWs)   bands (ev):

    -4.3983  -4.2182  -2.7819  -2.7434  -2.6787  -2.6337  -2.6040  -2.5534
    -2.5140  -2.4721  -1.7017  -0.7161   4.3949   5.5906   6.7268   8.2176
     9.1715   9.6764  15.3732  16.1366  17.7418  18.9145  20.9582  21.4695
    22.2128  23.9876  24.2487  27.8177  29.0058  29.0828  31.7140  34.3432
    34.4207  35.4710  36.0406  36.7477

          k = 0.0000-0.4619 0.2047 (  3138 PWs)   bands (ev):

    -4.3308  -4.2277  -2.7882  -2.7330  -2.7120  -2.6299  -2.6023  -2.5439
    -2.5091  -2.4862  -1.5559  -0.9920   4.3449   5.0756   7.7240   8.4948
     9.2878   9.3313  14.9804  15.9491  18.1836  18.7473  20.7897  21.1087
    22.0803  23.6771  24.5940  27.1911  29.7315  30.4632  31.6120  32.4255
    34.6282  35.5330  36.1586  36.7415

          k =-0.1000-0.2887 0.1024 (  3113 PWs)   bands (ev):

    -4.6447  -4.2634  -2.7748  -2.7692  -2.7125  -2.6868  -2.6109  -2.5830
    -2.5497  -2.5040  -2.3773  -0.9893   4.8411   6.9339   7.3683   8.5642
     9.8034   9.9564  15.3259  17.2024  17.9749  18.8181  20.5572  21.2626
    21.8168  23.3855  24.4168  25.7250  28.5462  30.3688  31.4955  32.1307
    33.1021  34.2566  35.5852  36.4998

          k =-0.1000-0.2887 0.2047 (  3111 PWs)   bands (ev):

    -4.5191  -4.2992  -2.7714  -2.7499  -2.7319  -2.7024  -2.6124  -2.6008
    -2.5346  -2.5078  -2.2210  -1.4618   5.4301   6.7121   7.7526   8.7278
     9.4451   9.6393  15.5919  16.9659  17.9501  18.7285  20.2818  20.9931
    22.0046  22.8982  25.1086  26.4007  28.2044  29.9088  31.4088  32.0685
    33.6395  34.3801  35.1254  36.7418

          k =-0.1000-0.4041 0.1024 (  3123 PWs)   bands (ev):

    -4.4417  -4.2260  -2.7709  -2.7543  -2.6813  -2.6313  -2.6153  -2.5749
    -2.5254  -2.4881  -1.9260  -0.7322   4.7309   5.9837   6.7362   7.9620
     9.3617   9.5196  15.7359  16.9258  17.6049  18.9554  20.5108  21.1786
    22.0960  23.7879  24.5911  26.8070  28.6820  29.9775  31.8250  33.1702
    34.5661  35.1965  36.3179  37.0858

          k =-0.1000-0.4041 0.2047 (  3119 PWs)   bands (ev):

    -4.3628  -4.2395  -2.7704  -2.7350  -2.7143  -2.6525  -2.6056  -2.5734
    -2.5163  -2.4992  -1.7601  -1.0872   4.7778   5.5741   7.6095   8.2642
     8.9980   9.4911  15.4962  16.6048  18.0473  18.9298  20.3848  20.6554
    22.2642  23.3864  24.9554  26.6926  28.8721  30.3412  31.6718  32.5001
    34.8951  35.5581  36.2290  36.9747

          k =-0.1000-0.5196 0.1024 (  3113 PWs)   bands (ev):

    -4.3421  -4.2112  -2.7789  -2.7477  -2.6665  -2.6262  -2.5976  -2.5472
    -2.5082  -2.4809  -1.3572  -0.7046   4.2879   5.2968   6.9104   7.7406
     8.8724   9.2283  15.7515  16.5245  17.7322  18.8752  20.6835  20.9390
    22.7095  24.0771  24.5629  27.9146  28.9200  30.0321  31.4730  33.4539
    34.6579  35.3300  36.2540  36.7589

          k =-0.1000-0.5196 0.2047 (  3122 PWs)   bands (ev):

    -4.2887  -4.2136  -2.7782  -2.7284  -2.7164  -2.6250  -2.5933  -2.5389
    -2.5047  -2.4930  -1.2500  -0.8698   4.1613   4.7595   7.6075   8.2868
     8.7228   9.2983  15.2957  16.2891  18.2978  18.7767  20.2539  20.6416
    22.5714  23.7364  25.0337  27.1367  29.7191  31.0189  31.6804  32.3561
    34.6932  35.1664  36.3519  36.5987

          k =-0.2000-0.4619 0.1024 (  3125 PWs)   bands (ev):

    -4.3330  -4.2140  -2.7910  -2.7177  -2.6587  -2.6271  -2.5996  -2.5750
    -2.5170  -2.5059  -1.4453  -0.5994   4.6985   5.4970   6.7465   7.2479
     8.5415   9.0617  16.4359  17.2405  18.0586  18.8645  20.2305  20.5025
    22.3546  24.2780  24.7786  26.7352  29.5628  30.5001  31.6285  32.6631
    34.2734  35.3301  36.5545  36.8518

          k =-0.2000-0.4619 0.2047 (  3128 PWs)   bands (ev):

    -4.2813  -4.2134  -2.7542  -2.7331  -2.6964  -2.6452  -2.5955  -2.5731
    -2.5188  -2.5046  -1.3085  -0.8205   4.5636   5.0854   7.0017   7.9872
     8.2640   9.3655  16.2168  16.9907  18.3310  18.9653  19.6712  20.1021
    22.6801  23.8815  25.2585  26.3851  29.2096  29.9860  32.5384  32.7787
    34.8668  35.1804  36.6904  37.1329

     the Fermi energy is    10.8390 ev

!    total energy              =    -302.52577641 Ry
     estimated scf accuracy    <          2.9E-11 Ry
     smearing contrib. (-TS)   =      -0.00000000 Ry
     internal energy E=F+TS    =    -302.52577641 Ry

     The total energy is F=E-TS. E is the sum of the following terms:
     one-electron contribution =    -107.89615947 Ry
     hartree contribution      =      85.10786307 Ry
     xc contribution           =     -46.56264537 Ry
     ewald contribution        =    -233.17483464 Ry

     convergence has been achieved in  11 iterations

     Writing all to output data dir out/mp-804.save/
 
     init_run     :      0.97s CPU      2.70s WALL (       1 calls)
     electrons    :     16.83s CPU     18.62s WALL (       1 calls)

     Called by init_run:
     wfcinit      :      0.93s CPU      2.35s WALL (       1 calls)
     potinit      :      0.01s CPU      0.02s WALL (       1 calls)
     hinit0       :      0.01s CPU      0.32s WALL (       1 calls)

     Called by electrons:
     c_bands      :     15.02s CPU     16.52s WALL (      11 calls)
     sum_band     :      1.78s CPU      2.00s WALL (      11 calls)
     v_of_rho     :      0.02s CPU      0.03s WALL (      12 calls)
     mix_rho      :      0.01s CPU      0.01s WALL (      11 calls)

     Called by c_bands:
     init_us_2    :      0.08s CPU      0.09s WALL (    1656 calls)
     init_us_2:cp :      0.08s CPU      0.09s WALL (    1656 calls)
     cegterg      :     14.38s CPU     15.33s WALL (     792 calls)

     Called by *egterg:
     cdiaghg      :      4.36s CPU      5.85s WALL (    3145 calls)
     h_psi        :      9.62s CPU     10.29s WALL (    3217 calls)
     g_psi        :      0.04s CPU      0.04s WALL (    2353 calls)

     Called by h_psi:
     h_psi:calbec :      0.30s CPU      0.32s WALL (    3217 calls)
     vloc_psi     :      9.09s CPU      9.73s WALL (    3217 calls)
     add_vuspsi   :      0.18s CPU      0.20s WALL (    3217 calls)

     General routines
     calbec       :      0.30s CPU      0.32s WALL (    3217 calls)
     fft          :      0.01s CPU      0.32s WALL (     119 calls)
     ffts         :      0.00s CPU      0.00s WALL (      11 calls)
     fftw         :      9.90s CPU     10.61s WALL (  191990 calls)
     davcio       :      0.13s CPU      0.75s WALL (    2646 calls)
 
     Parallel routines
 
     PWSCF        :     18.14s CPU     22.39s WALL

 
   This run was terminated on:   5:55:52  16Nov2023            

=------------------------------------------------------------------------------=
   JOB DONE.
=------------------------------------------------------------------------------=
