
     Program PWSCF v.7.1 starts on 14Nov2023 at 22:18:56 

     This program is part of the open-source Quantum ESPRESSO suite
     for quantum simulation of materials; please cite
         "P. Giannozzi et al., J. Phys.:Condens. Matter 21 395502 (2009);
         "P. Giannozzi et al., J. Phys.:Condens. Matter 29 465901 (2017);
         "P. Giannozzi et al., J. Chem. Phys. 152 154105 (2020);
          URL http://www.quantum-espresso.org", 
     in publications or presentations arising from this work. More details at
     http://www.quantum-espresso.org/quote

     Parallel version (MPI), running on    24 processors

     MPI processes distributed on     1 nodes
     123151 MiB available memory on the printing compute node when the environment starts
 
     Reading input from pw_mp-23155_scf_k3000_E38.in
Warning: card &CELL ignored
Warning: card / ignored

     Current dimensions of program PWSCF are:
     Max number of different atomic species (ntypx) = 10
     Max number of k-points (npk) =  40000
     Max angular momentum in pseudopotentials (lmaxx) =  4
 
     K-points division:     npool     =       2
     R & G space division:  proc/nbgrp/npool/nimage =      12
     Subspace diagonalization in iterative solution of the eigenvalue problem:
     a serial algorithm will be used

 
     Parallelization info
     --------------------
     sticks:   dense  smooth     PW     G-vecs:    dense   smooth      PW
     Min          45      45     13                  690      690     119
     Max          46      46     14                  691      691     123
     Sum         547     547    163                 8291     8291    1459
 
     Using Slab Decomposition
 


     bravais-lattice index     =            2
     lattice parameter (alat)  =      10.1349  a.u.
     unit-cell volume          =     260.2548 (a.u.)^3
     number of atoms/cell      =            1
     number of atomic types    =            1
     number of electrons       =         8.00
     number of Kohn-Sham states=            8
     kinetic-energy cutoff     =      38.0000  Ry
     charge density cutoff     =     152.0000  Ry
     scf convergence threshold =      1.0E-10
     mixing beta               =       0.7000
     number of iterations used =            8  plain     mixing
     Exchange-correlation= PBE
                           (   1   4   3   4   0   0   0)

     celldm(1)=  10.134903  celldm(2)=   0.000000  celldm(3)=   0.000000
     celldm(4)=   0.000000  celldm(5)=   0.000000  celldm(6)=   0.000000

     crystal axes: (cart. coord. in units of alat)
               a(1) = (  -0.500000   0.000000   0.500000 )  
               a(2) = (   0.000000   0.500000   0.500000 )  
               a(3) = (  -0.500000   0.500000   0.000000 )  

     reciprocal axes: (cart. coord. in units 2 pi/alat)
               b(1) = ( -1.000000 -1.000000  1.000000 )  
               b(2) = (  1.000000  1.000000  1.000000 )  
               b(3) = ( -1.000000  1.000000 -1.000000 )  


     PseudoPot. # 1 for Ar read from file:
     /usr/scratch4/magr4985/MG/HTDF/pseudo/SG15/Ar.upf
     MD5 check sum: 620464c3264a40e7652fb6a19ca6aabb
     Pseudo is Norm-conserving, Zval =  8.0
     Generated using ONCVPSP code by D. R. Hamann
     Using radial grid of  602 points,  4 beta functions with: 
                l(1) =   0
                l(2) =   0
                l(3) =   1
                l(4) =   1

     atomic species   valence    mass     pseudopotential
        Ar             8.00    39.94800     Ar( 1.00)

     48 Sym. Ops., with inversion, found



   Cartesian axes

     site n.     atom                  positions (alat units)
         1           Ar  tau(   1) = (   0.0000000   0.0000000   0.0000000  )

     number of k points=   104  Gaussian smearing, width (Ry)=  0.0005

     Number of k-points >= 100: set verbosity='high' to print them.

     Dense  grid:     8291 G-vectors     FFT dimensions: (  30,  30,  30)

     Estimated max dynamical RAM per process >       1.37 MB

     Estimated total dynamical RAM >      30.86 MB

     Initial potential from superposition of free atoms

     starting charge       7.9979, renormalised to       8.0000
     Starting wfcs are random

     total cpu time spent up to now is        0.2 secs

     Self-consistent Calculation

     iteration #  1     ecut=    38.00 Ry     beta= 0.70
     Davidson diagonalization with overlap
     ethr =  1.00E-02,  avg # of iterations =  7.2

     Threshold (ethr) on eigenvalues was too large:
     Diagonalizing with lowered threshold

     Davidson diagonalization with overlap
     c_bands:  1 eigenvalues not converged
     ethr =  8.10E-07,  avg # of iterations =  8.6

     total cpu time spent up to now is        0.8 secs

     total energy              =     -42.38694500 Ry
     estimated scf accuracy    <       0.00000967 Ry

     iteration #  2     ecut=    38.00 Ry     beta= 0.70
     Davidson diagonalization with overlap
     ethr =  1.21E-07,  avg # of iterations =  1.1

     total cpu time spent up to now is        0.9 secs

     total energy              =     -42.38695015 Ry
     estimated scf accuracy    <       0.00000090 Ry

     iteration #  3     ecut=    38.00 Ry     beta= 0.70
     Davidson diagonalization with overlap
     ethr =  1.12E-08,  avg # of iterations =  2.0

     total cpu time spent up to now is        1.0 secs

     total energy              =     -42.38695027 Ry
     estimated scf accuracy    <       0.00000001 Ry

     iteration #  4     ecut=    38.00 Ry     beta= 0.70
     Davidson diagonalization with overlap
     ethr =  1.80E-10,  avg # of iterations =  2.0

     total cpu time spent up to now is        1.1 secs

     total energy              =     -42.38695028 Ry
     estimated scf accuracy    <          2.1E-10 Ry

     iteration #  5     ecut=    38.00 Ry     beta= 0.70
     Davidson diagonalization with overlap
     ethr =  2.57E-12,  avg # of iterations =  2.2

     total cpu time spent up to now is        1.3 secs

     End of self-consistent calculation

     Number of k-points >= 100: set verbosity='high' to print the bands.

     the Fermi energy is    -1.8890 ev

!    total energy              =     -42.38695028 Ry
     estimated scf accuracy    <          2.2E-11 Ry
     smearing contrib. (-TS)   =      -0.00000000 Ry
     internal energy E=F+TS    =     -42.38695028 Ry

     The total energy is F=E-TS. E is the sum of the following terms:
     one-electron contribution =     -16.83847773 Ry
     hartree contribution      =      10.66561838 Ry
     xc contribution           =      -7.26155071 Ry
     ewald contribution        =     -28.95254021 Ry

     convergence has been achieved in   5 iterations

     Writing all to output data dir out/mp-23155.save/
 
     init_run     :      0.05s CPU      0.13s WALL (       1 calls)
     electrons    :      0.91s CPU      1.06s WALL (       1 calls)

     Called by init_run:
     wfcinit      :      0.04s CPU      0.08s WALL (       1 calls)
     potinit      :      0.00s CPU      0.00s WALL (       1 calls)
     hinit0       :      0.00s CPU      0.04s WALL (       1 calls)

     Called by electrons:
     c_bands      :      0.81s CPU      0.94s WALL (       6 calls)
     sum_band     :      0.09s CPU      0.10s WALL (       6 calls)
     v_of_rho     :      0.01s CPU      0.01s WALL (       6 calls)
     mix_rho      :      0.00s CPU      0.00s WALL (       6 calls)

     Called by c_bands:
     init_us_2    :      0.01s CPU      0.01s WALL (     676 calls)
     init_us_2:cp :      0.01s CPU      0.01s WALL (     676 calls)
     cegterg      :      0.76s CPU      0.87s WALL (     312 calls)

     Called by *egterg:
     cdiaghg      :      0.13s CPU      0.17s WALL (    1468 calls)
     h_psi        :      0.58s CPU      0.68s WALL (    1572 calls)
     g_psi        :      0.00s CPU      0.00s WALL (    1208 calls)

     Called by h_psi:
     h_psi:calbec :      0.02s CPU      0.03s WALL (    1572 calls)
     vloc_psi     :      0.54s CPU      0.63s WALL (    1572 calls)
     add_vuspsi   :      0.01s CPU      0.01s WALL (    1572 calls)

     General routines
     calbec       :      0.02s CPU      0.03s WALL (    1572 calls)
     fft          :      0.00s CPU      0.04s WALL (      60 calls)
     ffts         :      0.00s CPU      0.00s WALL (       6 calls)
     fftw         :      0.55s CPU      0.64s WALL (   21120 calls)
 
     Parallel routines
 
     PWSCF        :      1.00s CPU      1.35s WALL

 
   This run was terminated on:  22:18:57  14Nov2023            

=------------------------------------------------------------------------------=
   JOB DONE.
=------------------------------------------------------------------------------=
