
     Program PWSCF v.7.1 starts on  5Apr2024 at 14:19:10 

     This program is part of the open-source Quantum ESPRESSO suite
     for quantum simulation of materials; please cite
         "P. Giannozzi et al., J. Phys.:Condens. Matter 21 395502 (2009);
         "P. Giannozzi et al., J. Phys.:Condens. Matter 29 465901 (2017);
         "P. Giannozzi et al., J. Chem. Phys. 152 154105 (2020);
          URL http://www.quantum-espresso.org", 
     in publications or presentations arising from this work. More details at
     http://www.quantum-espresso.org/quote

     Parallel version (MPI), running on    16 processors

     MPI processes distributed on     1 nodes
     246246 MiB available memory on the printing compute node when the environment starts
 
     Reading input from pw_mp-2605_nscf_k690_E84.in
Warning: card &IONS ignored
Warning: card / ignored
Warning: card &CELL ignored
Warning: card / ignored

     Current dimensions of program PWSCF are:
     Max number of different atomic species (ntypx) = 10
     Max number of k-points (npk) =  40000
     Max angular momentum in pseudopotentials (lmaxx) =  4

     Atomic positions and unit cell read from directory:
     out/mp-2605.save/
     Atomic positions from file used, from input discarded
 
 
     R & G space division:  proc/nbgrp/npool/nimage =      16
     Subspace diagonalization in iterative solution of the eigenvalue problem:
     one sub-group per band group will be used
     scalapack distributed-memory algorithm (size of sub-group:  4*  4 procs)

 
     Parallelization info
     --------------------
     sticks:   dense  smooth     PW     G-vecs:    dense   smooth      PW
     Min          59      59     17                 1221     1221     195
     Max          60      60     18                 1225     1225     198
     Sum         955     955    283                19579    19579    3143
 
     Using Slab Decomposition
 


     bravais-lattice index     =            2
     lattice parameter (alat)  =       9.0841  a.u.
     unit-cell volume          =     187.4084 (a.u.)^3
     number of atoms/cell      =            2
     number of atomic types    =            2
     number of electrons       =        16.00
     number of Kohn-Sham states=         1008
     kinetic-energy cutoff     =      84.0000  Ry
     charge density cutoff     =     336.0000  Ry
     Exchange-correlation= PBE
                           (   1   4   3   4   0   0   0)

     celldm(1)=   9.084123  celldm(2)=   0.000000  celldm(3)=   0.000000
     celldm(4)=   0.000000  celldm(5)=   0.000000  celldm(6)=   0.000000

     crystal axes: (cart. coord. in units of alat)
               a(1) = (  -0.500000   0.000000   0.500000 )  
               a(2) = (   0.000000   0.500000   0.500000 )  
               a(3) = (  -0.500000   0.500000   0.000000 )  

     reciprocal axes: (cart. coord. in units 2 pi/alat)
               b(1) = ( -1.000000 -1.000000  1.000000 )  
               b(2) = (  1.000000  1.000000  1.000000 )  
               b(3) = ( -1.000000  1.000000 -1.000000 )  


     PseudoPot. # 1 for Ca read from file:
     /usr/scratch4/magr4985/FGWC/FGWC/pseudo/SG15/Ca.upf
     MD5 check sum: b43c970dc090f2312d256360aabdb6f1
     Pseudo is Norm-conserving, Zval = 10.0
     Generated using ONCVPSP code by D. R. Hamann
     Using radial grid of  602 points,  6 beta functions with: 
                l(1) =   0
                l(2) =   0
                l(3) =   1
                l(4) =   1
                l(5) =   2
                l(6) =   2

     PseudoPot. # 2 for O  read from file:
     /usr/scratch4/magr4985/FGWC/FGWC/pseudo/SG15/O.upf
     MD5 check sum: e36c48deb68f4e355fffe4602be2c42c
     Pseudo is Norm-conserving, Zval =  6.0
     Generated using ONCVPSP code by D. R. Hamann
     Using radial grid of  602 points,  4 beta functions with: 
                l(1) =   0
                l(2) =   0
                l(3) =   1
                l(4) =   1

     atomic species   valence    mass     pseudopotential
        Ca            10.00    40.07800     Ca( 1.00)
        O              6.00    15.99940     O ( 1.00)

     48 Sym. Ops., with inversion, found



   Cartesian axes

     site n.     atom                  positions (alat units)
         1           Ca  tau(   1) = (   0.0000000   0.0000000   0.0000000  )
         2           O   tau(   2) = (  -0.5000000   0.5000000   0.5000000  )

     number of k points=    29  Gaussian smearing, width (Ry)=  0.0005
                       cart. coord. in units 2pi/alat
        k(    1) = (   0.0000000   0.0000000   0.0000000), wk =   0.0039062
        k(    2) = (  -0.1250000   0.1250000  -0.1250000), wk =   0.0312500
        k(    3) = (  -0.2500000   0.2500000  -0.2500000), wk =   0.0312500
        k(    4) = (  -0.3750000   0.3750000  -0.3750000), wk =   0.0312500
        k(    5) = (   0.5000000  -0.5000000   0.5000000), wk =   0.0156250
        k(    6) = (   0.0000000   0.2500000   0.0000000), wk =   0.0234375
        k(    7) = (  -0.1250000   0.3750000  -0.1250000), wk =   0.0937500
        k(    8) = (  -0.2500000   0.5000000  -0.2500000), wk =   0.0937500
        k(    9) = (   0.6250000  -0.3750000   0.6250000), wk =   0.0937500
        k(   10) = (   0.5000000  -0.2500000   0.5000000), wk =   0.0937500
        k(   11) = (   0.3750000  -0.1250000   0.3750000), wk =   0.0937500
        k(   12) = (   0.2500000   0.0000000   0.2500000), wk =   0.0468750
        k(   13) = (   0.0000000   0.5000000   0.0000000), wk =   0.0234375
        k(   14) = (  -0.1250000   0.6250000  -0.1250000), wk =   0.0937500
        k(   15) = (   0.7500000  -0.2500000   0.7500000), wk =   0.0937500
        k(   16) = (   0.6250000  -0.1250000   0.6250000), wk =   0.0937500
        k(   17) = (   0.5000000   0.0000000   0.5000000), wk =   0.0468750
        k(   18) = (   0.0000000   0.7500000   0.0000000), wk =   0.0234375
        k(   19) = (   0.8750000  -0.1250000   0.8750000), wk =   0.0937500
        k(   20) = (   0.7500000   0.0000000   0.7500000), wk =   0.0468750
        k(   21) = (   0.0000000  -1.0000000   0.0000000), wk =   0.0117188
        k(   22) = (  -0.2500000   0.5000000   0.0000000), wk =   0.0937500
        k(   23) = (   0.6250000  -0.3750000   0.8750000), wk =   0.1875000
        k(   24) = (   0.5000000  -0.2500000   0.7500000), wk =   0.0937500
        k(   25) = (   0.7500000  -0.2500000   1.0000000), wk =   0.0937500
        k(   26) = (   0.6250000  -0.1250000   0.8750000), wk =   0.1875000
        k(   27) = (   0.5000000   0.0000000   0.7500000), wk =   0.0937500
        k(   28) = (  -0.2500000  -1.0000000   0.0000000), wk =   0.0468750
        k(   29) = (  -0.5000000  -1.0000000   0.0000000), wk =   0.0234375

     Dense  grid:    19579 G-vectors     FFT dimensions: (  40,  40,  40)

     Estimated max dynamical RAM per process >     101.60 MB

     Estimated total dynamical RAM >       1.59 GB

     The potential is recalculated from file :
     out/mp-2605.save/charge-density

     Starting wfcs are random

     Band Structure Calculation
     Davidson diagonalization with overlap

     ethr =  5.00E-06,  avg # of iterations =  7.4

     total cpu time spent up to now is      314.7 secs

     End of band structure calculation

          k = 0.0000 0.0000 0.0000 (  2421 PWs)   bands (ev):

   -29.8978 -10.6673 -10.6673 -10.6673  -7.7099   7.7800   7.7800   7.7800
    12.5113  13.9962  13.9962  13.9962  15.4923  15.4923  22.8661  30.1845
    30.1845  30.1845  35.2392  35.2392  35.2392  35.7437  35.7437  35.9236
    35.9236  35.9236  44.5077  49.9039  49.9039  49.9039  53.1494  53.1494
    55.8514  55.8514  55.8514  57.0826  67.0297  67.0297  67.0297  68.4095
    68.6481  68.6481  68.6481  69.2835  69.2835  69.2835  70.5945  70.5945
    70.5945  71.5455  71.5455  71.5455  74.2886  74.2886  74.2886  74.4117
    74.4117  75.8180  76.4389  77.0853  77.0853  86.5837  86.5837  86.5837
    86.6178  86.6178  86.6178  99.6098  99.6098  99.6098 100.1158 104.9754
   104.9754 110.6962 110.6962 110.6962 114.0517 114.0517 114.0517 117.3626
   117.3626 117.3626 118.5539 119.1925 119.4155 119.4155 121.4919 121.4919
   121.4919 123.3436 123.3436 123.3436 124.3838 124.3838 124.3838 124.4227
   124.4227 124.4227 124.5833 124.5833 125.2940 125.2940 125.2940 126.4916
   126.4916 126.4916 128.2270 128.2270 128.4889 129.4600 129.4600 129.4600
   130.2988 135.5978 135.5978 138.1165 138.1165 138.1165 142.3607 142.3607
   142.3607 146.9359 148.2304 148.2304 148.2304 153.0816 153.0816 153.0816
   153.4571 153.4571 153.5390 153.5390 153.5390 153.6932 153.6932 153.6932
   153.7241 153.7241 153.7241 153.7804 153.7804 155.2720 159.0342 159.0342
   159.0342 167.0349 167.6031 167.6031 167.6031 170.2740 171.8682 171.8682
   171.8682 172.1553 172.1553 172.1553 172.8712 172.8712 172.8712 173.0302
   173.0302 173.0302 175.3324 177.7123 177.7123 177.7723 177.7723 177.7723
   177.8471 182.2922 182.2922 182.2922 184.5214 184.5214 190.3431 190.3431
   190.3431 200.5753 200.5753 200.5753 200.8154 200.8154 200.8154 206.1211
   206.1211 206.1211 206.2075 206.2075 206.5054 215.0659 215.0659 215.0659
   215.0876 215.0876 217.6270 217.6270 217.6270 218.3889 218.3889 218.3889
   219.3997 219.3997 219.3997 220.2436 220.2436 220.2436 220.9498 220.9498
   221.7399 222.0823 222.0823 222.0823 223.0063 224.4498 224.4498 224.4498
   224.6336 224.6336 224.6764 224.6764 224.6764 225.4881 225.9122 225.9122
   225.9122 226.2816 226.2816 226.2816 226.3273 227.9600 227.9600 227.9600
   227.9652 228.2827 228.2827 228.6406 228.6406 228.6406 229.3875 229.3875
   229.3875 229.8370 231.7071 231.7071 231.7097 231.7097 231.7097 231.9164
   231.9164 231.9164 232.4436 232.4436 232.4436 232.7557 232.7557 232.7557
   232.7852 232.7852 234.9344 244.7411 244.7411 246.8214 246.8214 246.8214
   249.4386 249.4386 249.4386 253.2022 253.2022 253.2022 253.5837 253.5837
   253.5837 253.9045 253.9045 253.9045 258.4640 258.7586 258.7586 258.8765
   258.8765 258.8765 258.9410 261.1027 261.1027 261.1027 264.6099 264.6099
   264.6099 269.5474 271.5318 271.5318 275.3179 275.9780 275.9780 275.9780
   276.2721 276.2721 276.3135 276.3135 276.3135 276.4036 276.4036 276.4036
   276.5188 276.5188 276.5188 278.1355 278.1355 278.1355 278.8272 278.8272
   278.8272 280.7174 280.7174 281.2614 282.2595 282.2595 282.2595 282.3416
   282.3416 282.3416 282.3726 282.3726 282.3726 282.5464 282.5464 282.5967
   282.5967 282.5967 286.7030 294.9530 294.9530 297.8901 297.8901 297.8901
   300.6545 300.6545 300.6545 306.5573 307.1575 307.1575 307.1575 308.7197
   310.1409 310.1409 310.1409 317.7785 317.9881 317.9881 318.4506 318.4506
   318.4506 319.5338 319.5338 319.5338 322.3298 322.3298 322.3298 323.3806
   325.5764 325.5764 325.5764 326.6715 326.6715 327.0520 327.0520 327.0520
   327.7762 327.7762 327.7762 327.8683 327.8683 327.8683 328.1544 328.1544
   328.1544 329.3519 329.3519 329.3519 330.5489 330.5489 330.5489 330.5838
   330.8966 330.8966 330.9174 330.9174 330.9174 330.9513 330.9513 330.9513
   333.2975 333.2975 333.8244 333.8244 333.8336 333.8336 333.8336 333.8371
   334.1482 334.1482 334.1482 334.3758 334.3758 334.3758 334.4495 334.4495
   334.4495 334.4960 339.2441 349.5611 349.5611 349.5611 350.4536 350.4536
   350.4536 353.9869 354.3828 354.3828 357.1693 357.1693 357.1693 357.3004
   357.3004 357.3004 357.5021 357.5021 357.5114 357.5114 357.5114 357.6740
   357.6740 357.6740 359.6898 361.7101 361.7101 361.7306 361.7306 361.7306
   361.7308 361.7308 361.7308 361.7359 361.7359 361.7909 361.7909 361.7909
   361.8178 361.8178 361.8178 362.1702 362.1702 362.1702 363.4127 363.4591
   363.4591 363.4591 363.5053 363.5053 363.5053 363.5512 364.0460 364.0460
   364.0460 365.1978 365.1978 371.5728 371.5728 371.5728 372.1737 372.4634
   372.4634 372.4634 373.2168 373.2168 373.2168 374.9566 374.9566 374.9566
   375.4899 375.7713 375.7713 375.7713 376.2120 376.2120 376.4961 376.4961
   376.4961 376.9469 380.4248 380.4248 380.7571 380.7571 380.7571 381.1382
   381.1382 381.1382 381.1470 381.1470 381.1470 381.4560 381.4560 381.4560
   381.4824 381.4824 381.8091 382.1169 382.1169 382.1169 382.1840 382.1840
   383.9725 383.9725 383.9725 384.0010 384.0010 384.0010 384.0943 384.0943
   384.0943 384.1491 384.1491 384.1491 384.3531 385.2874 385.3357 385.3357
   385.3357 385.3454 385.3454 398.8376 398.8376 400.5560 400.5560 400.5560
   409.5824 420.8608 420.8608 420.8608 425.4139 425.4139 425.4139 427.8146
   427.8146 429.6067 429.6067 429.6067 430.0095 430.0095 430.3895 430.3895
   430.3895 430.3954 430.4336 430.4336 430.4336 430.5277 430.5277 430.5277
   430.6034 430.6034 430.6034 430.7217 430.7217 430.7217 430.7424 430.7424
   430.8736 431.2924 432.4574 432.4574 432.4574 433.3658 435.2038 435.2038
   435.2038 435.4329 435.4329 435.4329 435.4701 435.4701 435.4701 435.7648
   435.7648 435.7648 439.6456 439.6456 439.7353 439.7353 439.7353 439.7474
   439.7474 439.7474 439.7794 439.7794 439.7794 439.8723 439.8723 439.8935
   439.8935 439.8935 440.9420 440.9420 440.9770 440.9770 440.9770 440.9966
   442.2416 456.2566 456.2566 456.2566 457.5324 457.5324 457.5324 458.6691
   458.6691 460.1188 460.1188 460.1188 461.3480 462.2563 462.2563 462.2563
   463.6134 463.6134 463.8224 463.8613 463.8613 463.8613 463.9791 463.9791
   463.9839 463.9839 463.9839 464.0376 464.0376 464.0376 464.0701 464.0701
   464.0701 464.1398 464.1398 464.1398 466.2953 468.6615 468.6615 468.6615
   470.0499 470.0499 470.0499 471.5856 471.5856 472.9643 472.9643 472.9643
   480.3600 480.3600 480.6317 480.7248 480.7248 480.7248 480.8321 480.8321
   480.8321 480.9727 480.9727 480.9727 481.1062 481.2507 481.4134 481.4134
   481.4134 481.7986 481.7986 481.7986 484.0190 484.5773 484.5773 484.5966
   484.5966 484.5966 484.6169 484.6169 484.6169 484.6942 484.6942 484.6942
   484.9102 487.8265 487.8265 487.8265 488.4075 488.4075 488.4075 488.4599
   488.4599 488.5342 488.5342 488.5342 488.5386 488.5468 488.5468 488.5468
   488.6152 488.6152 488.6152 489.2601 489.2601 489.5840 489.5840 489.5840
   490.3785 490.6673 490.6673 490.6673 490.8510 490.8510 490.8510 491.0614
   491.0614 491.0614 491.0938 491.0938 493.9109 506.2410 506.2410 506.2410
   511.3150 511.3150 512.7680 512.7680 512.7680 513.4167 513.4167 513.4167
   513.4392 513.4392 513.4392 513.8149 513.8149 513.8149 513.9876 513.9876
   514.2936 514.2936 514.2936 514.4017 516.2035 516.2035 516.7845 518.1397
   518.1397 518.1397 523.3526 527.1287 527.1287 527.1287 527.6087 527.6087
   527.6087 529.0748 532.2159 532.2159 532.4189 532.4189 532.4189 532.4570
   532.4570 532.4570 532.6545 532.6545 532.6545 532.6580 532.6580 532.6580
   532.7165 532.7165 533.8064 535.7546 535.7546 535.7546 535.8837 535.8837
   535.8837 535.9503 535.9503 535.9503 535.9590 535.9590 535.9590 536.6688
   536.6688 536.6688 536.6950 536.6950 536.7446 536.7446 536.7446 536.8648
   536.8648 536.9001 536.9001 536.9001 536.9540 536.9540 536.9540 537.7093
   537.7093 537.7093 538.1741 538.1741 538.1741 538.4345 538.5299 538.5299
   538.5299 538.6486 538.6486 538.6486 538.7111 538.7847 539.5239 539.5239
   539.8083 539.8083 539.8083 539.9754 539.9754 539.9754 539.9789 539.9789
   539.9789 539.9867 539.9867 540.0644 540.0644 540.0644 542.0776 542.0927
   542.0927 542.0927 542.1010 542.1010 544.4104 544.4104 544.4104 544.4290
   544.4290 544.4321 544.4321 544.4321 544.4470 544.4470 544.4470 544.4625
   544.4625 544.4843 544.4843 544.4843 544.8680 544.8680 544.8680 544.8770
   544.8776 544.8776 544.8776 544.9032 546.2271 559.8992 559.8992 559.8992
   561.2694 561.2694 561.2694 561.6766 564.8586 569.6011 569.6011 569.6104
   569.6104 569.6104 569.6613 569.6613 569.6613 569.7288 569.7288 569.7288
   569.8348 569.8348 569.8348 569.8585 569.8585 574.8838 574.8838 574.8838
   577.0347 577.0347 580.5578 580.5578 580.5578 580.7361 580.7361 580.7361
   580.9184 580.9184 580.9184 580.9717 580.9717 580.9717 584.0646 584.5950
   584.5950 584.6261 584.6261 584.6261 584.7515 589.5170 589.5450 589.5450
   589.5501 589.5501 589.5501 592.0933 592.0933 592.0933 592.0944 592.0944
   592.0944 592.1029 592.1029 592.1029 592.1039 592.1039 592.1039 593.4746
   593.4746 593.4760 593.4760 593.4760 593.4868 613.3693 613.3693 613.3693
   618.4341 618.4341 618.4341 618.8370 618.8596 618.8596 619.1336 619.1336
   619.1336 619.1412 619.1412 619.1412 619.2650 619.2650 619.2650 619.2892
   619.2892 619.2892 619.3792 619.3792 620.3247 624.6178 624.6178 624.6178
   630.0051 630.0051 630.0051 631.4060 631.4060 631.5175 631.5175 631.5175
   631.9372 632.3494 632.6291 632.6291 632.6291 632.6618 632.6618 632.6618
   634.8541 635.0988 635.0988 635.0988 635.6320 635.6320 637.4385 637.4385
   637.4385 637.8036 637.8036 637.8036 638.3090 638.3090 638.3090 638.6237
   638.6237 638.8118 638.8118 638.8118 639.3896 639.3896 639.3896 639.6425

          k =-0.1250 0.1250-0.1250 (  2457 PWs)   bands (ev):

   -29.8831 -10.8722 -10.6751 -10.6751  -7.4948   7.2493   7.5709   7.5709
    13.1908  13.9582  14.2582  14.2582  15.8567  15.8567  23.4327  29.2066
    29.5672  29.5672  33.4888  33.4888  35.1221  35.9254  35.9254  36.0118
    38.1380  38.1380  45.8198  47.9252  47.9252  50.1803  54.4913  54.4913
    54.9857  57.0664  57.0664  57.5390  63.5538  63.5538  64.4260  65.4044
    66.6505  66.6505  67.0644  67.5074  68.4747  68.4747  71.3580  71.3580
    71.5295  73.8248  73.8248  74.0480  74.0480  74.8424  75.1038  76.8168
    76.8168  77.6551  80.3614  80.3614  80.4002  84.9607  86.0163  86.0163
    87.4768  87.4768  88.3390  97.9530  99.7933  99.7933 100.9488 102.8317
   102.8317 109.2889 109.2889 110.3878 112.9036 113.3299 113.3299 113.8380
   115.1411 115.1411 115.5215 115.5215 117.0204 117.0204 118.2925 118.4322
   119.9375 121.1793 121.1793 121.6908 122.4723 122.4723 124.2838 124.7099
   124.7099 125.3406 125.6134 125.6134 125.8226 127.7517 127.7517 128.3474
   130.1828 130.4419 131.7264 131.7264 133.6645 134.2475 134.2475 134.6625
   134.6625 136.9171 136.9171 137.6475 137.6475 138.8169 141.1701 141.1701
   142.9074 142.9400 142.9400 145.0217 147.5587 147.7524 147.7524 148.7226
   150.2485 150.2485 152.3333 152.4610 152.4610 154.3484 155.3174 155.3174
   157.5003 158.6328 158.6328 159.2552 160.0007 160.0007 160.4991 161.6164
   162.9810 162.9810 164.2293 165.2028 166.1100 166.1100 166.6819 166.6819
   169.2128 169.2128 169.7813 170.8497 171.5457 171.5457 172.5697 176.6105
   178.3510 178.3510 180.1581 180.1581 180.4033 181.2308 181.2887 181.2887
   184.0464 184.0464 184.7273 186.9810 186.9810 187.5059 188.6092 189.3255
   189.3255 195.9059 195.9059 198.3601 200.5794 200.5794 200.8172 204.6852
   204.6852 204.8012 206.6204 206.6204 208.2318 208.8625 209.0184 209.0184
   211.1256 211.5750 211.5750 212.4979 212.4979 213.1118 213.6606 214.9478
   214.9478 215.9438 215.9438 216.9566 217.3088 217.3088 217.4811 218.7457
   218.7457 219.7586 220.5975 220.7976 220.7976 222.3143 222.6448 222.6448
   222.9034 222.9034 223.0598 224.3365 224.3365 224.9989 225.5389 225.5389
   226.0187 226.1413 226.1413 227.9792 227.9792 228.1458 228.9383 229.0497
   229.0497 229.0946 230.5420 230.5420 231.2082 231.3510 232.2182 232.2182
   233.7391 233.7391 233.8958 234.7956 235.4819 235.7938 235.7938 235.8694
   237.0422 237.0422 238.2286 238.2286 238.3143 240.9134 240.9134 241.7687
   241.7905 241.7905 242.0915 242.2507 242.2507 242.8900 243.2320 244.7639
   244.7639 248.3136 248.3136 248.4602 248.9790 250.4049 250.4049 250.9108
   253.3228 253.3228 255.8709 255.8709 258.2767 258.8907 258.8907 261.8312
   261.8312 262.1808 262.3494 264.0973 264.0973 264.6960 265.3778 265.3778
   265.7313 266.7030 266.7030 268.0477 268.0477 268.5022 270.1153 270.1153
   270.5195 271.5863 271.5863 272.4531 272.6487 272.6487 273.2214 273.3415
   273.7775 273.7775 274.7640 277.0959 277.0959 279.4924 280.5564 280.5564
   280.6220 282.3868 282.9386 282.9386 284.3367 284.3367 284.9764 285.7950
   287.1632 287.1632 287.6901 290.6221 290.6221 290.6976 292.0855 292.0855
   292.4324 293.1785 294.0197 294.0197 296.3466 296.3466 298.7762 298.7762
   299.8169 300.3730 300.5529 300.5529 302.5192 303.5200 303.5200 307.8251
   310.2153 310.2153 312.8523 312.8523 313.3376 314.0415 314.0415 314.9491
   314.9491 314.9651 315.4809 316.4763 316.4763 316.4982 317.3438 317.3438
   317.5251 318.1935 318.1935 318.4792 319.7567 319.9108 319.9108 322.5732
   323.4661 323.4661 323.5430 324.5106 324.5106 325.7623 325.9525 325.9525
   327.4771 330.1574 330.1574 330.7202 331.4800 331.4800 331.5001 331.5225
   332.0021 332.4059 332.4059 334.2544 334.2544 335.1658 335.7934 335.7934
   336.1062 337.1477 338.2085 338.2085 338.6166 338.9485 338.9485 339.3329
   339.3329 339.5274 339.8938 341.7383 341.7383 342.6682 342.6682 342.8230
   342.8230 344.3281 345.2296 346.0449 346.2881 346.2881 347.3394 347.3394
   347.4251 347.7564 347.7564 348.0569 349.7843 349.7843 350.7050 350.7861
   350.7861 350.9530 351.9379 351.9379 353.2444 353.5661 353.5661 353.8862
   354.3303 354.3303 355.8669 356.9386 356.9386 357.7115 358.0222 358.0222
   358.5853 359.0971 360.3713 360.3713 360.8547 360.8547 361.1902 361.8246
   361.8246 362.4720 362.5308 362.5308 363.0831 363.0831 363.6502 364.9538
   364.9538 366.2512 366.2512 366.2666 366.3865 366.7196 367.0390 367.4621
   367.4621 367.8882 367.8882 368.4782 369.3634 369.3634 369.8363 371.2469
   371.2469 371.6353 371.6353 371.9723 372.9308 373.6750 373.6750 373.7367
   375.3665 375.3665 375.4359 376.1325 376.1325 376.2921 376.5771 376.5771
   376.6603 376.9344 376.9344 378.0538 378.0538 378.9784 379.0372 379.0372
   379.4064 380.8858 381.3000 381.5343 381.5343 382.3184 382.3184 382.8122
   383.2344 385.1383 385.1383 386.4808 386.5416 386.5416 388.6269 388.6269
   389.0874 389.0874 389.8830 389.9169 390.8576 390.8576 391.6761 391.7013
   391.7013 392.7670 392.9853 392.9853 394.4907 396.6018 399.0515 399.0515
   399.7232 401.4697 401.4697 401.8030 403.0772 403.0772 406.4340 408.1015
   408.6317 408.6317 411.3023 411.3023 414.1397 414.1397 414.9855 417.5917
   417.5917 417.9363 417.9363 419.2306 419.2306 419.2910 419.3193 419.3193
   419.5058 420.4224 421.3848 422.3014 422.3014 423.4565 423.4565 424.2887
   425.9167 428.5290 428.5290 429.4205 429.5421 429.5957 429.5957 430.2504
   430.2504 430.4714 431.1296 431.1296 431.9187 434.0116 434.0116 435.6911
   435.6911 435.7048 436.9963 439.1546 439.1546 439.5919 441.1300 441.1300
   441.7745 441.8481 441.8481 442.0057 442.0057 442.1835 443.0348 444.8489
   444.8489 445.2784 445.6198 445.6198 445.9821 447.0314 447.5578 447.7159
   447.7159 449.3166 449.3166 449.9788 450.0504 450.0504 450.3206 450.3206
   450.8135 451.0397 451.0397 451.4012 451.7984 451.7984 452.0114 452.7743
   452.7743 453.1469 455.5736 455.6544 455.6544 455.7764 456.6144 456.6144
   458.2797 458.7960 458.8127 458.8127 460.0447 460.0555 460.0555 460.5080
   461.1385 461.1385 461.4485 462.6761 462.6761 464.6546 464.6546 464.9038
   466.2314 466.2314 467.7261 468.3728 468.3728 469.5273 469.5273 469.6561
   470.0314 470.0314 471.1713 471.3476 471.3476 471.7560 472.8172 473.5134
   473.5134 473.7790 474.8413 474.8413 475.1123 476.5852 476.5852 477.2091
   477.2091 477.4810 478.4029 479.4529 479.5299 479.5299 481.0582 481.0582
   481.8433 481.8433 482.0371 482.0943 482.9352 482.9352 483.0067 483.3625
   483.3625 483.3967 483.5943 483.5943 483.6388 486.1855 486.1855 487.0252
   487.0252 487.1124 487.2056 487.7088 488.4017 488.4017 490.6329 490.6329
   490.7089 490.9617 490.9617 491.1525 491.2942 492.2334 492.2334 492.8279
   492.8279 493.5097 493.5305 493.5305 493.7339 493.7339 493.7995 494.5721
   494.5721 494.9380 497.2682 500.0697 500.0697 500.3195 500.3195 500.4288
   502.6345 503.9619 503.9619 504.2494 505.6418 506.3972 506.8421 506.8421
   507.2585 507.2585 507.4649 507.4649 507.6713 507.6806 508.6499 508.6499
   508.6645 508.6645 508.7294 509.1982 512.6114 512.8777 512.8777 512.9949
   512.9949 514.6500 515.2592 515.2592 515.5645 517.3325 517.3325 517.3531
   518.0879 518.0879 520.4617 520.4617 520.5673 520.9132 520.9339 520.9339
   520.9990 521.1880 521.1880 521.6863 521.6863 521.8550 521.8988 522.0202
   522.0202 522.3894 523.7414 523.7414 524.5146 525.4741 525.4741 525.6147
   525.9507 525.9507 526.3687 527.3955 527.3955 527.5212 528.4397 528.4397
   528.5059 528.9123 528.9123 531.4197 531.7316 531.7316 532.2868 532.3597
   532.3597 533.2773 533.2773 533.3797 533.4093 533.4093 533.5765 533.8377
   533.8763 533.8763 534.1461 534.1461 534.1574 534.7228 535.6792 535.7890
   535.7890 536.3237 536.3237 536.3384 537.7092 537.7092 537.7489 539.6882
   541.2970 541.2970 541.3142 541.9549 541.9549 542.6000 542.7153 542.7153
   543.8783 543.8783 543.8990 543.9757 544.0359 544.0359 547.9737 547.9737
   548.0454 548.0852 548.0852 548.3210 549.9062 550.2133 550.2133 550.3771
   550.3771 550.4034 550.7804 550.7804 550.9922 551.3666 551.3666 551.5984
   551.5984 551.6590 552.2598 552.2598 552.3065 552.5651 554.0277 557.0930
   557.0930 557.8524 557.9390 557.9390 558.2974 558.2974 558.4604 559.1716
   559.1716 559.7834 559.7834 559.7845 559.8610 560.4470 560.4470 560.6214
   561.1889 561.1889 563.0526 563.0526 563.1150 563.2701 563.2995 563.2995
   563.4362 563.5694 563.5694 563.8724 567.4683 567.4683 567.6607 567.6607
   568.1014 569.6556 569.8611 569.8611 571.6019 571.6019 571.6700 571.7622
   572.9344 572.9344 573.1885 574.6786 574.6786 574.6990 576.5580 576.5580
   576.5889 581.2659 581.2659 581.2773 581.7012 581.7012 581.7475 583.9171
   583.9171 583.9257 586.6393 586.9720 586.9720 588.8933 592.5900 592.5900
   592.7528 592.9209 593.4180 593.4180 595.9652 595.9652 597.3080 598.0957
   598.0957 600.8127 600.8127 600.9850 601.9545 602.1912 602.1912 603.9362
   603.9362 604.0264 604.3276 604.5889 604.5889 606.4234 606.4234 606.5214
   606.7461 608.4582 608.4582 609.2791 610.5213 610.5716 610.5716 612.1505
   612.1505 613.1994 613.1994 613.2062 614.1096 614.3452 614.3452 615.9278
   615.9278 617.2085 618.1467 618.1467 619.1588 619.1588 619.2971 619.9555
   620.3642 620.3642 620.7340 621.1308 621.1308 622.3808 622.3808 622.4628
   623.1779 623.7319 624.2120 624.2120 624.5880 624.8050 624.8050 625.8343
   625.8343 626.0438 628.9609 628.9609 630.3186 630.4059 630.4059 631.4459
   631.4459 631.6876 631.8072 632.1342 632.1342 632.4564 632.4564 632.5511
   632.7247 633.5508 633.5508 634.2829 634.8908 634.8908 635.3453 637.4480

          k =-0.2500 0.2500-0.2500 (  2442 PWs)   bands (ev):

   -29.8474 -11.2856 -10.6940 -10.6940  -7.0547   6.2544   7.1230   7.1230
    14.0289  14.6426  14.9449  14.9449  16.7335  16.7335  23.7092  27.6935
    27.6935  28.6700  32.9358  32.9358  33.4447  35.7386  35.7386  37.3695
    40.7856  40.7856  45.9327  45.9327  48.7254  50.9859  52.4307  54.4595
    54.4595  57.6168  57.6168  58.0549  60.0296  61.6047  61.7761  61.7761
    64.4427  64.4427  65.3982  67.2418  67.2418  67.8822  70.9127  72.6478
    72.6478  73.5105  73.5105  77.0453  78.0771  78.0771  78.5813  79.4762
    79.4762  80.8164  83.9891  85.1563  85.1563  85.2564  87.5244  87.5244
    89.1020  89.1020  92.6523  94.7044  98.7796  98.7796 100.1359 100.1359
   102.2353 103.4211 103.4211 105.7100 108.5194 108.5194 108.8865 108.8865
   109.4502 112.5855 112.9695 112.9695 114.3289 117.1059 117.1059 117.2079
   120.0730 120.0730 121.1730 122.0952 122.5305 122.5305 122.6075 124.8117
   126.4141 126.4141 126.9049 127.8357 127.8357 127.9312 129.0557 129.0557
   131.9634 131.9634 132.9157 133.0573 133.0573 134.2957 135.2705 135.2705
   139.2563 140.1419 140.1419 140.9150 141.4896 141.4896 142.0664 142.7307
   144.0021 144.0021 145.1552 146.4420 146.4420 148.4409 148.4409 149.1644
   150.5022 152.3005 152.3005 153.0305 153.0305 153.0886 153.8161 153.8161
   155.0915 155.0915 155.3368 157.0378 160.2842 160.2842 161.1804 162.8795
   163.5801 163.5801 164.0587 164.6259 164.6259 166.3022 167.0633 167.0633
   167.9542 170.5003 170.5003 171.5864 173.3959 175.8053 175.8053 179.7767
   179.7767 180.4815 182.8361 182.8361 182.8473 184.5567 184.5567 186.4264
   187.5924 187.5924 189.2164 189.2164 189.3886 190.9462 192.1131 192.1131
   194.7771 194.7771 195.6798 196.4533 197.6295 197.6295 198.3446 198.3446
   199.3387 199.3387 200.5316 201.1387 201.4928 201.7558 201.7558 203.3371
   203.7382 203.7382 204.5234 204.7738 205.9553 205.9553 208.7427 208.7427
   208.7942 208.7942 210.2408 211.8381 212.3297 216.0911 216.0911 218.4026
   218.4026 218.7837 219.8032 219.8032 220.4358 221.5451 221.5451 222.4054
   223.4484 224.0816 224.0816 224.3930 224.9617 224.9617 225.7710 225.7710
   225.9435 227.5520 227.5649 227.5649 227.6907 230.2100 230.2100 230.6857
   231.0720 231.0720 231.3696 232.9893 232.9893 233.5252 233.5252 235.6996
   235.8198 236.0901 236.0901 236.8008 237.3481 239.2730 239.2730 239.5870
   239.5870 239.6429 239.7760 240.6722 240.6722 242.1337 242.1337 244.4391
   244.4391 244.8826 245.9080 246.3370 246.3370 247.4671 248.6110 249.2354
   249.2354 251.0518 251.0518 251.3008 251.4234 251.4234 252.5295 254.1082
   254.1082 255.0682 256.9005 256.9005 258.2461 258.4456 258.4456 258.4734
   260.6400 260.6400 261.0372 263.4812 263.4812 263.6072 264.2855 264.2855
   264.7397 265.4479 265.4479 265.9760 268.7574 268.7574 269.8161 270.0445
   270.9039 271.3579 271.3579 272.7478 272.7478 274.2467 274.2912 274.2912
   275.2792 275.2792 277.2462 278.5738 280.1708 280.1708 282.9081 282.9081
   283.8914 284.5334 284.5334 284.6673 285.6470 288.3894 288.3894 289.5475
   289.5475 290.5232 292.0886 292.0886 293.1277 293.1277 293.1373 294.0672
   294.1897 295.6172 296.8316 296.8316 298.4138 298.4138 299.7007 300.8764
   300.8764 301.9013 301.9013 302.0375 302.7103 302.7103 303.0740 303.1399
   303.9648 304.0565 304.0565 305.3562 305.3562 306.1467 306.5464 309.1884
   309.1884 311.0714 312.3216 312.3216 313.8930 313.8930 314.3273 314.9084
   315.8241 315.8241 316.7839 316.7839 318.3498 318.6131 318.6131 319.1638
   319.1638 319.6921 321.4131 321.4376 321.4376 324.1701 324.1701 324.9325
   324.9325 325.2458 325.6860 325.8157 327.8964 327.8964 328.2114 330.5956
   330.5956 331.9710 332.4578 332.4578 332.9625 333.0766 333.2314 333.2314
   333.8309 333.8309 336.1413 336.1413 336.3546 336.3860 337.8572 337.8572
   339.2090 339.2090 339.3790 339.6429 340.6831 340.6831 341.4307 342.0669
   342.0669 343.5630 345.8782 346.1735 346.5123 346.5123 347.8936 347.8936
   348.3319 348.3380 348.3604 348.3604 349.7500 349.7500 350.6574 350.6574
   351.7455 351.9400 352.0491 352.0491 352.4211 352.4211 352.8932 353.0810
   354.7138 354.7138 356.3636 356.5888 356.5888 356.8587 356.8587 357.3222
   358.6717 358.9062 359.2714 359.2714 360.0843 360.0843 360.6305 360.6652
   360.6652 361.4288 361.4288 361.6353 362.4379 362.4379 362.4807 363.2744
   363.2744 363.4030 364.4567 365.4223 365.6330 365.6330 367.2570 367.2570
   367.7270 367.7270 368.0308 368.9038 370.2195 370.2195 371.3449 372.6487
   372.6487 372.7167 372.7167 372.8172 372.9705 373.0273 373.0273 373.5663
   374.0111 374.0111 374.6400 374.7147 374.7147 378.5014 381.4218 381.4218
   383.5774 383.5774 384.1358 384.7789 384.7789 385.4279 386.1974 386.4599
   388.3452 388.9372 388.9372 389.0697 389.0697 389.3111 389.3111 389.3546
   389.5130 392.0562 392.0562 392.2611 393.6077 395.2219 395.2219 396.8995
   396.8995 397.1204 397.1204 397.2011 398.3029 398.3029 398.6785 399.9685
   400.8198 400.8198 401.8976 401.8976 402.5217 402.5217 403.5812 403.9922
   405.2424 405.2424 405.5130 405.5130 405.7098 406.4867 406.9761 406.9761
   407.6426 407.6426 407.7690 408.5761 408.5761 409.2020 409.8915 411.5277
   411.5277 413.3600 413.9658 413.9658 415.5312 416.4625 416.4625 417.3583
   418.6578 419.7749 419.7749 419.9588 419.9865 420.1733 420.1733 421.2158
   421.2158 421.3598 421.4076 421.4076 421.5778 424.5804 424.5804 424.9648
   424.9648 425.0057 426.5050 426.5050 428.0740 428.5220 428.5220 428.8161
   431.3647 431.3647 431.7718 432.9976 432.9976 434.4824 434.8692 434.8692
   435.8196 437.4716 438.5486 438.5486 439.1611 439.1611 439.3918 439.6103
   440.6370 440.6370 441.6294 441.6294 442.0063 442.8555 444.6864 444.6864
   445.8197 449.0308 449.0308 449.0904 450.6191 450.6191 451.7932 451.7932
   451.8739 451.9358 452.1521 452.1521 453.3273 453.3273 453.9960 453.9960
   454.3208 454.3621 455.0493 455.0493 455.1864 456.1852 457.5858 457.5858
   457.9552 458.4333 458.4333 459.4149 459.8980 459.8980 459.9888 460.4617
   460.4617 460.5491 461.1681 461.1681 461.5786 464.0145 464.0145 464.2757
   466.3925 466.3925 467.7471 467.7471 467.8191 469.6924 469.7486 469.7486
   471.1282 471.8586 472.1750 472.1750 472.3517 473.7040 473.7040 474.4610
   474.4610 475.5913 475.9242 475.9242 476.3446 477.2760 478.1933 478.1933
   479.1288 480.8068 480.8068 480.8535 481.7814 481.7814 481.8576 482.8649
   483.4324 483.4324 483.9220 483.9220 484.0774 484.1006 484.1006 484.2727
   484.7444 484.7444 485.5463 485.5463 485.5942 486.1120 486.2416 486.2416
   487.0210 487.0210 488.6597 489.5291 489.5291 490.7882 490.7882 491.2130
   491.2130 491.2696 491.4842 493.1362 493.8549 494.9504 494.9504 495.3422
   495.3803 495.3803 495.5323 495.5323 495.5499 495.9127 495.9127 497.7392
   497.7392 497.8248 498.0899 499.5141 499.5141 499.6634 499.6634 499.8819
   500.1676 500.1676 500.2435 500.4948 501.3231 501.3231 501.9544 501.9544
   502.2364 502.4017 503.1482 503.1482 503.2833 503.9082 503.9082 505.5486
   506.3465 506.3465 506.5054 507.4834 507.5128 507.5128 507.8500 507.8500
   507.9816 508.4846 509.0545 509.0545 510.5350 511.1099 511.1099 511.2636
   511.4952 511.4952 514.9700 516.6381 516.6381 516.6982 518.3236 518.3236
   518.9601 518.9601 519.5697 519.5697 519.7469 519.7570 519.7696 519.7696
   519.9485 522.2473 522.2473 522.5749 523.3202 523.3202 524.4180 524.4180
   524.4770 525.0032 526.0021 526.0021 526.8289 527.3080 527.3080 527.9996
   527.9996 528.0814 528.4504 529.9484 529.9484 530.0544 530.6610 530.6610
   530.9685 531.3626 533.2323 533.2323 533.7600 534.9088 534.9088 535.0696
   535.3987 535.4467 535.4467 536.4188 536.4188 536.5994 538.0642 538.0642
   538.1028 539.0603 539.0603 540.0498 540.3615 540.3615 541.3359 541.8632
   541.8632 541.9639 544.2176 544.2176 544.6878 544.6878 544.8676 547.5293
   547.6325 547.6325 549.3736 551.2187 551.2187 551.9147 551.9844 552.1842
   552.1842 552.3972 552.3972 552.4791 552.9523 552.9523 553.1938 553.5499
   553.5499 553.9015 553.9015 554.0848 554.0848 554.1378 554.1909 554.6557
   554.6806 554.6806 555.5339 557.9781 557.9781 558.0325 560.2655 560.2655
   561.1569 561.5646 561.5646 562.0997 562.1642 562.1642 563.3566 563.3657
   563.3657 563.4625 563.5940 563.5940 563.7547 564.8917 564.9882 564.9882
   566.4239 566.4967 566.4967 567.7158 567.7158 567.7693 568.1089 568.3222
   568.3222 572.4623 572.4623 572.6675 574.2603 575.0274 575.0274 575.2369
   575.2369 575.4022 576.0269 576.0269 576.0360 576.6766 576.6766 576.6773
   577.0625 577.8116 577.8116 578.2674 579.8049 582.4824 582.4824 583.9732
   583.9732 584.0177 584.4715 585.2020 585.2020 585.6584 585.6584 586.9238
   587.1932 587.1932 587.4310 587.4310 588.0405 590.6274 590.6274 591.3054
   591.3383 591.3383 592.1096 592.2310 592.2310 593.7565 594.2788 594.2788
   594.4268 595.0970 595.0970 595.3344 595.9272 595.9273 595.9718 597.3425
   597.3425 599.3166 599.6192 599.6192 600.6455 601.9777 601.9777 602.1910
   603.1634 603.1634 603.2937 604.9344 604.9344 607.0666 609.2071 609.2071
   610.3072 610.6880 610.9426 610.9426 612.0646 612.0646 612.7519 613.1612
   613.1612 613.2281 613.7809 613.7809 613.9576 615.0892 618.2694 619.0500
   619.0500 619.4251 619.4251 619.8483 619.8483 619.8563 619.9671 620.0373
   620.0373 620.2219 620.2219 620.3248 621.3345 621.8375 621.8375 622.0488
   623.0940 623.0940 623.2756 623.2756 623.3963 627.3354 627.3354 629.1918
   630.1781 630.1781 630.2670 630.2670 630.3957 630.9406 631.2218 631.2218
   631.4718 631.4718 631.6540 631.7249 631.7249 631.7495 631.9193 632.0593

          k =-0.3750 0.3750-0.3750 (  2440 PWs)   bands (ev):

   -29.8113 -11.6304 -10.7127 -10.7127  -6.6800   5.4532   6.7337   6.7337
    14.4793  15.7369  15.7369  15.8704  17.6873  17.6873  22.5842  25.6600
    25.6600  29.7592  32.0592  33.2719  33.2719  35.0955  35.0955  39.2906
    43.3067  43.3067  45.1167  45.1167  48.0764  51.3503  52.1843  52.7196
    52.7196  54.8919  54.8919  56.7554  58.6012  60.3653  62.8932  62.8932
    64.7017  65.2305  65.2305  66.6442  66.6442  67.3380  70.8020  71.8724
    71.8724  75.5085  75.5085  76.2959  79.1432  80.7637  80.7637  83.6283
    83.6283  85.3841  85.4833  85.4833  87.1476  89.2860  89.2860  90.5537
    90.9647  93.8252  93.8252  94.8649  94.8649  97.5274  97.5274  97.6793
    98.6390 101.3061 101.3061 101.5610 103.4633 103.4633 106.5857 106.5857
   107.2372 110.5955 110.5955 111.4248 114.0882 116.0903 116.9817 116.9817
   118.3259 118.3259 120.0677 120.7194 120.7399 120.7399 122.0862 122.7838
   122.7838 126.6132 128.1170 128.4510 128.4510 128.9276 128.9276 129.4994
   132.2415 133.2748 133.2748 135.2297 135.2625 135.2625 137.1514 137.4688
   137.4688 138.8205 138.8205 139.1246 140.4292 143.0568 143.0568 144.8134
   146.5334 146.5334 147.7683 149.8514 149.8514 150.4806 150.5961 150.8369
   150.8369 153.5155 153.6833 153.6833 154.6131 155.9672 155.9672 157.2644
   157.2644 158.0826 158.0826 159.0476 159.0476 159.6103 159.8861 160.2129
   160.8766 160.8766 162.7122 165.5973 165.5973 166.2000 169.3096 169.3096
   172.7109 173.2752 173.2752 174.4823 174.4823 175.1743 176.0474 178.0082
   178.0082 182.4040 182.4040 182.7494 183.9742 184.4478 184.4478 184.9064
   186.5995 186.5995 188.4776 188.6709 188.6709 191.1457 191.1457 191.1654
   192.8287 194.2767 194.3122 194.3122 194.4109 194.4109 196.4360 196.4360
   198.4973 198.4973 198.5192 198.9530 200.1248 200.1248 202.1294 202.1294
   202.2332 202.5031 203.1190 203.1709 203.1709 207.7286 207.7337 207.7337
   209.3207 209.9573 209.9573 210.7927 213.5759 213.5759 213.9982 215.7765
   216.0929 216.0929 217.3363 219.3209 219.3209 219.8809 220.0032 220.3659
   220.3659 220.8415 220.8415 222.0349 222.9483 222.9483 223.0009 224.0718
   224.0718 225.0211 225.0211 225.3129 227.1364 227.1364 228.3955 229.2034
   229.2034 230.5169 230.9551 232.0763 232.0763 232.7659 236.6496 236.6496
   237.2162 237.2162 238.7989 239.4610 239.9977 239.9977 240.0610 240.1443
   240.1443 241.0669 241.0669 241.1283 242.6479 243.8745 243.8745 244.7051
   244.8969 245.3793 245.3793 246.9104 246.9104 250.3947 250.6101 250.6101
   252.1431 253.5078 253.5078 253.9948 254.3775 254.3775 255.9732 256.8271
   256.8271 257.1619 259.2986 259.3764 259.3764 260.5455 260.8529 261.2036
   261.2036 262.0666 264.6464 264.6464 267.3778 267.9360 267.9360 269.3230
   269.3230 271.2279 271.2279 272.3430 272.6352 272.6352 272.8352 273.3641
   273.3641 273.9086 274.0985 274.4387 274.4387 274.5974 277.4477 277.4477
   277.8118 277.8118 278.2427 279.6321 280.7224 280.7224 281.9248 282.9845
   282.9845 284.2224 286.0938 286.0938 286.8810 287.4217 287.4217 288.1628
   288.1628 288.3660 288.7445 291.4444 291.4444 293.2941 293.2941 293.5495
   293.8748 294.9608 294.9608 295.2104 295.2104 296.2679 296.5523 297.2016
   297.2016 297.3640 297.3640 297.5438 298.0469 300.2016 301.5236 301.5236
   302.5989 302.5989 303.7458 306.1230 306.2292 306.2292 307.0538 307.0538
   307.3633 307.3633 307.9186 308.6575 312.1165 312.1165 313.8671 314.2162
   314.2162 314.3969 315.2908 315.2908 315.9587 317.7981 317.7981 318.9399
   318.9399 319.7689 320.0591 321.0305 321.0305 322.1577 322.5527 322.5527
   323.7422 323.7422 323.8016 324.2890 325.3201 325.3201 325.4795 327.0514
   327.0514 327.6431 328.1902 328.6464 328.6464 329.3093 330.9560 330.9560
   332.5717 333.2576 333.2576 334.5233 334.5233 335.1347 335.1347 335.5324
   335.7578 336.8252 336.8252 337.6499 338.0176 338.0176 338.8940 338.8940
   339.4122 340.0304 340.0304 342.5983 342.5991 342.5991 342.8526 343.7210
   343.7210 343.9520 344.7034 344.7034 344.8335 345.1797 345.7563 345.7563
   348.4927 351.9302 351.9302 354.5071 354.5071 354.5504 355.4698 356.9710
   356.9710 358.2049 358.8111 359.5138 359.5138 360.0941 360.3444 360.3444
   363.3133 363.3133 363.4309 363.6332 363.6332 363.8088 363.8171 363.8171
   364.5368 364.5368 364.6085 364.6529 364.6529 364.7686 365.1708 365.2333
   366.3337 366.3337 366.7936 367.8355 367.8355 368.3689 369.4777 369.4777
   369.5215 369.7154 369.7154 369.7213 370.7585 370.7585 370.7781 371.0859
   374.4496 374.4496 375.1487 375.1487 375.7547 375.9764 375.9764 379.7668
   380.8336 380.8336 381.5494 381.6379 381.7501 381.7501 383.4309 384.3187
   384.3187 385.3757 385.3757 385.8536 385.8551 385.8551 388.0390 388.7754
   388.7754 389.9210 389.9210 391.7193 391.7193 392.0149 392.5243 393.0601
   395.6839 396.0626 396.0626 396.8146 396.8146 398.4755 398.4755 398.6550
   398.8832 398.8832 399.2971 399.3771 399.5735 399.5735 400.1685 401.1119
   401.1119 402.4188 403.7206 403.7206 403.8689 404.7205 404.8008 404.8008
   405.8302 405.8302 406.8378 406.8378 406.8847 407.5218 407.5218 407.6829
   407.8711 408.8875 408.8875 409.0661 410.1514 411.3197 411.5866 411.5866
   413.1495 413.1495 413.3223 414.0064 414.0064 414.1642 415.0583 415.0583
   415.2643 418.2023 418.2023 418.3670 420.6899 421.3653 421.3653 422.3108
   422.3108 422.7793 422.8854 422.8854 423.6925 423.7190 423.7190 424.0683
   424.0683 424.8638 424.9481 426.6446 426.6446 427.6442 427.6442 428.1114
   428.1114 428.1331 428.2625 428.6770 429.6106 429.6106 430.7399 431.3265
   431.3265 431.8450 432.9764 434.8402 434.8402 435.0540 435.0540 435.1479
   436.2255 436.2255 438.8135 438.8135 438.9661 439.0304 439.9344 440.8089
   440.8089 442.5500 442.8799 442.8799 443.9823 443.9823 445.1009 447.4151
   447.4151 447.9136 448.9332 448.9332 449.1911 454.9314 454.9314 455.9499
   457.4069 457.6138 457.6138 457.8788 457.8788 458.2910 459.1409 459.1409
   460.6163 461.4171 461.4171 461.5839 461.9382 461.9382 462.0549 463.2282
   463.2282 465.6845 465.6845 465.8512 465.8512 466.4498 466.5259 466.7071
   466.7071 466.7244 466.9478 466.9478 467.6075 467.6792 467.9612 467.9612
   468.1618 468.1618 468.4786 470.2068 470.2883 470.2883 470.2953 472.1675
   472.1675 472.2703 472.4031 472.4031 473.8881 474.9063 474.9063 476.1115
   479.0425 479.0425 479.3253 479.9433 479.9433 480.9694 480.9694 481.0703
   481.1988 482.6170 483.1170 483.1170 483.4028 483.4028 483.6687 483.8067
   483.8067 484.6050 485.6012 485.6012 486.1977 487.4284 487.4284 487.6058
   487.9116 487.9116 488.0125 489.3247 489.4717 489.4717 489.8137 490.0988
   490.0988 491.2693 491.8319 491.8319 492.6521 493.3980 493.3980 493.6552
   493.6552 493.9477 494.3019 494.3363 494.5353 494.5353 494.8929 494.8929
   495.5434 495.5434 496.4246 496.5927 496.6690 496.6690 497.1271 497.1271
   497.7172 497.7172 497.8831 497.9880 500.6300 500.6300 500.6878 500.7867
   500.7867 500.9401 501.8232 502.2474 502.2474 503.2977 503.2977 503.3343
   504.5362 505.7141 505.7141 505.9029 505.9203 505.9203 506.1528 506.1528
   506.2921 506.5436 508.7552 508.7552 509.3666 510.4877 510.4877 512.0570
   512.0570 512.7974 512.7974 512.8620 512.9731 515.5225 515.5225 516.4271
   516.4271 516.4768 516.7343 518.3062 519.9683 519.9683 521.0061 521.0061
   522.0296 524.7170 524.7170 525.2229 525.8067 525.8067 526.1648 527.6687
   527.6687 529.2146 530.3543 530.3543 530.6274 531.1128 531.1128 531.6444
   531.8567 531.8567 533.2696 533.9356 533.9356 535.2117 535.2117 535.2345
   535.3811 535.8320 535.8320 535.9938 536.6988 536.6988 536.7286 536.9323
   536.9323 537.6364 537.6364 537.7132 537.9088 538.8854 538.8854 539.6209
   539.6209 539.7850 540.3413 540.6371 540.9808 540.9808 543.8179 543.8198
   543.8198 544.8306 544.8306 544.8864 546.7974 546.7974 548.2635 548.5418
   549.0297 549.0297 550.5365 551.3791 551.3791 552.1646 552.1646 552.2957
   552.3298 552.6664 552.9307 552.9307 553.1190 553.1190 553.6911 553.6911
   553.7313 553.9458 557.2500 557.2500 557.2662 557.4846 558.7298 558.7298
   559.9933 560.6154 560.6154 560.6668 560.6668 561.3194 561.4153 561.4153
   561.9027 562.2654 562.3418 562.3418 563.9542 563.9542 564.7132 564.9963
   564.9963 565.6207 568.5456 568.5456 568.7721 569.0094 569.0094 569.0200
   571.1932 571.1932 571.3326 572.7106 572.7106 572.7936 572.8724 572.8724
   574.6498 575.0327 575.0327 575.4490 575.4490 575.6315 576.5783 578.9474
   578.9474 579.0950 579.2914 579.2914 580.2384 580.2833 580.2833 580.5663
   580.5663 580.6834 580.7334 582.4697 582.4697 582.4822 582.6474 582.6474
   582.9791 582.9791 583.0887 583.2563 583.8862 583.8862 583.9436 585.0461
   585.0461 586.3653 589.8223 589.8223 591.9326 591.9766 591.9766 592.0057
   593.6506 593.6506 593.8689 593.9360 593.9360 594.3047 594.5146 594.5548
   594.5548 594.7339 595.1757 595.1757 596.4399 596.4399 597.6178 597.7466
   597.7466 597.9660 598.9325 598.9325 599.0241 602.9702 602.9702 603.1819
   605.0774 607.1532 607.6912 607.6912 608.3103 608.3103 609.3377 609.5031
   609.5031 609.6818 609.9096 609.9096 609.9460 610.1849 610.1849 610.3431
   610.3431 611.1814 612.2869 612.5531 612.5531 612.7931 612.7931 613.3078
   613.5615 613.5615 613.6776 613.8199 613.8199 613.8478 614.0408 615.8996
   615.8996 616.3411 616.4731 616.4731 617.0179 617.7726 617.7726 617.9146
   618.1025 618.1025 618.1931 618.6063 618.6063 618.7886 620.7021 620.7021
   621.6254 621.6254 621.7415 622.0991 624.2619 624.2619 625.0509 625.2506
   625.2506 625.5004 625.6893 625.6893 627.0107 627.0107 627.0501 628.0106

          k = 0.5000-0.5000 0.5000 (  2452 PWs)   bands (ev):

   -29.7963 -11.7600 -10.7204 -10.7204  -6.5369   5.1539   6.5853   6.5853
    14.8129  16.1041  16.1041  16.2927  18.1593  18.1593  21.9925  24.7363
    24.7363  29.9151  31.9809  33.8140  33.8140  34.4062  34.4062  41.3381
    44.6400  44.6400  44.8730  45.1937  45.1937  50.6265  50.6265  51.9133
    53.0114  54.6133  54.6133  56.9335  57.1718  60.7869  62.5738  62.5738
    64.8487  65.2525  65.2525  66.6134  68.1044  68.1044  70.5615  71.0953
    71.0953  75.3473  76.8579  76.8579  80.3146  81.0788  81.0788  85.3818
    86.8712  86.8712  87.7958  87.7958  88.5883  88.5883  90.9187  90.9187
    91.5929  92.9379  92.9379  92.9965  94.0583  94.0884  94.8460  96.6092
    96.6092 101.4251 103.2082 103.2082 104.2600 106.6316 106.6316 106.7350
   106.7350 107.3744 107.3744 110.6234 110.6234 114.0459 114.3109 117.1875
   117.1875 117.2251 118.5670 120.2477 121.4551 121.4551 121.9303 122.1675
   122.1675 124.8167 128.2132 128.2132 128.4620 129.4421 131.2648 131.2648
   132.3236 132.5832 132.5832 133.6555 135.2345 136.1008 136.1008 138.8521
   138.8521 141.0096 141.3400 141.3400 142.6032 142.6032 142.8112 142.8112
   143.7754 145.1647 145.9919 148.1760 148.9178 148.9178 149.2486 152.2053
   152.2053 154.5787 154.5787 155.6023 156.4937 156.4937 158.0075 158.0075
   158.3594 158.4381 160.1796 160.1796 160.4021 162.1265 163.5428 164.2171
   164.2171 164.4840 164.4840 167.1136 169.8476 169.8476 169.8675 169.8675
   171.8424 171.8464 171.8829 171.8829 172.6458 172.6458 174.2740 174.2740
   180.1459 180.1459 180.1946 180.6898 180.6898 181.2159 184.5068 184.5068
   184.7267 184.7267 184.7417 184.8827 186.2998 186.2998 186.6163 189.4545
   192.3343 193.0733 193.0733 194.5769 196.3753 197.4807 197.4807 200.2030
   200.2030 201.0927 201.0927 201.4877 202.7701 203.0571 203.7843 203.7843
   205.3198 205.9312 205.9312 207.0753 207.0753 207.6905 208.4488 208.4488
   209.2465 209.2465 209.3108 209.5706 209.8164 209.8164 210.2044 210.2044
   211.2405 212.1000 216.2424 216.2424 217.4414 219.4841 219.7705 219.7705
   221.1571 221.1571 221.4864 222.3058 222.3608 222.3608 222.8359 223.0682
   223.0682 223.4943 223.4943 224.8231 225.0464 225.0464 227.7513 227.7513
   228.8474 229.3374 229.3374 230.7599 231.5798 233.5764 233.6176 233.6176
   234.2498 234.2498 234.2906 235.8630 241.9941 242.5487 242.5487 242.7012
   242.7012 243.3702 244.4223 244.8715 244.8715 246.8552 246.8552 247.1566
   247.4568 247.5937 247.5937 248.8060 248.8060 250.0870 250.2084 250.2084
   250.3866 250.5990 250.5990 250.7234 252.7145 254.1731 255.5517 255.5517
   255.5844 256.0168 256.0168 262.9124 262.9124 263.2424 263.2424 266.4535
   267.4052 267.4052 267.6675 269.2166 269.2166 271.6121 272.8988 272.8988
   273.4566 273.4615 273.4615 273.5223 273.6346 273.6346 273.7635 273.7635
   273.9520 273.9520 274.0113 274.1720 274.1750 276.8764 277.5052 278.5563
   278.5563 282.4343 282.9993 282.9993 284.0339 284.0339 284.2244 284.6030
   285.2190 285.2190 285.2902 285.2902 285.4680 285.4680 285.6681 285.6681
   285.7954 286.8680 287.0566 287.0566 287.0776 287.5306 288.0742 289.0999
   289.0999 289.1447 289.1447 290.6733 290.6736 294.9736 299.6293 299.6293
   299.8329 299.8329 300.7656 300.8855 300.8855 301.2335 301.2867 301.2867
   303.7819 303.7819 304.5551 304.5927 304.5927 305.0534 305.0534 307.7429
   307.7429 308.7084 309.1819 309.1819 310.6207 312.3957 312.3957 312.4640
   312.4640 312.5024 312.7171 312.7292 313.7794 313.7794 313.9411 314.0988
   315.2762 315.2762 315.7867 317.9399 317.9399 318.6886 318.6886 319.8869
   322.9477 322.9477 323.6402 324.2113 325.1494 325.1494 325.6239 325.6239
   326.0105 326.0105 326.1074 326.6280 326.8347 326.8347 326.9859 328.9522
   334.4311 334.7407 334.7407 335.4911 335.4911 336.9179 336.9179 337.7631
   337.8143 337.8270 337.8270 337.9262 338.5238 338.5238 339.1193 339.7848
   339.7848 340.3232 340.6038 343.8139 343.8139 344.4870 344.4870 345.1364
   345.6352 347.4683 347.4683 348.2509 349.0020 349.3389 349.5347 349.5347
   349.9202 349.9202 350.5016 350.5016 350.5616 350.5616 350.9347 352.5141
   353.3863 353.3863 354.3298 354.3298 355.4280 355.6204 355.6204 359.2436
   359.2436 360.3156 360.6892 361.3012 361.3012 362.3317 362.7404 362.7404
   363.2199 363.5335 363.5335 365.1032 365.2828 365.2828 365.3802 365.3802
   365.6503 366.9301 368.4571 368.4763 368.4763 368.4915 368.4915 368.5649
   371.4927 372.4112 372.4112 374.8358 374.8358 376.5173 376.5173 376.9611
   377.7583 377.7583 378.0343 378.0363 381.7749 381.7959 381.7959 383.4733
   385.0927 385.0927 386.1959 386.1959 386.3348 388.8273 388.8273 388.9418
   389.2812 389.2812 389.4829 390.0796 390.0796 390.1428 390.1826 391.3254
   391.7451 391.8810 391.8810 391.9837 391.9837 392.0951 392.8325 392.8325
   393.0267 395.7904 395.7904 396.3416 396.3416 397.6896 397.7035 397.7035
   398.2570 398.2570 398.7145 399.6532 399.6532 399.8391 400.8516 402.0775
   402.8448 402.8719 403.3548 403.3964 403.3964 403.4191 403.4191 403.6687
   403.6687 403.7980 403.7980 404.0343 404.0343 404.1451 404.1873 404.1873
   404.2044 405.4785 405.4785 405.6184 405.6520 405.6520 405.7935 409.3080
   414.4484 414.4484 415.2445 415.5355 415.5355 415.8378 416.0219 416.0219
   416.8307 417.1179 417.1179 417.1198 417.1198 417.4646 417.4646 417.4733
   417.5684 418.9331 418.9575 418.9575 419.1347 419.1347 419.1485 419.1488
   426.3901 426.3901 426.7908 428.2884 428.6462 428.6462 428.9345 428.9345
   429.0008 429.1690 429.1690 430.7442 432.1786 436.0728 436.1271 436.1271
   437.5354 438.9063 438.9063 438.9306 438.9306 440.1478 440.1478 440.2820
   440.2820 440.5570 440.5726 440.5726 440.7874 440.7874 440.8257 440.8267
   441.9216 442.0295 442.0295 444.4947 444.4947 444.5401 444.5401 444.9017
   446.2983 446.2983 448.3261 448.3261 450.1546 453.1133 453.4732 453.4732
   453.9201 453.9201 453.9547 454.3349 454.3349 454.3845 454.3845 455.9336
   458.0294 458.5756 458.5756 458.5944 458.5944 458.8273 458.8292 459.1881
   459.1881 460.8600 460.8600 461.0674 462.7194 462.7355 462.7355 462.7774
   462.8550 464.1996 464.5621 464.5621 466.1045 466.2196 466.2196 470.5938
   470.5938 470.6556 470.6556 471.5966 476.0890 476.0890 476.9725 476.9725
   477.0387 478.1237 478.1237 478.7620 478.8531 478.8531 478.9651 479.1376
   479.1376 479.9381 479.9381 479.9951 480.0010 480.0120 480.0120 480.0130
   480.3821 480.4057 480.4057 480.9400 481.2828 481.2828 481.3413 481.3547
   481.3547 481.8171 482.1544 482.2118 482.2118 482.3151 482.3151 482.8564
   482.8564 483.0860 483.1782 483.2763 483.2763 484.2529 484.2529 484.2768
   484.2768 484.2790 484.4451 485.3941 488.9275 488.9275 490.7421 490.7421
   490.8971 492.6364 493.2578 493.2578 493.3537 493.3537 493.4013 493.8733
   495.9781 496.0103 496.0103 496.1865 496.1944 496.1944 498.5778 500.8101
   500.8101 502.5586 502.5586 504.9544 505.4409 505.4409 506.3439 506.3439
   506.4582 506.5191 506.5476 506.5476 506.8768 506.8768 506.9142 506.9901
   507.2268 507.2268 507.4666 507.4666 507.6003 507.6319 508.4133 508.4133
   508.6937 509.0286 509.0286 509.3909 509.3909 509.4915 509.4991 509.4991
   509.5285 511.3707 516.2220 517.4769 517.4769 518.8711 518.9660 518.9660
   519.3688 519.8557 519.8557 519.9859 519.9859 520.8825 520.8825 521.0191
   521.3112 521.3150 521.3150 521.4241 521.4241 521.5768 521.5786 521.6606
   521.6606 522.4361 523.9142 528.0149 529.6132 529.6132 530.7491 530.9533
   530.9533 532.1924 535.0920 535.0920 535.3467 535.3467 535.6250 535.6250
   535.6803 535.6831 535.6831 535.7202 537.7658 537.7658 539.7390 541.6857
   541.6857 541.7635 542.1311 542.1311 542.2572 542.4640 542.4640 543.7901
   544.2309 544.2309 544.2349 544.3373 544.3373 544.6895 544.7206 544.7240
   544.7240 544.9641 544.9641 545.3506 545.4795 546.3951 546.3951 546.5239
   546.5239 548.0285 548.5996 548.5996 548.6516 548.7043 548.7043 548.7416
   550.0511 551.1302 551.1302 552.7192 552.7192 556.1933 558.1494 558.1494
   558.5481 558.6090 558.6090 559.0007 559.4213 559.4740 559.4740 559.8360
   559.8360 559.8689 559.8689 559.9680 559.9680 560.0373 560.0376 561.7299
   562.7435 562.7461 562.7461 562.7564 562.7564 562.7848 569.7327 569.7327
   569.9323 571.1451 571.1889 571.5356 571.5356 571.5395 571.5395 571.9123
   571.9123 571.9888 571.9888 572.0692 572.0692 572.1001 572.1910 572.9094
   574.0556 574.0556 574.6388 575.1101 575.1101 575.3110 575.3111 575.3976
   575.3976 576.4735 576.4735 579.8686 581.7826 582.9682 582.9682 583.7911
   584.5612 584.5612 584.7272 585.0624 585.0714 585.0714 585.1346 585.2961
   585.2961 585.4120 585.4120 585.4392 585.4392 585.5918 585.8771 587.6726
   592.3426 592.3426 592.6368 593.9621 593.9621 594.9445 595.0655 595.0655
   595.1233 595.2332 595.2332 596.0654 596.0654 596.1327 596.1327 596.5644
   596.5646 596.5866 596.5866 596.8035 596.8346 596.9783 596.9783 597.0160
   597.0160 597.0471 597.1382 597.2013 597.2013 599.0199 599.1520 599.1786
   599.2870 599.2870 599.3272 599.3272 600.6671 600.6671 600.6760 600.6760
   600.6775 600.7104 600.7104 600.7154 600.7154 600.7590 600.7689 600.7705
   611.8952 611.8952 611.9540 612.4621 612.4621 612.8230 612.8659 612.8659
   612.8971 612.8971 613.0305 613.0353 613.2034 613.2773 613.3256 613.3256
   613.3726 613.3726 616.1438 616.1438 618.9922 619.3677 619.3677 621.4118
   622.9711 622.9711 623.0181 623.1007 623.1007 623.1183 623.8240 623.8240
   624.3173 624.4653 624.4653 624.5647 624.7659 624.7716 624.7716 624.7911
   624.7911 624.8042 624.9694 624.9694 625.3668 625.3668 625.4182 626.2097

          k = 0.0000 0.2500 0.0000 (  2461 PWs)   bands (ev):

   -29.8783 -10.8766 -10.7003 -10.7003  -7.4572   6.9532   7.6605   7.6605
    13.2555  13.4762  14.5608  14.5608  15.6438  16.3000  23.6686  28.8364
    28.8364  30.7144  30.9980  35.2099  35.4992  35.8605  35.8605  36.8244
    36.8244  38.8071  46.2833  46.5297  49.2742  49.2742  53.4803  55.6347
    56.0691  56.0691  57.5237  57.6867  62.5620  62.5620  64.2322  66.0074
    66.3068  66.3068  67.8295  67.8295  68.1030  68.4051  69.1302  69.8951
    70.8980  73.9278  73.9278  74.2122  76.0149  76.0149  76.6866  77.3835
    78.0657  78.0657  79.1073  79.3727  84.1477  84.7875  84.7875  87.3224
    87.3274  88.0921  88.0921  97.6803  99.7558  99.8286  99.8286 102.2126
   102.9388 109.5357 109.5357 111.7054 111.7054 111.7270 112.6950 113.2521
   114.4919 114.4919 114.8862 114.8862 115.2712 116.0968 117.6279 117.6434
   119.9535 119.9535 119.9659 120.1507 122.7663 122.9804 124.1562 124.1562
   126.5834 126.6294 126.6294 126.7459 126.9152 128.4548 129.6316 129.6316
   129.9127 130.9510 132.9202 133.1380 133.1380 134.4594 134.4594 134.7991
   135.2848 136.0200 136.1518 137.2519 137.2519 140.0495 142.3915 142.5009
   143.4367 143.4367 144.2206 144.2206 146.2463 147.4526 147.4526 147.6349
   148.3286 149.0812 149.8988 150.4571 150.4571 154.8314 154.8314 157.6520
   157.7467 159.6664 159.6664 160.0099 160.2610 160.3766 160.6028 160.6028
   162.0192 164.5533 164.5533 164.7360 165.6324 166.9436 167.1216 167.1216
   170.8671 170.8671 171.0079 171.0423 172.5284 172.8025 175.6100 175.9454
   175.9454 179.4069 179.4069 179.6466 180.5019 180.8573 181.1538 181.4286
   181.4286 182.4894 184.1637 187.8849 187.8849 188.6234 188.6234 189.2848
   194.3792 195.3522 195.7428 197.5256 197.5256 201.6023 201.6023 203.4832
   203.7954 205.2589 205.2589 205.3700 208.1983 209.0159 209.2152 209.8508
   209.8508 210.2005 210.3553 210.3553 211.9969 212.4025 213.0678 213.0678
   213.9324 215.8743 216.3827 216.9313 216.9313 217.4708 218.0286 218.0286
   218.4113 218.8775 219.8105 220.3765 220.3765 220.6559 220.9162 220.9162
   221.3943 221.7088 221.7088 222.4744 223.4931 223.9210 224.3380 224.3380
   224.6889 225.1071 227.1177 227.3406 227.8165 227.8165 229.4491 229.9192
   229.9192 230.6202 230.6202 230.8627 231.1491 231.5923 232.9746 234.0006
   234.0006 234.7244 234.7244 236.2639 236.3200 236.8375 236.8860 236.8860
   237.7441 238.2325 239.7311 241.0962 241.2357 241.2357 242.7699 243.5086
   243.5086 243.6629 243.7490 244.1670 245.1186 245.1186 245.6224 246.0821
   246.0821 247.0375 249.4200 250.1276 250.1309 250.1309 252.9696 253.6621
   253.6621 254.2282 254.2801 254.2801 254.5487 254.6640 256.4966 261.0742
   261.0742 261.0817 261.6406 261.8706 261.8706 261.8958 263.6337 263.9107
   264.2641 264.2641 264.2908 265.5422 267.0937 267.1291 267.1291 267.2908
   270.4184 270.4184 272.6225 272.6225 273.3345 274.8958 276.2589 276.2589
   276.4635 276.8871 276.8871 277.1013 277.4716 278.3091 278.7374 282.3883
   284.2883 284.7456 284.7456 285.9371 285.9371 285.9563 286.2944 286.7281
   289.0819 289.5088 289.5088 289.9476 290.1390 290.1390 291.4355 291.8965
   292.0235 292.0235 293.0197 294.0766 294.8295 295.5522 295.5522 300.5384
   301.5932 301.7117 301.7117 302.3394 302.3394 302.4513 305.5574 305.5574
   306.0062 306.2364 306.3048 310.8272 310.8272 311.1816 311.3073 311.4533
   314.7442 314.7442 315.0640 315.1114 317.1831 317.1831 317.7555 318.6019
   318.6019 318.8536 318.9315 318.9711 319.1392 319.1392 322.1043 324.8597
   324.8597 325.6644 326.3822 326.3822 326.7642 326.9640 327.3441 327.5452
   327.5452 328.3173 328.6976 330.8288 330.8325 330.8325 332.0919 332.4401
   332.6126 332.6126 332.8386 334.5592 334.5592 334.7006 335.4747 335.5601
   335.6464 335.6910 335.6910 336.5842 336.7080 336.7080 336.8421 337.9509
   340.0770 340.0770 340.0996 341.5686 341.7453 341.7453 341.7559 343.0065
   345.0908 345.5331 345.5331 346.7148 346.9364 346.9364 347.0818 347.1644
   347.1644 347.1884 347.2514 347.5872 347.7123 347.7123 348.2976 350.9283
   350.9283 351.6713 351.8980 352.0316 352.0316 352.3407 352.3407 352.6712
   353.5108 353.9352 354.5841 355.1715 355.1715 355.9030 356.1195 356.1195
   356.1541 356.9981 359.2351 359.4180 359.6073 361.0437 361.0437 361.7252
   361.8719 361.8719 362.7965 363.0808 363.0808 363.0900 365.4215 365.7074
   365.7074 365.9539 366.2484 366.7670 367.3588 367.4637 367.4637 367.5955
   368.4004 368.4004 370.2300 371.3350 371.3350 371.4857 371.4857 371.5400
   371.9381 371.9381 371.9422 372.0987 372.3267 372.4161 373.2000 373.3200
   373.3514 373.3514 374.9689 375.2486 375.4561 375.4561 375.6374 375.6633
   377.3660 377.8969 377.8969 378.0385 378.2565 378.2565 380.7455 381.9218
   381.9866 381.9866 382.3232 382.3552 383.0578 383.9073 383.9073 384.5192
   386.2464 386.2464 386.5834 386.6272 386.7835 386.7835 386.8955 387.9317
   390.3314 392.9547 392.9547 393.5602 393.7803 393.9364 393.9364 395.1091
   396.0982 397.0144 397.0144 397.3775 398.1296 398.1541 398.1541 398.9507
   400.1371 400.4274 400.4274 402.5188 404.6857 407.1122 407.1122 407.2913
   407.4510 407.4510 408.2526 408.4568 408.6251 408.6251 409.4839 413.2021
   413.2021 413.7529 415.3391 415.7778 419.1623 419.1623 419.7595 420.0663
   421.0806 421.1683 421.1683 421.2063 422.9349 422.9349 423.5197 423.8286
   425.7584 426.5363 426.5363 427.2269 427.3306 428.6132 428.6293 428.6293
   431.4251 433.3490 433.3490 434.4877 434.5134 435.3859 435.8178 435.8178
   435.9117 437.3913 437.3913 438.3232 438.3740 439.2516 439.2516 439.6349
   439.6786 440.4263 440.4263 440.7707 440.8695 440.8695 440.9148 440.9987
   441.4583 442.3673 442.3673 443.9356 444.0867 444.7581 444.8476 444.8476
   445.2728 449.9847 449.9847 451.3279 452.3176 452.8680 452.8680 452.9077
   453.0772 453.0772 453.1467 453.5459 453.6441 456.5768 456.7829 456.7829
   456.9728 457.7665 457.8662 457.8662 458.1143 458.1143 458.1973 458.5339
   459.0369 459.2710 459.7448 460.3067 460.3067 460.5868 461.9105 461.9105
   462.4346 462.4346 462.5538 463.1728 463.4195 463.7138 463.7138 463.9061
   465.2064 465.2064 465.4096 466.5833 467.3800 468.2940 468.2940 469.1842
   469.5136 469.5136 469.6055 470.0763 470.0882 470.1585 470.1585 470.1767
   470.5833 470.7087 470.7087 470.8304 471.6381 471.8389 472.3164 472.3164
   472.7234 472.8697 472.8697 472.8876 475.4125 479.1581 479.1581 479.2104
   479.3942 480.0265 480.0266 480.0266 480.0869 482.0403 482.0403 482.5056
   482.7603 483.3773 486.9555 486.9555 487.1183 487.3020 487.5507 487.5507
   488.5635 488.5635 488.6398 489.3958 490.0125 490.1116 490.1523 490.1523
   490.2998 490.9338 490.9338 491.0359 491.0534 493.8104 495.5038 495.5038
   495.9367 496.9221 498.2551 498.6019 498.6019 498.9077 499.7010 499.7010
   500.4402 501.1769 501.9123 501.9123 502.1337 502.5954 502.9324 502.9616
   502.9616 502.9921 505.4559 505.4559 507.3672 507.3672 507.5559 508.7035
   508.9519 508.9692 508.9694 508.9694 509.1878 509.1878 509.2342 510.1801
   510.6228 510.6228 511.4823 511.8082 511.8082 512.0527 512.6776 512.7226
   512.9059 513.2005 513.4053 513.4053 513.4964 513.5453 513.5503 513.5503
   513.6975 514.0322 514.0322 514.1535 515.9236 515.9981 516.9942 516.9942
   517.8950 518.1977 518.2236 518.2236 518.4633 518.6353 518.6353 518.6799
   520.0269 520.0269 520.0608 520.0999 522.3350 524.0187 524.1210 524.1210
   524.4298 526.7748 526.8387 526.8387 526.8954 527.8443 527.8443 527.9563
   528.0413 528.0788 528.0788 528.1483 528.5307 528.6709 528.6709 528.6735
   529.5596 534.7810 534.7810 534.7908 534.9019 535.7839 536.1331 536.1331
   536.4410 536.7950 536.7950 536.9031 537.0236 537.1182 537.1711 537.1711
   537.1983 537.9250 539.3888 539.3888 540.5515 540.7114 540.7114 540.8501
   541.4982 543.3226 543.3226 543.8292 543.8398 543.9125 543.9125 543.9784
   544.1784 545.3499 545.5628 545.5628 545.5734 546.5534 546.5534 547.1490
   547.2219 547.7690 548.5836 548.5944 548.5944 548.7299 550.3557 550.3557
   550.4795 550.5468 550.6146 550.6146 550.6274 550.7578 551.7154 551.7458
   551.7458 551.7501 551.9624 551.9624 552.7793 555.2041 555.2041 555.3092
   555.5629 555.7816 555.7880 555.7880 555.8744 556.2497 556.2686 556.2686
   556.4031 556.6545 557.3806 557.3806 557.5225 557.6437 560.6825 560.6990
   560.7257 560.7257 560.7863 563.2240 563.2240 564.5995 564.7786 564.7786
   565.5745 565.7075 566.2179 566.2179 569.4030 569.4030 570.7630 570.8451
   570.8752 570.8752 570.9116 571.7775 572.7939 576.6893 576.6893 577.8197
   578.5267 579.0635 579.3119 579.3300 579.3300 580.5219 580.5219 580.9983
   582.2490 583.5953 583.6421 583.6421 583.6630 586.1686 586.5376 586.5376
   586.7207 589.0374 589.0374 589.1294 589.7061 589.7510 590.0075 590.0075
   590.2608 592.5886 592.6122 592.6122 592.6382 593.1102 593.1102 593.4440
   593.5864 594.7491 594.7491 594.7803 594.7896 601.5109 602.1085 602.1085
   602.1109 602.1185 603.4834 603.4834 606.0324 606.1447 606.2795 606.5842
   606.5842 606.7100 607.7314 607.7314 608.0709 609.1198 609.5795 609.6377
   609.8520 609.8520 610.4058 610.4058 610.5072 612.7815 612.7815 613.7276
   614.2768 614.3120 616.0937 616.5214 616.5214 617.3492 619.2240 620.7731
   620.8189 620.8189 620.8903 621.1067 621.1067 621.7902 621.7902 621.9375
   622.2891 623.1697 624.4175 624.4175 624.5066 625.1070 625.3951 625.7094
   625.7094 625.9706 627.4329 627.4329 629.6206 629.8079 629.9209 630.0101
   630.0101 630.0983 630.8427 630.8427 631.1509 631.5086 631.8699 631.8699
   632.1636 632.2921 632.3976 632.6193 632.6193 632.7344 633.8114 636.0647

          k =-0.1250 0.3750-0.1250 (  2441 PWs)   bands (ev):

   -29.8497 -11.1636 -10.7314 -10.7174  -7.1702   6.3180   7.3010   7.4042
    13.2860  14.2268  15.1352  15.2325  16.1241  17.1471  24.1987  27.2815
    27.4820  29.6014  31.0791  34.0841  34.6518  35.7240  36.0444  37.6265
    39.0328  40.9454  44.8154  47.4243  48.5917  49.1201  53.6482  54.5581
    55.0935  56.2242  58.4498  59.2537  60.4439  60.8746  61.3571  62.7441
    63.3706  65.2105  65.6544  66.7255  67.7434  70.2733  70.6860  71.6664
    72.3948  72.9527  74.0131  75.6091  75.7290  77.2647  78.3945  80.6590
    81.3384  81.5301  82.6178  83.6065  85.0876  85.3073  87.2724  87.7340
    89.1880  89.7723  91.8982  94.8282  98.7288  99.0713  99.5572  99.9103
   102.2787 104.9372 105.1047 106.7016 106.9031 108.1516 108.5402 111.5629
   111.9635 112.0644 112.3593 113.8871 115.0200 115.7895 116.4035 116.7922
   118.2406 119.0956 119.2604 120.4754 121.6857 122.7983 124.5530 125.3223
   125.3875 126.6922 127.4673 127.7639 128.7876 129.5389 129.8182 131.4817
   132.1333 133.0808 133.7238 134.0328 134.3813 135.4053 136.1330 136.3008
   137.7502 137.9460 138.4231 138.7457 139.7470 141.7582 142.0753 142.9051
   142.9696 144.1822 144.8824 145.3778 146.2455 147.0446 148.0870 148.1808
   148.9990 149.5596 150.1074 151.1731 151.8619 153.8460 154.3269 154.6840
   154.7968 155.0214 157.0283 157.0350 160.4272 160.9766 161.5777 163.5233
   163.7094 164.1407 164.7631 165.0843 166.4695 168.2850 170.0075 171.3351
   171.8547 172.6489 172.6890 173.1227 173.9175 174.8574 176.6395 177.2803
   177.5365 178.5310 178.9348 180.2517 181.2856 182.7672 182.9196 183.8189
   185.5409 186.2461 187.5186 188.5844 190.1270 191.0392 191.5925 192.8557
   193.6505 194.8817 195.6032 196.2044 196.8464 197.3499 197.5567 199.5068
   199.7289 200.5792 201.2702 201.3004 203.5623 203.9854 204.7261 204.8195
   205.9213 206.0865 206.2119 206.3575 206.9038 208.5755 209.2638 209.7370
   210.0234 210.6735 211.2595 211.6806 212.3805 213.8711 214.3051 215.6356
   215.9376 217.0430 218.0342 218.5480 218.9808 219.3982 220.2690 220.4450
   221.1192 221.5741 222.3364 222.8185 223.5383 223.7610 224.2561 225.4481
   226.3641 226.5350 227.2261 228.1015 229.4064 229.9964 230.4365 231.0842
   232.0930 232.7665 232.9227 233.3990 233.6292 234.0113 234.1391 234.9767
   235.5110 236.9334 237.0564 237.1341 238.2564 240.0086 240.3603 240.7781
   241.5014 241.7256 243.0541 244.0317 244.1398 244.8526 245.2879 245.7507
   246.1891 246.6717 247.0623 248.0679 248.2904 248.5954 249.3199 249.4794
   249.7682 250.4872 250.5411 250.6357 250.7001 251.4848 253.1898 253.6705
   254.2744 254.2951 255.0340 255.4321 255.7948 256.6170 257.0234 257.2789
   258.4324 258.9681 259.2689 259.7065 260.1752 260.4620 260.9565 262.3335
   262.4287 263.7020 264.3670 264.8553 265.8534 266.5905 266.6669 268.1243
   270.6614 271.2662 273.4520 273.9050 274.2498 274.8256 275.7528 277.7013
   277.7021 278.5067 279.3907 280.3162 280.5165 281.4724 281.8982 282.2401
   283.2241 284.0688 284.6688 285.1658 286.0739 286.3395 287.1681 288.6463
   289.6152 290.5171 290.5308 291.2800 292.5142 293.0655 293.1253 293.4808
   295.7965 295.7967 295.9467 296.9031 297.2389 298.8148 299.0930 299.7890
   300.0151 300.3080 300.8758 301.2204 301.7358 303.0279 303.0429 304.0112
   304.0951 304.3795 304.8096 306.5690 306.9682 307.9993 309.0656 309.5781
   311.1438 311.5428 312.7189 312.9800 314.0498 314.6184 315.2563 315.6251
   316.0104 316.0208 317.5078 317.6716 318.3154 318.4119 318.6792 319.3641
   319.6464 321.3091 322.3177 322.3446 323.2295 324.1630 324.4769 325.8177
   326.5751 326.5890 327.4171 327.7510 328.1962 328.4119 328.5282 331.6256
   331.7118 332.4680 333.5973 333.8379 333.9027 334.0971 334.1536 334.7546
   334.7803 335.3624 335.7262 336.2839 336.3312 336.7748 337.4026 337.6310
   337.6992 338.4103 339.1679 340.3168 340.5574 341.1962 341.5190 342.6640
   342.7966 343.4340 343.9851 344.5822 345.4553 346.0497 346.3573 346.5758
   347.7538 348.0312 348.0831 348.2510 348.3600 348.5623 348.9061 349.2393
   349.3499 349.7749 349.9544 350.2610 350.6136 351.0856 351.2916 351.6856
   353.3741 353.9770 354.1997 354.8321 354.8646 355.4182 355.5018 355.6117
   355.7011 356.4266 357.0452 357.7231 358.0771 358.4037 358.4522 359.1635
   360.3717 362.4327 362.5415 362.9548 363.1246 363.2341 364.3455 364.7295
   364.7971 364.9367 365.8063 366.0832 366.6820 367.0590 367.3311 367.6622
   368.1393 368.4262 369.2550 369.4583 369.4732 369.7568 369.9049 371.4009
   371.5789 372.9473 373.1232 373.6561 374.0858 374.9935 376.0370 377.0960
   377.6901 378.1606 378.3151 379.8694 380.4559 380.6313 381.1143 381.7454
   382.3741 382.6443 384.0243 384.3352 385.5185 386.4073 386.9493 386.9733
   387.2636 387.4829 387.9898 388.0218 388.2462 389.4659 389.4688 389.9124
   390.0395 391.7788 392.4438 393.3450 393.3868 393.6352 393.8631 394.2310
   394.2867 394.4733 395.4546 396.5700 396.8241 397.5390 398.1255 398.7199
   398.9471 399.4358 400.1005 400.4935 401.0368 401.9957 402.2546 402.5710
   402.9023 403.1654 403.4688 404.8043 405.2926 405.5975 405.7616 406.7551
   407.9686 408.2865 408.5609 409.1089 410.4371 411.0855 411.1284 411.3750
   412.6006 412.7779 413.2709 413.4725 414.0686 415.8443 416.1241 416.2703
   416.7809 417.0124 418.7393 418.9617 419.7681 420.4952 420.9723 421.2895
   421.4882 421.5408 422.3234 422.8560 423.6516 424.3084 425.3738 425.4602
   425.5225 426.0740 427.2210 428.3141 429.8450 430.2453 431.3276 431.9776
   432.1264 432.4903 432.7642 434.3207 434.9567 436.4492 436.5565 438.3986
   438.4549 438.8387 439.4131 439.6984 439.8691 440.6644 441.3068 441.4724
   441.8428 442.5827 442.9669 443.6904 443.8728 444.6916 444.9944 445.2508
   445.8632 445.9881 446.5693 448.1048 448.4289 448.6463 448.9952 449.8772
   450.7772 451.9499 451.9560 452.1680 452.4128 452.8177 452.8193 453.8999
   454.4509 454.8642 455.5684 456.9825 457.8254 458.0498 458.4180 458.5195
   459.5454 459.7927 460.0686 460.4505 460.6843 460.8881 461.5459 461.6700
   461.7187 461.9356 462.4496 462.4566 464.0016 464.0765 464.6888 464.8134
   465.1209 465.5974 465.6548 465.6579 465.9954 467.7068 467.7325 468.1591
   468.2968 468.9761 469.2309 469.5015 469.7559 470.0579 470.7064 471.7589
   472.0985 472.5191 473.4367 473.8321 474.1122 474.1334 474.5469 475.4816
   476.3958 476.5900 476.7963 476.9482 479.4754 479.6222 479.9937 480.0616
   480.1100 480.5557 480.6243 481.2404 481.6875 481.7031 481.9049 482.4851
   482.5855 482.8151 484.2401 484.4882 484.7496 486.5991 486.7090 487.0802
   488.0352 489.7620 489.8532 490.6939 491.6036 491.6783 492.1459 492.6779
   492.7218 493.7868 493.8483 494.1901 494.3278 495.0081 495.1711 495.7989
   496.4100 497.2378 497.6631 497.8730 498.6344 498.9643 499.5367 499.5698
   499.7853 500.0183 500.0595 500.4221 500.7560 500.8740 501.2730 501.4047
   502.1078 503.5150 503.5564 504.4243 504.4404 504.4893 504.8032 504.9256
   505.3748 505.4010 506.0245 506.1692 506.4796 506.7618 507.0081 507.1296
   507.5219 507.9173 507.9447 508.0002 508.5870 508.6947 508.9192 510.3627
   510.6184 510.9031 511.2951 511.6259 512.3459 512.3872 512.8381 513.1812
   514.0841 514.8237 514.9105 515.1916 515.4656 515.4848 516.0173 517.1941
   517.8819 518.1916 518.4852 518.5314 519.4673 519.7817 519.7871 520.2007
   520.5266 521.0510 521.2165 521.8065 522.3196 522.9123 523.1556 523.4829
   523.4935 524.2149 525.2896 525.4091 525.6658 526.5159 526.6006 526.6524
   527.3800 527.5380 527.6781 527.8298 529.2804 529.5398 530.3016 530.8524
   530.9027 531.1917 531.3156 531.5868 531.6025 532.0477 532.0832 532.9856
   533.6613 533.8751 533.8869 534.2333 534.3666 534.4625 535.1810 535.7302
   538.2080 539.4437 539.5062 540.0675 540.7506 540.8555 542.6203 542.9144
   543.2539 543.3181 543.3288 543.6546 544.3088 544.4079 544.4245 544.4920
   545.9361 546.2409 546.6394 546.9279 546.9635 546.9835 547.5623 547.6407
   549.0252 549.0930 549.8158 550.0092 550.5817 551.6243 552.0778 552.3074
   552.3839 552.5210 552.8476 552.9448 553.7850 553.8039 553.8076 553.9089
   555.0559 555.1156 555.4423 555.5924 557.9040 558.1800 558.3566 558.9236
   559.6526 560.2507 560.6005 560.8486 560.8627 560.9198 562.5314 563.5386
   563.7658 565.1921 565.6033 565.7121 566.3230 567.2416 567.2902 568.1959
   569.1061 569.9468 569.9511 570.3043 570.3271 571.4558 572.3333 572.4760
   572.7233 574.4084 574.4483 574.7375 574.8277 574.8785 575.3782 576.6159
   577.1776 577.2329 578.6238 579.4221 579.5883 580.0203 580.0622 580.4741
   580.9553 581.0776 581.1511 581.2575 581.3942 581.5318 582.1892 582.3623
   583.9277 584.2294 584.8862 585.4012 585.5660 585.7378 586.0736 586.4890
   586.5431 586.6226 587.0593 587.7815 587.9262 588.7098 589.7437 589.9940
   590.8101 591.6806 592.5037 593.0041 593.2674 593.2932 593.8092 594.1951
   594.3358 594.5919 594.6725 594.8336 595.0437 595.3060 596.0157 596.3451
   598.3646 598.9547 598.9703 599.8931 600.2315 601.6506 601.7570 602.3285
   603.0648 603.2995 603.5543 603.7642 604.0034 604.4180 604.8234 606.1849
   606.3616 606.9877 607.2337 608.2417 609.3048 609.3118 610.7239 610.8480
   611.6489 612.0065 612.2478 613.3108 613.9741 614.7326 614.7428 615.8823
   615.9972 616.2553 616.4368 616.8568 618.6366 619.2986 619.3750 619.9650
   619.9881 620.2667 620.2859 620.3632 620.6215 620.8112 620.8217 621.7199
   621.8479 622.1645 622.5760 622.6067 622.7992 623.1502 623.5217 623.9391
   624.8514 626.4860 626.5644 627.8936 628.1018 628.1463 628.2459 628.9795
   629.0078 630.0863 630.9424 630.9991 632.1996 632.5488 632.6202 632.7632

          k =-0.2500 0.5000-0.2500 (  2445 PWs)   bands (ev):

   -29.8139 -11.4877 -10.7503 -10.7467  -6.8497   5.7472   6.8070   7.0024
    13.6742  15.3119  15.9397  15.9544  17.0574  17.9749  23.0704  25.8470
    25.8579  29.7886  31.6370  32.9810  33.9785  35.4467  36.0446  38.8880
    41.2186  43.7581  44.5819  45.2754  49.4169  49.5955  50.7702  53.4204
    53.5420  55.0745  56.7908  57.4588  59.4027  60.1542  60.5164  62.5963
    63.4853  64.5314  65.6185  66.7492  69.0674  70.1252  70.2637  72.4170
    72.8299  74.3089  76.1325  77.0086  77.9162  78.0648  80.5673  80.7036
    82.1381  83.9830  85.1298  87.4648  87.4801  88.6428  90.0088  91.0922
    91.5118  92.3155  94.4350  94.8797  95.6501  96.4452  97.2770  98.9533
   100.5500 100.6421 101.8754 102.4194 103.2385 105.8760 105.9831 107.1464
   108.5336 110.4074 111.2690 112.1602 112.6480 114.0750 114.9774 116.8657
   117.3559 118.0011 119.5813 121.0678 121.6650 122.0324 124.3687 124.5940
   124.6452 125.4128 126.2997 127.1878 127.9823 128.8103 130.0053 130.9164
   131.0588 132.6754 133.1797 134.7316 135.4572 135.5995 135.9536 136.4887
   138.0618 138.6649 139.7029 140.0472 141.5218 143.3546 143.4913 144.0388
   146.3378 146.6950 147.7532 148.0180 148.4274 149.2278 149.8740 149.9646
   150.7518 152.2664 152.9423 153.4124 154.2021 154.6915 154.7915 155.8532
   156.4420 157.2350 157.5424 158.0793 159.0308 159.8247 161.7199 161.8544
   162.0668 163.8196 164.2769 166.3828 168.1568 168.4668 169.2336 170.2140
   170.7432 172.2529 174.2895 174.9785 175.7850 176.3839 177.3133 179.4723
   180.0370 181.0551 181.8189 182.5169 183.6877 184.9066 185.0788 186.1777
   186.3334 187.5302 187.9587 188.3485 188.6181 189.4753 190.5344 190.9429
   191.7974 192.6425 192.9708 193.3282 193.6783 194.0831 194.1676 195.8931
   196.6124 197.0147 197.4444 198.0890 200.2703 200.7495 201.8610 202.5509
   203.2871 204.5446 204.7658 205.3702 205.9587 207.3418 207.7534 208.2011
   208.5617 209.0587 209.7156 211.2682 212.0062 212.3877 212.9898 213.1097
   213.6775 214.4825 215.6236 216.9176 218.3114 218.8380 219.5370 219.8493
   220.4325 220.7175 222.2722 222.9670 223.2503 224.3186 224.9514 225.2241
   225.3392 226.2368 226.6823 226.8726 227.5016 229.0457 229.1108 229.6250
   230.3569 231.3973 232.7585 232.9294 233.8230 234.2882 234.8854 236.2828
   236.3466 236.5905 236.7959 238.1984 239.5935 240.0292 240.7578 241.3578
   241.5798 242.4300 243.6755 244.4412 244.6825 244.9364 245.1915 245.2652
   245.3401 246.2271 246.4225 248.9408 249.0855 249.8806 250.1153 250.3650
   250.8031 251.0240 251.8941 253.4459 254.2995 254.3385 255.4214 256.6190
   256.9768 257.7533 258.7526 259.6804 259.7350 260.6191 261.2505 262.0867
   262.1597 263.1515 263.2991 263.4649 263.9195 264.1564 265.6782 265.7967
   266.6642 267.2224 267.8204 268.9074 269.1379 269.8038 270.2322 270.9180
   271.4881 272.6722 274.4742 274.7338 275.8317 277.0083 278.0506 278.1433
   279.6326 279.7426 281.3478 281.6924 282.2416 282.5933 282.6366 283.0537
   283.9586 284.1016 285.1914 285.2544 285.6017 285.6593 285.7147 285.7398
   287.2406 287.3572 288.4707 288.6453 289.1507 289.4402 289.7166 290.3320
   290.3461 293.2294 293.5663 295.8699 297.2667 298.1600 298.2365 299.0306
   299.8496 300.0085 302.3748 302.5000 302.9600 303.1793 303.5028 304.2012
   304.6377 305.2222 306.3082 306.6010 308.0616 308.0800 308.5340 308.8939
   309.0445 309.7167 309.8954 310.2884 310.4139 311.2472 312.3213 313.2705
   313.4730 314.7668 315.6786 316.0234 316.5418 317.9080 318.0108 318.2306
   318.6614 319.0327 319.1023 319.2833 320.1484 321.3622 321.7111 322.0467
   322.4306 323.2305 323.9482 324.5212 325.1419 325.1633 325.5166 327.1069
   327.7392 327.7482 328.8545 329.2647 329.3216 329.9913 330.3748 330.3995
   331.2259 331.5003 332.8658 333.6520 334.2331 334.5676 335.6211 336.0132
   336.1789 336.3106 338.1775 338.3291 338.5888 339.1388 339.4100 339.7508
   340.2652 340.4815 340.7334 341.2801 343.3106 343.3327 343.9906 344.1197
   344.2536 344.6405 344.6850 346.2416 347.8779 348.0304 348.7309 349.0450
   349.2123 350.0336 350.7284 351.0315 352.8919 352.8932 353.2248 353.4909
   353.7397 354.8737 355.8860 356.0769 356.4211 356.6591 357.2895 358.0873
   358.7627 359.1642 359.3735 360.6137 361.2696 362.1721 362.5471 363.0000
   363.0808 363.2126 363.6137 364.0491 365.2540 365.3167 365.7479 366.4773
   367.0947 367.7819 368.2079 368.6621 369.6207 369.9678 370.5565 372.3513
   372.6743 374.1488 374.3182 374.5306 375.2753 375.3330 375.8191 375.9063
   376.1008 376.2725 377.0866 377.4381 378.2454 378.5985 379.2543 380.2078
   380.2227 381.1455 381.1834 381.4289 381.6785 382.2144 383.1242 383.5587
   383.7730 383.9591 383.9677 384.1478 384.2863 384.4493 384.6215 385.4152
   385.4840 385.8743 386.3507 387.0377 387.7483 389.5490 389.7665 390.2739
   390.7900 392.2535 393.6047 393.7990 393.9759 395.4866 395.7015 397.7194
   398.6048 398.7714 399.3580 399.7722 400.0069 400.8152 400.9730 401.1090
   401.9206 402.0465 402.4035 403.4332 403.5243 403.8852 405.0654 405.5156
   405.8712 405.9975 406.7441 406.7954 407.3019 408.1574 408.1965 408.4027
   408.4704 408.5603 411.0379 412.6843 413.0130 413.6261 414.2115 414.2687
   414.7674 415.1311 415.3892 416.6406 417.5634 418.0316 418.8457 418.8565
   419.1209 419.5749 420.0957 420.1613 420.5621 420.6858 421.3309 421.5853
   421.8348 422.0122 422.1426 422.7246 423.0104 423.7070 423.7209 424.4841
   424.6055 425.0487 425.5231 425.7994 426.1806 426.6991 427.4937 427.9641
   428.6700 428.7423 429.2309 429.2799 429.5275 429.5318 431.2671 431.3141
   431.6040 433.9084 433.9920 435.3369 435.4224 435.4786 435.5569 438.3149
   438.4604 438.6738 439.6778 440.0189 440.3378 440.4024 441.1967 441.3693
   441.6150 442.0068 443.1595 444.0630 444.2510 444.5125 445.8679 446.2721
   446.9694 447.1555 449.3590 449.4882 450.8160 451.3046 451.4707 451.6861
   451.7715 452.1313 452.4811 453.7646 454.5808 455.6750 456.7316 457.8101
   457.8181 459.0044 459.8728 460.1472 460.4217 460.4679 460.7905 461.2386
   461.7102 461.8379 462.7047 463.5610 464.6174 464.9489 465.5619 465.6525
   466.0466 466.5367 467.1937 467.6911 468.5481 468.7210 469.1810 469.2266
[...]
   121.8285 122.5242 122.6629 124.7630 124.8128 125.1556 126.4128 129.0335
   129.3716 129.9956 130.7808 130.8328 132.3166 136.9335 137.3684 137.8115
   139.8461 140.6857 140.8116 141.0558 143.4312 144.8102 144.8248 147.4561
   147.7320 148.1792 149.7339 150.5211 151.1700 151.4813 152.0252 152.7369
   153.7055 154.5332 155.5133 156.4401 156.8814 158.4238 159.0187 160.3125
   160.3397 161.5937 162.8543 164.7273 166.8674 167.1945 167.3971 167.5258
   168.4309 168.5257 168.7613 169.1368 169.6783 171.0439 171.4715 171.5536
   172.9005 173.2804 174.2078 175.0971 175.7510 176.2633 178.4567 178.5889
   178.6161 178.7363 178.9779 179.0567 179.5721 180.3948 181.1178 182.1364
   182.1587 183.9088 184.3677 184.6249 184.6534 187.1436 187.4979 187.5481
   188.4359 190.1670 190.9175 191.7398 192.6815 194.2886 194.4583 195.3288
   195.4957 195.8463 195.9170 197.0278 197.3250 197.4461 199.1827 199.4892
   200.0643 200.9131 201.2504 201.5007 201.8490 202.9911 203.1366 203.8219
   204.6384 206.0114 206.3142 206.9726 207.5654 208.0208 210.8714 211.2158
   211.3290 213.8882 214.0888 214.1872 214.4444 215.2469 216.9225 218.5627
   219.6336 220.3417 221.3499 222.0264 222.5689 223.2408 224.6480 225.8869
   226.6643 226.6749 226.8593 227.0762 227.1102 230.3220 230.9804 231.2610
   231.9472 232.7267 232.7918 233.6672 234.0661 234.4929 235.7698 236.5220
   237.6840 239.0676 240.5411 241.6090 242.1878 242.6082 243.1940 243.6406
   243.8502 244.1097 247.1197 247.5410 248.3830 248.7867 249.4300 249.4757
   249.6106 250.7481 251.0048 251.1551 251.4920 251.9927 252.6882 253.1648
   253.6640 254.3919 254.4146 256.5012 256.5121 257.3840 257.4905 258.4310
   258.9543 259.2267 259.3367 259.4432 260.0532 260.4397 261.5517 261.9319
   263.0372 263.1907 264.1323 266.1993 266.9742 269.7332 269.9977 270.6914
   270.9751 270.9957 272.6089 272.7034 273.2989 273.3749 273.7205 274.1164
   274.2361 274.3608 274.7517 274.9468 276.0076 276.4753 277.2564 277.2942
   277.5268 278.8077 280.8316 280.8552 282.1381 282.8260 283.1793 283.4735
   284.7125 285.2055 285.3789 285.6641 286.0883 286.3096 287.0085 287.6474
   288.3636 288.6438 288.8209 289.9880 290.6254 291.0629 291.3077 291.6598
   293.2178 293.4425 293.7663 294.5401 294.7288 295.0272 295.9493 296.1051
   298.8655 298.9163 298.9618 299.8366 300.3658 301.1779 301.2256 301.2382
   301.6798 301.8101 302.0067 302.1169 302.3435 302.4792 303.7212 303.9334
   305.2955 305.3546 306.6441 306.8209 307.0037 307.0233 307.6646 309.4838
   309.5134 309.8368 311.4262 311.5350 311.5395 311.8645 312.1567 313.1288
   317.8606 318.0800 318.5673 319.3758 320.4798 320.5117 320.8633 322.7774
   323.0504 323.4223 323.8075 324.7159 325.0466 325.9603 326.2434 326.4207
   326.8164 328.2957 328.4888 329.3588 329.7885 330.0624 330.0953 330.2867
   331.2913 331.8636 331.8764 332.9593 332.9603 333.1507 333.2145 333.5095
   334.3945 335.3674 335.6695 336.4302 336.6820 336.8101 337.3758 337.4681
   337.6090 337.8754 338.0904 338.1344 338.7588 339.5441 339.8417 340.1249
   341.6408 343.4615 344.1473 346.0555 346.5113 346.8627 347.9125 348.3504
   348.6329 349.8535 350.0783 351.6213 351.6978 352.2230 352.2557 353.1963
   355.0702 355.3201 355.4899 355.7478 356.2259 356.2648 356.4322 356.5974
   359.3615 359.9021 360.4403 360.5701 360.6109 360.7862 361.5817 361.9291
   361.9866 362.5615 363.4657 364.1321 364.1830 365.4103 365.8405 367.4947
   368.0247 369.4473 369.7662 370.0708 371.4937 371.6613 372.2027 372.3555
   373.1345 373.5083 374.0346 374.7403 374.9102 376.1705 376.6059 376.7033
   377.1061 377.2162 377.4455 377.7930 378.4252 379.1711 379.2391 379.4949
   380.2525 380.3946 381.9608 382.4661 384.7094 385.9659 386.1626 386.4427
   386.4553 387.5815 387.6164 388.5201 388.6082 389.9727 391.0566 391.9862
   392.0957 393.6307 394.1480 394.7399 395.6059 396.2933 396.6652 397.0585
   398.4473 398.5803 400.0115 401.0145 401.6401 402.1355 402.4227 403.1880
   403.4358 403.4460 403.6852 403.7331 404.2953 404.3607 404.7143 404.7552
   405.1587 405.9031 406.2038 406.2455 407.0252 407.5067 407.5165 407.6102
   408.2557 408.3750 408.8953 409.3621 409.8597 410.6275 410.8363 411.3504
   411.6432 411.9108 412.0589 412.1832 412.4234 412.4567 412.5550 413.9887
   415.2740 415.4651 415.6185 418.1522 418.1566 418.7007 418.8236 418.9847
   419.0681 419.2384 421.2609 421.4280 421.5681 421.7240 421.8153 422.2480
   422.6928 422.8425 424.0635 424.1689 424.4032 424.5392 424.6308 425.1787
   425.9391 426.0044 427.9571 427.9915 429.2858 429.7708 429.9546 429.9935
   430.3222 430.5037 430.5556 430.5737 430.7792 432.0557 432.0672 433.1613
   433.1677 433.2075 433.4270 433.7324 435.9010 437.2473 437.4915 437.6545
   438.0580 438.1332 438.1931 438.2307 438.4942 438.6663 438.6824 438.9202
   439.6378 441.4664 441.6840 441.8230 441.8716 441.9655 442.1360 442.2991
   442.3038 442.3968 442.7342 442.9279 443.7752 443.9678 445.3148 447.8113
   447.9347 449.2990 449.5359 449.6612 450.1512 451.7646 452.1219 452.1980
   453.2589 453.8497 453.9958 454.2404 454.6679 454.7333 454.8785 454.9430
   456.5982 457.8946 458.0757 458.2630 458.3523 458.3654 458.7408 458.9758
   459.1290 459.8834 460.0647 462.0238 464.1290 464.3265 465.6151 466.2450
   466.2935 466.5861 466.7721 467.3630 467.4466 467.7353 467.9216 467.9398
   468.2964 468.4729 468.6877 468.7287 469.4453 469.4791 470.0671 470.0810
   470.2850 472.0307 473.0091 473.0225 474.2864 474.3403 474.5210 474.7204
   474.8991 475.3980 478.7805 478.8006 478.8659 479.5426 479.5895 479.9100
   481.2140 481.5196 481.9986 482.0964 482.1463 483.2222 483.2228 483.2813
   484.1572 484.1718 484.2440 484.4405 486.0201 486.1442 487.2588 487.2632
   487.3503 487.3892 487.4458 488.7463 489.6511 489.8801 490.5727 490.5758
   490.7356 490.9609 491.4989 491.5052 492.3936 493.5134 493.8100 494.4888
   494.7790 497.5039 497.5354 498.6591 499.2830 499.8029 499.8984 500.0185
   500.4409 500.6187 501.4110 501.6720 501.7264 502.1951 503.0195 503.1109
   503.3743 503.4788 505.1628 505.1690 505.2901 507.0357 507.2415 507.2468
   507.6790 508.8690 508.9239 509.7622 511.4306 514.0323 514.0932 514.1000
   514.3394 515.2502 515.6227 515.8761 515.9190 516.0175 518.2322 518.5261
   518.5798 518.7046 518.7478 518.8622 518.9066 519.4623 519.7253 520.8400
   522.4806 522.6914 522.8692 523.0304 523.3748 523.5258 526.0102 526.3034
   526.3963 526.4058 526.5093 527.8652 528.8147 529.6701 530.1897 530.2109
   533.0437 533.1249 533.3158 534.3716 534.6163 534.7370 535.3548 535.3830
   535.7242 536.4631 536.5718 537.1546 537.4820 538.2884 538.5315 539.0492
   539.3412 539.5452 539.5644 539.6541 540.3270 540.8460 542.3402 542.3429
   542.6215 543.0693 543.6160 543.6291 543.8948 544.1746 544.3391 544.6555
   544.8390 545.4346 545.7486 546.5286 546.8609 547.1728 547.2965 547.3040
   547.5777 548.0242 548.3289 548.5411 549.3073 549.6006 549.7210 549.9320
   549.9640 550.1195 551.9824 553.0534 553.1275 554.6169 554.6204 554.6661
   554.6765 554.9660 555.4959 556.6339 556.8750 557.1727 557.2097 558.6095
   559.0048 559.0403 559.4520 559.5652 559.9519 560.2068 560.2227 560.3054
   560.4881 560.5208 560.7440 560.8011 560.8079 561.6717 563.7277 564.1424
   564.2040 564.9242 565.1500 565.2464 566.3939 567.5350 567.6751 567.6997
   568.1093 568.8513 568.8917 568.9695 569.0035 569.0080 569.2429 569.2528
   569.4906 569.5479 569.8501 570.6639 571.2783 571.4304 571.6711 571.8282
   571.9081 572.9139 574.7092 574.7503 574.8664 574.9922 575.0898 575.1061
   575.2171 575.6300 577.3022 577.5546 577.9509 577.9737 578.7765 579.8112
   580.0171 580.3272 580.3907 581.0893 581.5739 581.6064 581.6212 581.6934
   581.6986 581.7316 583.7066 583.9294 584.2995 584.4250 585.6172 586.4705
   586.5835 586.7714 586.7786 587.0558 587.1080 587.1179 588.1043 588.5314
   588.7665 589.0587 590.8543 591.1978 592.7395 592.8987 593.4489 593.6999
   594.0524 594.1609 594.2182 594.2873 594.7599 595.4459 595.7414 595.9110
   596.1056 596.3637 596.5800 597.2298 598.0831 598.0853 598.1490 598.1738
   598.2051 598.3277 598.7851 599.5989 599.6818 599.8988 600.4304 600.4315
   601.9147 601.9497 603.5494 603.9331 604.4463 604.4837 604.8474 605.3171
   605.6993 606.1540 606.8967 607.0474 607.2190 607.2222 607.2546 607.3771
   607.8545 608.3475 608.4050 608.8811 609.0964 610.1370 611.6306 614.1175
   614.9695 615.5907 615.7641 615.8436 615.8523 615.9188 616.5722 617.3180
   617.3718 617.3980 617.4089 617.6304 618.7538 622.0490 623.4318 623.5003
   623.7465 623.9958 624.1710 624.3642 624.3699 624.6287 625.4436 626.3154
   626.3413 626.5071 626.5272 626.6118 626.7566 627.0287 628.4037 628.6654

          k =-0.5000-1.0000 0.0000 (  2468 PWs)   bands (ev):

   -29.7651 -11.0844 -11.0789 -11.0789  -7.0955   6.5012   6.7176   6.7176
    14.0865  14.0865  16.1437  17.2769  17.7209  21.6938  21.9098  21.9098
    24.8846  29.6197  29.6197  34.8860  36.7598  38.0088  39.4175  39.4175
    41.6251  43.1457  43.8802  43.8802  45.7897  46.1843  49.2867  49.2867
    51.2718  51.2718  54.5841  57.6386  57.7011  60.9568  62.8581  62.8581
    66.9800  66.9800  67.2729  67.8116  71.6676  71.8557  73.0788  73.0788
    74.2175  75.5165  77.6654  77.6654  78.5082  78.5082  79.6950  81.1626
    85.0088  85.3769  85.4592  85.4592  89.1693  89.1693  90.8802  91.7542
    93.0543  93.0543  93.6126  94.3308  95.7336  95.7336  96.8994  97.3271
   100.3847 100.3847 100.5618 103.5574 104.4839 107.4647 107.4647 107.8079
   109.4306 110.0328 110.0328 111.3780 111.4607 112.9498 112.9498 114.7531
   116.0256 116.8020 116.8020 118.5546 118.9910 118.9910 119.5470 119.8253
   120.2572 123.1104 123.1104 123.2598 124.9521 124.9521 125.0700 125.0747
   126.4895 128.5889 130.5274 133.1080 133.1080 134.9061 136.8860 136.8860
   139.2056 141.5601 141.8143 141.8143 145.3267 145.3267 146.7625 149.4598
   151.1150 151.1150 151.3728 151.4506 152.7538 152.7538 154.3781 154.4447
   155.4340 155.4340 156.1657 158.1472 158.1472 158.3245 159.0159 159.0159
   159.0793 160.3184 162.8082 163.1006 163.1573 163.1573 164.2273 164.2489
   166.0984 166.0984 167.3842 168.9097 170.4246 171.4475 171.4475 171.9575
   172.0426 172.2730 172.9383 172.9383 173.3974 173.7730 173.7730 175.1130
   178.5668 178.5668 180.5246 181.3942 181.4762 182.0857 182.3898 183.2085
   183.2085 185.3892 185.3892 186.6162 187.1241 187.6175 188.5271 188.5271
   189.0354 189.6087 190.6168 190.6168 192.6620 195.0205 196.0192 196.0192
   196.5499 196.6473 197.2287 197.2663 197.2663 197.9104 197.9104 199.0522
   199.9713 200.0822 200.2506 200.2506 200.6956 201.4408 201.4408 201.5469
   206.2090 206.8881 206.8881 209.5009 209.9477 211.1854 211.1854 211.3621
   212.8699 212.8966 212.8966 212.9325 218.3533 218.3533 218.7697 221.1036
   221.1284 221.1284 222.6101 224.3917 224.5038 224.5038 224.5854 224.9358
   224.9358 226.5313 227.8478 228.2361 228.2361 228.3772 228.8081 228.8408
   230.6771 232.8317 232.8317 234.9237 234.9237 235.2465 235.9999 237.1178
   237.7392 237.7392 237.9850 239.1840 240.2978 240.2978 240.5763 240.6364
   241.3694 241.3694 241.4682 241.5730 244.3790 245.8980 246.2285 246.2327
   246.2327 246.3767 248.4657 248.4657 249.4371 249.9669 254.2308 254.2308
   254.8224 255.2935 256.1543 256.1543 256.8701 256.8701 258.8456 258.8456
   259.7613 260.2472 260.4618 262.6210 262.9063 262.9063 263.1680 263.8612
   264.8897 265.8087 267.3503 267.3503 268.5710 271.0099 272.3081 272.3081
   274.6088 275.0398 275.3966 275.3966 275.9080 276.0154 276.2500 276.2500
   276.6127 276.7888 277.2335 277.2335 277.4136 278.0345 278.2208 278.2208
   279.5294 279.7958 280.0112 280.0112 280.6445 281.3614 281.3614 283.4888
   284.0413 284.0413 285.2066 286.2531 286.6202 286.6202 286.8918 287.8764
   288.6722 288.6722 288.7732 288.7732 288.9243 288.9485 289.0910 290.2901
   292.4726 292.4726 292.5470 294.3034 294.9850 296.8789 296.8789 298.0406
   298.8710 299.6072 299.6072 301.0631 301.2486 301.3863 301.3863 301.5401
   301.5401 301.9712 303.0986 303.6417 303.8310 303.8310 303.9311 303.9933
   305.9064 305.9064 306.0760 306.2452 306.2656 306.2656 306.7136 306.7136
   306.9815 307.0125 307.0165 308.8505 310.5426 310.5426 311.0400 312.7500
   314.4760 314.4760 314.7751 315.1344 315.5812 315.5958 315.5958 317.1697
   320.4421 320.4421 320.4972 320.5729 324.3771 325.0638 325.0638 325.6694
   325.6694 325.7295 325.7942 326.2666 327.0009 327.5257 327.5257 327.6152
   328.3130 328.3130 328.4155 329.9751 333.3824 333.3824 334.5087 334.9640
   337.5741 338.8295 338.8295 338.8847 338.9032 338.9435 338.9435 339.8232
   339.8733 339.8733 340.9872 342.8192 343.4278 346.6951 346.6951 349.1379
   350.6155 351.1435 351.1435 352.3460 352.3754 352.4173 352.4173 352.7249
   352.9045 353.1138 353.1138 353.1188 353.3652 353.8518 353.8518 354.8913
   355.1364 355.1364 355.2211 355.4835 355.6510 355.6623 355.6623 355.7569
   355.7979 355.8081 355.8081 356.1136 357.3157 357.8338 359.3464 359.3464
   360.8898 363.6202 365.5245 365.9356 365.9356 367.1113 367.4407 367.4407
   367.4733 367.9247 370.7065 370.7809 370.7809 371.0051 371.0051 371.2013
   373.4965 374.2508 374.2508 375.9296 376.6012 376.6012 377.6262 378.0002
   379.0156 379.0156 380.0554 380.3126 380.3268 380.3268 380.3909 380.5383
   380.5532 380.5532 380.5940 381.8826 382.7990 384.9678 385.0189 385.0189
   385.4397 385.4778 386.5280 386.5280 387.6466 387.6466 387.7548 387.7548
   387.8452 389.0545 390.2842 391.0634 391.1126 391.1126 391.1420 392.1730
   392.5306 392.5306 392.6526 393.2175 393.2175 393.3512 393.7052 396.2166
   397.4334 397.4334 398.0516 398.0561 401.7667 401.7667 404.4207 405.3024
   405.8044 406.2330 406.2330 406.9383 406.9766 407.7926 408.2230 408.2230
   412.7614 414.1171 414.1171 415.1080 415.3524 415.4260 415.4260 415.4522
   416.9598 417.3256 417.3256 417.5297 417.5297 417.8143 417.9445 418.4904
   418.5358 418.6422 418.6422 419.5940 419.6920 420.2437 420.2437 420.2823
   420.4199 420.4199 420.7163 421.6567 422.2447 422.2447 422.6467 422.8354
   422.8354 422.8974 423.7752 424.1014 424.9123 426.5636 426.5636 429.4366
   429.6685 429.7764 429.7764 431.0863 431.3998 431.3998 431.4688 431.6682
   431.6860 432.0785 432.0785 432.1975 432.1975 432.4382 432.5410 432.8853
   432.9098 432.9399 432.9399 433.1664 434.1920 434.1920 434.5595 434.6253
   434.6569 434.6569 434.7180 436.2869 436.3986 436.3986 436.5123 437.0757
   437.2223 437.2777 437.2777 437.3113 441.1283 442.6140 442.6140 443.8160
   444.3905 444.6384 444.6384 445.4950 445.4950 445.5549 445.6440 447.0306
   450.6140 450.6140 451.9218 452.5522 453.0232 455.0284 455.0284 456.0472
   456.4123 456.5441 456.5441 456.6578 456.8628 456.8628 457.1516 457.8890
   457.9902 457.9902 458.1648 458.2360 458.3973 458.8882 458.8887 458.8887
   458.9037 459.0285 459.0285 459.6378 459.7560 462.0596 462.2963 462.2963
   462.3476 462.6029 465.1498 465.1558 465.1558 466.8465 467.0979 467.0979
   468.8253 468.8382 468.9890 469.5547 469.5547 470.9993 471.0250 471.1289
   471.2003 471.2003 471.5830 471.5830 471.8257 472.0615 472.1577 472.1577
   472.2289 472.2571 472.3941 472.3941 472.6879 474.5784 475.0450 475.0450
   476.0849 476.0849 476.1626 476.1829 482.2730 482.2730 482.8039 484.6692
   484.7166 484.7166 484.8421 484.8606 485.5130 485.5639 485.6050 485.6050
   485.8683 485.8683 485.8701 485.8971 489.8893 491.1418 491.1418 492.5297
   492.5297 492.7911 493.0020 493.8985 495.6136 495.6136 496.5939 496.7794
   497.2373 497.2556 497.2556 498.3268 500.6099 500.6099 501.7381 501.7381
   502.1247 502.1300 502.1429 502.2995 502.3138 502.3138 502.3310 502.3436
   504.0301 504.0301 504.4766 509.7702 509.7702 509.9529 510.0924 510.3310
   510.5535 510.5535 510.6830 511.2352 514.3480 514.3480 514.5774 514.6297
   514.6873 514.6873 514.8971 516.2565 517.0387 519.8741 519.8741 520.7250
   520.7250 521.5113 521.6592 521.7864 521.9767 521.9767 522.0470 522.3087
   522.3988 522.3988 522.4890 523.1928 523.1928 523.2455 523.4394 523.7111
   523.7315 523.8519 523.8519 526.2590 533.7710 533.7710 534.0808 535.3990
   535.3990 535.5985 535.6715 535.7224 535.7357 535.9605 535.9605 536.4426
   536.5202 536.5202 536.7299 537.0682 537.0682 537.1486 537.1648 537.6150
   541.1863 541.1863 542.4388 543.3374 543.5751 543.9313 544.0429 544.0429
   544.2220 544.2220 544.8705 546.8802 547.1277 547.1708 547.1708 547.7993
   548.0168 548.0765 548.0765 548.1728 548.3780 548.3867 548.3867 548.4005
   548.4131 548.9772 549.1101 549.1101 549.1607 549.4396 549.4396 549.7697
   549.7790 549.8653 549.8653 550.1717 550.1717 550.1989 550.2512 550.4909
   550.5234 550.5234 550.5916 550.6610 550.7152 550.7152 550.7963 550.7988
   551.1964 551.1964 551.3530 554.1083 554.1436 554.1498 554.1498 554.1768
   560.5990 560.8351 560.8351 561.3543 561.3543 561.3752 561.6793 561.8691
   562.1353 562.1353 562.2010 562.7930 562.8111 562.8111 562.9305 563.5889
   563.7162 563.8214 563.8214 563.8879 564.0396 564.0396 564.0898 564.5132
   564.6330 564.6378 564.6378 564.8627 568.4326 570.2897 570.2897 570.4678
   570.8043 570.8043 571.7244 573.5075 574.4182 574.5340 574.7777 574.7777
   575.3416 578.3964 580.2255 580.2255 580.3224 580.3295 583.3083 583.3083
   583.5865 585.5078 585.6193 585.6193 586.3011 586.7342 586.7726 586.7726
   586.8254 587.5829 587.5829 587.6735 587.7707 587.8600 588.1691 588.2256
   588.2256 588.8042 589.0271 589.0271 589.1056 589.1400 589.1400 589.1491
   589.2067 589.9047 590.8078 590.8111 590.8111 590.8249 590.8249 590.8276
   590.9611 591.3255 592.1739 592.1739 593.3304 593.8778 593.8778 595.7436
   598.3722 598.3722 598.9278 600.6140 601.0516 601.0516 601.0911 601.1993
   601.2230 601.2230 601.2640 601.7400 605.4020 605.4020 605.4327 605.4377
   607.8433 608.6404 608.6404 609.2160 609.2160 609.5895 609.6296 610.9271
   611.8320 611.8320 612.6328 613.2603 613.2755 613.3027 613.3027 614.3221
   614.3221 614.3725 614.3986 614.4989 614.5395 614.5428 614.5428 615.0733
   615.0970 615.1401 615.1401 615.2164 615.2169 615.2255 615.2255 616.2632
   618.6984 618.6984 619.2616 619.2705 619.6223 619.6223 619.6719 619.6739
   622.0607 622.0607 623.9258 624.2065 624.5415 624.7191 624.7191 624.7357
   624.7535 625.3504 625.3504 626.2854 626.2854 626.3590 626.3935 626.4300

     the Fermi energy is     9.2779 ev
     (compare with:     9.2779 eV, computed in scf)

     Writing all to output data dir out/mp-2605.save/
 
     init_run     :      0.03s CPU      0.07s WALL (       1 calls)
     electrons    :    292.02s CPU    313.92s WALL (       1 calls)

     Called by init_run:
     wfcinit      :      0.00s CPU      0.00s WALL (       1 calls)
     potinit      :      0.01s CPU      0.01s WALL (       1 calls)
     hinit0       :      0.01s CPU      0.04s WALL (       1 calls)

     Called by electrons:
     c_bands      :    292.02s CPU    313.91s WALL (       1 calls)
     v_of_rho     :      0.01s CPU      0.01s WALL (       1 calls)

     Called by c_bands:
     init_us_2    :      0.00s CPU      0.00s WALL (      29 calls)
     init_us_2:cp :      0.00s CPU      0.00s WALL (      29 calls)
     cegterg      :    282.03s CPU    303.17s WALL (      29 calls)

     Called by *egterg:
     cdiaghg      :    255.77s CPU    275.21s WALL (     245 calls)
     h_psi        :     13.28s CPU     13.76s WALL (     274 calls)
     g_psi        :      0.03s CPU      0.03s WALL (     216 calls)

     Called by h_psi:
     h_psi:calbec :      0.16s CPU      0.17s WALL (     274 calls)
     vloc_psi     :     13.00s CPU     13.45s WALL (     274 calls)
     add_vuspsi   :      0.08s CPU      0.08s WALL (     274 calls)

     General routines
     calbec       :      0.16s CPU      0.17s WALL (     274 calls)
     fft          :      0.00s CPU      0.03s WALL (      10 calls)
     fftw         :     12.23s CPU     12.65s WALL (  327346 calls)
 
     Parallel routines
 
     PWSCF        :   4m54.73s CPU   5m17.47s WALL

 
   This run was terminated on:  14:24:28   5Apr2024            

=------------------------------------------------------------------------------=
   JOB DONE.
=------------------------------------------------------------------------------=
